<LesHouchesEvents version="3.0">
<header>
<!--
#*********************************************************************
#                                                                    *
#                        MadGraph5_aMC@NLO                           *
#                                                                    *
#                           Going Beyond                             *
#                                                                    *
#                   http://madgraph.hep.uiuc.edu                     *
#                   http://madgraph.phys.ucl.ac.be                   *
#                   http://amcatnlo.cern.ch                          *
#                                                                    *
#                     The MadGraph5_aMC@NLO team                     *
#                                                                    *
#....................................................................*
#                                                                    *
# This file contains all the information necessary to reproduce      *
# the events generated:                                              *
#                                                                    *
# 1. software version                                                *
# 2. proc_card          : code generation info including model       *
# 3. param_card         : model primary parameters in the LH format  *
# 4. run_card           : running parameters (collider and cuts)     *
# 5. pythia_card        : present only if pythia has been run        *
# 6. pgs_card           : present only if pgs has been run           *
# 7. delphes_cards      : present only if delphes has been run       *
#                                                                    *
#                                                                    *
#*********************************************************************
-->
<MGVersion>
#5.2.2.3
</MGVersion>
<MG5ProcCard>
#************************************************************
#*                     MadGraph5_aMC@NLO                    *
#*                                                          *
#*                *                       *                 *
#*                  *        * *        *                   *
#*                    * * * * 5 * * * *                     *
#*                  *        * *        *                   *
#*                *                       *                 *
#*                                                          *
#*                                                          *
#*         VERSION 2.2.3                 2015-02-10         *
#*                                                          *
#*    The MadGraph5_aMC@NLO Development Team - Find us at   *
#*    https://server06.fynu.ucl.ac.be/projects/madgraph     *
#*                                                          *
#************************************************************
#*                                                          *
#*               Command File for MadGraph5_aMC@NLO         *
#*                                                          *
#*     run as ./bin/mg5_aMC  filename                       *
#*                                                          *
#************************************************************
set group_subprocesses Auto
set ignore_six_quark_processes False
set loop_optimized_output True
set gauge unitary
set complex_mass_scheme False
import model sm
define p = g u c d s u~ c~ d~ s~
define j = g u c d s u~ c~ d~ s~
define l+ = e+ mu+
define l- = e- mu-
define vl = ve vm vt
define vl~ = ve~ vm~ vt~
import model Zprime_UFO
generate p p > zph, zph > j j
add process p p > zph, zph > b b~
output Dijet_signal
</MG5ProcCard>
<MGProcCard>
#*********************************************************************
#                        MadGraph/MadEvent                           *
#                   http://madgraph.hep.uiuc.edu                     *
#                                                                    *
#                          proc_card.dat                             *
#*********************************************************************
#                                                                    *
#            This Files is generated by MADGRAPH 5                   *
#                                                                    *
# WARNING: This Files is generated for MADEVENT (compatibility issue)*
#          This files is NOT a valid MG4 proc_card.dat               *
#          Running this in MG4 will NEVER reproduce the result of MG5*
#                                                                    *
#*********************************************************************
#*********************************************************************
# Process(es) requested : mg2 input                                  *
#*********************************************************************
# Begin PROCESS # This is TAG. Do not modify this line
p p > zph , zph > j j           #Process
# Be carefull the coupling are here in MG5 convention
          
end_coup           # End the couplings input

done               # this tells MG there are no more procs
# End PROCESS  # This is TAG. Do not modify this line
#*********************************************************************
# Model information                                                  *
#*********************************************************************
# Begin MODEL  # This is TAG. Do not modify this line
Zprime_UFO
# End   MODEL  # This is TAG. Do not modify this line
#*********************************************************************
# Start multiparticle definitions                                    *
#*********************************************************************
# Begin MULTIPARTICLES # This is TAG. Do not modify this line

# End  MULTIPARTICLES # This is TAG. Do not modify this line
</MGProcCard>
<MGRunCard>
#*********************************************************************
#                       MadGraph5_aMC@NLO                            *
#                                                                    *
#                     run_card.dat MadEvent                          *
#                                                                    *
#  This file is used to set the parameters of the run.               *
#                                                                    *
#  Some notation/conventions:                                        *
#                                                                    *
#   Lines starting with a '# ' are info or comments                  *
#                                                                    *
#   mind the format:   value    = variable     ! comment             *
#*********************************************************************
#
#*******************                                                 
# Running parameters
#*******************                                                 
#                                                                    
#*********************************************************************
# Tag name for the run (one word)                                    *
#*********************************************************************
  tag_1     = run_tag ! name of the run 
#*********************************************************************
# Run to generate the grid pack                                      *
#*********************************************************************
  .false.     = gridpack  !True = setting up the grid pack
#*********************************************************************
# Number of events and rnd seed                                      *
# Warning: Do not generate more than 1M events in a single run       *
# If you want to run Pythia, avoid more than 50k events in a run.    *
#*********************************************************************
  2000 = nevents ! Number of unweighted events requested 
 1101 = iseed   ! rnd seed (0=assigned automatically=default))
#*********************************************************************
# Collider type and energy                                           *
# lpp: 0=No PDF, 1=proton, -1=antiproton, 2=photon from proton,      *
#                                         3=photon from electron     *
#*********************************************************************
        1     = lpp1    ! beam 1 type 
        1     = lpp2    ! beam 2 type
     4000     = ebeam1  ! beam 1 total energy in GeV
     4000     = ebeam2  ! beam 2 total energy in GeV
#*********************************************************************
# Beam polarization from -100 (left-handed) to 100 (right-handed)    *
#*********************************************************************
        0     = polbeam1 ! beam polarization for beam 1
        0     = polbeam2 ! beam polarization for beam 2
#*********************************************************************
# PDF CHOICE: this automatically fixes also alpha_s and its evol.    *
#*********************************************************************
 'nn23lo1'    = pdlabel     ! PDF set                                     
 230000    = lhaid     ! if pdlabel=lhapdf, this is the lhapdf number
#*********************************************************************
# Renormalization and factorization scales                           *
#*********************************************************************
 F        = fixed_ren_scale  ! if .true. use fixed ren scale
 F        = fixed_fac_scale  ! if .true. use fixed fac scale
 91.1880  = scale            ! fixed ren scale
 91.1880  = dsqrt_q2fact1    ! fixed fact scale for pdf1
 91.1880  = dsqrt_q2fact2    ! fixed fact scale for pdf2
 1        = scalefact        ! scale factor for event-by-event scales
#*********************************************************************
# Matching - Warning! ickkw > 1 is still beta
#*********************************************************************
 0        = ickkw            ! 0 no matching, 1 MLM, 2 CKKW matching
 1        = highestmult      ! for ickkw=2, highest mult group
 1        = ktscheme         ! for ickkw=1, 1 Durham kT, 2 Pythia pTE
 1        = alpsfact         ! scale factor for QCD emission vx
 F        = chcluster        ! cluster only according to channel diag
 T        = pdfwgt           ! for ickkw=1, perform pdf reweighting
 5        = asrwgtflavor     ! highest quark flavor for a_s reweight
 T        = clusinfo         ! include clustering tag in output
 3.0      = lhe_version       ! Change the way clustering information pass to shower.        
#*********************************************************************
#**********************************************************
#
#**********************************************************
# Automatic ptj and mjj cuts if xqcut > 0
# (turn off for VBF and single top processes)
#**********************************************************
   T  = auto_ptj_mjj  ! Automatic setting of ptj and mjj
#**********************************************************
#                                                                    
#**********************************
# BW cutoff (M+/-bwcutoff*Gamma)
#**********************************
  15  = bwcutoff      ! (M+/-bwcutoff*Gamma)
#**********************************************************
# Apply pt/E/eta/dr/mij cuts on decay products or not
# (note that etmiss/ptll/ptheavy/ht/sorted cuts always apply)
#**********************************************************
   T  = cut_decays    ! Cut decay products 
#*************************************************************
# Number of helicities to sum per event (0 = all helicities)
# 0 gives more stable result, but longer run time (needed for
# long decay chains e.g.).
# Use >=2 if most helicities contribute, e.g. pure QCD.
#*************************************************************
   0  = nhel          ! Number of helicities used per event
#*******************                                                 
# Standard Cuts
#*******************                                                 
#                                                                    
#*********************************************************************
# Minimum and maximum pt's (for max, -1 means no cut)                *
#*********************************************************************
 20  = ptj       ! minimum pt for the jets 
  0  = ptb       ! minimum pt for the b 
 10  = pta       ! minimum pt for the photons 
 10  = ptl       ! minimum pt for the charged leptons 
  0  = misset    ! minimum missing Et (sum of neutrino's momenta)
  0  = ptheavy   ! minimum pt for one heavy final state
 1.0 = ptonium   ! minimum pt for the quarkonium states
 -1  = ptjmax    ! maximum pt for the jets
 -1  = ptbmax    ! maximum pt for the b
 -1  = ptamax    ! maximum pt for the photons
 -1  = ptlmax    ! maximum pt for the charged leptons
 -1  = missetmax ! maximum missing Et (sum of neutrino's momenta)
#*********************************************************************
# Minimum and maximum E's (in the center of mass frame)              *
#*********************************************************************
  0  = ej     ! minimum E for the jets 
  0  = eb     ! minimum E for the b 
  0  = ea     ! minimum E for the photons 
  0  = el     ! minimum E for the charged leptons 
 -1   = ejmax ! maximum E for the jets
 -1   = ebmax ! maximum E for the b
 -1   = eamax ! maximum E for the photons
 -1   = elmax ! maximum E for the charged leptons
#*********************************************************************
# Maximum and minimum absolute rapidity (for max, -1 means no cut)   *
#*********************************************************************
   5  = etaj    ! max rap for the jets 
  -1  = etab    ! max rap for the b
 2.5  = etaa    ! max rap for the photons 
 2.5  = etal    ! max rap for the charged leptons 
 0.6  = etaonium ! max rap for the quarkonium states
   0  = etajmin ! min rap for the jets
   0  = etabmin ! min rap for the b
   0  = etaamin ! min rap for the photons
   0  = etalmin ! main rap for the charged leptons
#*********************************************************************
# Minimum and maximum DeltaR distance                                *
#*********************************************************************
 0.4 = drjj    ! min distance between jets 
 0   = drbb    ! min distance between b's 
 0.4 = drll    ! min distance between leptons 
 0.4 = draa    ! min distance between gammas 
 0   = drbj    ! min distance between b and jet 
 0.4 = draj    ! min distance between gamma and jet 
 0.4 = drjl    ! min distance between jet and lepton 
 0   = drab    ! min distance between gamma and b 
 0   = drbl    ! min distance between b and lepton 
 0.4 = dral    ! min distance between gamma and lepton 
 -1  = drjjmax ! max distance between jets
 -1  = drbbmax ! max distance between b's
 -1  = drllmax ! max distance between leptons
 -1  = draamax ! max distance between gammas
 -1  = drbjmax ! max distance between b and jet
 -1  = drajmax ! max distance between gamma and jet
 -1  = drjlmax ! max distance between jet and lepton
 -1  = drabmax ! max distance between gamma and b
 -1  = drblmax ! max distance between b and lepton
 -1  = dralmax ! maxdistance between gamma and lepton
#*********************************************************************
# Minimum and maximum invariant mass for pairs                       *
# WARNING: for four lepton final state mmll cut require to have      *
#          different lepton masses for each flavor!                  *           
#*********************************************************************
 0   = mmjj    ! min invariant mass of a jet pair 
 0   = mmbb    ! min invariant mass of a b pair 
 0   = mmaa    ! min invariant mass of gamma gamma pair
 0   = mmll    ! min invariant mass of l+l- (same flavour) lepton pair
 -1  = mmjjmax ! max invariant mass of a jet pair
 -1  = mmbbmax ! max invariant mass of a b pair
 -1  = mmaamax ! max invariant mass of gamma gamma pair
 -1  = mmllmax ! max invariant mass of l+l- (same flavour) lepton pair
#*********************************************************************
# Minimum and maximum invariant mass for all letpons                 *
#*********************************************************************
 0   = mmnl    ! min invariant mass for all letpons (l+- and vl) 
 -1  = mmnlmax ! max invariant mass for all letpons (l+- and vl) 
#*********************************************************************
# Minimum and maximum pt for 4-momenta sum of leptons                *
#*********************************************************************
 0   = ptllmin  ! Minimum pt for 4-momenta sum of leptons(l and vl)
 -1  = ptllmax  ! Maximum pt for 4-momenta sum of leptons(l and vl)
#*********************************************************************
# Inclusive cuts                                                     *
#*********************************************************************
 0  = xptj ! minimum pt for at least one jet  
 0  = xptb ! minimum pt for at least one b 
 0  = xpta ! minimum pt for at least one photon 
 0  = xptl ! minimum pt for at least one charged lepton 
#*********************************************************************
# Control the pt's of the jets sorted by pt                          *
#*********************************************************************
 0   = ptj1min ! minimum pt for the leading jet in pt
 0   = ptj2min ! minimum pt for the second jet in pt
 0   = ptj3min ! minimum pt for the third jet in pt
 0   = ptj4min ! minimum pt for the fourth jet in pt
 -1  = ptj1max ! maximum pt for the leading jet in pt 
 -1  = ptj2max ! maximum pt for the second jet in pt
 -1  = ptj3max ! maximum pt for the third jet in pt
 -1  = ptj4max ! maximum pt for the fourth jet in pt
 0   = cutuse  ! reject event if fails any (0) / all (1) jet pt cuts
#*********************************************************************
# Control the pt's of leptons sorted by pt                           *
#*********************************************************************
 0   = ptl1min ! minimum pt for the leading lepton in pt
 0   = ptl2min ! minimum pt for the second lepton in pt
 0   = ptl3min ! minimum pt for the third lepton in pt
 0   = ptl4min ! minimum pt for the fourth lepton in pt
 -1  = ptl1max ! maximum pt for the leading lepton in pt 
 -1  = ptl2max ! maximum pt for the second lepton in pt
 -1  = ptl3max ! maximum pt for the third lepton in pt
 -1  = ptl4max ! maximum pt for the fourth lepton in pt
#*********************************************************************
# Control the Ht(k)=Sum of k leading jets                            *
#*********************************************************************
 0   = htjmin ! minimum jet HT=Sum(jet pt)
 -1  = htjmax ! maximum jet HT=Sum(jet pt)
 0   = ihtmin  !inclusive Ht for all partons (including b)
 -1  = ihtmax  !inclusive Ht for all partons (including b)
 0   = ht2min ! minimum Ht for the two leading jets
 0   = ht3min ! minimum Ht for the three leading jets
 0   = ht4min ! minimum Ht for the four leading jets
 -1  = ht2max ! maximum Ht for the two leading jets
 -1  = ht3max ! maximum Ht for the three leading jets
 -1  = ht4max ! maximum Ht for the four leading jets
#***********************************************************************
# Photon-isolation cuts, according to hep-ph/9801442                   *
# When ptgmin=0, all the other parameters are ignored                  *
# When ptgmin>0, pta and draj are not going to be used                 *
#***********************************************************************
   0 = ptgmin ! Min photon transverse momentum
 0.4 = R0gamma ! Radius of isolation code
 1.0 = xn ! n parameter of eq.(3.4) in hep-ph/9801442
 1.0 = epsgamma ! epsilon_gamma parameter of eq.(3.4) in hep-ph/9801442
 .true. = isoEM ! isolate photons from EM energy (photons and leptons)
#*********************************************************************
# WBF cuts                                                           *
#*********************************************************************
 0   = xetamin ! minimum rapidity for two jets in the WBF case  
 0   = deltaeta ! minimum rapidity for two jets in the WBF case 
#*********************************************************************
# KT DURHAM CUT                                                      *
#*********************************************************************
 -1    =  ktdurham        
 0.4  =  dparameter 
#*********************************************************************
# maximal pdg code for quark to be considered as a light jet         *
# (otherwise b cuts are applied)                                     *
#*********************************************************************
 4 = maxjetflavor    ! Maximum jet pdg code
#*********************************************************************
# Jet measure cuts                                                   *
#*********************************************************************
 0   = xqcut   ! minimum kt jet measure between partons
#*********************************************************************
#
#*********************************************************************
# Store info for systematics studies                                 *
# WARNING: If use_syst is T, matched Pythia output is                *
#          meaningful ONLY if plotted taking matchscale              *
#          reweighting into account!                                 *
#*********************************************************************
   F  = use_syst      ! Enable systematics studies
#
#**************************************
# Parameter of the systematics study
#  will be used by SysCalc (if installed)
#**************************************                                  
#
0.5 1 2 = sys_scalefact  # factorization/renormalization scale factor
0.5 1 2 = sys_alpsfact  # \alpha_s emission scale factors
30 50 = sys_matchscale # variation of merging scale
# PDF sets and number of members (0 or none for all members).
CT10nlo.LHgrid = sys_pdf # matching scales
# MSTW2008nlo68cl.LHgrid 1  = sys_pdf
</MGRunCard>
<slha>
######################################################################
## PARAM_CARD AUTOMATICALY GENERATED BY MG5 FOLLOWING UFO MODEL   ####
######################################################################
##                                                                  ##
##  Width set on Auto will be computed following the information    ##
##        present in the decay.py files of the model.               ##
##        See  arXiv:1402.1178 for more details.                    ##
##                                                                  ##
######################################################################

###################################
## INFORMATION FOR CKMBLOCK
###################################
Block ckmblock 
    1 2.277360e-01 # cabi 

###################################
## INFORMATION FOR FRBLOCK
###################################
Block frblock 
    1 4.000000e-01 # gz 

###################################
## INFORMATION FOR MASS
###################################
Block mass 
    1 5.040000e-03 # MD 
    2 2.550000e-03 # MU 
    3 1.010000e-01 # MS 
    4 1.270000e+00 # MC 
    5 4.700000e+00 # MB 
    6 1.720000e+02 # MT 
   11 5.110000e-04 # Me 
   13 1.056600e-01 # MM 
   15 1.777000e+00 # MTA 
   23 9.118760e+01 # MZ 
   25 1.200000e+02 # MH 
  10030 3.600000e+03 # MZph 
  10031 3.000000e+02 # MZpl 
## Dependent parameters, given by model restrictions.
## Those values should be edited following the 
## analytical expression. MG5 ignores those values 
## but they are important for interfacing the output of MG5
## to external program such as Pythia.
  12 0.000000 # ve : 0.0 
  14 0.000000 # vm : 0.0 
  16 0.000000 # vt : 0.0 
  21 0.000000 # g : 0.0 
  22 0.000000 # a : 0.0 
  24 79.824360 # w+ : cmath.sqrt(MZ__exp__2/2. + cmath.sqrt(MZ__exp__4/4. - (aEW*cmath.pi*MZ__exp__2)/(Gf*sqrt__2))) 

###################################
## INFORMATION FOR SMINPUTS
###################################
Block sminputs 
    1 1.279000e+02 # aEWM1 
    2 1.166370e-05 # Gf 
    3 1.184000e-01 # aS 

###################################
## INFORMATION FOR YUKAWA
###################################
Block yukawa 
    1 5.040000e-03 # ymdo 
    2 2.550000e-03 # ymup 
    3 1.010000e-01 # yms 
    4 1.270000e+00 # ymc 
    5 4.700000e+00 # ymb 
    6 1.720000e+02 # ymt 
   11 5.110000e-04 # yme 
   13 1.056600e-01 # ymm 
   15 1.777000e+00 # ymtau 

###################################
## INFORMATION FOR DECAY
###################################
DECAY   6 1.508336e+00 # WT 
DECAY  23 2.495200e+00 # WZ 
DECAY  24 2.085000e+00 # WW 
DECAY  25 5.753088e-03 # WH 
## Dependent parameters, given by model restrictions.
## Those values should be edited following the 
## analytical expression. MG5 ignores those values 
## but they are important for interfacing the output of MG5
## to external program such as Pythia.
DECAY  1 0.000000 # d : 0.0 
DECAY  2 0.000000 # u : 0.0 
DECAY  3 0.000000 # s : 0.0 
DECAY  4 0.000000 # c : 0.0 
DECAY  5 0.000000 # b : 0.0 
DECAY  11 0.000000 # e- : 0.0 
DECAY  12 0.000000 # ve : 0.0 
DECAY  13 0.000000 # mu- : 0.0 
DECAY  14 0.000000 # vm : 0.0 
DECAY  15 0.000000 # ta- : 0.0 
DECAY  16 0.000000 # vt : 0.0 
DECAY  21 0.000000 # g : 0.0 
DECAY  22 0.000000 # a : 0.0 
DECAY  10030 0.308725 # zph : (gz__exp__2*MZph*(5 + cmath.sqrt(1 - (4*MT__exp__2)/MZph__exp__2)))/(144.*cmath.pi) 
DECAY  10031 0.132629 # zpl : (5*gz__exp__2*MZpl)/(144.*cmath.pi) 
#===========================================================
# QUANTUM NUMBERS OF NEW STATE(S) (NON SM PDG CODE)
#===========================================================

Block QNUMBERS 10030  # zph 
        1 0  # 3 times electric charge
        2 3  # number of spin states (2S+1)
        3 1  # colour rep (1: singlet, 3: triplet, 8: octet)
        4 0  # Particle/Antiparticle distinction (0=own anti)
Block QNUMBERS 10031  # zpl 
        1 0  # 3 times electric charge
        2 3  # number of spin states (2S+1)
        3 1  # colour rep (1: singlet, 3: triplet, 8: octet)
        4 0  # Particle/Antiparticle distinction (0=own anti)
</slha>
## END BANNER##
<MGGenerationInfo>
#  Number of Events        :         3863
#  Integrated weight (pb)  :  0.25623E-04
#  Max wgt                 :  0.10447E-07
#  Average wgt             :  0.66329E-08
</MGGenerationInfo>
</header>
<init>
     2212     2212  0.40000000000E+04  0.40000000000E+04 0 0  247000  247000 2   1
  0.25637182178E-04  0.63422084327E-07  0.10446780000E-07   0
</init>
<event>
 5   0  0.1017794E-07  0.3602728E+04  0.7818609E-02  0.8089867E-01
        2   -1    0    0  501    0  0.00000000000E+00  0.00000000000E+00  0.19295339570E+04  0.19295339570E+04  0.25500000920E-02 0.  1.
       -2   -1    0    0    0  501  0.00000000000E+00  0.00000000000E+00 -0.16817075502E+04  0.16817075502E+04  0.25500000920E-02 0. -1.
    10030    2    1    2    0    0  0.00000000000E+00  0.00000000000E+00  0.24782640680E+03  0.36112415071E+04  0.36027277575E+04 0.  0.
        1    1    3    3  502    0  0.29600258234E+03 -0.11650414024E+04 -0.12208879166E+04  0.17133319302E+04  0.50400001928E-02 0. -1.
       -1    1    3    3    0  502 -0.29600258234E+03  0.11650414024E+04  0.14687143234E+04  0.18979095769E+04  0.50400001928E-02 0.  1.
</event>
<event>
 5   0  0.1017794E-07  0.3599864E+04  0.7818609E-02  0.8090523E-01
       -2   -1    0    0    0  501  0.00000000000E+00  0.00000000000E+00  0.11257100886E+04  0.11257100886E+04  0.25500000920E-02 0.  1.
        2   -1    0    0  501    0  0.00000000000E+00  0.00000000000E+00 -0.28779662772E+04  0.28779662772E+04  0.25500000920E-02 0. -1.
    10030    2    1    2    0    0  0.00000000000E+00  0.00000000000E+00 -0.17522561886E+04  0.40036763658E+04  0.35998642601E+04 0.  0.
        1    1    3    3  502    0  0.81274049555E+03  0.15455290124E+04 -0.39064316122E+03  0.17893599752E+04  0.50400001928E-02 0.  1.
       -1    1    3    3    0  502 -0.81274049555E+03 -0.15455290124E+04 -0.13616130274E+04  0.22143163906E+04  0.50400001928E-02 0. -1.
</event>
<event>
 5   0  0.1021087E-07  0.3604876E+04  0.7818609E-02  0.8089376E-01
        2   -1    0    0  501    0  0.00000000000E+00  0.00000000000E+00  0.22756019265E+04  0.22756019265E+04  0.25500000920E-02 0. -1.
       -2   -1    0    0    0  501  0.00000000000E+00  0.00000000000E+00 -0.14276584389E+04  0.14276584389E+04  0.25500000920E-02 0.  1.
    10030    2    1    2    0    0  0.00000000000E+00  0.00000000000E+00  0.84794348763E+03  0.37032603655E+04  0.36048757505E+04 0.  0.
        3    1    3    3  502    0 -0.50973738967E+03 -0.39803435240E+03 -0.13043594298E+04  0.14558904781E+04  0.10100000352E+00 0.  1.
       -3    1    3    3    0  502  0.50973738967E+03  0.39803435240E+03  0.21523029174E+04  0.22473698873E+04  0.10100000352E+00 0. -1.
</event>
<event>
 5   0  0.1017794E-07  0.3599291E+04  0.7818609E-02  0.8090654E-01
       -2   -1    0    0    0  501  0.00000000000E+00  0.00000000000E+00  0.15009405533E+04  0.15009405533E+04  0.25500000920E-02 0.  1.
        2   -1    0    0  501    0  0.00000000000E+00  0.00000000000E+00 -0.21577964221E+04  0.21577964221E+04  0.25500000920E-02 0. -1.
    10030    2    1    2    0    0  0.00000000000E+00  0.00000000000E+00 -0.65685586884E+03  0.36587369754E+04  0.35992911278E+04 0.  0.
        1    1    3    3  502    0 -0.75608817520E+03 -0.80399175277E+03  0.11165459087E+04  0.15699512201E+04  0.50400001928E-02 0.  1.
       -1    1    3    3    0  502  0.75608817520E+03  0.80399175277E+03 -0.17734017775E+04  0.20887857554E+04  0.50400001928E-02 0. -1.
</event>
<event>
 5   0  0.1021087E-07  0.3599431E+04  0.7818609E-02  0.8090622E-01
       -2   -1    0    0    0  501  0.00000000000E+00  0.00000000000E+00  0.19255638955E+04  0.19255638955E+04  0.25500000920E-02 0.  1.
        2   -1    0    0  501    0  0.00000000000E+00  0.00000000000E+00 -0.16820921664E+04  0.16820921664E+04  0.25500000920E-02 0. -1.
    10030    2    1    2    0    0  0.00000000000E+00  0.00000000000E+00  0.24347172901E+03  0.36076560619E+04  0.35994310353E+04 0.  0.
        3    1    3    3  502    0  0.35720013644E+03 -0.17624497545E+04  0.19369727957E+03  0.18086845278E+04  0.10100000352E+00 0.  1.
       -3    1    3    3    0  502 -0.35720013644E+03  0.17624497545E+04  0.49774449444E+02  0.17989715341E+04  0.10100000352E+00 0. -1.
</event>
<event>
 5   0  0.3202875E-08  0.3595360E+04  0.7818609E-02  0.8091555E-01
        1   -1    0    0  501    0  0.00000000000E+00  0.00000000000E+00  0.14752716005E+04  0.14752716005E+04  0.50400001928E-02 0.  1.
       -1   -1    0    0    0  501  0.00000000000E+00  0.00000000000E+00 -0.21905480264E+04  0.21905480264E+04  0.50400001928E-02 0. -1.
    10030    2    1    2    0    0  0.00000000000E+00  0.00000000000E+00 -0.71527642588E+03  0.36658196269E+04  0.35953599502E+04 0.  0.
        1    1    3    3  502    0  0.16606752433E+04 -0.50985959480E+02 -0.10575392521E+04  0.19694748288E+04  0.50400001928E-02 0. -1.
       -1    1    3    3    0  502 -0.16606752433E+04  0.50985959480E+02  0.34226282619E+03  0.16963447981E+04  0.50400001928E-02 0.  1.
</event>
<event>
 5   0  0.3212523E-08  0.3634066E+04  0.7818609E-02  0.8082733E-01
       -1   -1    0    0    0  501  0.00000000000E+00  0.00000000000E+00  0.18132020035E+04  0.18132020035E+04  0.50400001928E-02 0.  1.
        1   -1    0    0  501    0  0.00000000000E+00  0.00000000000E+00 -0.18208718822E+04  0.18208718822E+04  0.50400001928E-02 0. -1.
    10030    2    1    2    0    0  0.00000000000E+00  0.00000000000E+00 -0.76698786709E+01  0.36340738857E+04  0.36340657919E+04 0.  0.
        3    1    3    3  502    0  0.57279429705E+03  0.17212401575E+04  0.10031685672E+03  0.18168171257E+04  0.10100000352E+00 0.  1.
       -3    1    3    3    0  502 -0.57279429705E+03 -0.17212401575E+04 -0.10798673539E+03  0.18172567600E+04  0.10100000352E+00 0. -1.
</event>
<event>
 5   0  0.1017794E-07  0.3587116E+04  0.7818609E-02  0.8093449E-01
        2   -1    0    0  501    0  0.00000000000E+00  0.00000000000E+00  0.16059552116E+04  0.16059552116E+04  0.25500000920E-02 0. -1.
       -2   -1    0    0    0  501  0.00000000000E+00  0.00000000000E+00 -0.20030764015E+04  0.20030764015E+04  0.25500000920E-02 0.  1.
    10030    2    1    2    0    0  0.00000000000E+00  0.00000000000E+00 -0.39712118991E+03  0.36090316132E+04  0.35871163830E+04 0.  0.
        1    1    3    3  502    0 -0.91190738180E+03  0.15326945786E+04 -0.73382764683E+01  0.17834745848E+04  0.50400001928E-02 0.  1.
       -1    1    3    3    0  502  0.91190738180E+03 -0.15326945786E+04 -0.38978291344E+03  0.18255570284E+04  0.50400001928E-02 0. -1.
</event>
<event>
 5   0  0.3202875E-08  0.3589338E+04  0.7818609E-02  0.8092938E-01
       -1   -1    0    0    0  501  0.00000000000E+00  0.00000000000E+00  0.16175377206E+04  0.16175377206E+04  0.50400001928E-02 0. -1.
        1   -1    0    0  501    0  0.00000000000E+00  0.00000000000E+00 -0.19911975837E+04  0.19911975837E+04  0.50400001928E-02 0.  1.
    10030    2    1    2    0    0  0.00000000000E+00  0.00000000000E+00 -0.37365986309E+03  0.36087353042E+04  0.35893382124E+04 0.  0.
        2    1    3    3  502    0 -0.85321582210E+03 -0.35747155090E+03 -0.17330204917E+04  0.19644651113E+04  0.25500000920E-02 0.  1.
       -2    1    3    3    0  502  0.85321582210E+03  0.35747155090E+03  0.13593606286E+04  0.16442701930E+04  0.25500000920E-02 0. -1.
</event>
<event>
 5   0  0.1017794E-07  0.3611179E+04  0.7818609E-02  0.8087936E-01
        2   -1    0    0  501    0  0.00000000000E+00  0.00000000000E+00  0.14940806904E+04  0.14940806904E+04  0.25500000920E-02 0.  1.
       -2   -1    0    0    0  501  0.00000000000E+00  0.00000000000E+00 -0.21820468086E+04  0.21820468086E+04  0.25500000920E-02 0. -1.
    10030    2    1    2    0    0  0.00000000000E+00  0.00000000000E+00 -0.68796611822E+03  0.36761274991E+04  0.36111793101E+04 0.  0.
        1    1    3    3  502    0 -0.54620205111E+02 -0.63503142061E+03  0.13757511242E+04  0.15162253882E+04  0.50400001928E-02 0.  1.
       -1    1    3    3    0  502  0.54620205111E+02  0.63503142061E+03 -0.20637172424E+04  0.21599021109E+04  0.50400001928E-02 0. -1.
</event>
<event>
 5   0  0.3202875E-08  0.3598851E+04  0.7818609E-02  0.8090755E-01
        1   -1    0    0  501    0  0.00000000000E+00  0.00000000000E+00  0.14954332934E+04  0.14954332934E+04  0.50400001928E-02 0. -1.
       -1   -1    0    0    0  501  0.00000000000E+00  0.00000000000E+00 -0.21652137186E+04  0.21652137187E+04  0.50400001928E-02 0.  1.
    10030    2    1    2    0    0  0.00000000000E+00  0.00000000000E+00 -0.66978042524E+03  0.36606470121E+04  0.35988513069E+04 0.  0.
        2    1    3    3  502    0  0.12366440942E+04  0.11791248190E+04  0.23898599913E+03  0.17253226546E+04  0.25500000920E-02 0.  1.
       -2    1    3    3    0  502 -0.12366440942E+04 -0.11791248190E+04 -0.90876642437E+03  0.19353243575E+04  0.25500000920E-02 0. -1.
</event>
<event>
 5   0  0.9905335E-08  0.3614485E+04  0.7818609E-02  0.8087182E-01
       -2   -1    0    0    0  501  0.00000000000E+00  0.00000000000E+00  0.13285936758E+04  0.13285936758E+04  0.25500000920E-02 0. -1.
        2   -1    0    0  501    0  0.00000000000E+00  0.00000000000E+00 -0.24583327608E+04  0.24583327608E+04  0.25500000920E-02 0.  1.
    10030    2    1    2    0    0  0.00000000000E+00  0.00000000000E+00 -0.11297390850E+04  0.37869264367E+04  0.36144849476E+04 0.  0.
        5    1    3    3  502    0 -0.10874492606E+04  0.91655162611E+03  0.60345011143E+03  0.15449229446E+04  0.46999998093E+01 0. -1.
       -5    1    3    3    0  502  0.10874492606E+04 -0.91655162611E+03 -0.17331891964E+04  0.22420034921E+04  0.46999998093E+01 0.  1.
</event>
<event>
 5   0  0.3279988E-08  0.3599654E+04  0.7818609E-02  0.8090571E-01
       -1   -1    0    0    0  501  0.00000000000E+00  0.00000000000E+00  0.15060545726E+04  0.15060545726E+04  0.50400001928E-02 0.  1.
        1   -1    0    0  501    0  0.00000000000E+00  0.00000000000E+00 -0.21509031888E+04  0.21509031888E+04  0.50400001928E-02 0. -1.
    10030    2    1    2    0    0  0.00000000000E+00  0.00000000000E+00 -0.64484861618E+03  0.36569577614E+04  0.35996541960E+04 0.  0.
        5    1    3    3  502    0 -0.13641247804E+04  0.42109586210E+03 -0.14358630930E+04  0.20248167950E+04  0.46999998093E+01 0. -1.
       -5    1    3    3    0  502  0.13641247804E+04 -0.42109586210E+03  0.79101447682E+03  0.16321409664E+04  0.46999998093E+01 0.  1.
</event>
<event>
 5   0  0.3202875E-08  0.3601772E+04  0.7818609E-02  0.8090086E-01
        1   -1    0    0  501    0  0.00000000000E+00  0.00000000000E+00  0.19328414207E+04  0.19328414207E+04  0.50400001928E-02 0. -1.
       -1   -1    0    0    0  501  0.00000000000E+00  0.00000000000E+00 -0.16779395110E+04  0.16779395110E+04  0.50400001928E-02 0.  1.
    10030    2    1    2    0    0  0.00000000000E+00  0.00000000000E+00  0.25490190974E+03  0.36107809317E+04  0.36017723350E+04 0.  0.
        1    1    3    3  502    0  0.16063917189E+04  0.23926939070E+03 -0.65259982196E+03  0.17503230340E+04  0.50400001928E-02 0.  1.
       -1    1    3    3    0  502 -0.16063917189E+04 -0.23926939070E+03  0.90750173170E+03  0.18604578976E+04  0.50400001928E-02 0. -1.
</event>
<event>
 5   0  0.3212523E-08  0.3605665E+04  0.7818609E-02  0.8089195E-01
       -1   -1    0    0    0  501  0.00000000000E+00  0.00000000000E+00  0.15180136594E+04  0.15180136594E+04  0.50400001928E-02 0.  1.
        1   -1    0    0  501    0  0.00000000000E+00  0.00000000000E+00 -0.21410910750E+04  0.21410910750E+04  0.50400001928E-02 0. -1.
    10030    2    1    2    0    0  0.00000000000E+00  0.00000000000E+00 -0.62307741563E+03  0.36591047344E+04  0.36056652633E+04 0.  0.
        3    1    3    3  502    0  0.39563171558E+03  0.75316885273E+03 -0.19245671053E+04  0.21042210739E+04  0.10100000352E+00 0. -1.
       -3    1    3    3    0  502 -0.39563171558E+03 -0.75316885273E+03  0.13014896896E+04  0.15548836604E+04  0.10100000352E+00 0.  1.
</event>
<event>
 5   0  0.3212523E-08  0.3599937E+04  0.7818609E-02  0.8090506E-01
        1   -1    0    0  501    0  0.00000000000E+00  0.00000000000E+00  0.11638325953E+04  0.11638325953E+04  0.50400001928E-02 0.  1.
       -1   -1    0    0    0  501  0.00000000000E+00  0.00000000000E+00 -0.27838087223E+04  0.27838087223E+04  0.50400001928E-02 0. -1.
    10030    2    1    2    0    0  0.00000000000E+00  0.00000000000E+00 -0.16199761270E+04  0.39476413176E+04  0.35999374051E+04 0.  0.
        3    1    3    3  502    0 -0.14624623780E+04  0.34522089833E+03  0.27663616377E+03  0.15279074753E+04  0.10100000352E+00 0.  1.
       -3    1    3    3    0  502  0.14624623780E+04 -0.34522089833E+03 -0.18966122908E+04  0.24197338423E+04  0.10100000352E+00 0. -1.
</event>
<event>
 5   0  0.1017794E-07  0.3599518E+04  0.7818609E-02  0.8090602E-01
        2   -1    0    0  501    0  0.00000000000E+00  0.00000000000E+00  0.32260410094E+04  0.32260410094E+04  0.25500000920E-02 0.  1.
       -2   -1    0    0    0  501  0.00000000000E+00  0.00000000000E+00 -0.10040582036E+04  0.10040582036E+04  0.25500000920E-02 0. -1.
    10030    2    1    2    0    0  0.00000000000E+00  0.00000000000E+00  0.22219828058E+04  0.42300992130E+04  0.35995182681E+04 0.  0.
        1    1    3    3  502    0  0.92370712046E+03  0.14823733801E+04  0.16211722232E+04  0.23830369405E+04  0.50400001928E-02 0.  1.
       -1    1    3    3    0  502 -0.92370712046E+03 -0.14823733801E+04  0.60081058260E+03  0.18470622725E+04  0.50400001928E-02 0. -1.
</event>
<event>
 5   0  0.3215494E-08  0.3599336E+04  0.7818609E-02  0.8090644E-01
       -1   -1    0    0    0  501  0.00000000000E+00  0.00000000000E+00  0.19201863799E+04  0.19201863799E+04  0.50400001928E-02 0. -1.
        1   -1    0    0  501    0  0.00000000000E+00  0.00000000000E+00 -0.16867138510E+04  0.16867138510E+04  0.50400001928E-02 0.  1.
    10030    2    1    2    0    0  0.00000000000E+00  0.00000000000E+00  0.23347252893E+03  0.36069002309E+04  0.35993360296E+04 0.  0.
        4    1    3    3  502    0  0.43150321582E+03  0.15871238554E+04 -0.61530985641E+03  0.17560652009E+04  0.12699999809E+01 0.  1.
       -4    1    3    3    0  502 -0.43150321582E+03 -0.15871238554E+04  0.84878238535E+03  0.18508350300E+04  0.12699999809E+01 0. -1.
</event>
<event>
 5   0  0.3202875E-08  0.3602417E+04  0.7818609E-02  0.8089938E-01
        1   -1    0    0  501    0  0.00000000000E+00  0.00000000000E+00  0.17074348215E+04  0.17074348215E+04  0.50400001928E-02 0. -1.
       -1   -1    0    0    0  501  0.00000000000E+00  0.00000000000E+00 -0.19001320121E+04  0.19001320121E+04  0.50400001928E-02 0.  1.
    10030    2    1    2    0    0  0.00000000000E+00  0.00000000000E+00 -0.19269719067E+03  0.36075668336E+04  0.36024167238E+04 0.  0.
        1    1    3    3  502    0 -0.38925553351E+03 -0.36885109090E+03  0.16256388585E+04  0.17118039303E+04  0.50400001928E-02 0. -1.
       -1    1    3    3    0  502  0.38925553351E+03  0.36885109090E+03 -0.18183360492E+04  0.18957629033E+04  0.50400001928E-02 0.  1.
</event>
<event>
 5   0  0.1044678E-07  0.3601470E+04  0.7818609E-02  0.8090155E-01
        2   -1    0    0  501    0  0.00000000000E+00  0.00000000000E+00  0.17118362207E+04  0.17118362207E+04  0.25500000920E-02 0.  1.
       -2   -1    0    0    0  501  0.00000000000E+00  0.00000000000E+00 -0.18942506870E+04  0.18942506870E+04  0.25500000920E-02 0. -1.
    10030    2    1    2    0    0  0.00000000000E+00  0.00000000000E+00 -0.18241446632E+03  0.36060869078E+04  0.36014702205E+04 0.  0.
        2    1    3    3  502    0 -0.99310759184E+03  0.41997120948E+03 -0.15352794377E+04  0.18760920706E+04  0.25500000920E-02 0. -1.
       -2    1    3    3    0  502  0.99310759184E+03 -0.41997120948E+03  0.13528649714E+04  0.17299948371E+04  0.25500000920E-02 0.  1.
</event>
<event>
 5   0  0.3212523E-08  0.3591300E+04  0.7818609E-02  0.8092487E-01
        1   -1    0    0  501    0  0.00000000000E+00  0.00000000000E+00  0.19216426326E+04  0.19216426326E+04  0.50400001928E-02 0. -1.
       -1   -1    0    0    0  501  0.00000000000E+00  0.00000000000E+00 -0.16779184932E+04  0.16779184932E+04  0.50400001928E-02 0.  1.
    10030    2    1    2    0    0  0.00000000000E+00  0.00000000000E+00  0.24372413944E+03  0.35995611259E+04  0.35913004389E+04 0.  0.
        3    1    3    3  502    0 -0.97475142702E+03 -0.63494258293E+03 -0.12491539063E+04  0.17069498880E+04  0.10100000352E+00 0.  1.
       -3    1    3    3    0  502  0.97475142702E+03  0.63494258293E+03  0.14928780458E+04  0.18926112379E+04  0.10100000352E+00 0. -1.
</event>
<event>
 5   0  0.1021087E-07  0.3602598E+04  0.7818609E-02  0.8089897E-01
        2   -1    0    0  501    0  0.00000000000E+00  0.00000000000E+00  0.14134422229E+04  0.14134422229E+04  0.25500000920E-02 0. -1.
       -2   -1    0    0    0  501  0.00000000000E+00  0.00000000000E+00 -0.22955865461E+04  0.22955865461E+04  0.25500000920E-02 0.  1.
    10030    2    1    2    0    0  0.00000000000E+00  0.00000000000E+00 -0.88214432322E+03  0.37090287689E+04  0.36025984791E+04 0.  0.
        3    1    3    3  502    0  0.55362512227E+03  0.12002314795E+04 -0.17009995808E+04  0.21541717583E+04  0.10100000352E+00 0.  1.
       -3    1    3    3    0  502 -0.55362512227E+03 -0.12002314795E+04  0.81885525761E+03  0.15548570106E+04  0.10100000352E+00 0. -1.
</event>
<event>
 5   0  0.3202875E-08  0.3568094E+04  0.7818609E-02  0.8097839E-01
        1   -1    0    0  501    0  0.00000000000E+00  0.00000000000E+00  0.19836333371E+04  0.19836333372E+04  0.50400001928E-02 0. -1.
       -1   -1    0    0    0  501  0.00000000000E+00  0.00000000000E+00 -0.16045427726E+04  0.16045427726E+04  0.50400001928E-02 0.  1.
    10030    2    1    2    0    0  0.00000000000E+00  0.00000000000E+00  0.37909056459E+03  0.35881761097E+04  0.35680944688E+04 0.  0.
        1    1    3    3  502    0 -0.61757764755E+03  0.16605353909E+04 -0.21503931279E+02  0.17717907196E+04  0.50400001928E-02 0. -1.
       -1    1    3    3    0  502  0.61757764755E+03 -0.16605353909E+04  0.40059449587E+03  0.18163853901E+04  0.50400001928E-02 0.  1.
</event>
<event>
 5   0  0.1044678E-07  0.3601719E+04  0.7818609E-02  0.8090098E-01
        2   -1    0    0  501    0  0.00000000000E+00  0.00000000000E+00  0.14721696227E+04  0.14721696227E+04  0.25500000920E-02 0.  1.
       -2   -1    0    0    0  501  0.00000000000E+00  0.00000000000E+00 -0.22029354655E+04  0.22029354655E+04  0.25500000920E-02 0. -1.
    10030    2    1    2    0    0  0.00000000000E+00  0.00000000000E+00 -0.73076584283E+03  0.36751050882E+04  0.36017188525E+04 0.  0.
        2    1    3    3  502    0  0.13704555634E+04  0.48244091788E+03  0.72034485730E+03  0.16216640848E+04  0.25500000920E-02 0.  1.
       -2    1    3    3    0  502 -0.13704555634E+04 -0.48244091788E+03 -0.14511107001E+04  0.20534410034E+04  0.25500000920E-02 0. -1.
</event>
<event>
 5   0  0.3202875E-08  0.3592064E+04  0.7818609E-02  0.8092312E-01
       -1   -1    0    0    0  501  0.00000000000E+00  0.00000000000E+00  0.13606417373E+04  0.13606417373E+04  0.50400001928E-02 0.  1.
        1   -1    0    0  501    0  0.00000000000E+00  0.00000000000E+00 -0.23707420320E+04  0.23707420320E+04  0.50400001928E-02 0. -1.
    10030    2    1    2    0    0  0.00000000000E+00  0.00000000000E+00 -0.10101002947E+04  0.37313837693E+04  0.35920637840E+04 0.  0.
        2    1    3    3  502    0 -0.47268263670E+02 -0.42537391335E+03  0.13068947069E+04  0.13751912703E+04  0.25500000920E-02 0.  1.
       -2    1    3    3    0  502  0.47268263670E+02  0.42537391335E+03 -0.23169950016E+04  0.23561924990E+04  0.25500000920E-02 0. -1.
</event>
<event>
 5   0  0.1021087E-07  0.3616496E+04  0.7818609E-02  0.8086724E-01
       -2   -1    0    0    0  501  0.00000000000E+00  0.00000000000E+00  0.17625003307E+04  0.17625003307E+04  0.25500000920E-02 0. -1.
        2   -1    0    0  501    0  0.00000000000E+00  0.00000000000E+00 -0.18551826209E+04  0.18551826209E+04  0.25500000920E-02 0.  1.
    10030    2    1    2    0    0  0.00000000000E+00  0.00000000000E+00 -0.92682290262E+02  0.36176829516E+04  0.36164955318E+04 0.  0.
        3    1    3    3  502    0 -0.62756071088E+03 -0.87683387999E+03 -0.14983996016E+04  0.18460421109E+04  0.10100000352E+00 0.  1.
       -3    1    3    3    0  502  0.62756071088E+03  0.87683387999E+03  0.14057173113E+04  0.17716408407E+04  0.10100000352E+00 0. -1.
</event>
<event>
 5   0  0.9905335E-08  0.3580218E+04  0.7818609E-02  0.8095038E-01
        2   -1    0    0  501    0  0.00000000000E+00  0.00000000000E+00  0.26716673579E+04  0.26716673579E+04  0.25500000920E-02 0. -1.
       -2   -1    0    0    0  501  0.00000000000E+00  0.00000000000E+00 -0.11994343108E+04  0.11994343108E+04  0.25500000920E-02 0.  1.
    10030    2    1    2    0    0  0.00000000000E+00  0.00000000000E+00  0.14722330471E+04  0.38711016686E+04  0.35802175889E+04 0.  0.
        5    1    3    3  502    0 -0.42259307677E+03 -0.92042013781E+03  0.23320867902E+04  0.25425202115E+04  0.46999998093E+01 0. -1.
       -5    1    3    3    0  502  0.42259307677E+03  0.92042013781E+03 -0.85985374314E+03  0.13285814571E+04  0.46999998093E+01 0.  1.
</event>
<event>
 5   0  0.3202875E-08  0.3603230E+04  0.7818609E-02  0.8089752E-01
        1   -1    0    0  501    0  0.00000000000E+00  0.00000000000E+00  0.10627233982E+04  0.10627233982E+04  0.50400001928E-02 0.  1.
       -1   -1    0    0    0  501  0.00000000000E+00  0.00000000000E+00 -0.30542432910E+04  0.30542432910E+04  0.50400001928E-02 0. -1.
    10030    2    1    2    0    0  0.00000000000E+00  0.00000000000E+00 -0.19915198928E+04  0.41169666892E+04  0.36032295565E+04 0.  0.
        2    1    3    3  502    0  0.11778222697E+04  0.17045864939E+03  0.54967582063E+03  0.13109023449E+04  0.25500000920E-02 0.  1.
       -2    1    3    3    0  502 -0.11778222697E+04 -0.17045864939E+03 -0.25411957134E+04  0.28060643442E+04  0.25500000920E-02 0. -1.
</event>
<event>
 5   0  0.1021087E-07  0.3604072E+04  0.7818609E-02  0.8089560E-01
        2   -1    0    0  501    0  0.00000000000E+00  0.00000000000E+00  0.31712951541E+04  0.31712951541E+04  0.25500000920E-02 0. -1.
       -2   -1    0    0    0  501  0.00000000000E+00  0.00000000000E+00 -0.10239770877E+04  0.10239770877E+04  0.25500000920E-02 0.  1.
    10030    2    1    2    0    0  0.00000000000E+00  0.00000000000E+00  0.21473180664E+04  0.41952722418E+04  0.36040719062E+04 0.  0.
        3    1    3    3  502    0 -0.79724202900E+03  0.16032048862E+04  0.83660441983E+03  0.19763015270E+04  0.10100000352E+00 0.  1.
       -3    1    3    3    0  502  0.79724202900E+03 -0.16032048862E+04  0.13107136466E+04  0.22189707149E+04  0.10100000352E+00 0. -1.
</event>
<event>
 5   0  0.1017794E-07  0.3637802E+04  0.7818609E-02  0.8081887E-01
        2   -1    0    0  501    0  0.00000000000E+00  0.00000000000E+00  0.22984815574E+04  0.22984815574E+04  0.25500000920E-02 0.  1.
       -2   -1    0    0    0  501  0.00000000000E+00  0.00000000000E+00 -0.14393856775E+04  0.14393856775E+04  0.25500000920E-02 0. -1.
    10030    2    1    2    0    0  0.00000000000E+00  0.00000000000E+00  0.85909587996E+03  0.37378672349E+04  0.36378023221E+04 0.  0.
        1    1    3    3  502    0 -0.17826448796E+04 -0.18816207711E+03  0.74653625370E+03  0.19417888949E+04  0.50400001928E-02 0.  1.
       -1    1    3    3    0  502  0.17826448796E+04  0.18816207711E+03  0.11255962627E+03  0.17960783401E+04  0.50400001928E-02 0. -1.
</event>
<event>
 5   0  0.3279988E-08  0.3601773E+04  0.7818609E-02  0.8090086E-01
       -1   -1    0    0    0  501  0.00000000000E+00  0.00000000000E+00  0.14998628734E+04  0.14998628734E+04  0.50400001928E-02 0. -1.
        1   -1    0    0  501    0  0.00000000000E+00  0.00000000000E+00 -0.21623258003E+04  0.21623258003E+04  0.50400001928E-02 0.  1.
    10030    2    1    2    0    0  0.00000000000E+00  0.00000000000E+00 -0.66246292697E+03  0.36621886737E+04  0.36017730012E+04 0.  0.
        5    1    3    3  502    0 -0.13333643434E+04  0.10582322113E+04 -0.92884389547E+03  0.19391980191E+04  0.46999998093E+01 0.  1.
       -5    1    3    3    0  502  0.13333643434E+04 -0.10582322113E+04  0.26638096850E+03  0.17229906546E+04  0.46999998093E+01 0. -1.
</event>
<event>
 5   0  0.1021087E-07  0.3523872E+04  0.7818609E-02  0.8108156E-01
        2   -1    0    0  501    0  0.00000000000E+00  0.00000000000E+00  0.25094439153E+04  0.25094439153E+04  0.25500000920E-02 0. -1.
       -2   -1    0    0    0  501  0.00000000000E+00  0.00000000000E+00 -0.12370942840E+04  0.12370942840E+04  0.25500000920E-02 0.  1.
    10030    2    1    2    0    0  0.00000000000E+00  0.00000000000E+00  0.12723496313E+04  0.37465381993E+04  0.35238721451E+04 0.  0.
        3    1    3    3  502    0 -0.72262696190E+03 -0.80951410131E+03 -0.83967241004E+03  0.13720614318E+04  0.10100000352E+00 0.  1.
       -3    1    3    3    0  502  0.72262696190E+03  0.80951410131E+03  0.21120220413E+04  0.23744767675E+04  0.10100000352E+00 0. -1.
</event>
<event>
 5   0  0.3215494E-08  0.3613229E+04  0.7818609E-02  0.8087468E-01
        1   -1    0    0  501    0  0.00000000000E+00  0.00000000000E+00  0.11500368820E+04  0.11500368820E+04  0.50400001928E-02 0. -1.
       -1   -1    0    0    0  501  0.00000000000E+00  0.00000000000E+00 -0.28380445288E+04  0.28380445288E+04  0.50400001928E-02 0.  1.
    10030    2    1    2    0    0  0.00000000000E+00  0.00000000000E+00 -0.16880076468E+04  0.39880814109E+04  0.36132289609E+04 0.  0.
        4    1    3    3  502    0 -0.16907973065E+04  0.31359374394E+03 -0.14552806783E+04  0.22527716337E+04  0.12699999809E+01 0. -1.
       -4    1    3    3    0  502  0.16907973065E+04 -0.31359374394E+03 -0.23272696852E+03  0.17353097772E+04  0.12699999809E+01 0.  1.
</event>
<event>
 5   0  0.3202875E-08  0.3604574E+04  0.7818609E-02  0.8089445E-01
       -1   -1    0    0    0  501  0.00000000000E+00  0.00000000000E+00  0.15420865382E+04  0.15420865382E+04  0.50400001928E-02 0.  1.
        1   -1    0    0  501    0  0.00000000000E+00  0.00000000000E+00 -0.21063914323E+04  0.21063914323E+04  0.50400001928E-02 0. -1.
    10030    2    1    2    0    0  0.00000000000E+00  0.00000000000E+00 -0.56430489412E+03  0.36484779706E+04  0.36045736902E+04 0.  0.
        1    1    3    3  502    0 -0.48626540328E+03  0.16995249251E+04 -0.63771285131E+03  0.18792330069E+04  0.50400001928E-02 0. -1.
       -1    1    3    3    0  502  0.48626540328E+03 -0.16995249251E+04  0.73407957190E+02  0.17692449637E+04  0.50400001928E-02 0.  1.
</event>
<event>
 5   0  0.3279988E-08  0.3603158E+04  0.7818609E-02  0.8089769E-01
        1   -1    0    0  501    0  0.00000000000E+00  0.00000000000E+00  0.10828248449E+04  0.10828248450E+04  0.50400001928E-02 0.  1.
       -1   -1    0    0    0  501  0.00000000000E+00  0.00000000000E+00 -0.29974261339E+04  0.29974261339E+04  0.50400001928E-02 0. -1.
    10030    2    1    2    0    0  0.00000000000E+00  0.00000000000E+00 -0.19146012890E+04  0.40802509789E+04  0.36031583305E+04 0.  0.
        5    1    3    3  502    0 -0.13250442348E+04  0.10548079972E+04 -0.16528834087E+04  0.23665180726E+04  0.46999998093E+01 0. -1.
       -5    1    3    3    0  502  0.13250442348E+04 -0.10548079972E+04 -0.26171788030E+03  0.17137329063E+04  0.46999998093E+01 0.  1.
</event>
<event>
 5   0  0.1029908E-07  0.3594895E+04  0.7818609E-02  0.8091662E-01
        2   -1    0    0  501    0  0.00000000000E+00  0.00000000000E+00  0.30839576317E+04  0.30839576317E+04  0.25500000920E-02 0.  1.
       -2   -1    0    0    0  501  0.00000000000E+00  0.00000000000E+00 -0.10476208122E+04  0.10476208122E+04  0.25500000920E-02 0. -1.
    10030    2    1    2    0    0  0.00000000000E+00  0.00000000000E+00  0.20363368194E+04  0.41315784439E+04  0.35948953804E+04 0.  0.
        4    1    3    3  502    0 -0.16373644271E+04  0.74127355483E+03  0.99612612082E+03  0.20549252083E+04  0.12699999809E+01 0. -1.
       -4    1    3    3    0  502  0.16373644271E+04 -0.74127355483E+03  0.10402106986E+04  0.20766532356E+04  0.12699999809E+01 0.  1.
</event>
<event>
 5   0  0.1029908E-07  0.3597667E+04  0.7818609E-02  0.8091026E-01
       -2   -1    0    0    0  501  0.00000000000E+00  0.00000000000E+00  0.17833623470E+04  0.17833623470E+04  0.25500000920E-02 0. -1.
        2   -1    0    0  501    0  0.00000000000E+00  0.00000000000E+00 -0.18144384989E+04  0.18144384989E+04  0.25500000920E-02 0.  1.
    10030    2    1    2    0    0  0.00000000000E+00  0.00000000000E+00 -0.31076151855E+02  0.35978008459E+04  0.35976666326E+04 0.  0.
        4    1    3    3  502    0  0.17111658579E+04 -0.53463115327E+03 -0.16346459932E+03  0.18001781443E+04  0.12699999809E+01 0.  1.
       -4    1    3    3    0  502 -0.17111658579E+04  0.53463115327E+03  0.13238844747E+03  0.17976227015E+04  0.12699999809E+01 0. -1.
</event>
<event>
 5   0  0.3202875E-08  0.3599155E+04  0.7818609E-02  0.8090685E-01
        1   -1    0    0  501    0  0.00000000000E+00  0.00000000000E+00  0.22169682349E+04  0.22169682349E+04  0.50400001928E-02 0. -1.
       -1   -1    0    0    0  501  0.00000000000E+00  0.00000000000E+00 -0.14607695735E+04  0.14607695735E+04  0.50400001928E-02 0.  1.
    10030    2    1    2    0    0  0.00000000000E+00  0.00000000000E+00  0.75619866140E+03  0.36777378084E+04  0.35991553137E+04 0.  0.
        2    1    3    3  502    0 -0.59755538409E+03 -0.99583002134E+03  0.17827878757E+04  0.21276941693E+04  0.25500000920E-02 0. -1.
       -2    1    3    3    0  502  0.59755538409E+03  0.99583002134E+03 -0.10265892143E+04  0.15500436392E+04  0.25500000920E-02 0.  1.
</event>
<event>
 5   0  0.3279988E-08  0.3606697E+04  0.7818609E-02  0.8088959E-01
       -1   -1    0    0    0  501  0.00000000000E+00  0.00000000000E+00  0.15898823975E+04  0.15898823975E+04  0.50400001928E-02 0. -1.
        1   -1    0    0  501    0  0.00000000000E+00  0.00000000000E+00 -0.20454755362E+04  0.20454755362E+04  0.50400001928E-02 0.  1.
    10030    2    1    2    0    0  0.00000000000E+00  0.00000000000E+00 -0.45559313870E+03  0.36353579336E+04  0.36066968541E+04 0.  0.
        5    1    3    3  502    0 -0.34551009937E+03  0.13132318245E+04  0.96826213965E+03  0.16677855722E+04  0.46999998093E+01 0. -1.
       -5    1    3    3    0  502  0.34551009937E+03 -0.13132318245E+04 -0.14238552784E+04  0.19675723614E+04  0.46999998093E+01 0.  1.
</event>
<event>
 5   0  0.3279988E-08  0.3580378E+04  0.7818609E-02  0.8095001E-01
       -1   -1    0    0    0  501  0.00000000000E+00  0.00000000000E+00  0.16630328699E+04  0.16630328699E+04  0.50400001928E-02 0. -1.
        1   -1    0    0  501    0  0.00000000000E+00  0.00000000000E+00 -0.19270670532E+04  0.19270670532E+04  0.50400001928E-02 0.  1.
    10030    2    1    2    0    0  0.00000000000E+00  0.00000000000E+00 -0.26403418326E+03  0.35900999232E+04  0.35803775511E+04 0.  0.
        5    1    3    3  502    0 -0.46672311287E+03  0.17272688492E+04 -0.72987712584E+02  0.17907086412E+04  0.46999998093E+01 0.  1.
       -5    1    3    3    0  502  0.46672311287E+03 -0.17272688492E+04 -0.19104647068E+03  0.17993912819E+04  0.46999998093E+01 0. -1.
</event>
<event>
 5   0  0.1044678E-07  0.3612538E+04  0.7818609E-02  0.8087626E-01
       -2   -1    0    0    0  501  0.00000000000E+00  0.00000000000E+00  0.20710112771E+04  0.20710112771E+04  0.25500000920E-02 0. -1.
        2   -1    0    0  501    0  0.00000000000E+00  0.00000000000E+00 -0.15753694795E+04  0.15753694795E+04  0.25500000920E-02 0.  1.
    10030    2    1    2    0    0  0.00000000000E+00  0.00000000000E+00  0.49564179758E+03  0.36463807566E+04  0.36125381424E+04 0.  0.
        2    1    3    3  502    0  0.38045480323E+03 -0.14177615598E+04  0.13102086387E+04  0.19675976150E+04  0.25500000920E-02 0. -1.
       -2    1    3    3    0  502 -0.38045480323E+03  0.14177615598E+04 -0.81456684113E+03  0.16787831416E+04  0.25500000920E-02 0.  1.
</event>
<event>
 5   0  0.1021087E-07  0.3594407E+04  0.7818609E-02  0.8091774E-01
       -2   -1    0    0    0  501  0.00000000000E+00  0.00000000000E+00  0.14757573740E+04  0.14757573740E+04  0.25500000920E-02 0.  1.
        2   -1    0    0  501    0  0.00000000000E+00  0.00000000000E+00 -0.21886659331E+04  0.21886659331E+04  0.25500000920E-02 0. -1.
    10030    2    1    2    0    0  0.00000000000E+00  0.00000000000E+00 -0.71290855914E+03  0.36644233071E+04  0.35944067048E+04 0.  0.
        3    1    3    3  502    0  0.79501833376E+03  0.15230645127E+04  0.18122825638E+03  0.17276062491E+04  0.10100000352E+00 0.  1.
       -3    1    3    3    0  502 -0.79501833376E+03 -0.15230645127E+04 -0.89413681552E+03  0.19368170580E+04  0.10100000352E+00 0. -1.
</event>
<event>
 5   0  0.1017794E-07  0.3609885E+04  0.7818609E-02  0.8088231E-01
        2   -1    0    0  501    0  0.00000000000E+00  0.00000000000E+00  0.17001006783E+04  0.17001006783E+04  0.25500000920E-02 0.  1.
       -2   -1    0    0    0  501  0.00000000000E+00  0.00000000000E+00 -0.19162493564E+04  0.19162493564E+04  0.25500000920E-02 0. -1.
    10030    2    1    2    0    0  0.00000000000E+00  0.00000000000E+00 -0.21614867814E+03  0.36163500347E+04  0.36098846688E+04 0.  0.
        1    1    3    3  502    0 -0.11666876131E+04  0.13615786115E+04  0.99082208882E+02  0.17957933027E+04  0.50400001928E-02 0.  1.
       -1    1    3    3    0  502  0.11666876131E+04 -0.13615786115E+04 -0.31523088702E+03  0.18205567319E+04  0.50400001928E-02 0. -1.
</event>
<event>
 5   0  0.1044678E-07  0.3597583E+04  0.7818609E-02  0.8091045E-01
        2   -1    0    0  501    0  0.00000000000E+00  0.00000000000E+00  0.28037811073E+04  0.28037811073E+04  0.25500000920E-02 0.  1.
       -2   -1    0    0    0  501  0.00000000000E+00  0.00000000000E+00 -0.11540314862E+04  0.11540314862E+04  0.25500000920E-02 0. -1.
    10030    2    1    2    0    0  0.00000000000E+00  0.00000000000E+00  0.16497496212E+04  0.39578125935E+04  0.35975834546E+04 0.  0.
        2    1    3    3  502    0 -0.59469341973E+03 -0.11985148946E+02 -0.10427079954E+04  0.12004348674E+04  0.25500000920E-02 0. -1.
       -2    1    3    3    0  502  0.59469341973E+03  0.11985148946E+02  0.26924576166E+04  0.27573777261E+04  0.25500000920E-02 0.  1.
</event>
<event>
 5   0  0.1021087E-07  0.3572816E+04  0.7818609E-02  0.8096747E-01
        2   -1    0    0  501    0  0.00000000000E+00  0.00000000000E+00  0.29545881058E+04  0.29545881058E+04  0.25500000920E-02 0. -1.
       -2   -1    0    0    0  501  0.00000000000E+00  0.00000000000E+00 -0.10801010710E+04  0.10801010710E+04  0.25500000920E-02 0.  1.
    10030    2    1    2    0    0  0.00000000000E+00  0.00000000000E+00  0.18744870347E+04  0.40346891768E+04  0.35728161316E+04 0.  0.
        3    1    3    3  502    0  0.96474365711E+03 -0.10075809958E+04  0.21974366389E+04  0.26028210809E+04  0.10100000352E+00 0. -1.
       -3    1    3    3    0  502 -0.96474365711E+03  0.10075809958E+04 -0.32294960419E+03  0.14318680959E+04  0.10100000352E+00 0.  1.
</event>
<event>
 5   0  0.3279988E-08  0.3598392E+04  0.7818609E-02  0.8090860E-01
        1   -1    0    0  501    0  0.00000000000E+00  0.00000000000E+00  0.13497943865E+04  0.13497943865E+04  0.50400001928E-02 0. -1.
       -1   -1    0    0    0  501  0.00000000000E+00  0.00000000000E+00 -0.23982215563E+04  0.23982215563E+04  0.50400001928E-02 0.  1.
    10030    2    1    2    0    0  0.00000000000E+00  0.00000000000E+00 -0.10484271698E+04  0.37480159429E+04  0.35983918599E+04 0.  0.
        5    1    3    3  502    0 -0.26573832029E+02  0.12342981259E+04  0.83897891374E+03  0.14926840723E+04  0.46999998093E+01 0. -1.
       -5    1    3    3    0  502  0.26573832029E+02 -0.12342981259E+04 -0.18874060836E+04  0.22553318705E+04  0.46999998093E+01 0.  1.
</event>
<event>
 5   0  0.9905335E-08  0.3598686E+04  0.7818609E-02  0.8090793E-01
        2   -1    0    0  501    0  0.00000000000E+00  0.00000000000E+00  0.19756687186E+04  0.19756687186E+04  0.25500000920E-02 0.  1.
       -2   -1    0    0    0  501  0.00000000000E+00  0.00000000000E+00 -0.16387542276E+04  0.16387542276E+04  0.25500000920E-02 0. -1.
    10030    2    1    2    0    0  0.00000000000E+00  0.00000000000E+00  0.33691449099E+03  0.36144229462E+04  0.35986861297E+04 0.  0.
        5    1    3    3  502    0  0.16076341719E+04 -0.49386236767E+03 -0.47404766932E+03  0.17473210786E+04  0.46999998093E+01 0. -1.
       -5    1    3    3    0  502 -0.16076341719E+04  0.49386236767E+03  0.81096216031E+03  0.18671018677E+04  0.46999998093E+01 0.  1.
</event>
<event>
 5   0  0.3279988E-08  0.3602099E+04  0.7818609E-02  0.8090011E-01
        1   -1    0    0  501    0  0.00000000000E+00  0.00000000000E+00  0.18812441488E+04  0.18812441488E+04  0.50400001928E-02 0.  1.
       -1   -1    0    0    0  501  0.00000000000E+00  0.00000000000E+00 -0.17242734795E+04  0.17242734795E+04  0.50400001928E-02 0. -1.
    10030    2    1    2    0    0  0.00000000000E+00  0.00000000000E+00  0.15697066928E+03  0.36055176283E+04  0.36020990515E+04 0.  0.
        5    1    3    3  502    0  0.38231628758E+03 -0.59886617196E+02 -0.16821624664E+04  0.17261068345E+04  0.46999998093E+01 0. -1.
       -5    1    3    3    0  502 -0.38231628758E+03  0.59886617196E+02  0.18391331357E+04  0.18794107937E+04  0.46999998093E+01 0.  1.
</event>
<event>
 5   0  0.3212523E-08  0.3604670E+04  0.7818609E-02  0.8089423E-01
       -1   -1    0    0    0  501  0.00000000000E+00  0.00000000000E+00  0.11856077314E+04  0.11856077314E+04  0.50400001928E-02 0. -1.
        1   -1    0    0  501    0  0.00000000000E+00  0.00000000000E+00 -0.27398710135E+04  0.27398710135E+04  0.50400001928E-02 0.  1.
    10030    2    1    2    0    0  0.00000000000E+00  0.00000000000E+00 -0.15542632821E+04  0.39254787449E+04  0.36046704463E+04 0.  0.
        3    1    3    3  502    0  0.14375455782E+04  0.76022889309E+03  0.69158502340E+02  0.16276572636E+04  0.10100000352E+00 0. -1.
       -3    1    3    3    0  502 -0.14375455782E+04 -0.76022889309E+03 -0.16234217845E+04  0.22978214813E+04  0.10100000352E+00 0.  1.
</event>
<event>
 5   0  0.1021087E-07  0.3606038E+04  0.7818609E-02  0.8089110E-01
       -2   -1    0    0    0  501  0.00000000000E+00  0.00000000000E+00  0.11451223197E+04  0.11451223197E+04  0.25500000920E-02 0.  1.
        2   -1    0    0  501    0  0.00000000000E+00  0.00000000000E+00 -0.28388915947E+04  0.28388915948E+04  0.25500000920E-02 0. -1.
    10030    2    1    2    0    0  0.00000000000E+00  0.00000000000E+00 -0.16937692751E+04  0.39840139144E+04  0.36060383405E+04 0.  0.
        3    1    3    3  502    0 -0.37621742185E+03 -0.98508911404E+03 -0.24626920845E+04  0.26789536062E+04  0.10100000352E+00 0. -1.
       -3    1    3    3    0  502  0.37621742185E+03  0.98508911404E+03  0.76892280940E+03  0.13050603082E+04  0.10100000352E+00 0.  1.
</event>
<event>
 5   0  0.3202875E-08  0.3589981E+04  0.7818609E-02  0.8092791E-01
       -1   -1    0    0    0  501  0.00000000000E+00  0.00000000000E+00  0.28613056602E+04  0.28613056602E+04  0.50400001928E-02 0.  1.
        1   -1    0    0  501    0  0.00000000000E+00  0.00000000000E+00 -0.11260561951E+04  0.11260561952E+04  0.50400001928E-02 0. -1.
    10030    2    1    2    0    0  0.00000000000E+00  0.00000000000E+00  0.17352494650E+04  0.39873618553E+04  0.35899810389E+04 0.  0.
        1    1    3    3  502    0  0.73375329206E+03  0.16158653125E+04  0.56840440394E+03  0.18634640239E+04  0.50400001928E-02 0. -1.
       -1    1    3    3    0  502 -0.73375329206E+03 -0.16158653125E+04  0.11668450611E+04  0.21238978315E+04  0.50400001928E-02 0.  1.
</event>
<event>
 5   0  0.3279988E-08  0.3596585E+04  0.7818609E-02  0.8091274E-01
        1   -1    0    0  501    0  0.00000000000E+00  0.00000000000E+00  0.19795009842E+04  0.19795009842E+04  0.50400001928E-02 0.  1.
       -1   -1    0    0    0  501  0.00000000000E+00  0.00000000000E+00 -0.16336727119E+04  0.16336727119E+04  0.50400001928E-02 0. -1.
    10030    2    1    2    0    0  0.00000000000E+00  0.00000000000E+00  0.34582827230E+03  0.36131736962E+04  0.35965854591E+04 0.  0.
        5    1    3    3  502    0 -0.68544963797E+03  0.10894291804E+04 -0.10887194320E+04  0.16858319124E+04  0.46999998093E+01 0. -1.
       -5    1    3    3    0  502  0.68544963797E+03 -0.10894291804E+04  0.14345477043E+04  0.19273417837E+04  0.46999998093E+01 0.  1.
</event>
<event>
 5   0  0.3215494E-08  0.3601572E+04  0.7818609E-02  0.8090132E-01
        1   -1    0    0  501    0  0.00000000000E+00  0.00000000000E+00  0.20841894500E+04  0.20841894500E+04  0.50400001928E-02 0. -1.
       -1   -1    0    0    0  501  0.00000000000E+00  0.00000000000E+00 -0.15559188933E+04  0.15559188933E+04  0.50400001928E-02 0.  1.
    10030    2    1    2    0    0  0.00000000000E+00  0.00000000000E+00  0.52827055673E+03  0.36401083434E+04  0.36015717361E+04 0.  0.
        4    1    3    3  502    0  0.12716802015E+04 -0.12644746775E+04  0.42947474435E+03  0.18440490541E+04  0.12699999809E+01 0. -1.
       -4    1    3    3    0  502 -0.12716802015E+04  0.12644746775E+04  0.98795812375E+02  0.17960592893E+04  0.12699999809E+01 0.  1.
</event>
<event>
 5   0  0.3279988E-08  0.3577904E+04  0.7818609E-02  0.8095572E-01
       -1   -1    0    0    0  501  0.00000000000E+00  0.00000000000E+00  0.16424718920E+04  0.16424718920E+04  0.50400001928E-02 0.  1.
        1   -1    0    0  501    0  0.00000000000E+00  0.00000000000E+00 -0.19484958832E+04  0.19484958832E+04  0.50400001928E-02 0. -1.
    10030    2    1    2    0    0  0.00000000000E+00  0.00000000000E+00 -0.30602399122E+03  0.35909677752E+04  0.35779042579E+04 0.  0.
        5    1    3    3  502    0  0.24891741209E+03  0.58201317416E+03 -0.18323301747E+04  0.19385961860E+04  0.46999998093E+01 0. -1.
       -5    1    3    3    0  502 -0.24891741209E+03 -0.58201317416E+03  0.15263061835E+04  0.16523715892E+04  0.46999998093E+01 0.  1.
</event>
<event>
 5   0  0.1029908E-07  0.3596408E+04  0.7818609E-02  0.8091315E-01
        2   -1    0    0  501    0  0.00000000000E+00  0.00000000000E+00  0.24235858553E+04  0.24235858553E+04  0.25500000920E-02 0. -1.
       -2   -1    0    0    0  501  0.00000000000E+00  0.00000000000E+00 -0.13341952463E+04  0.13341952463E+04  0.25500000920E-02 0.  1.
    10030    2    1    2    0    0  0.00000000000E+00  0.00000000000E+00  0.10893906090E+04  0.37577811016E+04  0.35964075004E+04 0.  0.
        4    1    3    3  502    0  0.39561006840E+03  0.56086185500E+03  0.22813389890E+04  0.23823481152E+04  0.12699999809E+01 0. -1.
       -4    1    3    3    0  502 -0.39561006840E+03 -0.56086185500E+03 -0.11919483800E+04  0.13754329864E+04  0.12699999809E+01 0.  1.
</event>
<event>
 5   0  0.1017794E-07  0.3604543E+04  0.7818609E-02  0.8089452E-01
        2   -1    0    0  501    0  0.00000000000E+00  0.00000000000E+00  0.13261556342E+04  0.13261556342E+04  0.25500000920E-02 0.  1.
       -2   -1    0    0    0  501  0.00000000000E+00  0.00000000000E+00 -0.24493224019E+04  0.24493224019E+04  0.25500000920E-02 0. -1.
    10030    2    1    2    0    0  0.00000000000E+00  0.00000000000E+00 -0.11231667677E+04  0.37754780361E+04  0.36045430797E+04 0.  0.
        1    1    3    3  502    0 -0.16364022060E+04  0.71103925397E+03 -0.82820056210E+03  0.19670549488E+04  0.50400001928E-02 0. -1.
       -1    1    3    3    0  502  0.16364022060E+04 -0.71103925397E+03 -0.29496620562E+03  0.18084230874E+04  0.50400001928E-02 0.  1.
</event>
<event>
 5   0  0.3215494E-08  0.3599351E+04  0.7818609E-02  0.8090640E-01
        1   -1    0    0  501    0  0.00000000000E+00  0.00000000000E+00  0.25125845751E+04  0.25125845751E+04  0.50400001928E-02 0.  1.
       -1   -1    0    0    0  501  0.00000000000E+00  0.00000000000E+00 -0.12890436071E+04  0.12890436072E+04  0.50400001928E-02 0. -1.
    10030    2    1    2    0    0  0.00000000000E+00  0.00000000000E+00  0.12235409680E+04  0.38016281823E+04  0.35993505436E+04 0.  0.
        4    1    3    3  502    0  0.89348617100E+03  0.10759804542E+04 -0.58447756986E+03  0.15158057653E+04  0.12699999809E+01 0. -1.
       -4    1    3    3    0  502 -0.89348617100E+03 -0.10759804542E+04  0.18080185378E+04  0.22858224169E+04  0.12699999809E+01 0.  1.
</event>
<event>
 5   0  0.1044678E-07  0.3598823E+04  0.7818609E-02  0.8090761E-01
       -2   -1    0    0    0  501  0.00000000000E+00  0.00000000000E+00  0.29328440066E+04  0.29328440066E+04  0.25500000920E-02 0. -1.
        2   -1    0    0  501    0  0.00000000000E+00  0.00000000000E+00 -0.11040076664E+04  0.11040076664E+04  0.25500000920E-02 0.  1.
    10030    2    1    2    0    0  0.00000000000E+00  0.00000000000E+00  0.18288363402E+04  0.40368516729E+04  0.35988232896E+04 0.  0.
        2    1    3    3  502    0  0.34896489924E+03  0.13745810890E+04  0.21567554586E+04  0.25812484924E+04  0.25500000920E-02 0. -1.
       -2    1    3    3    0  502 -0.34896489924E+03 -0.13745810890E+04 -0.32791911836E+03  0.14556031806E+04  0.25500000920E-02 0.  1.
</event>
<event>
 5   0  0.3279988E-08  0.3607515E+04  0.7818609E-02  0.8088772E-01
       -1   -1    0    0    0  501  0.00000000000E+00  0.00000000000E+00  0.15897966124E+04  0.15897966124E+04  0.50400001928E-02 0.  1.
        1   -1    0    0  501    0  0.00000000000E+00  0.00000000000E+00 -0.20465142106E+04  0.20465142106E+04  0.50400001928E-02 0. -1.
    10030    2    1    2    0    0  0.00000000000E+00  0.00000000000E+00 -0.45671759827E+03  0.36363108230E+04  0.36075151333E+04 0.  0.
        5    1    3    3  502    0 -0.12925220481E+04 -0.12556577639E+04 -0.30791665433E+03  0.18281478116E+04  0.46999998093E+01 0. -1.
       -5    1    3    3    0  502  0.12925220481E+04  0.12556577639E+04 -0.14880094394E+03  0.18081630114E+04  0.46999998093E+01 0.  1.
</event>
<event>
 5   0  0.1044678E-07  0.3599481E+04  0.7818609E-02  0.8090611E-01
        2   -1    0    0  501    0  0.00000000000E+00  0.00000000000E+00  0.10434785454E+04  0.10434785454E+04  0.25500000920E-02 0.  1.
       -2   -1    0    0    0  501  0.00000000000E+00  0.00000000000E+00 -0.31041035661E+04  0.31041035661E+04  0.25500000920E-02 0. -1.
    10030    2    1    2    0    0  0.00000000000E+00  0.00000000000E+00 -0.20606250207E+04  0.41475821115E+04  0.35994807814E+04 0.  0.
        2    1    3    3  502    0 -0.21727192124E+03 -0.17733893283E+03 -0.30787692579E+04  0.30915168329E+04  0.25500000920E-02 0. -1.
       -2    1    3    3    0  502  0.21727192124E+03  0.17733893283E+03  0.10181442372E+04  0.10560652786E+04  0.25500000920E-02 0.  1.
</event>
<event>
 5   0  0.3215494E-08  0.3602027E+04  0.7818609E-02  0.8090028E-01
       -1   -1    0    0    0  501  0.00000000000E+00  0.00000000000E+00  0.28417246618E+04  0.28417246618E+04  0.50400001928E-02 0.  1.
        1   -1    0    0  501    0  0.00000000000E+00  0.00000000000E+00 -0.11414367169E+04  0.11414367169E+04  0.50400001928E-02 0. -1.
    10030    2    1    2    0    0  0.00000000000E+00  0.00000000000E+00  0.17002879449E+04  0.39831613786E+04  0.36020265786E+04 0.  0.
        4    1    3    3  502    0 -0.31383206037E+02 -0.33261547415E+03  0.28071578128E+04  0.28269691470E+04  0.12699999809E+01 0.  1.
       -4    1    3    3    0  502  0.31383206037E+02  0.33261547415E+03 -0.11068698679E+04  0.11561922317E+04  0.12699999809E+01 0. -1.
</event>
<event>
 5   0  0.3215494E-08  0.3545956E+04  0.7818609E-02  0.8102985E-01
        1   -1    0    0  501    0  0.00000000000E+00  0.00000000000E+00  0.24188399316E+04  0.24188399316E+04  0.50400001928E-02 0.  1.
       -1   -1    0    0    0  501  0.00000000000E+00  0.00000000000E+00 -0.12995693706E+04  0.12995693707E+04  0.50400001928E-02 0. -1.
    10030    2    1    2    0    0  0.00000000000E+00  0.00000000000E+00  0.11192705609E+04  0.37184093022E+04  0.35459556047E+04 0.  0.
        4    1    3    3  502    0  0.46297593314E+02  0.10715818384E+04  0.20400365973E+04  0.23048171369E+04  0.12699999809E+01 0.  1.
       -4    1    3    3    0  502 -0.46297593314E+02 -0.10715818384E+04 -0.92076603630E+03  0.14135921654E+04  0.12699999809E+01 0. -1.
</event>
<event>
 5   0  0.3215494E-08  0.3574648E+04  0.7818609E-02  0.8096324E-01
       -1   -1    0    0    0  501  0.00000000000E+00  0.00000000000E+00  0.30801613318E+04  0.30801613318E+04  0.50400001928E-02 0. -1.
        1   -1    0    0  501    0  0.00000000000E+00  0.00000000000E+00 -0.10371297609E+04  0.10371297610E+04  0.50400001928E-02 0.  1.
    10030    2    1    2    0    0  0.00000000000E+00  0.00000000000E+00  0.20430315709E+04  0.41172910928E+04  0.35746479467E+04 0.  0.
        4    1    3    3  502    0 -0.59374851862E+02  0.16551884783E+04  0.24770362636E+03  0.16746739895E+04  0.12699999809E+01 0.  1.
       -4    1    3    3    0  502  0.59374851862E+02 -0.16551884783E+04  0.17953279445E+04  0.24426171033E+04  0.12699999809E+01 0. -1.
</event>
<event>
 5   0  0.1029908E-07  0.3604124E+04  0.7818609E-02  0.8089548E-01
       -2   -1    0    0    0  501  0.00000000000E+00  0.00000000000E+00  0.15067250011E+04  0.15067250011E+04  0.25500000920E-02 0.  1.
        2   -1    0    0  501    0  0.00000000000E+00  0.00000000000E+00 -0.21552890712E+04  0.21552890713E+04  0.25500000920E-02 0. -1.
    10030    2    1    2    0    0  0.00000000000E+00  0.00000000000E+00 -0.64856407018E+03  0.36620140723E+04  0.36041242643E+04 0.  0.
        4    1    3    3  502    0 -0.12881119847E+03 -0.15992643428E+04  0.50937667303E+03  0.16833612122E+04  0.12699999809E+01 0.  1.
       -4    1    3    3    0  502  0.12881119847E+03  0.15992643428E+04 -0.11579407432E+04  0.19786528601E+04  0.12699999809E+01 0. -1.
</event>
<event>
 5   0  0.3202875E-08  0.3565797E+04  0.7818609E-02  0.8098372E-01
       -3   -1    0    0    0  501  0.00000000000E+00  0.00000000000E+00  0.22629518210E+04  0.22629518233E+04  0.10100000352E+00 0.  1.
        3   -1    0    0  501    0  0.00000000000E+00  0.00000000000E+00 -0.14046815525E+04  0.14046815562E+04  0.10100000352E+00 0. -1.
    10030    2    1    2    0    0  0.00000000000E+00  0.00000000000E+00  0.85827026847E+03  0.36676333794E+04  0.35657967906E+04 0.  0.
        5    1    3    3  502    0 -0.35556345594E+02  0.69815541947E+03 -0.12578335831E+04  0.14390457450E+04  0.46999998093E+01 0. -1.
       -5    1    3    3    0  502  0.35556345594E+02 -0.69815541947E+03  0.21161038516E+04  0.22285876344E+04  0.46999998093E+01 0.  1.
</event>
<event>
 5   0  0.9905335E-08  0.3601324E+04  0.7818609E-02  0.8090189E-01
        2   -1    0    0  501    0  0.00000000000E+00  0.00000000000E+00  0.18785061377E+04  0.18785061377E+04  0.25500000920E-02 0. -1.
       -2   -1    0    0    0  501  0.00000000000E+00  0.00000000000E+00 -0.17260433607E+04  0.17260433607E+04  0.25500000920E-02 0.  1.
    10030    2    1    2    0    0  0.00000000000E+00  0.00000000000E+00  0.15246277696E+03  0.36045494984E+04  0.36013236717E+04 0.  0.
        5    1    3    3  502    0 -0.16889707455E+03 -0.42879888259E+03  0.18184703991E+04  0.18759667870E+04  0.46999998093E+01 0. -1.
       -5    1    3    3    0  502  0.16889707455E+03  0.42879888259E+03 -0.16660076221E+04  0.17285827115E+04  0.46999998093E+01 0.  1.
</event>
<event>
 5   0  0.9905335E-08  0.3589626E+04  0.7818609E-02  0.8092872E-01
        2   -1    0    0  501    0  0.00000000000E+00  0.00000000000E+00  0.18247694579E+04  0.18247694579E+04  0.25500000920E-02 0.  1.
       -2   -1    0    0    0  501  0.00000000000E+00  0.00000000000E+00 -0.17653481192E+04  0.17653481192E+04  0.25500000920E-02 0. -1.
    10030    2    1    2    0    0  0.00000000000E+00  0.00000000000E+00  0.59421338769E+02  0.35901175771E+04  0.35896257913E+04 0.  0.
        5    1    3    3  502    0 -0.49540115809E+03  0.97928377953E+03 -0.13906642430E+04  0.17715496480E+04  0.46999998093E+01 0. -1.
       -5    1    3    3    0  502  0.49540115809E+03 -0.97928377953E+03  0.14500855818E+04  0.18185679291E+04  0.46999998093E+01 0.  1.
</event>
<event>
 5   0  0.1029908E-07  0.3601421E+04  0.7818609E-02  0.8090166E-01
       -2   -1    0    0    0  501  0.00000000000E+00  0.00000000000E+00  0.14863256004E+04  0.14863256004E+04  0.25500000920E-02 0.  1.
        2   -1    0    0  501    0  0.00000000000E+00  0.00000000000E+00 -0.21815933468E+04  0.21815933468E+04  0.25500000920E-02 0. -1.
    10030    2    1    2    0    0  0.00000000000E+00  0.00000000000E+00 -0.69526774641E+03  0.36679189473E+04  0.36014208536E+04 0.  0.
        4    1    3    3  502    0 -0.97561830011E+03  0.15093020245E+04 -0.46255691853E+03  0.18557435664E+04  0.12699999809E+01 0. -1.
       -4    1    3    3    0  502  0.97561830011E+03 -0.15093020245E+04 -0.23271082788E+03  0.18121753808E+04  0.12699999809E+01 0.  1.
</event>
<event>
 5   0  0.3202875E-08  0.3595829E+04  0.7818609E-02  0.8091448E-01
       -1   -1    0    0    0  501  0.00000000000E+00  0.00000000000E+00  0.18338969329E+04  0.18338969329E+04  0.50400001928E-02 0.  1.
        1   -1    0    0  501    0  0.00000000000E+00  0.00000000000E+00 -0.17626383363E+04  0.17626383363E+04  0.50400001928E-02 0. -1.
    10030    2    1    2    0    0  0.00000000000E+00  0.00000000000E+00  0.71258596527E+02  0.35965352692E+04  0.35958292723E+04 0.  0.
        1    1    3    3  502    0 -0.11365605413E+04 -0.39356399841E+03 -0.13009842869E+04  0.17717851449E+04  0.50400001928E-02 0. -1.
       -1    1    3    3    0  502  0.11365605413E+04  0.39356399841E+03  0.13722428834E+04  0.18247501243E+04  0.50400001928E-02 0.  1.
</event>
<event>
 5   0  0.3202875E-08  0.3602495E+04  0.7818609E-02  0.8089920E-01
       -1   -1    0    0    0  501  0.00000000000E+00  0.00000000000E+00  0.34089570264E+04  0.34089570264E+04  0.50400001928E-02 0.  1.
        1   -1    0    0  501    0  0.00000000000E+00  0.00000000000E+00 -0.95175506689E+03  0.95175506690E+03  0.50400001928E-02 0. -1.
    10030    2    1    2    0    0  0.00000000000E+00  0.00000000000E+00  0.24572019596E+04  0.43607120933E+04  0.36024947593E+04 0.  0.
        2    1    3    3  502    0 -0.77247407274E+03  0.65160670106E+03 -0.57625196701E+03  0.11633459569E+04  0.25500000920E-02 0. -1.
       -2    1    3    3    0  502  0.77247407274E+03 -0.65160670106E+03  0.30334539266E+04  0.31973661365E+04  0.25500000920E-02 0.  1.
</event>
<event>
 5   0  0.1044678E-07  0.3600781E+04  0.7818609E-02  0.8090313E-01
       -2   -1    0    0    0  501  0.00000000000E+00  0.00000000000E+00  0.15657576360E+04  0.15657576360E+04  0.25500000920E-02 0. -1.
        2   -1    0    0  501    0  0.00000000000E+00  0.00000000000E+00 -0.20701837535E+04  0.20701837535E+04  0.25500000920E-02 0.  1.
    10030    2    1    2    0    0  0.00000000000E+00  0.00000000000E+00 -0.50442611747E+03  0.36359413895E+04  0.36007810375E+04 0.  0.
        2    1    3    3  502    0  0.63293625130E+03  0.15654694527E+04 -0.88289423640E+03  0.19054671706E+04  0.25500000920E-02 0.  1.
       -2    1    3    3    0  502 -0.63293625130E+03 -0.15654694527E+04  0.37846811893E+03  0.17304742190E+04  0.25500000920E-02 0. -1.
</event>
<event>
 5   0  0.3202875E-08  0.3600073E+04  0.7818609E-02  0.8090475E-01
       -1   -1    0    0    0  501  0.00000000000E+00  0.00000000000E+00  0.15509315280E+04  0.15509315280E+04  0.50400001928E-02 0. -1.
        1   -1    0    0  501    0  0.00000000000E+00  0.00000000000E+00 -0.20891515011E+04  0.20891515011E+04  0.50400001928E-02 0.  1.
    10030    2    1    2    0    0  0.00000000000E+00  0.00000000000E+00 -0.53821997307E+03  0.36400830292E+04  0.36000727381E+04 0.  0.
        2    1    3    3  502    0 -0.68976562397E+03 -0.14613081236E+04  0.53275668838E+03  0.17014781036E+04  0.25500000920E-02 0. -1.
       -2    1    3    3    0  502  0.68976562397E+03  0.14613081236E+04 -0.10709766614E+04  0.19386049256E+04  0.25500000920E-02 0.  1.
</event>
<event>
 5   0  0.1021087E-07  0.3600954E+04  0.7818609E-02  0.8090273E-01
       -2   -1    0    0    0  501  0.00000000000E+00  0.00000000000E+00  0.15731152927E+04  0.15731152927E+04  0.25500000920E-02 0. -1.
        2   -1    0    0  501    0  0.00000000000E+00  0.00000000000E+00 -0.20606986812E+04  0.20606986812E+04  0.25500000920E-02 0.  1.
    10030    2    1    2    0    0  0.00000000000E+00  0.00000000000E+00 -0.48758338852E+03  0.36338139739E+04  0.36009535454E+04 0.  0.
        3    1    3    3  502    0 -0.15190569231E+04  0.84125863481E+03 -0.72401941485E+03  0.18813437085E+04  0.10100000352E+00 0.  1.
       -3    1    3    3    0  502  0.15190569231E+04 -0.84125863481E+03  0.23643602633E+03  0.17524702654E+04  0.10100000352E+00 0. -1.
</event>
<event>
 5   0  0.9905335E-08  0.3637190E+04  0.7818609E-02  0.8082026E-01
        2   -1    0    0  501    0  0.00000000000E+00  0.00000000000E+00  0.20558100294E+04  0.20558100294E+04  0.25500000920E-02 0.  1.
       -2   -1    0    0    0  501  0.00000000000E+00  0.00000000000E+00 -0.16087516541E+04  0.16087516541E+04  0.25500000920E-02 0. -1.
    10030    2    1    2    0    0  0.00000000000E+00  0.00000000000E+00  0.44705837531E+03  0.36645616835E+04  0.36371900062E+04 0.  0.
        5    1    3    3  502    0  0.12406390263E+04 -0.12915181911E+04 -0.95175931121E+02  0.17934003958E+04  0.46999998093E+01 0. -1.
       -5    1    3    3    0  502 -0.12406390263E+04  0.12915181911E+04  0.54223430643E+03  0.18711612877E+04  0.46999998093E+01 0.  1.
</event>
<event>
 5   0  0.3279988E-08  0.3627305E+04  0.7818609E-02  0.8084266E-01
       -1   -1    0    0    0  501  0.00000000000E+00  0.00000000000E+00  0.11737535005E+04  0.11737535005E+04  0.50400001928E-02 0. -1.
        1   -1    0    0  501    0  0.00000000000E+00  0.00000000000E+00 -0.28024077069E+04  0.28024077069E+04  0.50400001928E-02 0.  1.
    10030    2    1    2    0    0  0.00000000000E+00  0.00000000000E+00 -0.16286542064E+04  0.39761612074E+04  0.36273052564E+04 0.  0.
        5    1    3    3  502    0 -0.10185236591E+03  0.60680730819E+03  0.10558401499E+04  0.12220513598E+04  0.46999998093E+01 0. -1.
       -5    1    3    3    0  502  0.10185236591E+03 -0.60680730819E+03 -0.26844943563E+04  0.27541098476E+04  0.46999998093E+01 0.  1.
</event>
<event>
 5   0  0.3212523E-08  0.3668750E+04  0.7818609E-02  0.8074923E-01
       -1   -1    0    0    0  501  0.00000000000E+00  0.00000000000E+00  0.14145928975E+04  0.14145928975E+04  0.50400001928E-02 0.  1.
        1   -1    0    0  501    0  0.00000000000E+00  0.00000000000E+00 -0.23787285323E+04  0.23787285324E+04  0.50400001928E-02 0. -1.
    10030    2    1    2    0    0  0.00000000000E+00  0.00000000000E+00 -0.96413563490E+03  0.37933214298E+04  0.36687504613E+04 0.  0.
        3    1    3    3  502    0  0.45483894867E+03  0.14595313172E+04 -0.15303072625E+04  0.21630881774E+04  0.10100000352E+00 0. -1.
       -3    1    3    3    0  502 -0.45483894867E+03 -0.14595313172E+04  0.56617162764E+03  0.16302332524E+04  0.10100000352E+00 0.  1.
</event>
<event>
 5   0  0.1021087E-07  0.3585317E+04  0.7818609E-02  0.8093863E-01
       -2   -1    0    0    0  501  0.00000000000E+00  0.00000000000E+00  0.16019481117E+04  0.16019481117E+04  0.25500000920E-02 0.  1.
        2   -1    0    0  501    0  0.00000000000E+00  0.00000000000E+00 -0.20060722786E+04  0.20060722786E+04  0.25500000920E-02 0. -1.
    10030    2    1    2    0    0  0.00000000000E+00  0.00000000000E+00 -0.40412416691E+03  0.36080203903E+04  0.35853165543E+04 0.  0.
        3    1    3    3  502    0 -0.12363981335E+04  0.12852978485E+04 -0.19383541919E+02  0.17835488880E+04  0.10100000352E+00 0. -1.
       -3    1    3    3    0  502  0.12363981335E+04 -0.12852978485E+04 -0.38474062499E+03  0.18244715023E+04  0.10100000352E+00 0.  1.
</event>
<event>
 5   0  0.1017794E-07  0.3597678E+04  0.7818609E-02  0.8091024E-01
       -2   -1    0    0    0  501  0.00000000000E+00  0.00000000000E+00  0.12728814320E+04  0.12728814320E+04  0.25500000920E-02 0. -1.
        2   -1    0    0  501    0  0.00000000000E+00  0.00000000000E+00 -0.25421233213E+04  0.25421233213E+04  0.25500000920E-02 0.  1.
    10030    2    1    2    0    0  0.00000000000E+00  0.00000000000E+00 -0.12692418893E+04  0.38150047533E+04  0.35976779030E+04 0.  0.
        1    1    3    3  502    0 -0.49184784671E+03  0.40388571999E+03 -0.24187494812E+04  0.25010771743E+04  0.50400001928E-02 0.  1.
       -1    1    3    3    0  502  0.49184784671E+03 -0.40388571999E+03  0.11495075918E+04  0.13139275790E+04  0.50400001928E-02 0. -1.
</event>
<event>
 5   0  0.1017794E-07  0.3604748E+04  0.7818609E-02  0.8089405E-01
       -2   -1    0    0    0  501  0.00000000000E+00  0.00000000000E+00  0.12174992412E+04  0.12174992412E+04  0.25500000920E-02 0.  1.
        2   -1    0    0  501    0  0.00000000000E+00  0.00000000000E+00 -0.26682173491E+04  0.26682173491E+04  0.25500000920E-02 0. -1.
    10030    2    1    2    0    0  0.00000000000E+00  0.00000000000E+00 -0.14507181080E+04  0.38857165903E+04  0.36047483118E+04 0.  0.
        1    1    3    3  502    0 -0.13794500290E+04 -0.62588134560E+03  0.32746871646E+03  0.15497888894E+04  0.50400001928E-02 0.  1.
       -1    1    3    3    0  502  0.13794500290E+04  0.62588134560E+03 -0.17781868244E+04  0.23359277009E+04  0.50400001928E-02 0. -1.
</event>
<event>
 5   0  0.1044678E-07  0.3543925E+04  0.7818609E-02  0.8103459E-01
       -2   -1    0    0    0  501  0.00000000000E+00  0.00000000000E+00  0.11859243619E+04  0.11859243619E+04  0.25500000920E-02 0. -1.
        2   -1    0    0  501    0  0.00000000000E+00  0.00000000000E+00 -0.26475976704E+04  0.26475976704E+04  0.25500000920E-02 0.  1.
    10030    2    1    2    0    0  0.00000000000E+00  0.00000000000E+00 -0.14616733085E+04  0.38335220323E+04  0.35439247045E+04 0.  0.
        2    1    3    3  502    0 -0.13471164446E+04 -0.42433687247E+03 -0.18883573178E+04  0.23581089577E+04  0.25500000920E-02 0.  1.
       -2    1    3    3    0  502  0.13471164446E+04  0.42433687247E+03  0.42668400934E+03  0.14754130746E+04  0.25500000920E-02 0. -1.
</event>
<event>
 5   0  0.3202875E-08  0.3601014E+04  0.7818609E-02  0.8090259E-01
       -1   -1    0    0    0  501  0.00000000000E+00  0.00000000000E+00  0.14483032610E+04  0.14483032610E+04  0.50400001928E-02 0.  1.
        1   -1    0    0  501    0  0.00000000000E+00  0.00000000000E+00 -0.22383613134E+04  0.22383613134E+04  0.50400001928E-02 0. -1.
    10030    2    1    2    0    0  0.00000000000E+00  0.00000000000E+00 -0.79005805241E+03  0.36866645744E+04  0.36010142957E+04 0.  0.
        1    1    3    3  502    0  0.10398522755E+03  0.95300641717E+03  0.11652918720E+04  0.15089530495E+04  0.50400001928E-02 0.  1.
       -1    1    3    3    0  502 -0.10398522755E+03 -0.95300641717E+03 -0.19553499244E+04  0.21777115249E+04  0.50400001928E-02 0. -1.
</event>
<event>
 5   0  0.1017794E-07  0.3595112E+04  0.7818609E-02  0.8091612E-01
        2   -1    0    0  501    0  0.00000000000E+00  0.00000000000E+00  0.17690589774E+04  0.17690589774E+04  0.25500000920E-02 0.  1.
       -2   -1    0    0    0  501  0.00000000000E+00  0.00000000000E+00 -0.18265121689E+04  0.18265121689E+04  0.25500000920E-02 0. -1.
    10030    2    1    2    0    0  0.00000000000E+00  0.00000000000E+00 -0.57453191553E+02  0.35955711463E+04  0.35951120983E+04 0.  0.
        1    1    3    3  502    0  0.13580810691E+04 -0.98187167842E+03 -0.67900310082E+03  0.18081762619E+04  0.50400001928E-02 0.  1.
       -1    1    3    3    0  502 -0.13580810691E+04  0.98187167842E+03  0.62154990927E+03  0.17873948844E+04  0.50400001928E-02 0. -1.
</event>
<event>
 5   0  0.1029908E-07  0.3598348E+04  0.7818609E-02  0.8090870E-01
       -2   -1    0    0    0  501  0.00000000000E+00  0.00000000000E+00  0.10044537703E+04  0.10044537703E+04  0.25500000920E-02 0.  1.
        2   -1    0    0  501    0  0.00000000000E+00  0.00000000000E+00 -0.32226745500E+04  0.32226745500E+04  0.25500000920E-02 0. -1.
    10030    2    1    2    0    0  0.00000000000E+00  0.00000000000E+00 -0.22182207797E+04  0.42271283204E+04  0.35983482891E+04 0.  0.
        4    1    3    3  502    0 -0.38800997625E+03 -0.12515776576E+04 -0.25574418809E+04  0.28735881684E+04  0.12699999809E+01 0. -1.
       -4    1    3    3    0  502  0.38800997625E+03  0.12515776576E+04  0.33922110118E+03  0.13535401520E+04  0.12699999809E+01 0.  1.
</event>
<event>
 5   0  0.1021087E-07  0.3596057E+04  0.7818609E-02  0.8091396E-01
       -2   -1    0    0    0  501  0.00000000000E+00  0.00000000000E+00  0.14535646371E+04  0.14535646371E+04  0.25500000920E-02 0.  1.
        2   -1    0    0  501    0  0.00000000000E+00  0.00000000000E+00 -0.22241226003E+04  0.22241226003E+04  0.25500000920E-02 0. -1.
    10030    2    1    2    0    0  0.00000000000E+00  0.00000000000E+00 -0.77055796320E+03  0.36776872374E+04  0.35960567072E+04 0.  0.
        3    1    3    3  502    0  0.15368768402E+04  0.93222288940E+03 -0.42957514932E+03  0.18481246594E+04  0.10100000352E+00 0.  1.
       -3    1    3    3    0  502 -0.15368768402E+04 -0.93222288940E+03 -0.34098281388E+03  0.18295625780E+04  0.10100000352E+00 0. -1.
</event>
<event>
 5   0  0.3279988E-08  0.3598691E+04  0.7818609E-02  0.8090792E-01
        1   -1    0    0  501    0  0.00000000000E+00  0.00000000000E+00  0.32443139721E+04  0.32443139721E+04  0.50400001928E-02 0. -1.
       -1   -1    0    0    0  501  0.00000000000E+00  0.00000000000E+00 -0.99794394665E+03  0.99794394666E+03  0.50400001928E-02 0.  1.
    10030    2    1    2    0    0  0.00000000000E+00  0.00000000000E+00  0.22463700254E+04  0.42422579188E+04  0.35986905894E+04 0.  0.
        5    1    3    3  502    0 -0.77258124822E+03 -0.15879586490E+04  0.15300567847E+04  0.23365766220E+04  0.46999998093E+01 0. -1.
       -5    1    3    3    0  502  0.77258124822E+03  0.15879586490E+04  0.71631324069E+03  0.19056812967E+04  0.46999998093E+01 0.  1.
</event>
<event>
 5   0  0.3202875E-08  0.3613342E+04  0.7818609E-02  0.8087442E-01
        1   -1    0    0  501    0  0.00000000000E+00  0.00000000000E+00  0.18437639246E+04  0.18437639246E+04  0.50400001928E-02 0.  1.
       -1   -1    0    0    0  501  0.00000000000E+00  0.00000000000E+00 -0.17703241439E+04  0.17703241439E+04  0.50400001928E-02 0. -1.
    10030    2    1    2    0    0  0.00000000000E+00  0.00000000000E+00  0.73439780730E+02  0.36140880685E+04  0.36133418279E+04 0.  0.
        2    1    3    3  502    0 -0.11766679642E+04  0.91898078495E+03 -0.98083313183E+03  0.17863669314E+04  0.25500000920E-02 0. -1.
       -2    1    3    3    0  502  0.11766679642E+04 -0.91898078495E+03  0.10542729126E+04  0.18277211371E+04  0.25500000920E-02 0.  1.
</event>
<event>
 5   0  0.1017794E-07  0.3600013E+04  0.7818609E-02  0.8090489E-01
        2   -1    0    0  501    0  0.00000000000E+00  0.00000000000E+00  0.17038795578E+04  0.17038795578E+04  0.25500000920E-02 0. -1.
       -2   -1    0    0    0  501  0.00000000000E+00  0.00000000000E+00 -0.19015563360E+04  0.19015563360E+04  0.25500000920E-02 0.  1.
    10030    2    1    2    0    0  0.00000000000E+00  0.00000000000E+00 -0.19767677818E+03  0.36054358939E+04  0.36000127605E+04 0.  0.
        1    1    3    3  502    0  0.43690091017E+03 -0.64550127308E+03  0.15260941800E+04  0.17136270729E+04  0.50400001928E-02 0. -1.
       -1    1    3    3    0  502 -0.43690091017E+03  0.64550127308E+03 -0.17237709581E+04  0.18918088209E+04  0.50400001928E-02 0.  1.
</event>
<event>
 5   0  0.1029908E-07  0.3600780E+04  0.7818609E-02  0.8090313E-01
       -2   -1    0    0    0  501  0.00000000000E+00  0.00000000000E+00  0.14223781251E+04  0.14223781251E+04  0.25500000920E-02 0.  1.
        2   -1    0    0  501    0  0.00000000000E+00  0.00000000000E+00 -0.22788626280E+04  0.22788626280E+04  0.25500000920E-02 0. -1.
    10030    2    1    2    0    0  0.00000000000E+00  0.00000000000E+00 -0.85648450294E+03  0.37012407531E+04  0.36007801111E+04 0.  0.
        4    1    3    3  502    0 -0.16003447523E+04 -0.51420366389E+03 -0.10911331625E+04  0.20040164484E+04  0.12699999809E+01 0. -1.
       -4    1    3    3    0  502  0.16003447523E+04  0.51420366389E+03  0.23464865955E+03  0.16972243047E+04  0.12699999809E+01 0.  1.
</event>
<event>
 5   0  0.1021087E-07  0.3590911E+04  0.7818609E-02  0.8092577E-01
        2   -1    0    0  501    0  0.00000000000E+00  0.00000000000E+00  0.23511124638E+04  0.23511124638E+04  0.25500000920E-02 0.  1.
       -2   -1    0    0    0  501  0.00000000000E+00  0.00000000000E+00 -0.13711214828E+04  0.13711214828E+04  0.25500000920E-02 0. -1.
    10030    2    1    2    0    0  0.00000000000E+00  0.00000000000E+00  0.97999098094E+03  0.37222339466E+04  0.35909111978E+04 0.  0.
        3    1    3    3  502    0  0.48007720426E+03  0.84854286769E+03 -0.10728432317E+04  0.14496522791E+04  0.10100000352E+00 0. -1.
       -3    1    3    3    0  502 -0.48007720426E+03 -0.84854286769E+03  0.20528342127E+04  0.22725816674E+04  0.10100000352E+00 0.  1.
</event>
<event>
 5   0  0.3212523E-08  0.3552461E+04  0.7818609E-02  0.8101469E-01
       -1   -1    0    0    0  501  0.00000000000E+00  0.00000000000E+00  0.16064827316E+04  0.16064827316E+04  0.50400001928E-02 0.  1.
        1   -1    0    0  501    0  0.00000000000E+00  0.00000000000E+00 -0.19639140042E+04  0.19639140042E+04  0.50400001928E-02 0. -1.
    10030    2    1    2    0    0  0.00000000000E+00  0.00000000000E+00 -0.35743127266E+03  0.35703967358E+04  0.35524605186E+04 0.  0.
        3    1    3    3  502    0 -0.34100029137E+03 -0.76112273024E+03 -0.17548826530E+04  0.19429879427E+04  0.10100000352E+00 0. -1.
       -3    1    3    3    0  502  0.34100029137E+03  0.76112273024E+03  0.13974513804E+04  0.16274087931E+04  0.10100000352E+00 0.  1.
</event>
<event>
 5   0  0.1044678E-07  0.3599389E+04  0.7818609E-02  0.8090632E-01
       -2   -1    0    0    0  501  0.00000000000E+00  0.00000000000E+00  0.14938967317E+04  0.14938967317E+04  0.25500000920E-02 0.  1.
        2   -1    0    0  501    0  0.00000000000E+00  0.00000000000E+00 -0.21680889831E+04  0.21680889831E+04  0.25500000920E-02 0. -1.
    10030    2    1    2    0    0  0.00000000000E+00  0.00000000000E+00 -0.67419225138E+03  0.36619857148E+04  0.35993894182E+04 0.  0.
        2    1    3    3  502    0 -0.13618232525E+04 -0.99861593603E+03  0.29590141869E+03  0.17144544346E+04  0.25500000920E-02 0.  1.
       -2    1    3    3    0  502  0.13618232525E+04  0.99861593603E+03 -0.97009367007E+03  0.19475312802E+04  0.25500000920E-02 0. -1.
</event>
<event>
 5   0  0.3202875E-08  0.3593820E+04  0.7818609E-02  0.8091909E-01
       -1   -1    0    0    0  501  0.00000000000E+00  0.00000000000E+00  0.14483565131E+04  0.14483565131E+04  0.50400001928E-02 0.  1.
        1   -1    0    0  501    0  0.00000000000E+00  0.00000000000E+00 -0.22293438288E+04  0.22293438288E+04  0.50400001928E-02 0. -1.
    10030    2    1    2    0    0  0.00000000000E+00  0.00000000000E+00 -0.78098731569E+03  0.36777003419E+04  0.35938195026E+04 0.  0.
        1    1    3    3  502    0  0.66126821167E+03  0.13408163999E+04  0.62967982319E+03  0.16222086628E+04  0.50400001928E-02 0.  1.
       -1    1    3    3    0  502 -0.66126821167E+03 -0.13408163999E+04 -0.14106671389E+04  0.20554916791E+04  0.50400001928E-02 0. -1.
</event>
<event>
 5   0  0.3202875E-08  0.3603690E+04  0.7818609E-02  0.8089647E-01
       -1   -1    0    0    0  501  0.00000000000E+00  0.00000000000E+00  0.18716220919E+04  0.18716220919E+04  0.50400001928E-02 0.  1.
        1   -1    0    0  501    0  0.00000000000E+00  0.00000000000E+00 -0.17346691802E+04  0.17346691802E+04  0.50400001928E-02 0. -1.
    10030    2    1    2    0    0  0.00000000000E+00  0.00000000000E+00  0.13695291169E+03  0.36062912720E+04  0.36036898644E+04 0.  0.
        2    1    3    3  502    0  0.11186986937E+04 -0.10084112860E+04  0.10582632750E+04  0.18407338885E+04  0.25500000920E-02 0. -1.
       -2    1    3    3    0  502 -0.11186986937E+04  0.10084112860E+04 -0.92131036332E+03  0.17655573835E+04  0.25500000920E-02 0.  1.
</event>
<event>
 5   0  0.9905335E-08  0.3598364E+04  0.7818609E-02  0.8090866E-01
       -2   -1    0    0    0  501  0.00000000000E+00  0.00000000000E+00  0.15551428925E+04  0.15551428925E+04  0.25500000920E-02 0. -1.
        2   -1    0    0  501    0  0.00000000000E+00  0.00000000000E+00 -0.20815168881E+04  0.20815168881E+04  0.25500000920E-02 0.  1.
    10030    2    1    2    0    0  0.00000000000E+00  0.00000000000E+00 -0.52637399560E+03  0.36366597806E+04  0.35983641806E+04 0.  0.
        5    1    3    3  502    0  0.11520726448E+04 -0.13815816520E+04 -0.29506414211E+03  0.18229438220E+04  0.46999998093E+01 0. -1.
       -5    1    3    3    0  502 -0.11520726448E+04  0.13815816520E+04 -0.23130985349E+03  0.18137159586E+04  0.46999998093E+01 0.  1.
</event>
<event>
 5   0  0.3202875E-08  0.3622385E+04  0.7818609E-02  0.8085383E-01
       -1   -1    0    0    0  501  0.00000000000E+00  0.00000000000E+00  0.19539018059E+04  0.19539018059E+04  0.50400001928E-02 0. -1.
        1   -1    0    0  501    0  0.00000000000E+00  0.00000000000E+00 -0.16789065510E+04  0.16789065511E+04  0.50400001928E-02 0.  1.
    10030    2    1    2    0    0  0.00000000000E+00  0.00000000000E+00  0.27499525486E+03  0.36328083570E+04  0.36223851491E+04 0.  0.
        1    1    3    3  502    0  0.65729877374E+03  0.16850714509E+04  0.23216771406E+03  0.18235704868E+04  0.50400001928E-02 0.  1.
       -1    1    3    3    0  502 -0.65729877374E+03 -0.16850714509E+04  0.42827540797E+02  0.18092378702E+04  0.50400001928E-02 0. -1.
</event>
<event>
 5   0  0.1029908E-07  0.3601435E+04  0.7818609E-02  0.8090163E-01
        2   -1    0    0  501    0  0.00000000000E+00  0.00000000000E+00  0.26726285672E+04  0.26726285672E+04  0.25500000920E-02 0.  1.
       -2   -1    0    0    0  501  0.00000000000E+00  0.00000000000E+00 -0.12132560556E+04  0.12132560556E+04  0.25500000920E-02 0. -1.
    10030    2    1    2    0    0  0.00000000000E+00  0.00000000000E+00  0.14593725116E+04  0.38858846228E+04  0.36014345995E+04 0.  0.
        4    1    3    3  502    0 -0.48695631105E+03  0.23954554436E+03  0.25822939396E+04  0.26387027343E+04  0.12699999809E+01 0.  1.
       -4    1    3    3    0  502  0.48695631105E+03 -0.23954554436E+03 -0.11229214280E+04  0.12471818885E+04  0.12699999809E+01 0. -1.
</event>
<event>
 5   0  0.1021087E-07  0.3607082E+04  0.7818609E-02  0.8088871E-01
       -2   -1    0    0    0  501  0.00000000000E+00  0.00000000000E+00  0.31338117708E+04  0.31338117708E+04  0.25500000920E-02 0.  1.
        2   -1    0    0  501    0  0.00000000000E+00  0.00000000000E+00 -0.10379562998E+04  0.10379562998E+04  0.25500000920E-02 0. -1.
    10030    2    1    2    0    0  0.00000000000E+00  0.00000000000E+00  0.20958554710E+04  0.41717680706E+04  0.36070817401E+04 0.  0.
        3    1    3    3  502    0 -0.37441704157E+03  0.17043010725E+04  0.52054960709E+03  0.18209344223E+04  0.10100000352E+00 0. -1.
       -3    1    3    3    0  502  0.37441704157E+03 -0.17043010725E+04  0.15753058639E+04  0.23508336483E+04  0.10100000352E+00 0.  1.
</event>
<event>
 5   0  0.9905335E-08  0.3605605E+04  0.7818609E-02  0.8089209E-01
       -2   -1    0    0    0  501  0.00000000000E+00  0.00000000000E+00  0.21019547309E+04  0.21019547309E+04  0.25500000920E-02 0.  1.
        2   -1    0    0  501    0  0.00000000000E+00  0.00000000000E+00 -0.15462261680E+04  0.15462261680E+04  0.25500000920E-02 0. -1.
    10030    2    1    2    0    0  0.00000000000E+00  0.00000000000E+00  0.55572856291E+03  0.36481808988E+04  0.36056053077E+04 0.  0.
        5    1    3    3  502    0  0.58464316979E+02  0.17746000071E+04 -0.37995031824E+02  0.17759754992E+04  0.46999998093E+01 0.  1.
       -5    1    3    3    0  502 -0.58464316979E+02 -0.17746000071E+04  0.59372359473E+03  0.18722053996E+04  0.46999998093E+01 0. -1.
</event>
<event>
 5   0  0.3212523E-08  0.3596310E+04  0.7818609E-02  0.8091337E-01
       -1   -1    0    0    0  501  0.00000000000E+00  0.00000000000E+00  0.22559725213E+04  0.22559725214E+04  0.50400001928E-02 0.  1.
        1   -1    0    0  501    0  0.00000000000E+00  0.00000000000E+00 -0.14332453659E+04  0.14332453659E+04  0.50400001928E-02 0. -1.
    10030    2    1    2    0    0  0.00000000000E+00  0.00000000000E+00  0.82272715547E+03  0.36892178872E+04  0.35963104214E+04 0.  0.
        3    1    3    3  502    0 -0.58968049398E+03 -0.59703103926E+03  0.20427923604E+04  0.22084315214E+04  0.10100000352E+00 0.  1.
       -3    1    3    3    0  502  0.58968049398E+03  0.59703103926E+03 -0.12200652049E+04  0.14807863658E+04  0.10100000352E+00 0. -1.
</event>
<event>
 5   0  0.1044678E-07  0.3600197E+04  0.7818609E-02  0.8090447E-01
       -2   -1    0    0    0  501  0.00000000000E+00  0.00000000000E+00  0.11693648295E+04  0.11693648295E+04  0.25500000920E-02 0.  1.
        2   -1    0    0  501    0  0.00000000000E+00  0.00000000000E+00 -0.27710381663E+04  0.27710381663E+04  0.25500000920E-02 0. -1.
    10030    2    1    2    0    0  0.00000000000E+00  0.00000000000E+00 -0.16016733368E+04  0.39404029957E+04  0.36001969794E+04 0.  0.
        2    1    3    3  502    0 -0.16593154593E+04  0.20444416975E+03 -0.15311450339E+04  0.22670532254E+04  0.25500000920E-02 0. -1.
       -2    1    3    3    0  502  0.16593154593E+04 -0.20444416975E+03 -0.70528302895E+02  0.16733497703E+04  0.25500000920E-02 0.  1.
</event>
<event>
 5   0  0.1029908E-07  0.3621846E+04  0.7818609E-02  0.8085506E-01
       -2   -1    0    0    0  501  0.00000000000E+00  0.00000000000E+00  0.14223211678E+04  0.14223211678E+04  0.25500000920E-02 0.  1.
        2   -1    0    0  501    0  0.00000000000E+00  0.00000000000E+00 -0.23056971480E+04  0.23056971480E+04  0.25500000920E-02 0. -1.
    10030    2    1    2    0    0  0.00000000000E+00  0.00000000000E+00 -0.88337598019E+03  0.37280183159E+04  0.36218458610E+04 0.  0.
        4    1    3    3  502    0  0.10571973568E+03 -0.17410829921E+04 -0.94267300674E+03  0.19827205195E+04  0.12699999809E+01 0. -1.
       -4    1    3    3    0  502 -0.10571973568E+03  0.17410829921E+04  0.59297026549E+02  0.17452977964E+04  0.12699999809E+01 0.  1.
</event>
<event>
 5   0  0.1029908E-07  0.3598046E+04  0.7818609E-02  0.8090939E-01
        2   -1    0    0  501    0  0.00000000000E+00  0.00000000000E+00  0.27571917963E+04  0.27571917963E+04  0.25500000920E-02 0. -1.
       -2   -1    0    0    0  501  0.00000000000E+00  0.00000000000E+00 -0.11738333745E+04  0.11738333745E+04  0.25500000920E-02 0.  1.
    10030    2    1    2    0    0  0.00000000000E+00  0.00000000000E+00  0.15833584219E+04  0.39310251708E+04  0.35980459977E+04 0.  0.
        4    1    3    3  502    0  0.38210550396E+03  0.81817340065E+03  0.24916551302E+04  0.26502375800E+04  0.12699999809E+01 0. -1.
       -4    1    3    3    0  502 -0.38210550396E+03 -0.81817340065E+03 -0.90829670828E+03  0.12807875908E+04  0.12699999809E+01 0.  1.
</event>
<event>
 5   0  0.3215494E-08  0.3590295E+04  0.7818609E-02  0.8092718E-01
       -1   -1    0    0    0  501  0.00000000000E+00  0.00000000000E+00  0.18508182630E+04  0.18508182630E+04  0.50400001928E-02 0.  1.
        1   -1    0    0  501    0  0.00000000000E+00  0.00000000000E+00 -0.17411515843E+04  0.17411515843E+04  0.50400001928E-02 0. -1.
    10030    2    1    2    0    0  0.00000000000E+00  0.00000000000E+00  0.10966667869E+03  0.35919698473E+04  0.35902953366E+04 0.  0.
        4    1    3    3  502    0  0.10828799691E+04 -0.13329792171E+04  0.57765808595E+03  0.18119473220E+04  0.12699999809E+01 0.  1.
       -4    1    3    3    0  502 -0.10828799691E+04  0.13329792171E+04 -0.46799140726E+03  0.17800225253E+04  0.12699999809E+01 0. -1.
</event>
<event>
 5   0  0.3279988E-08  0.3608521E+04  0.7818609E-02  0.8088543E-01
        1   -1    0    0  501    0  0.00000000000E+00  0.00000000000E+00  0.21776353780E+04  0.21776353781E+04  0.50400001928E-02 0. -1.
       -1   -1    0    0    0  501  0.00000000000E+00  0.00000000000E+00 -0.14949040906E+04  0.14949040906E+04  0.50400001928E-02 0.  1.
    10030    2    1    2    0    0  0.00000000000E+00  0.00000000000E+00  0.68273128748E+03  0.36725394686E+04  0.36085210458E+04 0.  0.
        5    1    3    3  502    0  0.15353295568E+04  0.45277393445E+03  0.11886573240E+04  0.19937826881E+04  0.46999998093E+01 0. -1.
       -5    1    3    3    0  502 -0.15353295568E+04 -0.45277393445E+03 -0.50592603650E+03  0.16787567805E+04  0.46999998093E+01 0.  1.
</event>
<event>
 5   0  0.3202875E-08  0.3675055E+04  0.7818609E-02  0.8073513E-01
       -1   -1    0    0    0  501  0.00000000000E+00  0.00000000000E+00  0.14639665806E+04  0.14639665807E+04  0.50400001928E-02 0. -1.
        1   -1    0    0  501    0  0.00000000000E+00  0.00000000000E+00 -0.23064100309E+04  0.23064100309E+04  0.50400001928E-02 0.  1.
    10030    2    1    2    0    0  0.00000000000E+00  0.00000000000E+00 -0.84244345025E+03  0.37703766116E+04  0.36750549419E+04 0.  0.
        1    1    3    3  502    0 -0.52313254187E+02  0.11750988643E+04 -0.18695435904E+04  0.22087976942E+04  0.50400001928E-02 0.  1.
       -1    1    3    3    0  502  0.52313254187E+02 -0.11750988643E+04  0.10271001401E+04  0.15615789174E+04  0.50400001928E-02 0. -1.
</event>
<event>
 5   0  0.3215494E-08  0.3600936E+04  0.7818609E-02  0.8090277E-01
        1   -1    0    0  501    0  0.00000000000E+00  0.00000000000E+00  0.15168102577E+04  0.15168102577E+04  0.50400001928E-02 0.  1.
       -1   -1    0    0    0  501  0.00000000000E+00  0.00000000000E+00 -0.21371723679E+04  0.21371723679E+04  0.50400001928E-02 0. -1.
    10030    2    1    2    0    0  0.00000000000E+00  0.00000000000E+00 -0.62036211026E+03  0.36539826256E+04  0.36009359729E+04 0.  0.
        4    1    3    3  502    0  0.13007538663E+04  0.39930935574E+03 -0.15066499157E+04  0.20301241745E+04  0.12699999809E+01 0. -1.
       -4    1    3    3    0  502 -0.13007538663E+04 -0.39930935574E+03  0.88628780548E+03  0.16238584511E+04  0.12699999809E+01 0.  1.
</event>
<event>
 5   0  0.3202875E-08  0.3599178E+04  0.7818609E-02  0.8090680E-01
        1   -1    0    0  501    0  0.00000000000E+00  0.00000000000E+00  0.17349416903E+04  0.17349416903E+04  0.50400001928E-02 0. -1.
       -1   -1    0    0    0  501  0.00000000000E+00  0.00000000000E+00 -0.18666449929E+04  0.18666449929E+04  0.50400001928E-02 0.  1.
    10030    2    1    2    0    0  0.00000000000E+00  0.00000000000E+00 -0.13170330263E+03  0.36015866832E+04  0.35991778057E+04 0.  0.
        1    1    3    3  502    0  0.80245450842E+03 -0.35168172971E+03  0.15071122813E+04  0.17432729865E+04  0.50400001928E-02 0. -1.
       -1    1    3    3    0  502 -0.80245450842E+03  0.35168172971E+03 -0.16388155839E+04  0.18583136967E+04  0.50400001928E-02 0.  1.
</event>
<event>
 5   0  0.1044678E-07  0.3598659E+04  0.7818609E-02  0.8090799E-01
        2   -1    0    0  501    0  0.00000000000E+00  0.00000000000E+00  0.24201745902E+04  0.24201745902E+04  0.25500000920E-02 0. -1.
       -2   -1    0    0    0  501  0.00000000000E+00  0.00000000000E+00 -0.13377491831E+04  0.13377491831E+04  0.25500000920E-02 0.  1.
    10030    2    1    2    0    0  0.00000000000E+00  0.00000000000E+00  0.10824254071E+04  0.37579237734E+04  0.35986589620E+04 0.  0.
        2    1    3    3  502    0 -0.11563527405E+04 -0.65717346080E+03 -0.72426011552E+03  0.15144574385E+04  0.25500000920E-02 0.  1.
       -2    1    3    3    0  502  0.11563527405E+04  0.65717346080E+03  0.18066855226E+04  0.22434663349E+04  0.25500000920E-02 0. -1.
</event>
<event>
 5   0  0.3215494E-08  0.3596723E+04  0.7818609E-02  0.8091243E-01
       -1   -1    0    0    0  501  0.00000000000E+00  0.00000000000E+00  0.97250798679E+03  0.97250798680E+03  0.50400001928E-02 0.  1.
        1   -1    0    0  501    0  0.00000000000E+00  0.00000000000E+00 -0.33255295493E+04  0.33255295493E+04  0.50400001928E-02 0. -1.
    10030    2    1    2    0    0  0.00000000000E+00  0.00000000000E+00 -0.23530215625E+04  0.42980375361E+04  0.35967229791E+04 0.  0.
        4    1    3    3  502    0 -0.16174369699E+04 -0.76111219299E+02 -0.24150904285E+03  0.16371388152E+04  0.12699999809E+01 0.  1.
       -4    1    3    3    0  502  0.16174369699E+04  0.76111219299E+02 -0.21115125197E+04  0.26608987210E+04  0.12699999809E+01 0. -1.
</event>
<event>
 5   0  0.1029908E-07  0.3593732E+04  0.7818609E-02  0.8091929E-01
        2   -1    0    0  501    0  0.00000000000E+00  0.00000000000E+00  0.19745794842E+04  0.19745794842E+04  0.25500000920E-02 0. -1.
       -2   -1    0    0    0  501  0.00000000000E+00  0.00000000000E+00 -0.16351465869E+04  0.16351465869E+04  0.25500000920E-02 0.  1.
    10030    2    1    2    0    0  0.00000000000E+00  0.00000000000E+00  0.33943289725E+03  0.36097260711E+04  0.35937317118E+04 0.  0.
        4    1    3    3  502    0 -0.21943869044E+03 -0.37114291627E+03  0.19218494680E+04  0.19696211295E+04  0.12699999809E+01 0. -1.
       -4    1    3    3    0  502  0.21943869044E+03  0.37114291627E+03 -0.15824165708E+04  0.16401049416E+04  0.12699999809E+01 0.  1.
</event>
<event>
 5   0  0.3202875E-08  0.3601419E+04  0.7818609E-02  0.8090167E-01
        1   -1    0    0  501    0  0.00000000000E+00  0.00000000000E+00  0.19433298767E+04  0.19433298767E+04  0.50400001928E-02 0.  1.
       -1   -1    0    0    0  501  0.00000000000E+00  0.00000000000E+00 -0.16685559597E+04  0.16685559597E+04  0.50400001928E-02 0. -1.
    10030    2    1    2    0    0  0.00000000000E+00  0.00000000000E+00  0.27477391696E+03  0.36118858364E+04  0.36014189689E+04 0.  0.
        1    1    3    3  502    0 -0.95758876839E+02  0.16483617718E+04 -0.58323340695E+03  0.17511217834E+04  0.50400001928E-02 0. -1.
       -1    1    3    3    0  502  0.95758876839E+02 -0.16483617718E+04  0.85800732390E+03  0.18607640530E+04  0.50400001928E-02 0.  1.
</event>
<event>
 5   0  0.3212523E-08  0.3587134E+04  0.7818609E-02  0.8093445E-01
        1   -1    0    0  501    0  0.00000000000E+00  0.00000000000E+00  0.15173518356E+04  0.15173518356E+04  0.50400001928E-02 0.  1.
       -1   -1    0    0    0  501  0.00000000000E+00  0.00000000000E+00 -0.21200636585E+04  0.21200636585E+04  0.50400001928E-02 0. -1.
    10030    2    1    2    0    0  0.00000000000E+00  0.00000000000E+00 -0.60271182293E+03  0.36374154941E+04  0.35871339444E+04 0.  0.
        3    1    3    3  502    0  0.13841526499E+04  0.18132607103E+03 -0.14432512808E+04  0.20079173220E+04  0.10100000352E+00 0. -1.
       -3    1    3    3    0  502 -0.13841526499E+04 -0.18132607103E+03  0.84053945786E+03  0.16294981721E+04  0.10100000352E+00 0.  1.
</event>
<event>
 5   0  0.1044678E-07  0.3597154E+04  0.7818609E-02  0.8091144E-01
       -2   -1    0    0    0  501  0.00000000000E+00  0.00000000000E+00  0.12993350777E+04  0.12993350777E+04  0.25500000920E-02 0.  1.
        2   -1    0    0  501    0  0.00000000000E+00  0.00000000000E+00 -0.24896421255E+04  0.24896421255E+04  0.25500000920E-02 0. -1.
    10030    2    1    2    0    0  0.00000000000E+00  0.00000000000E+00 -0.11903070478E+04  0.37889772031E+04  0.35971540665E+04 0.  0.
        2    1    3    3  502    0 -0.11490413929E+04 -0.38996095989E+03 -0.19935463922E+04  0.23337936693E+04  0.25500000920E-02 0. -1.
       -2    1    3    3    0  502  0.11490413929E+04  0.38996095989E+03  0.80323934445E+03  0.14551835339E+04  0.25500000920E-02 0.  1.
</event>
<event>
 5   0  0.1021087E-07  0.3595518E+04  0.7818609E-02  0.8091519E-01
        2   -1    0    0  501    0  0.00000000000E+00  0.00000000000E+00  0.19456641461E+04  0.19456641461E+04  0.25500000920E-02 0.  1.
       -2   -1    0    0    0  501  0.00000000000E+00  0.00000000000E+00 -0.16610971397E+04  0.16610971397E+04  0.25500000920E-02 0. -1.
    10030    2    1    2    0    0  0.00000000000E+00  0.00000000000E+00  0.28456700639E+03  0.36067612858E+04  0.35955178475E+04 0.  0.
        3    1    3    3  502    0  0.41077203099E+02  0.35982186650E+03 -0.16241255804E+04  0.16640141295E+04  0.10100000352E+00 0. -1.
       -3    1    3    3    0  502 -0.41077203099E+02 -0.35982186650E+03  0.19086925868E+04  0.19427471563E+04  0.10100000352E+00 0.  1.
</event>
<event>
 5   0  0.9905335E-08  0.3597702E+04  0.7818609E-02  0.8091018E-01
        2   -1    0    0  501    0  0.00000000000E+00  0.00000000000E+00  0.15800405128E+04  0.15800405128E+04  0.25500000920E-02 0. -1.
       -2   -1    0    0    0  501  0.00000000000E+00  0.00000000000E+00 -0.20479637688E+04  0.20479637688E+04  0.25500000920E-02 0.  1.
    10030    2    1    2    0    0  0.00000000000E+00  0.00000000000E+00 -0.46792325599E+03  0.36280042816E+04  0.35977024466E+04 0.  0.
        5    1    3    3  502    0 -0.13147062514E+04 -0.82751587512E+03  0.68065515765E+03  0.16960390870E+04  0.46999998093E+01 0. -1.
       -5    1    3    3    0  502  0.13147062514E+04  0.82751587512E+03 -0.11485784136E+04  0.19319651946E+04  0.46999998093E+01 0.  1.
</event>
<event>
 5   0  0.3215494E-08  0.3601276E+04  0.7818609E-02  0.8090199E-01
       -1   -1    0    0    0  501  0.00000000000E+00  0.00000000000E+00  0.11423535123E+04  0.11423535123E+04  0.50400001928E-02 0.  1.
        1   -1    0    0  501    0  0.00000000000E+00  0.00000000000E+00 -0.28382615025E+04  0.28382615025E+04  0.50400001928E-02 0. -1.
    10030    2    1    2    0    0  0.00000000000E+00  0.00000000000E+00 -0.16959079903E+04  0.39806150148E+04  0.36012764382E+04 0.  0.
        4    1    3    3  502    0  0.74401185691E+03  0.13735512223E+04 -0.18378918134E+04  0.24120622989E+04  0.12699999809E+01 0. -1.
       -4    1    3    3    0  502 -0.74401185691E+03 -0.13735512223E+04  0.14198382311E+03  0.15685527159E+04  0.12699999809E+01 0.  1.
</event>
<event>
 5   0  0.3202875E-08  0.3592306E+04  0.7818609E-02  0.8092256E-01
       -1   -1    0    0    0  501  0.00000000000E+00  0.00000000000E+00  0.18296559815E+04  0.18296559815E+04  0.50400001928E-02 0.  1.
        1   -1    0    0  501    0  0.00000000000E+00  0.00000000000E+00 -0.17632631278E+04  0.17632631278E+04  0.50400001928E-02 0. -1.
    10030    2    1    2    0    0  0.00000000000E+00  0.00000000000E+00  0.66392853682E+02  0.35929191093E+04  0.35923056266E+04 0.  0.
        1    1    3    3  502    0  0.14145290819E+04  0.42002482953E+03  0.10575058613E+04  0.18153875695E+04  0.50400001928E-02 0.  1.
       -1    1    3    3    0  502 -0.14145290819E+04 -0.42002482953E+03 -0.99111300765E+03  0.17775315398E+04  0.50400001928E-02 0. -1.
</event>
<event>
 5   0  0.3279988E-08  0.3602561E+04  0.7818609E-02  0.8089905E-01
       -1   -1    0    0    0  501  0.00000000000E+00  0.00000000000E+00  0.23388211099E+04  0.23388211099E+04  0.50400001928E-02 0.  1.
        1   -1    0    0  501    0  0.00000000000E+00  0.00000000000E+00 -0.13872848490E+04  0.13872848491E+04  0.50400001928E-02 0. -1.
    10030    2    1    2    0    0  0.00000000000E+00  0.00000000000E+00  0.95153626082E+03  0.37261059589E+04  0.36025608061E+04 0.  0.
        5    1    3    3  502    0  0.38231725560E+03  0.89097470873E+03 -0.10943791657E+04  0.14620842192E+04  0.46999998093E+01 0. -1.
       -5    1    3    3    0  502 -0.38231725560E+03 -0.89097470873E+03  0.20459154266E+04  0.22640217398E+04  0.46999998093E+01 0.  1.
</event>
<event>
 5   0  0.1021087E-07  0.3603102E+04  0.7818609E-02  0.8089781E-01
        2   -1    0    0  501    0  0.00000000000E+00  0.00000000000E+00  0.15153649963E+04  0.15153649963E+04  0.25500000920E-02 0.  1.
       -2   -1    0    0    0  501  0.00000000000E+00  0.00000000000E+00 -0.21417855784E+04  0.21417855784E+04  0.25500000920E-02 0. -1.
    10030    2    1    2    0    0  0.00000000000E+00  0.00000000000E+00 -0.62642058205E+03  0.36571505747E+04  0.36031024937E+04 0.  0.
        3    1    3    3  502    0 -0.10570248462E+04  0.55735414585E+03  0.10552127127E+04  0.15941828780E+04  0.10100000352E+00 0.  1.
       -3    1    3    3    0  502  0.10570248462E+04 -0.55735414585E+03 -0.16816332947E+04  0.20629676967E+04  0.10100000352E+00 0. -1.
</event>
<event>
 5   0  0.1044678E-07  0.3593516E+04  0.7818609E-02  0.8091979E-01
       -2   -1    0    0    0  501  0.00000000000E+00  0.00000000000E+00  0.24235483779E+04  0.24235483779E+04  0.25500000920E-02 0.  1.
        2   -1    0    0  501    0  0.00000000000E+00  0.00000000000E+00 -0.13320709643E+04  0.13320709643E+04  0.25500000920E-02 0. -1.
    10030    2    1    2    0    0  0.00000000000E+00  0.00000000000E+00  0.10914774136E+04  0.37556193422E+04  0.35935155071E+04 0.  0.
        2    1    3    3  502    0  0.15622899130E+04  0.57212225258E+03  0.12547708368E+04  0.20838722363E+04  0.25500000920E-02 0.  1.
       -2    1    3    3    0  502 -0.15622899130E+04 -0.57212225258E+03 -0.16329342322E+03  0.16717471060E+04  0.25500000920E-02 0. -1.
</event>
<event>
 5   0  0.3202875E-08  0.3599544E+04  0.7818609E-02  0.8090596E-01
       -1   -1    0    0    0  501  0.00000000000E+00  0.00000000000E+00  0.11570999123E+04  0.11570999123E+04  0.50400001928E-02 0. -1.
        1   -1    0    0  501    0  0.00000000000E+00  0.00000000000E+00 -0.27993947698E+04  0.27993947698E+04  0.50400001928E-02 0.  1.
    10030    2    1    2    0    0  0.00000000000E+00  0.00000000000E+00 -0.16422948575E+04  0.39564946821E+04  0.35995441059E+04 0.  0.
        2    1    3    3  502    0 -0.16181955902E+04 -0.32810897147E+03 -0.16083885857E+04  0.23050219756E+04  0.25500000920E-02 0.  1.
       -2    1    3    3    0  502  0.16181955902E+04  0.32810897147E+03 -0.33906271879E+02  0.16514727066E+04  0.25500000920E-02 0. -1.
</event>
<event>
 5   0  0.3202875E-08  0.3603815E+04  0.7818609E-02  0.8089618E-01
        1   -1    0    0  501    0  0.00000000000E+00  0.00000000000E+00  0.20962012903E+04  0.20962012903E+04  0.50400001928E-02 0. -1.
       -1   -1    0    0    0  501  0.00000000000E+00  0.00000000000E+00 -0.15489309485E+04  0.15489309485E+04  0.50400001928E-02 0.  1.
    10030    2    1    2    0    0  0.00000000000E+00  0.00000000000E+00  0.54727034178E+03  0.36451322388E+04  0.36038152300E+04 0.  0.
        2    1    3    3  502    0  0.14460961879E+04 -0.12584018846E+03 -0.80623844714E+03  0.16604368014E+04  0.25500000920E-02 0.  1.
       -2    1    3    3    0  502 -0.14460961879E+04  0.12584018846E+03  0.13535087889E+04  0.19846954375E+04  0.25500000920E-02 0. -1.
</event>
<event>
 5   0  0.1017794E-07  0.3599266E+04  0.7818609E-02  0.8090660E-01
        2   -1    0    0  501    0  0.00000000000E+00  0.00000000000E+00  0.16048066099E+04  0.16048066099E+04  0.25500000920E-02 0. -1.
       -2   -1    0    0    0  501  0.00000000000E+00  0.00000000000E+00 -0.20181111093E+04  0.20181111093E+04  0.25500000920E-02 0.  1.
    10030    2    1    2    0    0  0.00000000000E+00  0.00000000000E+00 -0.41330449940E+03  0.36229177193E+04  0.35992655072E+04 0.  0.
        1    1    3    3  502    0  0.64848432296E+03 -0.67868253241E+03 -0.17521691799E+04  0.19877723038E+04  0.50400001928E-02 0.  1.
       -1    1    3    3    0  502 -0.64848432296E+03  0.67868253241E+03  0.13388646805E+04  0.16351454154E+04  0.50400001928E-02 0. -1.
</event>
<event>
 5   0  0.3212523E-08  0.3592020E+04  0.7818609E-02  0.8092322E-01
       -1   -1    0    0    0  501  0.00000000000E+00  0.00000000000E+00  0.20978152501E+04  0.20978152501E+04  0.50400001928E-02 0. -1.
        1   -1    0    0  501    0  0.00000000000E+00  0.00000000000E+00 -0.15376245506E+04  0.15376245506E+04  0.50400001928E-02 0.  1.
    10030    2    1    2    0    0  0.00000000000E+00  0.00000000000E+00  0.56019069947E+03  0.36354398007E+04  0.35920201732E+04 0.  0.
        3    1    3    3  502    0  0.14957267885E+04  0.92525754339E+03  0.64829516430E+03  0.18744563952E+04  0.10100000352E+00 0. -1.
       -3    1    3    3    0  502 -0.14957267885E+04 -0.92525754339E+03 -0.88104464831E+02  0.17609834055E+04  0.10100000352E+00 0.  1.
</event>
<event>
 5   0  0.1017794E-07  0.3594524E+04  0.7818609E-02  0.8091747E-01
        2   -1    0    0  501    0  0.00000000000E+00  0.00000000000E+00  0.25234968783E+04  0.25234968783E+04  0.25500000920E-02 0.  1.
       -2   -1    0    0    0  501  0.00000000000E+00  0.00000000000E+00 -0.12800297280E+04  0.12800297280E+04  0.25500000920E-02 0. -1.
    10030    2    1    2    0    0  0.00000000000E+00  0.00000000000E+00  0.12434671504E+04  0.38035266063E+04  0.35945241814E+04 0.  0.
        1    1    3    3  502    0  0.21047976085E+03  0.50341671699E+03 -0.11902664618E+04  0.13093755652E+04  0.50400001928E-02 0. -1.
       -1    1    3    3    0  502 -0.21047976085E+03 -0.50341671699E+03  0.24337336122E+04  0.24941510411E+04  0.50400001928E-02 0.  1.
</event>
<event>
 5   0  0.3202875E-08  0.3599795E+04  0.7818609E-02  0.8090539E-01
        1   -1    0    0  501    0  0.00000000000E+00  0.00000000000E+00  0.20457289130E+04  0.20457289130E+04  0.50400001928E-02 0.  1.
       -1   -1    0    0    0  501  0.00000000000E+00  0.00000000000E+00 -0.15836068782E+04  0.15836068782E+04  0.50400001928E-02 0. -1.
    10030    2    1    2    0    0  0.00000000000E+00  0.00000000000E+00  0.46212203486E+03  0.36293357912E+04  0.35997946483E+04 0.  0.
        2    1    3    3  502    0 -0.11786523738E+04 -0.70097931147E+03 -0.94428315725E+03  0.16650117401E+04  0.25500000920E-02 0.  1.
       -2    1    3    3    0  502  0.11786523738E+04  0.70097931147E+03  0.14064051921E+04  0.19643240511E+04  0.25500000920E-02 0. -1.
</event>
<event>
 5   0  0.3215494E-08  0.3611171E+04  0.7818609E-02  0.8087938E-01
        1   -1    0    0  501    0  0.00000000000E+00  0.00000000000E+00  0.98292766570E+03  0.98292766572E+03  0.50400001928E-02 0. -1.
       -1   -1    0    0    0  501  0.00000000000E+00  0.00000000000E+00 -0.33167640771E+04  0.33167640771E+04  0.50400001928E-02 0.  1.
    10030    2    1    2    0    0  0.00000000000E+00  0.00000000000E+00 -0.23338364114E+04  0.42996917428E+04  0.36111710965E+04 0.  0.
        4    1    3    3  502    0 -0.54701900874E+03  0.15674920388E+04 -0.20121022602E+04  0.26086046473E+04  0.12699999809E+01 0. -1.
       -4    1    3    3    0  502  0.54701900874E+03 -0.15674920388E+04 -0.32173415115E+03  0.16910870955E+04  0.12699999809E+01 0.  1.
</event>
<event>
 5   0  0.1029908E-07  0.3599741E+04  0.7818609E-02  0.8090551E-01
       -2   -1    0    0    0  501  0.00000000000E+00  0.00000000000E+00  0.25913724609E+04  0.25913724609E+04  0.25500000920E-02 0. -1.
        2   -1    0    0  501    0  0.00000000000E+00  0.00000000000E+00 -0.12501225241E+04  0.12501225241E+04  0.25500000920E-02 0.  1.
    10030    2    1    2    0    0  0.00000000000E+00  0.00000000000E+00  0.13412499368E+04  0.38414949850E+04  0.35997405916E+04 0.  0.
        4    1    3    3  502    0 -0.56281607510E+02  0.60081955249E+03 -0.11389503644E+04  0.12889380511E+04  0.12699999809E+01 0.  1.
       -4    1    3    3    0  502  0.56281607510E+02 -0.60081955249E+03  0.24802003012E+04  0.25525569339E+04  0.12699999809E+01 0. -1.
</event>
<event>
 5   0  0.1044678E-07  0.3601110E+04  0.7818609E-02  0.8090238E-01
       -2   -1    0    0    0  501  0.00000000000E+00  0.00000000000E+00  0.14427150992E+04  0.14427150992E+04  0.25500000920E-02 0.  1.
        2   -1    0    0  501    0  0.00000000000E+00  0.00000000000E+00 -0.22471504085E+04  0.22471504085E+04  0.25500000920E-02 0. -1.
    10030    2    1    2    0    0  0.00000000000E+00  0.00000000000E+00 -0.80443530928E+03  0.36898655077E+04  0.36011097314E+04 0.  0.
        2    1    3    3  502    0  0.27013230124E+03  0.12926450493E+03  0.14170187045E+04  0.14483172240E+04  0.25500000920E-02 0.  1.
       -2    1    3    3    0  502 -0.27013230124E+03 -0.12926450493E+03 -0.22214540138E+04  0.22415482836E+04  0.25500000920E-02 0. -1.
</event>
<event>
 5   0  0.3279988E-08  0.3610962E+04  0.7818609E-02  0.8087985E-01
       -1   -1    0    0    0  501  0.00000000000E+00  0.00000000000E+00  0.10468286173E+04  0.10468286173E+04  0.50400001928E-02 0. -1.
        1   -1    0    0  501    0  0.00000000000E+00  0.00000000000E+00 -0.31139393016E+04  0.31139393016E+04  0.50400001928E-02 0.  1.
    10030    2    1    2    0    0  0.00000000000E+00  0.00000000000E+00 -0.20671106843E+04  0.41607679189E+04  0.36109615194E+04 0.  0.
        5    1    3    3  502    0 -0.82854018501E+03 -0.12980163857E+04  0.52515513161E+02  0.15408132089E+04  0.46999998093E+01 0. -1.
       -5    1    3    3    0  502  0.82854018501E+03  0.12980163857E+04 -0.21196261974E+04  0.26199547100E+04  0.46999998093E+01 0.  1.
</event>
<event>
 5   0  0.9905335E-08  0.3567666E+04  0.7818609E-02  0.8097939E-01
        2   -1    0    0  501    0  0.00000000000E+00  0.00000000000E+00  0.17654742622E+04  0.17654742622E+04  0.25500000920E-02 0.  1.
       -2   -1    0    0    0  501  0.00000000000E+00  0.00000000000E+00 -0.18023825731E+04  0.18023825731E+04  0.25500000920E-02 0. -1.
    10030    2    1    2    0    0  0.00000000000E+00  0.00000000000E+00 -0.36908310914E+02  0.35678568353E+04  0.35676659280E+04 0.  0.
        5    1    3    3  502    0 -0.11679272123E+04  0.82651441431E+03 -0.10838082562E+04  0.17949491571E+04  0.46999998093E+01 0. -1.
       -5    1    3    3    0  502  0.11679272123E+04 -0.82651441431E+03  0.10468999453E+04  0.17729076783E+04  0.46999998093E+01 0.  1.
</event>
<event>
 5   0  0.1044678E-07  0.3599134E+04  0.7818609E-02  0.8090690E-01
       -2   -1    0    0    0  501  0.00000000000E+00  0.00000000000E+00  0.22225011227E+04  0.22225011227E+04  0.25500000920E-02 0. -1.
        2   -1    0    0  501    0  0.00000000000E+00  0.00000000000E+00 -0.14571156863E+04  0.14571156863E+04  0.25500000920E-02 0.  1.
    10030    2    1    2    0    0  0.00000000000E+00  0.00000000000E+00  0.76538543637E+03  0.36796168090E+04  0.35991339229E+04 0.  0.
        2    1    3    3  502    0  0.15565269030E+03 -0.13233094624E+03 -0.14452208822E+04  0.14595898868E+04  0.25500000920E-02 0.  1.
       -2    1    3    3    0  502 -0.15565269030E+03  0.13233094624E+03  0.22106063186E+04  0.22200269221E+04  0.25500000920E-02 0. -1.
</event>
<event>
 5   0  0.3202875E-08  0.3598124E+04  0.7818609E-02  0.8090922E-01
        1   -1    0    0  501    0  0.00000000000E+00  0.00000000000E+00  0.18362783397E+04  0.18362783397E+04  0.50400001928E-02 0. -1.
       -1   -1    0    0    0  501  0.00000000000E+00  0.00000000000E+00 -0.17625997079E+04  0.17625997079E+04  0.50400001928E-02 0.  1.
    10030    2    1    2    0    0  0.00000000000E+00  0.00000000000E+00  0.73678631749E+02  0.35988780476E+04  0.35981237695E+04 0.  0.
        2    1    3    3  502    0  0.11925012901E+04 -0.13470995210E+03  0.13774253129E+04  0.18268843945E+04  0.25500000920E-02 0.  1.
       -2    1    3    3    0  502 -0.11925012901E+04  0.13470995210E+03 -0.13037466812E+04  0.17719936531E+04  0.25500000920E-02 0. -1.
</event>
<event>
 5   0  0.3212523E-08  0.3596147E+04  0.7818609E-02  0.8091375E-01
       -1   -1    0    0    0  501  0.00000000000E+00  0.00000000000E+00  0.25819866592E+04  0.25819866592E+04  0.50400001928E-02 0.  1.
        1   -1    0    0  501    0  0.00000000000E+00  0.00000000000E+00 -0.12521631860E+04  0.12521631860E+04  0.50400001928E-02 0. -1.
    10030    2    1    2    0    0  0.00000000000E+00  0.00000000000E+00  0.13298234732E+04  0.38341498453E+04  0.35961471836E+04 0.  0.
        3    1    3    3  502    0 -0.75252169152E+03  0.59156308330E+03 -0.95794048766E+03  0.13542103846E+04  0.10100000352E+00 0. -1.
       -3    1    3    3    0  502  0.75252169152E+03 -0.59156308330E+03  0.22877639608E+04  0.24799394606E+04  0.10100000352E+00 0.  1.
</event>
<event>
 5   0  0.1017794E-07  0.3605981E+04  0.7818609E-02  0.8089123E-01
        2   -1    0    0  501    0  0.00000000000E+00  0.00000000000E+00  0.13923342609E+04  0.13923342609E+04  0.25500000920E-02 0. -1.
       -2   -1    0    0    0  501  0.00000000000E+00  0.00000000000E+00 -0.23347660503E+04  0.23347660503E+04  0.25500000920E-02 0.  1.
    10030    2    1    2    0    0  0.00000000000E+00  0.00000000000E+00 -0.94243178943E+03  0.37271003112E+04  0.36059810111E+04 0.  0.
        1    1    3    3  502    0 -0.15952099403E+04  0.31635475268E+03  0.33339117366E+03  0.16600978158E+04  0.50400001928E-02 0. -1.
       -1    1    3    3    0  502  0.15952099403E+04 -0.31635475268E+03 -0.12758229631E+04  0.20670024955E+04  0.50400001928E-02 0.  1.
</event>
<event>
 5   0  0.3212523E-08  0.3610729E+04  0.7818609E-02  0.8088039E-01
        1   -1    0    0  501    0  0.00000000000E+00  0.00000000000E+00  0.27282180110E+04  0.27282180110E+04  0.50400001928E-02 0. -1.
       -1   -1    0    0    0  501  0.00000000000E+00  0.00000000000E+00 -0.11946775051E+04  0.11946775051E+04  0.50400001928E-02 0.  1.
    10030    2    1    2    0    0  0.00000000000E+00  0.00000000000E+00  0.15335405059E+04  0.39228955160E+04  0.36107288387E+04 0.  0.
        3    1    3    3  502    0 -0.15022237535E+02 -0.86082261493E+03  0.24908140892E+04  0.26354119373E+04  0.10100000352E+00 0. -1.
       -3    1    3    3    0  502  0.15022237535E+02  0.86082261493E+03 -0.95727358331E+03  0.12874835787E+04  0.10100000352E+00 0.  1.
</event>
<event>
 5   0  0.1044678E-07  0.3588875E+04  0.7818609E-02  0.8093045E-01
        2   -1    0    0  501    0  0.00000000000E+00  0.00000000000E+00  0.15339882746E+04  0.15339882746E+04  0.25500000920E-02 0. -1.
       -2   -1    0    0    0  501  0.00000000000E+00  0.00000000000E+00 -0.20991066937E+04  0.20991066937E+04  0.25500000920E-02 0.  1.
    10030    2    1    2    0    0  0.00000000000E+00  0.00000000000E+00 -0.56511841909E+03  0.36330949684E+04  0.35888745062E+04 0.  0.
        2    1    3    3  502    0  0.61474784006E+03  0.18169970510E+03  0.14141217008E+04  0.15526332067E+04  0.25500000920E-02 0. -1.
       -2    1    3    3    0  502 -0.61474784006E+03 -0.18169970510E+03 -0.19792401199E+04  0.20804617617E+04  0.25500000920E-02 0.  1.
</event>
<event>
 5   0  0.1021087E-07  0.3600984E+04  0.7818609E-02  0.8090266E-01
        2   -1    0    0  501    0  0.00000000000E+00  0.00000000000E+00  0.12616940759E+04  0.12616940759E+04  0.25500000920E-02 0.  1.
       -2   -1    0    0    0  501  0.00000000000E+00  0.00000000000E+00 -0.25693800447E+04  0.25693800447E+04  0.25500000920E-02 0. -1.
    10030    2    1    2    0    0  0.00000000000E+00  0.00000000000E+00 -0.13076859688E+04  0.38310741207E+04  0.36009840773E+04 0.  0.
        3    1    3    3  502    0 -0.13436730085E+04 -0.26768259945E+02 -0.19285657946E+04  0.23506466616E+04  0.10100000352E+00 0. -1.
       -3    1    3    3    0  502  0.13436730085E+04  0.26768259945E+02  0.62087982576E+03  0.14804274591E+04  0.10100000352E+00 0.  1.
</event>
<event>
 5   0  0.1017794E-07  0.3601283E+04  0.7818609E-02  0.8090198E-01
        2   -1    0    0  501    0  0.00000000000E+00  0.00000000000E+00  0.19951860287E+04  0.19951860287E+04  0.25500000920E-02 0. -1.
       -2   -1    0    0    0  501  0.00000000000E+00  0.00000000000E+00 -0.16250665420E+04  0.16250665420E+04  0.25500000920E-02 0.  1.
    10030    2    1    2    0    0  0.00000000000E+00  0.00000000000E+00  0.37011948666E+03  0.36202525706E+04  0.36012831381E+04 0.  0.
        1    1    3    3  502    0  0.16633433218E+04  0.85819355600E+02  0.87294043434E+03  0.18804523312E+04  0.50400001928E-02 0. -1.
       -1    1    3    3    0  502 -0.16633433218E+04 -0.85819355600E+02 -0.50282094768E+03  0.17398002395E+04  0.50400001928E-02 0.  1.
</event>
<event>
 5   0  0.9905335E-08  0.3603887E+04  0.7818609E-02  0.8089602E-01
       -2   -1    0    0    0  501  0.00000000000E+00  0.00000000000E+00  0.13911411942E+04  0.13911411942E+04  0.25500000920E-02 0.  1.
        2   -1    0    0  501    0  0.00000000000E+00  0.00000000000E+00 -0.23340547756E+04  0.23340547756E+04  0.25500000920E-02 0. -1.
    10030    2    1    2    0    0  0.00000000000E+00  0.00000000000E+00 -0.94291358144E+03  0.37251959698E+04  0.36038866507E+04 0.  0.
        5    1    3    3  502    0  0.90623549763E+03  0.13912003783E+03  0.11320040050E+04  0.14567334414E+04  0.46999998093E+01 0.  1.
       -5    1    3    3    0  502 -0.90623549763E+03 -0.13912003783E+03 -0.20749175864E+04  0.22684625284E+04  0.46999998093E+01 0. -1.
</event>
<event>
 5   0  0.3215494E-08  0.3595914E+04  0.7818609E-02  0.8091428E-01
       -1   -1    0    0    0  501  0.00000000000E+00  0.00000000000E+00  0.20988753539E+04  0.20988753539E+04  0.50400001928E-02 0.  1.
        1   -1    0    0  501    0  0.00000000000E+00  0.00000000000E+00 -0.15401815917E+04  0.15401815917E+04  0.50400001928E-02 0. -1.
    10030    2    1    2    0    0  0.00000000000E+00  0.00000000000E+00  0.55869376224E+03  0.36390569456E+04  0.35959138941E+04 0.  0.
        4    1    3    3  502    0  0.11518506737E+04 -0.20987106163E+03  0.16602110111E+04  0.20315285013E+04  0.12699999809E+01 0.  1.
       -4    1    3    3    0  502 -0.11518506737E+04  0.20987106163E+03 -0.11015172489E+04  0.16075284444E+04  0.12699999809E+01 0. -1.
</event>
<event>
 5   0  0.3279988E-08  0.3597482E+04  0.7818609E-02  0.8091069E-01
        1   -1    0    0  501    0  0.00000000000E+00  0.00000000000E+00  0.14812921378E+04  0.14812921378E+04  0.50400001928E-02 0. -1.
       -1   -1    0    0    0  501  0.00000000000E+00  0.00000000000E+00 -0.21842208706E+04  0.21842208707E+04  0.50400001928E-02 0.  1.
    10030    2    1    2    0    0  0.00000000000E+00  0.00000000000E+00 -0.70292873288E+03  0.36655130084E+04  0.35974820099E+04 0.  0.
        5    1    3    3  502    0  0.12345959235E+03 -0.26580183480E+03  0.14567948168E+04  0.14859899443E+04  0.46999998093E+01 0. -1.
       -5    1    3    3    0  502 -0.12345959235E+03  0.26580183480E+03 -0.21597235496E+04  0.21795230642E+04  0.46999998093E+01 0.  1.
</event>
<event>
 5   0  0.1029908E-07  0.3607287E+04  0.7818609E-02  0.8088825E-01
       -2   -1    0    0    0  501  0.00000000000E+00  0.00000000000E+00  0.16632759373E+04  0.16632759373E+04  0.25500000920E-02 0. -1.
        2   -1    0    0  501    0  0.00000000000E+00  0.00000000000E+00 -0.19558570374E+04  0.19558570374E+04  0.25500000920E-02 0.  1.
    10030    2    1    2    0    0  0.00000000000E+00  0.00000000000E+00 -0.29258110010E+03  0.36191329746E+04  0.36072870399E+04 0.  0.
        4    1    3    3  502    0 -0.83416457661E+03  0.75023006295E+02 -0.17489307664E+04  0.19391285235E+04  0.12699999809E+01 0.  1.
       -4    1    3    3    0  502  0.83416457661E+03 -0.75023006295E+02  0.14563496663E+04  0.16800044511E+04  0.12699999809E+01 0. -1.
</event>
<event>
 5   0  0.3215494E-08  0.3597003E+04  0.7818609E-02  0.8091178E-01
        1   -1    0    0  501    0  0.00000000000E+00  0.00000000000E+00  0.22805179096E+04  0.22805179096E+04  0.50400001928E-02 0.  1.
       -1   -1    0    0    0  501  0.00000000000E+00  0.00000000000E+00 -0.14183656994E+04  0.14183656994E+04  0.50400001928E-02 0. -1.
    10030    2    1    2    0    0  0.00000000000E+00  0.00000000000E+00  0.86215221014E+03  0.36988836090E+04  0.35970034083E+04 0.  0.
        4    1    3    3  502    0  0.10951050954E+04  0.54700973649E+03  0.17860195886E+04  0.21652580459E+04  0.12699999809E+01 0.  1.
       -4    1    3    3    0  502 -0.10951050954E+04 -0.54700973649E+03 -0.92386737846E+03  0.15336255630E+04  0.12699999809E+01 0. -1.
</event>
<event>
 5   0  0.3212523E-08  0.3604608E+04  0.7818609E-02  0.8089437E-01
       -1   -1    0    0    0  501  0.00000000000E+00  0.00000000000E+00  0.20321725140E+04  0.20321725140E+04  0.50400001928E-02 0. -1.
        1   -1    0    0  501    0  0.00000000000E+00  0.00000000000E+00 -0.15984371115E+04  0.15984371115E+04  0.50400001928E-02 0.  1.
    10030    2    1    2    0    0  0.00000000000E+00  0.00000000000E+00  0.43373540248E+03  0.36306096255E+04  0.36046081415E+04 0.  0.
        3    1    3    3  502    0  0.74730726814E+03  0.16133110037E+04 -0.80318981256E+02  0.17798010273E+04  0.10100000352E+00 0.  1.
       -3    1    3    3    0  502 -0.74730726814E+03 -0.16133110037E+04  0.51405438374E+03  0.18508085982E+04  0.10100000352E+00 0. -1.
</event>
<event>
 5   0  0.1017794E-07  0.3619321E+04  0.7818609E-02  0.8086080E-01
        2   -1    0    0  501    0  0.00000000000E+00  0.00000000000E+00  0.21296799467E+04  0.21296799467E+04  0.25500000920E-02 0.  1.
       -2   -1    0    0    0  501  0.00000000000E+00  0.00000000000E+00 -0.15377294585E+04  0.15377294585E+04  0.25500000920E-02 0. -1.
    10030    2    1    2    0    0  0.00000000000E+00  0.00000000000E+00  0.59195048819E+03  0.36674094053E+04  0.36193212576E+04 0.  0.
        1    1    3    3  502    0  0.12608035433E+04  0.80756784361E+03  0.13258852527E+04  0.19999407742E+04  0.50400001928E-02 0.  1.
       -1    1    3    3    0  502 -0.12608035433E+04 -0.80756784361E+03 -0.73393476456E+03  0.16674686311E+04  0.50400001928E-02 0. -1.
</event>
<event>
 5   0  0.3279988E-08  0.3600292E+04  0.7818609E-02  0.8090425E-01
        1   -1    0    0  501    0  0.00000000000E+00  0.00000000000E+00  0.20766996926E+04  0.20766996926E+04  0.50400001928E-02 0.  1.
       -1   -1    0    0    0  501  0.00000000000E+00  0.00000000000E+00 -0.15604209891E+04  0.15604209891E+04  0.50400001928E-02 0. -1.
    10030    2    1    2    0    0  0.00000000000E+00  0.00000000000E+00  0.51627870345E+03  0.36371206817E+04  0.36002920928E+04 0.  0.
        5    1    3    3  502    0 -0.77636888086E+03  0.19794686968E+01  0.18988684659E+04  0.20514570671E+04  0.46999998093E+01 0.  1.
       -5    1    3    3    0  502  0.77636888086E+03 -0.19794686968E+01 -0.13825897624E+04  0.15856636146E+04  0.46999998093E+01 0. -1.
</event>
<event>
 5   0  0.1029908E-07  0.3549636E+04  0.7818609E-02  0.8102127E-01
       -2   -1    0    0    0  501  0.00000000000E+00  0.00000000000E+00  0.14705967889E+04  0.14705967889E+04  0.25500000920E-02 0. -1.
        2   -1    0    0  501    0  0.00000000000E+00  0.00000000000E+00 -0.21419726641E+04  0.21419726641E+04  0.25500000920E-02 0.  1.
    10030    2    1    2    0    0  0.00000000000E+00  0.00000000000E+00 -0.67137587529E+03  0.36125694530E+04  0.35496355428E+04 0.  0.
        4    1    3    3  502    0  0.11134325134E+04 -0.76611464102E+03 -0.15064367197E+04  0.20238618551E+04  0.12699999809E+01 0.  1.
       -4    1    3    3    0  502 -0.11134325134E+04  0.76611464102E+03  0.83506084442E+03  0.15887075979E+04  0.12699999809E+01 0. -1.
</event>
<event>
 5   0  0.1017794E-07  0.3601838E+04  0.7818609E-02  0.8090071E-01
       -2   -1    0    0    0  501  0.00000000000E+00  0.00000000000E+00  0.15911483850E+04  0.15911483850E+04  0.25500000920E-02 0. -1.
        2   -1    0    0  501    0  0.00000000000E+00  0.00000000000E+00 -0.20383449505E+04  0.20383449505E+04  0.25500000920E-02 0.  1.
    10030    2    1    2    0    0  0.00000000000E+00  0.00000000000E+00 -0.44719656554E+03  0.36294933355E+04  0.36018380175E+04 0.  0.
        1    1    3    3  502    0 -0.15997797851E+04 -0.72216597676E+02 -0.10538166162E+04  0.19170393993E+04  0.50400001928E-02 0.  1.
       -1    1    3    3    0  502  0.15997797851E+04  0.72216597676E+02  0.60662005063E+03  0.17124539362E+04  0.50400001928E-02 0. -1.
</event>
<event>
 5   0  0.1021087E-07  0.3631039E+04  0.7818609E-02  0.8083419E-01
       -2   -1    0    0    0  501  0.00000000000E+00  0.00000000000E+00  0.18883912717E+04  0.18883912717E+04  0.25500000920E-02 0. -1.
        2   -1    0    0  501    0  0.00000000000E+00  0.00000000000E+00 -0.17454597371E+04  0.17454597371E+04  0.25500000920E-02 0.  1.
    10030    2    1    2    0    0  0.00000000000E+00  0.00000000000E+00  0.14293153467E+03  0.36338510088E+04  0.36310389326E+04 0.  0.
        3    1    3    3  502    0 -0.37854736378E+02 -0.15408165553E+04  0.10316681962E+04  0.18546934829E+04  0.10100000352E+00 0. -1.
       -3    1    3    3    0  502  0.37854736378E+02  0.15408165553E+04 -0.88873666149E+03  0.17791575259E+04  0.10100000352E+00 0.  1.
</event>
<event>
 5   0  0.1044678E-07  0.3608434E+04  0.7818609E-02  0.8088563E-01
        2   -1    0    0  501    0  0.00000000000E+00  0.00000000000E+00  0.19758201811E+04  0.19758201811E+04  0.25500000920E-02 0. -1.
       -2   -1    0    0    0  501  0.00000000000E+00  0.00000000000E+00 -0.16475175019E+04  0.16475175019E+04  0.25500000920E-02 0.  1.
    10030    2    1    2    0    0  0.00000000000E+00  0.00000000000E+00  0.32830267919E+03  0.36233376830E+04  0.36084336374E+04 0.  0.
        2    1    3    3  502    0 -0.12784273869E+04  0.12657822659E+04  0.27143649670E+02  0.17992548752E+04  0.25500000920E-02 0.  1.
       -2    1    3    3    0  502  0.12784273869E+04 -0.12657822659E+04  0.30115902952E+03  0.18240828077E+04  0.25500000920E-02 0. -1.
</event>
<event>
 5   0  0.1017794E-07  0.3605202E+04  0.7818609E-02  0.8089301E-01
       -2   -1    0    0    0  501  0.00000000000E+00  0.00000000000E+00  0.15641421285E+04  0.15641421285E+04  0.25500000920E-02 0. -1.
        2   -1    0    0  501    0  0.00000000000E+00  0.00000000000E+00 -0.20774140409E+04  0.20774140409E+04  0.25500000920E-02 0.  1.
    10030    2    1    2    0    0  0.00000000000E+00  0.00000000000E+00 -0.51327191249E+03  0.36415561694E+04  0.36052022521E+04 0.  0.
        1    1    3    3  502    0  0.64645123802E+02  0.55307810039E+03  0.14750896310E+04  0.15766939452E+04  0.50400001928E-02 0. -1.
       -1    1    3    3    0  502 -0.64645123802E+02 -0.55307810039E+03 -0.19883615435E+04  0.20648622242E+04  0.50400001928E-02 0.  1.
</event>
<event>
 5   0  0.9905335E-08  0.3601653E+04  0.7818609E-02  0.8090113E-01
        2   -1    0    0  501    0  0.00000000000E+00  0.00000000000E+00  0.19411066823E+04  0.19411066823E+04  0.25500000920E-02 0. -1.
       -2   -1    0    0    0  501  0.00000000000E+00  0.00000000000E+00 -0.16706843719E+04  0.16706843719E+04  0.25500000920E-02 0.  1.
    10030    2    1    2    0    0  0.00000000000E+00  0.00000000000E+00  0.27042231044E+03  0.36117910542E+04  0.36016532861E+04 0.  0.
        5    1    3    3  502    0 -0.12645659751E+04 -0.82331086887E+03  0.11208238069E+04  0.18796903969E+04  0.46999998093E+01 0. -1.
       -5    1    3    3    0  502  0.12645659751E+04  0.82331086887E+03 -0.85040149641E+03  0.17321006573E+04  0.46999998093E+01 0.  1.
</event>
<event>
 5   0  0.1044678E-07  0.3597512E+04  0.7818609E-02  0.8091062E-01
        2   -1    0    0  501    0  0.00000000000E+00  0.00000000000E+00  0.21453147729E+04  0.21453147729E+04  0.25500000920E-02 0.  1.
       -2   -1    0    0    0  501  0.00000000000E+00  0.00000000000E+00 -0.15081806952E+04  0.15081806952E+04  0.25500000920E-02 0. -1.
    10030    2    1    2    0    0  0.00000000000E+00  0.00000000000E+00  0.63713407767E+03  0.36534954681E+04  0.35975115430E+04 0.  0.
        2    1    3    3  502    0 -0.74230727314E+03  0.13796070861E+04  0.12161689089E+04  0.19832807706E+04  0.25500000920E-02 0.  1.
       -2    1    3    3    0  502  0.74230727314E+03 -0.13796070861E+04 -0.57903483127E+03  0.16702146975E+04  0.25500000920E-02 0. -1.
</event>
<event>
 5   0  0.3212523E-08  0.3595424E+04  0.7818609E-02  0.8091541E-01
        1   -1    0    0  501    0  0.00000000000E+00  0.00000000000E+00  0.17914971218E+04  0.17914971218E+04  0.50400001928E-02 0. -1.
       -1   -1    0    0    0  501  0.00000000000E+00  0.00000000000E+00 -0.18039485088E+04  0.18039485088E+04  0.50400001928E-02 0.  1.
    10030    2    1    2    0    0  0.00000000000E+00  0.00000000000E+00 -0.12451387066E+02  0.35954456306E+04  0.35954240703E+04 0.  0.
        3    1    3    3  502    0  0.15000637404E+04  0.98961204796E+03  0.41159403735E+02  0.17975587160E+04  0.10100000352E+00 0.  1.
       -3    1    3    3    0  502 -0.15000637404E+04 -0.98961204796E+03 -0.53610790801E+02  0.17978869146E+04  0.10100000352E+00 0. -1.
</event>
<event>
 5   0  0.3202875E-08  0.3598883E+04  0.7818609E-02  0.8090748E-01
       -1   -1    0    0    0  501  0.00000000000E+00  0.00000000000E+00  0.17527064322E+04  0.17527064322E+04  0.50400001928E-02 0.  1.
        1   -1    0    0  501    0  0.00000000000E+00  0.00000000000E+00 -0.18474230082E+04  0.18474230082E+04  0.50400001928E-02 0. -1.
    10030    2    1    2    0    0  0.00000000000E+00  0.00000000000E+00 -0.94716576059E+02  0.36001294404E+04  0.35988832654E+04 0.  0.
        1    1    3    3  502    0 -0.12764430893E+04  0.67918156217E+03 -0.11188947471E+04  0.18282560023E+04  0.50400001928E-02 0. -1.
       -1    1    3    3    0  502  0.12764430893E+04 -0.67918156217E+03  0.10241781710E+04  0.17718734381E+04  0.50400001928E-02 0.  1.
</event>
<event>
 5   0  0.1029908E-07  0.3602069E+04  0.7818609E-02  0.8090018E-01
        2   -1    0    0  501    0  0.00000000000E+00  0.00000000000E+00  0.16833461773E+04  0.16833461773E+04  0.25500000920E-02 0.  1.
       -2   -1    0    0    0  501  0.00000000000E+00  0.00000000000E+00 -0.19269505529E+04  0.19269505529E+04  0.25500000920E-02 0. -1.
    10030    2    1    2    0    0  0.00000000000E+00  0.00000000000E+00 -0.24360437554E+03  0.36102967302E+04  0.36020687651E+04 0.  0.
        4    1    3    3  502    0 -0.56041114776E+02  0.51658432539E+03  0.16065855388E+04  0.16885255930E+04  0.12699999809E+01 0.  1.
       -4    1    3    3    0  502  0.56041114776E+02 -0.51658432539E+03 -0.18501899144E+04  0.19217711372E+04  0.12699999809E+01 0. -1.
</event>
<event>
 5   0  0.9905335E-08  0.3601778E+04  0.7818609E-02  0.8090085E-01
        2   -1    0    0  501    0  0.00000000000E+00  0.00000000000E+00  0.19616523235E+04  0.19616523235E+04  0.25500000920E-02 0. -1.
       -2   -1    0    0    0  501  0.00000000000E+00  0.00000000000E+00 -0.16533002905E+04  0.16533002905E+04  0.25500000920E-02 0.  1.
    10030    2    1    2    0    0  0.00000000000E+00  0.00000000000E+00  0.30835203299E+03  0.36149526140E+04  0.36017775369E+04 0.  0.
        5    1    3    3  502    0  0.15116314304E+04 -0.16517705529E+03 -0.81416678149E+03  0.17248775838E+04  0.46999998093E+01 0.  1.
       -5    1    3    3    0  502 -0.15116314304E+04  0.16517705529E+03  0.11225188145E+04  0.18900750302E+04  0.46999998093E+01 0. -1.
</event>
<event>
 5   0  0.9905335E-08  0.3598386E+04  0.7818609E-02  0.8090862E-01
       -2   -1    0    0    0  501  0.00000000000E+00  0.00000000000E+00  0.11382007966E+04  0.11382007966E+04  0.25500000920E-02 0. -1.
        2   -1    0    0  501    0  0.00000000000E+00  0.00000000000E+00 -0.28440459217E+04  0.28440459217E+04  0.25500000920E-02 0.  1.
    10030    2    1    2    0    0  0.00000000000E+00  0.00000000000E+00 -0.17058451251E+04  0.39822467183E+04  0.35983859347E+04 0.  0.
        5    1    3    3  502    0 -0.40040741778E+03 -0.17152999040E+04 -0.12587775441E+04  0.21649764101E+04  0.46999998093E+01 0. -1.
       -5    1    3    3    0  502  0.40040741778E+03  0.17152999040E+04 -0.44706758103E+03  0.18172703082E+04  0.46999998093E+01 0.  1.
</event>
<event>
 5   0  0.3215494E-08  0.3603310E+04  0.7818609E-02  0.8089734E-01
        1   -1    0    0  501    0  0.00000000000E+00  0.00000000000E+00  0.27118182595E+04  0.27118182595E+04  0.50400001928E-02 0.  1.
       -1   -1    0    0    0  501  0.00000000000E+00  0.00000000000E+00 -0.11969685878E+04  0.11969685878E+04  0.50400001928E-02 0. -1.
    10030    2    1    2    0    0  0.00000000000E+00  0.00000000000E+00  0.15148496718E+04  0.39087868473E+04  0.36033102961E+04 0.  0.
        4    1    3    3  502    0 -0.86106663636E+03  0.22007650178E+03 -0.94262825970E+03  0.12955381383E+04  0.12699999809E+01 0. -1.
       -4    1    3    3    0  502  0.86106663636E+03 -0.22007650178E+03  0.24574779315E+04  0.26132487090E+04  0.12699999809E+01 0.  1.
</event>
<event>
 5   0  0.3202875E-08  0.3599756E+04  0.7818609E-02  0.8090548E-01
        3   -1    0    0  501    0  0.00000000000E+00  0.00000000000E+00  0.19084829186E+04  0.19084829213E+04  0.10100000352E+00 0. -1.
       -3   -1    0    0    0  501  0.00000000000E+00  0.00000000000E+00 -0.16974534829E+04  0.16974534859E+04  0.10100000352E+00 0.  1.
    10030    2    1    2    0    0  0.00000000000E+00  0.00000000000E+00  0.21102943573E+03  0.36059364071E+04  0.35997560958E+04 0.  0.
        4    1    3    3  502    0  0.36338921550E+03  0.57415164235E+03 -0.15640373687E+04  0.17052613682E+04  0.12699999809E+01 0.  1.
       -4    1    3    3    0  502 -0.36338921550E+03 -0.57415164235E+03  0.17750668044E+04  0.19006750389E+04  0.12699999809E+01 0. -1.
</event>
<event>
 5   0  0.1017794E-07  0.3613398E+04  0.7818609E-02  0.8087430E-01
        2   -1    0    0  501    0  0.00000000000E+00  0.00000000000E+00  0.12245287941E+04  0.12245287941E+04  0.25500000920E-02 0. -1.
       -2   -1    0    0    0  501  0.00000000000E+00  0.00000000000E+00 -0.26656469414E+04  0.26656469414E+04  0.25500000920E-02 0.  1.
    10030    2    1    2    0    0  0.00000000000E+00  0.00000000000E+00 -0.14411181472E+04  0.38901757355E+04  0.36133980875E+04 0.  0.
        1    1    3    3  502    0 -0.16296625368E+04 -0.41015604123E+03 -0.14348014434E+04  0.22096794211E+04  0.50400001928E-02 0.  1.
       -1    1    3    3    0  502  0.16296625368E+04  0.41015604123E+03 -0.63167038058E+01  0.16804963144E+04  0.50400001928E-02 0. -1.
</event>
<event>
 5   0  0.1029908E-07  0.3602011E+04  0.7818609E-02  0.8090031E-01
        2   -1    0    0  501    0  0.00000000000E+00  0.00000000000E+00  0.13790806201E+04  0.13790806201E+04  0.25500000920E-02 0.  1.
       -2   -1    0    0    0  501  0.00000000000E+00  0.00000000000E+00 -0.23520170666E+04  0.23520170666E+04  0.25500000920E-02 0. -1.
    10030    2    1    2    0    0  0.00000000000E+00  0.00000000000E+00 -0.97293644643E+03  0.37310976867E+04  0.36020111908E+04 0.  0.
        4    1    3    3  502    0 -0.20690909615E+03 -0.17848965214E+04 -0.35980528306E+03  0.18325196918E+04  0.12699999809E+01 0.  1.
       -4    1    3    3    0  502  0.20690909615E+03  0.17848965214E+04 -0.61313116337E+03  0.18985779949E+04  0.12699999809E+01 0. -1.
</event>
<event>
 5   0  0.1044678E-07  0.3602024E+04  0.7818609E-02  0.8090028E-01
       -2   -1    0    0    0  501  0.00000000000E+00  0.00000000000E+00  0.17956066691E+04  0.17956066691E+04  0.25500000920E-02 0. -1.
        2   -1    0    0  501    0  0.00000000000E+00  0.00000000000E+00 -0.18064340211E+04  0.18064340211E+04  0.25500000920E-02 0.  1.
    10030    2    1    2    0    0  0.00000000000E+00  0.00000000000E+00 -0.10827352019E+02  0.36020406902E+04  0.36020244172E+04 0.  0.
        2    1    3    3  502    0  0.53535780786E+03  0.24407917287E+02 -0.17248519446E+04  0.18061887940E+04  0.25500000920E-02 0.  1.
       -2    1    3    3    0  502 -0.53535780786E+03 -0.24407917287E+02  0.17140245926E+04  0.17958518962E+04  0.25500000920E-02 0. -1.
</event>
<event>
 5   0  0.1044678E-07  0.3597519E+04  0.7818609E-02  0.8091060E-01
       -2   -1    0    0    0  501  0.00000000000E+00  0.00000000000E+00  0.16297158338E+04  0.16297158338E+04  0.25500000920E-02 0. -1.
        2   -1    0    0  501    0  0.00000000000E+00  0.00000000000E+00 -0.19853374833E+04  0.19853374833E+04  0.25500000920E-02 0.  1.
    10030    2    1    2    0    0  0.00000000000E+00  0.00000000000E+00 -0.35562164950E+03  0.36150533171E+04  0.35975191074E+04 0.  0.
        2    1    3    3  502    0  0.17181857074E+04 -0.13295351873E+03  0.34015971696E+03  0.17565726277E+04  0.25500000920E-02 0. -1.
       -2    1    3    3    0  502 -0.17181857074E+04  0.13295351873E+03 -0.69578136646E+03  0.18584806895E+04  0.25500000920E-02 0.  1.
</event>
<event>
 5   0  0.3202875E-08  0.3600207E+04  0.7818609E-02  0.8090444E-01
        1   -1    0    0  501    0  0.00000000000E+00  0.00000000000E+00  0.18096693374E+04  0.18096693374E+04  0.50400001928E-02 0. -1.
       -1   -1    0    0    0  501  0.00000000000E+00  0.00000000000E+00 -0.17905879996E+04  0.17905879996E+04  0.50400001928E-02 0.  1.
    10030    2    1    2    0    0  0.00000000000E+00  0.00000000000E+00  0.19081337740E+02  0.36002573370E+04  0.36002067712E+04 0.  0.
        2    1    3    3  502    0  0.16686355152E+04  0.15766953789E+03  0.66618375684E+03  0.18036088721E+04  0.25500000920E-02 0. -1.
       -2    1    3    3    0  502 -0.16686355152E+04 -0.15766953789E+03 -0.64710241910E+03  0.17966484649E+04  0.25500000920E-02 0.  1.
</event>
<event>
 5   0  0.3212523E-08  0.3601244E+04  0.7818609E-02  0.8090207E-01
        1   -1    0    0  501    0  0.00000000000E+00  0.00000000000E+00  0.11988970241E+04  0.11988970241E+04  0.50400001928E-02 0. -1.
       -1   -1    0    0    0  501  0.00000000000E+00  0.00000000000E+00 -0.27043513245E+04  0.27043513245E+04  0.50400001928E-02 0.  1.
    10030    2    1    2    0    0  0.00000000000E+00  0.00000000000E+00 -0.15054543004E+04  0.39032483485E+04  0.36012435380E+04 0.  0.
        3    1    3    3  502    0 -0.24848537254E+03 -0.14223700416E+04 -0.19187509287E+04  0.24013510056E+04  0.10100000352E+00 0. -1.
       -3    1    3    3    0  502  0.24848537254E+03  0.14223700416E+04  0.41329662831E+03  0.15018973429E+04  0.10100000352E+00 0.  1.
</event>
<event>
 5   0  0.9905335E-08  0.3604108E+04  0.7818609E-02  0.8089551E-01
       -2   -1    0    0    0  501  0.00000000000E+00  0.00000000000E+00  0.14557234152E+04  0.14557234152E+04  0.25500000920E-02 0. -1.
        2   -1    0    0  501    0  0.00000000000E+00  0.00000000000E+00 -0.22307802295E+04  0.22307802295E+04  0.25500000920E-02 0.  1.
    10030    2    1    2    0    0  0.00000000000E+00  0.00000000000E+00 -0.77505681430E+03  0.36865036447E+04  0.36041082194E+04 0.  0.
        5    1    3    3  502    0 -0.40783782159E+02  0.15303227302E+04  0.58490360581E+03  0.16388060573E+04  0.46999998093E+01 0. -1.
       -5    1    3    3    0  502  0.40783782159E+02 -0.15303227302E+04 -0.13599604201E+04  0.20476975874E+04  0.46999998093E+01 0.  1.
</event>
<event>
 5   0  0.1017794E-07  0.3598544E+04  0.7818609E-02  0.8090825E-01
        2   -1    0    0  501    0  0.00000000000E+00  0.00000000000E+00  0.24606648468E+04  0.24606648468E+04  0.25500000920E-02 0.  1.
       -2   -1    0    0    0  501  0.00000000000E+00  0.00000000000E+00 -0.13156527665E+04  0.13156527665E+04  0.25500000920E-02 0. -1.
    10030    2    1    2    0    0  0.00000000000E+00  0.00000000000E+00  0.11450120802E+04  0.37763176133E+04  0.35985444353E+04 0.  0.
        1    1    3    3  502    0  0.68641233027E+03  0.30695004909E+03 -0.11428721941E+04  0.13680413268E+04  0.50400001928E-02 0. -1.
       -1    1    3    3    0  502 -0.68641233027E+03 -0.30695004909E+03  0.22878842743E+04  0.24082762865E+04  0.50400001928E-02 0.  1.
</event>
<event>
 5   0  0.3215494E-08  0.3602194E+04  0.7818609E-02  0.8089989E-01
        1   -1    0    0  501    0  0.00000000000E+00  0.00000000000E+00  0.11708399965E+04  0.11708399965E+04  0.50400001928E-02 0. -1.
       -1   -1    0    0    0  501  0.00000000000E+00  0.00000000000E+00 -0.27706180805E+04  0.27706180805E+04  0.50400001928E-02 0.  1.
    10030    2    1    2    0    0  0.00000000000E+00  0.00000000000E+00 -0.15997780840E+04  0.39414580771E+04  0.36021940336E+04 0.  0.
        4    1    3    3  502    0  0.14761820416E+04  0.32704871230E+02  0.32864022246E+03  0.15126761177E+04  0.12699999809E+01 0. -1.
       -4    1    3    3    0  502 -0.14761820416E+04 -0.32704871230E+02 -0.19284183065E+04  0.24287819594E+04  0.12699999809E+01 0.  1.
</event>
<event>
 5   0  0.3212523E-08  0.3600937E+04  0.7818609E-02  0.8090277E-01
       -1   -1    0    0    0  501  0.00000000000E+00  0.00000000000E+00  0.24599953934E+04  0.24599953934E+04  0.50400001928E-02 0. -1.
        1   -1    0    0  501    0  0.00000000000E+00  0.00000000000E+00 -0.13177615925E+04  0.13177615925E+04  0.50400001928E-02 0.  1.
    10030    2    1    2    0    0  0.00000000000E+00  0.00000000000E+00  0.11422338009E+04  0.37777569860E+04  0.36009373487E+04 0.  0.
        3    1    3    3  502    0  0.15449589456E+03 -0.17694830712E+04  0.88010978515E+03  0.19823048617E+04  0.10100000352E+00 0. -1.
       -3    1    3    3    0  502 -0.15449589456E+03  0.17694830712E+04  0.26212401573E+03  0.17954521243E+04  0.10100000352E+00 0.  1.
</event>
<event>
 5   0  0.9905335E-08  0.3599429E+04  0.7818609E-02  0.8090623E-01
        2   -1    0    0  501    0  0.00000000000E+00  0.00000000000E+00  0.13595072162E+04  0.13595072162E+04  0.25500000920E-02 0.  1.
       -2   -1    0    0    0  501  0.00000000000E+00  0.00000000000E+00 -0.23824605166E+04  0.23824605166E+04  0.25500000920E-02 0. -1.
    10030    2    1    2    0    0  0.00000000000E+00  0.00000000000E+00 -0.10229533004E+04  0.37419677327E+04  0.35994289906E+04 0.  0.
        5    1    3    3  502    0  0.46611208498E+03  0.17371699189E+04 -0.57665197895E+03  0.18888010477E+04  0.46999998093E+01 0. -1.
       -5    1    3    3    0  502 -0.46611208498E+03 -0.17371699189E+04 -0.44630132147E+03  0.18531666850E+04  0.46999998093E+01 0.  1.
</event>
<event>
 5   0  0.3202875E-08  0.3604255E+04  0.7818609E-02  0.8089518E-01
        4   -1    0    0  501    0  0.00000000000E+00  0.00000000000E+00  0.20673231979E+04  0.20673235880E+04  0.12699999809E+01 0.  1.
       -4   -1    0    0    0  501  0.00000000000E+00  0.00000000000E+00 -0.15709499749E+04  0.15709504882E+04  0.12699999809E+01 0. -1.
    10030    2    1    2    0    0  0.00000000000E+00  0.00000000000E+00  0.49637322301E+03  0.36382740762E+04  0.36042546910E+04 0.  0.
        1    1    3    3  502    0 -0.45554271625E+03 -0.12254882152E+04  0.15001845877E+04  0.19899483233E+04  0.50400001928E-02 0.  1.
       -1    1    3    3    0  502  0.45554271625E+03  0.12254882152E+04 -0.10038113647E+04  0.16483257530E+04  0.50400001928E-02 0. -1.
</event>
<event>
 5   0  0.1044678E-07  0.3597432E+04  0.7818609E-02  0.8091080E-01
       -2   -1    0    0    0  501  0.00000000000E+00  0.00000000000E+00  0.16868015184E+04  0.16868015184E+04  0.25500000920E-02 0.  1.
        2   -1    0    0  501    0  0.00000000000E+00  0.00000000000E+00 -0.19180560580E+04  0.19180560580E+04  0.25500000920E-02 0. -1.
    10030    2    1    2    0    0  0.00000000000E+00  0.00000000000E+00 -0.23125453956E+03  0.36048575764E+04  0.35974323460E+04 0.  0.
        2    1    3    3  502    0 -0.64624739467E+02 -0.16439071455E+04 -0.84429583361E+03  0.18491734680E+04  0.25500000920E-02 0. -1.
       -2    1    3    3    0  502  0.64624739467E+02  0.16439071455E+04  0.61304129404E+03  0.17556841084E+04  0.25500000920E-02 0.  1.
</event>
<event>
 5   0  0.1029908E-07  0.3610311E+04  0.7818609E-02  0.8088134E-01
       -2   -1    0    0    0  501  0.00000000000E+00  0.00000000000E+00  0.18082569545E+04  0.18082569545E+04  0.25500000920E-02 0.  1.
        2   -1    0    0  501    0  0.00000000000E+00  0.00000000000E+00 -0.18020598533E+04  0.18020598533E+04  0.25500000920E-02 0. -1.
    10030    2    1    2    0    0  0.00000000000E+00  0.00000000000E+00  0.61971012375E+01  0.36103168077E+04  0.36103114891E+04 0.  0.
        4    1    3    3  502    0 -0.34896366376E+03 -0.17383345809E+04 -0.33602271696E+03  0.18045763029E+04  0.12699999809E+01 0.  1.
       -4    1    3    3    0  502  0.34896366376E+03  0.17383345809E+04  0.34221981820E+03  0.18057405048E+04  0.12699999809E+01 0. -1.
</event>
<event>
 5   0  0.3202875E-08  0.3596119E+04  0.7818609E-02  0.8091381E-01
        1   -1    0    0  501    0  0.00000000000E+00  0.00000000000E+00  0.10783353607E+04  0.10783353607E+04  0.50400001928E-02 0.  1.
       -1   -1    0    0    0  501  0.00000000000E+00  0.00000000000E+00 -0.29981556299E+04  0.29981556299E+04  0.50400001928E-02 0. -1.
    10030    2    1    2    0    0  0.00000000000E+00  0.00000000000E+00 -0.19198202692E+04  0.40764909906E+04  0.35961185923E+04 0.  0.
        1    1    3    3  502    0  0.10148436506E+03 -0.14027098338E+03 -0.29886847966E+04  0.29936953483E+04  0.50400001928E-02 0. -1.
       -1    1    3    3    0  502 -0.10148436506E+03  0.14027098338E+03  0.10688645273E+04  0.10827956423E+04  0.50400001928E-02 0.  1.
</event>
<event>
 5   0  0.3202875E-08  0.3584461E+04  0.7818609E-02  0.8094060E-01
       -1   -1    0    0    0  501  0.00000000000E+00  0.00000000000E+00  0.19009763480E+04  0.19009763480E+04  0.50400001928E-02 0. -1.
        1   -1    0    0  501    0  0.00000000000E+00  0.00000000000E+00 -0.16897057592E+04  0.16897057592E+04  0.50400001928E-02 0.  1.
    10030    2    1    2    0    0  0.00000000000E+00  0.00000000000E+00  0.21127058887E+03  0.35906821072E+04  0.35844612891E+04 0.  0.
        1    1    3    3  502    0 -0.80679961831E+03  0.15034123685E+04  0.65514570741E+03  0.18276734587E+04  0.50400001928E-02 0. -1.
       -1    1    3    3    0  502  0.80679961831E+03 -0.15034123685E+04 -0.44387511855E+03  0.17630086485E+04  0.50400001928E-02 0.  1.
</event>
<event>
 5   0  0.3279988E-08  0.3558991E+04  0.7818609E-02  0.8099950E-01
       -1   -1    0    0    0  501  0.00000000000E+00  0.00000000000E+00  0.14611577489E+04  0.14611577489E+04  0.50400001928E-02 0. -1.
        1   -1    0    0  501    0  0.00000000000E+00  0.00000000000E+00 -0.21671880775E+04  0.21671880775E+04  0.50400001928E-02 0.  1.
    10030    2    1    2    0    0  0.00000000000E+00  0.00000000000E+00 -0.70603032855E+03  0.36283458264E+04  0.35589906731E+04 0.  0.
        5    1    3    3  502    0  0.67277103413E+03  0.67355056651E+03 -0.18857390941E+04  0.21124216556E+04  0.46999998093E+01 0.  1.
       -5    1    3    3    0  502 -0.67277103413E+03 -0.67355056651E+03  0.11797087656E+04  0.15159241708E+04  0.46999998093E+01 0. -1.
</event>
<event>
 5   0  0.1017794E-07  0.3603243E+04  0.7818609E-02  0.8089749E-01
        2   -1    0    0  501    0  0.00000000000E+00  0.00000000000E+00  0.21414526372E+04  0.21414526372E+04  0.25500000920E-02 0.  1.
       -2   -1    0    0    0  501  0.00000000000E+00  0.00000000000E+00 -0.15157184105E+04  0.15157184105E+04  0.25500000920E-02 0. -1.
    10030    2    1    2    0    0  0.00000000000E+00  0.00000000000E+00  0.62573422670E+03  0.36571710478E+04  0.36032425328E+04 0.  0.
        1    1    3    3  502    0 -0.10002782120E+04 -0.17778654153E+03  0.18229774204E+04  0.20869622016E+04  0.50400001928E-02 0.  1.
       -1    1    3    3    0  502  0.10002782120E+04  0.17778654153E+03 -0.11972431937E+04  0.15702088461E+04  0.50400001928E-02 0. -1.
</event>
<event>
 5   0  0.1029908E-07  0.3596768E+04  0.7818609E-02  0.8091232E-01
        2   -1    0    0  501    0  0.00000000000E+00  0.00000000000E+00  0.19067590602E+04  0.19067590602E+04  0.25500000920E-02 0. -1.
       -2   -1    0    0    0  501  0.00000000000E+00  0.00000000000E+00 -0.16961691042E+04  0.16961691042E+04  0.25500000920E-02 0.  1.
    10030    2    1    2    0    0  0.00000000000E+00  0.00000000000E+00  0.21058995601E+03  0.36029281643E+04  0.35967684424E+04 0.  0.
        4    1    3    3  502    0  0.17342279954E+04 -0.26844892941E+03 -0.28853558591E+03  0.17784448164E+04  0.12699999809E+01 0.  1.
       -4    1    3    3    0  502 -0.17342279954E+04  0.26844892941E+03  0.49912554193E+03  0.18244833480E+04  0.12699999809E+01 0. -1.
</event>
<event>
 5   0  0.3215494E-08  0.3606221E+04  0.7818609E-02  0.8089068E-01
        1   -1    0    0  501    0  0.00000000000E+00  0.00000000000E+00  0.28814651723E+04  0.28814651723E+04  0.50400001928E-02 0. -1.
       -1   -1    0    0    0  501  0.00000000000E+00  0.00000000000E+00 -0.11283173009E+04  0.11283173010E+04  0.50400001928E-02 0.  1.
    10030    2    1    2    0    0  0.00000000000E+00  0.00000000000E+00  0.17531478714E+04  0.40097824733E+04  0.36062207398E+04 0.  0.
        4    1    3    3  502    0 -0.17568743465E+04 -0.16404107054E+03  0.46398529809E+03  0.18245001814E+04  0.12699999809E+01 0.  1.
       -4    1    3    3    0  502  0.17568743465E+04  0.16404107054E+03  0.12891625733E+04  0.21852822919E+04  0.12699999809E+01 0. -1.
</event>
<event>
 5   0  0.3279988E-08  0.3605160E+04  0.7818609E-02  0.8089311E-01
       -1   -1    0    0    0  501  0.00000000000E+00  0.00000000000E+00  0.17744452821E+04  0.17744452821E+04  0.50400001928E-02 0.  1.
        1   -1    0    0  501    0  0.00000000000E+00  0.00000000000E+00 -0.18311610739E+04  0.18311610739E+04  0.50400001928E-02 0. -1.
    10030    2    1    2    0    0  0.00000000000E+00  0.00000000000E+00 -0.56715791841E+02  0.36056063561E+04  0.36051602619E+04 0.  0.
        5    1    3    3  502    0 -0.34561107241E+03  0.28789957284E+03  0.17174066788E+04  0.17753424931E+04  0.46999998093E+01 0.  1.
       -5    1    3    3    0  502  0.34561107241E+03 -0.28789957284E+03 -0.17741224706E+04  0.18302638630E+04  0.46999998093E+01 0. -1.
</event>
<event>
 5   0  0.1017794E-07  0.3599420E+04  0.7818609E-02  0.8090625E-01
        2   -1    0    0  501    0  0.00000000000E+00  0.00000000000E+00  0.15520957276E+04  0.15520957276E+04  0.25500000920E-02 0.  1.
       -2   -1    0    0    0  501  0.00000000000E+00  0.00000000000E+00 -0.20868271120E+04  0.20868271120E+04  0.25500000920E-02 0. -1.
    10030    2    1    2    0    0  0.00000000000E+00  0.00000000000E+00 -0.53473138440E+03  0.36389228397E+04  0.35994196449E+04 0.  0.
        1    1    3    3  502    0 -0.10814541922E+04  0.14335887006E+04 -0.38798864982E+03  0.18371866874E+04  0.50400001928E-02 0.  1.
       -1    1    3    3    0  502  0.10814541922E+04 -0.14335887006E+04 -0.14674273458E+03  0.18017361522E+04  0.50400001928E-02 0. -1.
</event>
<event>
 5   0  0.3212523E-08  0.3579312E+04  0.7818609E-02  0.8095247E-01
       -1   -1    0    0    0  501  0.00000000000E+00  0.00000000000E+00  0.13547299322E+04  0.13547299322E+04  0.50400001928E-02 0. -1.
        1   -1    0    0  501    0  0.00000000000E+00  0.00000000000E+00 -0.23642115447E+04  0.23642115447E+04  0.50400001928E-02 0.  1.
    10030    2    1    2    0    0  0.00000000000E+00  0.00000000000E+00 -0.10094816125E+04  0.37189414769E+04  0.35793117470E+04 0.  0.
        3    1    3    3  502    0  0.73541262980E+03 -0.10835398550E+04 -0.17721534684E+04  0.22035013681E+04  0.10100000352E+00 0.  1.
       -3    1    3    3    0  502 -0.73541262980E+03  0.10835398550E+04  0.76267185589E+03  0.15154401088E+04  0.10100000352E+00 0. -1.
</event>
<event>
 5   0  0.1044678E-07  0.3596607E+04  0.7818609E-02  0.8091269E-01
        2   -1    0    0  501    0  0.00000000000E+00  0.00000000000E+00  0.23864676455E+04  0.23864676455E+04  0.25500000920E-02 0. -1.
       -2   -1    0    0    0  501  0.00000000000E+00  0.00000000000E+00 -0.13550974626E+04  0.13550974626E+04  0.25500000920E-02 0.  1.
    10030    2    1    2    0    0  0.00000000000E+00  0.00000000000E+00  0.10313701829E+04  0.37415651080E+04  0.35966074297E+04 0.  0.
        2    1    3    3  502    0 -0.64461021400E+03 -0.48682707395E+03  0.21871054148E+04  0.23315130331E+04  0.25500000920E-02 0. -1.
       -2    1    3    3    0  502  0.64461021400E+03  0.48682707395E+03 -0.11557352319E+04  0.14100520750E+04  0.25500000920E-02 0.  1.
</event>
<event>
 5   0  0.1044678E-07  0.3605174E+04  0.7818609E-02  0.8089308E-01
        2   -1    0    0  501    0  0.00000000000E+00  0.00000000000E+00  0.27687857252E+04  0.27687857252E+04  0.25500000920E-02 0.  1.
       -2   -1    0    0    0  501  0.00000000000E+00  0.00000000000E+00 -0.11735540753E+04  0.11735540753E+04  0.25500000920E-02 0. -1.
    10030    2    1    2    0    0  0.00000000000E+00  0.00000000000E+00  0.15952316500E+04  0.39423398005E+04  0.36051739328E+04 0.  0.
        2    1    3    3  502    0 -0.75368265046E+03  0.54268030224E+03 -0.89179027012E+03  0.12875672153E+04  0.25500000920E-02 0. -1.
       -2    1    3    3    0  502  0.75368265046E+03 -0.54268030224E+03  0.24870219201E+04  0.26547725852E+04  0.25500000920E-02 0.  1.
</event>
<event>
 5   0  0.1029908E-07  0.3605037E+04  0.7818609E-02  0.8089339E-01
       -2   -1    0    0    0  501  0.00000000000E+00  0.00000000000E+00  0.29648331785E+04  0.29648331785E+04  0.25500000920E-02 0. -1.
        2   -1    0    0  501    0  0.00000000000E+00  0.00000000000E+00 -0.10958702780E+04  0.10958702780E+04  0.25500000920E-02 0.  1.
    10030    2    1    2    0    0  0.00000000000E+00  0.00000000000E+00  0.18689629004E+04  0.40607034565E+04  0.36050367874E+04 0.  0.
        4    1    3    3  502    0 -0.41615086657E+03  0.66711495094E+03  0.27614849279E+04  0.28712409376E+04  0.12699999809E+01 0. -1.
       -4    1    3    3    0  502  0.41615086657E+03 -0.66711495094E+03 -0.89252202749E+03  0.11894625189E+04  0.12699999809E+01 0.  1.
</event>
<event>
 5   0  0.9905335E-08  0.3669963E+04  0.7818609E-02  0.8074651E-01
        2   -1    0    0  501    0  0.00000000000E+00  0.00000000000E+00  0.18899979480E+04  0.18899979480E+04  0.25500000920E-02 0.  1.
       -2   -1    0    0    0  501  0.00000000000E+00  0.00000000000E+00 -0.17815664018E+04  0.17815664018E+04  0.25500000920E-02 0. -1.
    10030    2    1    2    0    0  0.00000000000E+00  0.00000000000E+00  0.10843154612E+03  0.36715643498E+04  0.36699628574E+04 0.  0.
        5    1    3    3  502    0  0.92089784889E+03  0.12727388562E+04 -0.89446893690E+03  0.18077648667E+04  0.46999998093E+01 0. -1.
       -5    1    3    3    0  502 -0.92089784889E+03 -0.12727388562E+04  0.10029004830E+04  0.18637994831E+04  0.46999998093E+01 0.  1.
</event>
<event>
 5   0  0.1017794E-07  0.3599625E+04  0.7818609E-02  0.8090578E-01
        2   -1    0    0  501    0  0.00000000000E+00  0.00000000000E+00  0.19411445416E+04  0.19411445416E+04  0.25500000920E-02 0. -1.
       -2   -1    0    0    0  501  0.00000000000E+00  0.00000000000E+00 -0.16687707035E+04  0.16687707035E+04  0.25500000920E-02 0.  1.
    10030    2    1    2    0    0  0.00000000000E+00  0.00000000000E+00  0.27237383811E+03  0.36099152450E+04  0.35996250594E+04 0.  0.
        1    1    3    3  502    0  0.14203539367E+04 -0.11030485134E+04  0.20853059975E+03  0.18104160681E+04  0.50400001928E-02 0.  1.
       -1    1    3    3    0  502 -0.14203539367E+04  0.11030485134E+04  0.63843238360E+02  0.17994991769E+04  0.50400001928E-02 0. -1.
</event>
<event>
 5   0  0.9905335E-08  0.3609803E+04  0.7818609E-02  0.8088250E-01
       -2   -1    0    0    0  501  0.00000000000E+00  0.00000000000E+00  0.20882739703E+04  0.20882739703E+04  0.25500000920E-02 0. -1.
        2   -1    0    0  501    0  0.00000000000E+00  0.00000000000E+00 -0.15599820695E+04  0.15599820695E+04  0.25500000920E-02 0.  1.
    10030    2    1    2    0    0  0.00000000000E+00  0.00000000000E+00  0.52829190082E+03  0.36482560398E+04  0.36098032910E+04 0.  0.
        5    1    3    3  502    0 -0.33774479174E+03  0.15946492642E+04 -0.51913895774E+03  0.17107031208E+04  0.46999998093E+01 0. -1.
       -5    1    3    3    0  502  0.33774479174E+03 -0.15946492642E+04  0.10474308586E+04  0.19375529189E+04  0.46999998093E+01 0.  1.
</event>
<event>
 5   0  0.3215494E-08  0.3544048E+04  0.7818609E-02  0.8103430E-01
       -1   -1    0    0    0  501  0.00000000000E+00  0.00000000000E+00  0.17333171288E+04  0.17333171288E+04  0.50400001928E-02 0.  1.
        1   -1    0    0  501    0  0.00000000000E+00  0.00000000000E+00 -0.18115953507E+04  0.18115953507E+04  0.50400001928E-02 0. -1.
    10030    2    1    2    0    0  0.00000000000E+00  0.00000000000E+00 -0.78278221879E+02  0.35449124795E+04  0.35440481102E+04 0.  0.
        4    1    3    3  502    0 -0.96645557120E+02  0.66221915225E+03  0.16020514463E+04  0.17362157178E+04  0.12699999809E+01 0.  1.
       -4    1    3    3    0  502  0.96645557120E+02 -0.66221915225E+03 -0.16803296681E+04  0.18086967617E+04  0.12699999809E+01 0. -1.
</event>
<event>
 5   0  0.3279988E-08  0.3604810E+04  0.7818609E-02  0.8089391E-01
        1   -1    0    0  501    0  0.00000000000E+00  0.00000000000E+00  0.30717344981E+04  0.30717344981E+04  0.50400001928E-02 0.  1.
       -1   -1    0    0    0  501  0.00000000000E+00  0.00000000000E+00 -0.10575993694E+04  0.10575993694E+04  0.50400001928E-02 0. -1.
    10030    2    1    2    0    0  0.00000000000E+00  0.00000000000E+00  0.20141351287E+04  0.41293338675E+04  0.36048103795E+04 0.  0.
        5    1    3    3  502    0  0.13033950212E+04  0.79004751433E+03 -0.95019701563E+02  0.15271098486E+04  0.46999998093E+01 0. -1.
       -5    1    3    3    0  502 -0.13033950212E+04 -0.79004751433E+03  0.21091548303E+04  0.26022240189E+04  0.46999998093E+01 0.  1.
</event>
<event>
 5   0  0.1029908E-07  0.3596621E+04  0.7818609E-02  0.8091266E-01
       -2   -1    0    0    0  501  0.00000000000E+00  0.00000000000E+00  0.12780223308E+04  0.12780223308E+04  0.25500000920E-02 0. -1.
        2   -1    0    0  501    0  0.00000000000E+00  0.00000000000E+00 -0.25304094494E+04  0.25304094494E+04  0.25500000920E-02 0.  1.
    10030    2    1    2    0    0  0.00000000000E+00  0.00000000000E+00 -0.12523871186E+04  0.38084317802E+04  0.35966205151E+04 0.  0.
        4    1    3    3  502    0 -0.16037756224E+04 -0.79501722583E+03 -0.44349396834E+03  0.18441358815E+04  0.12699999809E+01 0.  1.
       -4    1    3    3    0  502  0.16037756224E+04  0.79501722583E+03 -0.80889315023E+03  0.19642958987E+04  0.12699999809E+01 0. -1.
</event>
<event>
 5   0  0.1044678E-07  0.3600978E+04  0.7818609E-02  0.8090268E-01
       -2   -1    0    0    0  501  0.00000000000E+00  0.00000000000E+00  0.14427516874E+04  0.14427516874E+04  0.25500000920E-02 0. -1.
        2   -1    0    0  501    0  0.00000000000E+00  0.00000000000E+00 -0.22469285164E+04  0.22469285164E+04  0.25500000920E-02 0.  1.
    10030    2    1    2    0    0  0.00000000000E+00  0.00000000000E+00 -0.80417682902E+03  0.36896802038E+04  0.36009775943E+04 0.  0.
        2    1    3    3  502    0  0.39888109405E+03  0.16480282312E+04 -0.10225260552E+04  0.19800663402E+04  0.25500000920E-02 0.  1.
       -2    1    3    3    0  502 -0.39888109405E+03 -0.16480282312E+04  0.21834922622E+03  0.17096138636E+04  0.25500000920E-02 0. -1.
</event>
<event>
 5   0  0.3279988E-08  0.3599412E+04  0.7818609E-02  0.8090626E-01
       -1   -1    0    0    0  501  0.00000000000E+00  0.00000000000E+00  0.18325800289E+04  0.18325800289E+04  0.50400001928E-02 0.  1.
        1   -1    0    0  501    0  0.00000000000E+00  0.00000000000E+00 -0.17674212558E+04  0.17674212558E+04  0.50400001928E-02 0. -1.
    10030    2    1    2    0    0  0.00000000000E+00  0.00000000000E+00  0.65158773070E+02  0.36000012847E+04  0.35994115608E+04 0.  0.
        5    1    3    3  502    0  0.89434694388E+03  0.10932482448E+04 -0.10828928218E+04  0.17798109827E+04  0.46999998093E+01 0. -1.
       -5    1    3    3    0  502 -0.89434694388E+03 -0.10932482448E+04  0.11480515949E+04  0.18201903019E+04  0.46999998093E+01 0.  1.
</event>
<event>
 5   0  0.3215494E-08  0.3603905E+04  0.7818609E-02  0.8089598E-01
       -1   -1    0    0    0  501  0.00000000000E+00  0.00000000000E+00  0.23700974852E+04  0.23700974852E+04  0.50400001928E-02 0. -1.
        1   -1    0    0  501    0  0.00000000000E+00  0.00000000000E+00 -0.13699996673E+04  0.13699996673E+04  0.50400001928E-02 0.  1.
    10030    2    1    2    0    0  0.00000000000E+00  0.00000000000E+00  0.10000978179E+04  0.37400971525E+04  0.36039049744E+04 0.  0.
        4    1    3    3  502    0 -0.84989989797E+03 -0.12769385176E+04  0.14813668186E+04  0.21324518936E+04  0.12699999809E+01 0. -1.
       -4    1    3    3    0  502  0.84989989797E+03  0.12769385176E+04 -0.48126900067E+03  0.16076452589E+04  0.12699999809E+01 0.  1.
</event>
<event>
 5   0  0.9905335E-08  0.3581834E+04  0.7818609E-02  0.8094666E-01
        2   -1    0    0  501    0  0.00000000000E+00  0.00000000000E+00  0.26798572616E+04  0.26798572616E+04  0.25500000920E-02 0.  1.
       -2   -1    0    0    0  501  0.00000000000E+00  0.00000000000E+00 -0.11968485615E+04  0.11968485615E+04  0.25500000920E-02 0. -1.
    10030    2    1    2    0    0  0.00000000000E+00  0.00000000000E+00  0.14830087001E+04  0.38767058231E+04  0.35818337809E+04 0.  0.
        5    1    3    3  502    0 -0.17176380356E+04  0.41946695639E+03  0.10497830541E+04  0.20562829328E+04  0.46999998093E+01 0.  1.
       -5    1    3    3    0  502  0.17176380356E+04 -0.41946695639E+03  0.43322564597E+03  0.18204228902E+04  0.46999998093E+01 0. -1.
</event>
<event>
 5   0  0.3202875E-08  0.3602396E+04  0.7818609E-02  0.8089943E-01
       -1   -1    0    0    0  501  0.00000000000E+00  0.00000000000E+00  0.16511439462E+04  0.16511439462E+04  0.50400001928E-02 0. -1.
        1   -1    0    0  501    0  0.00000000000E+00  0.00000000000E+00 -0.19648891127E+04  0.19648891127E+04  0.50400001928E-02 0.  1.
    10030    2    1    2    0    0  0.00000000000E+00  0.00000000000E+00 -0.31374516649E+03  0.36160330589E+04  0.36023962933E+04 0.  0.
        2    1    3    3  502    0  0.12365635954E+04 -0.77321723535E+03  0.90418152758E+03  0.17159541525E+04  0.25500000920E-02 0. -1.
       -2    1    3    3    0  502 -0.12365635954E+04  0.77321723535E+03 -0.12179266941E+04  0.19000789065E+04  0.25500000920E-02 0.  1.
</event>
<event>
 5   0  0.3212523E-08  0.3600209E+04  0.7818609E-02  0.8090444E-01
       -1   -1    0    0    0  501  0.00000000000E+00  0.00000000000E+00  0.17790531137E+04  0.17790531137E+04  0.50400001928E-02 0. -1.
        1   -1    0    0  501    0  0.00000000000E+00  0.00000000000E+00 -0.18214052034E+04  0.18214052034E+04  0.50400001928E-02 0.  1.
    10030    2    1    2    0    0  0.00000000000E+00  0.00000000000E+00 -0.42352089687E+02  0.36004583172E+04  0.36002092153E+04 0.  0.
        3    1    3    3  502    0  0.82580885381E+03  0.15995042795E+04 -0.22720544290E+02  0.18002473265E+04  0.10100000352E+00 0. -1.
       -3    1    3    3    0  502 -0.82580885381E+03 -0.15995042795E+04 -0.19631545397E+02  0.18002109907E+04  0.10100000352E+00 0.  1.
</event>
<event>
 5   0  0.3202875E-08  0.3605627E+04  0.7818609E-02  0.8089204E-01
       -1   -1    0    0    0  501  0.00000000000E+00  0.00000000000E+00  0.17447982932E+04  0.17447982932E+04  0.50400001928E-02 0.  1.
        1   -1    0    0  501    0  0.00000000000E+00  0.00000000000E+00 -0.18627575795E+04  0.18627575795E+04  0.50400001928E-02 0. -1.
    10030    2    1    2    0    0  0.00000000000E+00  0.00000000000E+00 -0.11795928631E+03  0.36075558727E+04  0.36056268500E+04 0.  0.
        1    1    3    3  502    0  0.26465863126E+03 -0.91232775972E+03  0.14740770726E+04  0.17536502925E+04  0.50400001928E-02 0.  1.
       -1    1    3    3    0  502 -0.26465863126E+03  0.91232775972E+03 -0.15920363589E+04  0.18539055802E+04  0.50400001928E-02 0. -1.
</event>
<event>
 5   0  0.1017794E-07  0.3622189E+04  0.7818609E-02  0.8085428E-01
        2   -1    0    0  501    0  0.00000000000E+00  0.00000000000E+00  0.23455062555E+04  0.23455062555E+04  0.25500000920E-02 0.  1.
       -2   -1    0    0    0  501  0.00000000000E+00  0.00000000000E+00 -0.13984457141E+04  0.13984457141E+04  0.25500000920E-02 0. -1.
    10030    2    1    2    0    0  0.00000000000E+00  0.00000000000E+00  0.94706054146E+03  0.37439519696E+04  0.36221889351E+04 0.  0.
        1    1    3    3  502    0  0.34088945381E+03  0.54844262406E+03 -0.12754101643E+04  0.14295684730E+04  0.50400001928E-02 0. -1.
       -1    1    3    3    0  502 -0.34088945381E+03 -0.54844262406E+03  0.22224707058E+04  0.23143834967E+04  0.50400001928E-02 0.  1.
</event>
<event>
 5   0  0.1021087E-07  0.3584918E+04  0.7818609E-02  0.8093955E-01
        2   -1    0    0  501    0  0.00000000000E+00  0.00000000000E+00  0.28668241295E+04  0.28668241295E+04  0.25500000920E-02 0.  1.
       -2   -1    0    0    0  501  0.00000000000E+00  0.00000000000E+00 -0.11207209891E+04  0.11207209891E+04  0.25500000920E-02 0. -1.
    10030    2    1    2    0    0  0.00000000000E+00  0.00000000000E+00  0.17461031405E+04  0.39875451186E+04  0.35849183945E+04 0.  0.
        3    1    3    3  502    0  0.23314684348E+03  0.76615073277E+03  0.26567652256E+04  0.27748415937E+04  0.10100000352E+00 0.  1.
       -3    1    3    3    0  502 -0.23314684348E+03 -0.76615073277E+03 -0.91066208508E+03  0.12127035249E+04  0.10100000352E+00 0. -1.
</event>
<event>
 5   0  0.9905335E-08  0.3598523E+04  0.7818609E-02  0.8090830E-01
       -2   -1    0    0    0  501  0.00000000000E+00  0.00000000000E+00  0.12550230018E+04  0.12550230018E+04  0.25500000920E-02 0. -1.
        2   -1    0    0  501    0  0.00000000000E+00  0.00000000000E+00 -0.25795073815E+04  0.25795073815E+04  0.25500000920E-02 0.  1.
    10030    2    1    2    0    0  0.00000000000E+00  0.00000000000E+00 -0.13244843797E+04  0.38345303833E+04  0.35985225285E+04 0.  0.
        5    1    3    3  502    0 -0.94787291757E+03 -0.10895818245E+04 -0.18057825354E+04  0.23122552358E+04  0.46999998093E+01 0.  1.
       -5    1    3    3    0  502  0.94787291757E+03  0.10895818245E+04  0.48129815571E+03  0.15222751475E+04  0.46999998093E+01 0. -1.
</event>
<event>
 5   0  0.1029908E-07  0.3605607E+04  0.7818609E-02  0.8089209E-01
        2   -1    0    0  501    0  0.00000000000E+00  0.00000000000E+00  0.26843175132E+04  0.26843175132E+04  0.25500000920E-02 0.  1.
       -2   -1    0    0    0  501  0.00000000000E+00  0.00000000000E+00 -0.12107734578E+04  0.12107734578E+04  0.25500000920E-02 0. -1.
    10030    2    1    2    0    0  0.00000000000E+00  0.00000000000E+00  0.14735440554E+04  0.38950909710E+04  0.36056069654E+04 0.  0.
        4    1    3    3  502    0  0.99151571530E+03 -0.14915883374E+04  0.95858527263E+03  0.20314592094E+04  0.12699999809E+01 0.  1.
       -4    1    3    3    0  502 -0.99151571530E+03  0.14915883374E+04  0.51495878273E+03  0.18636317616E+04  0.12699999809E+01 0. -1.
</event>
<event>
 5   0  0.1017794E-07  0.3611653E+04  0.7818609E-02  0.8087828E-01
       -2   -1    0    0    0  501  0.00000000000E+00  0.00000000000E+00  0.15927211325E+04  0.15927211325E+04  0.25500000920E-02 0.  1.
        2   -1    0    0  501    0  0.00000000000E+00  0.00000000000E+00 -0.20474456120E+04  0.20474456120E+04  0.25500000920E-02 0. -1.
    10030    2    1    2    0    0  0.00000000000E+00  0.00000000000E+00 -0.45472447949E+03  0.36401667446E+04  0.36116533023E+04 0.  0.
        1    1    3    3  502    0  0.12608338351E+04 -0.31829115225E+03 -0.14902503283E+04  0.19778415655E+04  0.50400001928E-02 0. -1.
       -1    1    3    3    0  502 -0.12608338351E+04  0.31829115225E+03  0.10355258488E+04  0.16623251791E+04  0.50400001928E-02 0.  1.
</event>
<event>
 5   0  0.3202875E-08  0.3605998E+04  0.7818609E-02  0.8089119E-01
        1   -1    0    0  501    0  0.00000000000E+00  0.00000000000E+00  0.17362875603E+04  0.17362875603E+04  0.50400001928E-02 0.  1.
       -1   -1    0    0    0  501  0.00000000000E+00  0.00000000000E+00 -0.18722741309E+04  0.18722741309E+04  0.50400001928E-02 0. -1.
    10030    2    1    2    0    0  0.00000000000E+00  0.00000000000E+00 -0.13598657062E+03  0.36085616913E+04  0.36059984931E+04 0.  0.
        2    1    3    3  502    0  0.94524608034E+02 -0.17525107949E+04 -0.48129690149E+03  0.18198559546E+04  0.25500000920E-02 0.  1.
       -2    1    3    3    0  502 -0.94524608034E+02  0.17525107949E+04  0.34531033087E+03  0.17887057367E+04  0.25500000920E-02 0. -1.
</event>
<event>
 5   0  0.3212523E-08  0.3590158E+04  0.7818609E-02  0.8092750E-01
       -1   -1    0    0    0  501  0.00000000000E+00  0.00000000000E+00  0.14354580261E+04  0.14354580261E+04  0.50400001928E-02 0.  1.
        1   -1    0    0  501    0  0.00000000000E+00  0.00000000000E+00 -0.22447952526E+04  0.22447952526E+04  0.50400001928E-02 0. -1.
    10030    2    1    2    0    0  0.00000000000E+00  0.00000000000E+00 -0.80933722654E+03  0.36802532787E+04  0.35901584156E+04 0.  0.
        3    1    3    3  502    0 -0.15053278022E+04 -0.35650029763E+03  0.52879002219E+03  0.16348465225E+04  0.10100000352E+00 0.  1.
       -3    1    3    3    0  502  0.15053278022E+04  0.35650029763E+03 -0.13381272487E+04  0.20454067562E+04  0.10100000352E+00 0. -1.
</event>
<event>
 5   0  0.1021087E-07  0.3605094E+04  0.7818609E-02  0.8089326E-01
        2   -1    0    0  501    0  0.00000000000E+00  0.00000000000E+00  0.22234928764E+04  0.22234928764E+04  0.25500000920E-02 0.  1.
       -2   -1    0    0    0  501  0.00000000000E+00  0.00000000000E+00 -0.14612936505E+04  0.14612936505E+04  0.25500000920E-02 0. -1.
    10030    2    1    2    0    0  0.00000000000E+00  0.00000000000E+00  0.76219922591E+03  0.36847865269E+04  0.36050941859E+04 0.  0.
        3    1    3    3  502    0  0.15234763558E+04  0.34450981285E+03 -0.53851635317E+03  0.16521704181E+04  0.10100000352E+00 0. -1.
       -3    1    3    3    0  502 -0.15234763558E+04 -0.34450981285E+03  0.13007155791E+04  0.20326161088E+04  0.10100000352E+00 0.  1.
</event>
<event>
 5   0  0.1021087E-07  0.3604105E+04  0.7818609E-02  0.8089552E-01
       -2   -1    0    0    0  501  0.00000000000E+00  0.00000000000E+00  0.15830718846E+04  0.15830718846E+04  0.25500000920E-02 0. -1.
        2   -1    0    0  501    0  0.00000000000E+00  0.00000000000E+00 -0.20513236858E+04  0.20513236858E+04  0.25500000920E-02 0.  1.
    10030    2    1    2    0    0  0.00000000000E+00  0.00000000000E+00 -0.46825180119E+03  0.36343955703E+04  0.36041048004E+04 0.  0.
        3    1    3    3  502    0  0.50407836683E+03 -0.11494661336E+04 -0.15380617493E+04  0.19851955438E+04  0.10100000352E+00 0.  1.
       -3    1    3    3    0  502 -0.50407836683E+03  0.11494661336E+04  0.10698099481E+04  0.16492000265E+04  0.10100000352E+00 0. -1.
</event>
<event>
 5   0  0.3215494E-08  0.3604310E+04  0.7818609E-02  0.8089505E-01
        1   -1    0    0  501    0  0.00000000000E+00  0.00000000000E+00  0.19523191696E+04  0.19523191696E+04  0.50400001928E-02 0. -1.
       -1   -1    0    0    0  501  0.00000000000E+00  0.00000000000E+00 -0.16635409931E+04  0.16635409931E+04  0.50400001928E-02 0.  1.
    10030    2    1    2    0    0  0.00000000000E+00  0.00000000000E+00  0.28877817653E+03  0.36158601627E+04  0.36043101810E+04 0.  0.
        4    1    3    3  502    0 -0.11226073865E+04 -0.95952143159E+03 -0.89179665903E+03  0.17251758217E+04  0.12699999809E+01 0.  1.
       -4    1    3    3    0  502  0.11226073865E+04  0.95952143159E+03  0.11805748356E+04  0.18906843410E+04  0.12699999809E+01 0. -1.
</event>
<event>
 5   0  0.3202875E-08  0.3606491E+04  0.7818609E-02  0.8089006E-01
        1   -1    0    0  501    0  0.00000000000E+00  0.00000000000E+00  0.20695838577E+04  0.20695838577E+04  0.50400001928E-02 0.  1.
       -1   -1    0    0    0  501  0.00000000000E+00  0.00000000000E+00 -0.15711826570E+04  0.15711826570E+04  0.50400001928E-02 0. -1.
    10030    2    1    2    0    0  0.00000000000E+00  0.00000000000E+00  0.49840120072E+03  0.36407665147E+04  0.36064909618E+04 0.  0.
        1    1    3    3  502    0  0.10023603506E+04  0.10937668225E+04  0.12839504832E+04  0.19620349074E+04  0.50400001928E-02 0.  1.
       -1    1    3    3    0  502 -0.10023603506E+04 -0.10937668225E+04 -0.78554928247E+03  0.16787316074E+04  0.50400001928E-02 0. -1.
</event>
<event>
 5   0  0.9905335E-08  0.3610766E+04  0.7818609E-02  0.8088030E-01
        2   -1    0    0  501    0  0.00000000000E+00  0.00000000000E+00  0.10600492547E+04  0.10600492547E+04  0.25500000920E-02 0. -1.
       -2   -1    0    0    0  501  0.00000000000E+00  0.00000000000E+00 -0.30747701306E+04  0.30747701306E+04  0.25500000920E-02 0.  1.
    10030    2    1    2    0    0  0.00000000000E+00  0.00000000000E+00 -0.20147208759E+04  0.41348193854E+04  0.36107660049E+04 0.  0.
        5    1    3    3  502    0 -0.39270023328E+03 -0.16527462775E+04 -0.30741888883E+03  0.17263580724E+04  0.46999998093E+01 0. -1.
       -5    1    3    3    0  502  0.39270023328E+03  0.16527462775E+04 -0.17073019870E+04  0.24084613129E+04  0.46999998093E+01 0.  1.
</event>
<event>
 5   0  0.3202875E-08  0.3595065E+04  0.7818609E-02  0.8091623E-01
       -1   -1    0    0    0  501  0.00000000000E+00  0.00000000000E+00  0.24545512951E+04  0.24545512951E+04  0.50400001928E-02 0.  1.
        1   -1    0    0  501    0  0.00000000000E+00  0.00000000000E+00 -0.13163803137E+04  0.13163803137E+04  0.50400001928E-02 0. -1.
    10030    2    1    2    0    0  0.00000000000E+00  0.00000000000E+00  0.11381709813E+04  0.37709316088E+04  0.35950649529E+04 0.  0.
        1    1    3    3  502    0 -0.62668114430E+03 -0.10638070622E+04 -0.80123314063E+03  0.14718659137E+04  0.50400001928E-02 0. -1.
       -1    1    3    3    0  502  0.62668114430E+03  0.10638070622E+04  0.19394041220E+04  0.22990656951E+04  0.50400001928E-02 0.  1.
</event>
<event>
 5   0  0.3202875E-08  0.3591460E+04  0.7818609E-02  0.8092451E-01
       -1   -1    0    0    0  501  0.00000000000E+00  0.00000000000E+00  0.18289938047E+04  0.18289938047E+04  0.50400001928E-02 0. -1.
        1   -1    0    0  501    0  0.00000000000E+00  0.00000000000E+00 -0.17630714613E+04  0.17630714613E+04  0.50400001928E-02 0.  1.
    10030    2    1    2    0    0  0.00000000000E+00  0.00000000000E+00  0.65922343349E+02  0.35920652660E+04  0.35914603046E+04 0.  0.
        1    1    3    3  502    0  0.88094540087E+03 -0.79623919036E+03  0.13802534552E+04  0.18207584266E+04  0.50400001928E-02 0. -1.
       -1    1    3    3    0  502 -0.88094540087E+03  0.79623919036E+03 -0.13143311118E+04  0.17713068394E+04  0.50400001928E-02 0.  1.
</event>
<event>
 5   0  0.1029908E-07  0.3600215E+04  0.7818609E-02  0.8090442E-01
        2   -1    0    0  501    0  0.00000000000E+00  0.00000000000E+00  0.15379507534E+04  0.15379507534E+04  0.25500000920E-02 0. -1.
       -2   -1    0    0    0  501  0.00000000000E+00  0.00000000000E+00 -0.21069513746E+04  0.21069513746E+04  0.25500000920E-02 0.  1.
    10030    2    1    2    0    0  0.00000000000E+00  0.00000000000E+00 -0.56900062127E+03  0.36449021280E+04  0.36002152457E+04 0.  0.
        4    1    3    3  502    0  0.59296437150E+03 -0.10460304267E+04  0.10717541161E+04  0.16107280645E+04  0.12699999809E+01 0. -1.
       -4    1    3    3    0  502 -0.59296437150E+03  0.10460304267E+04 -0.16407547374E+04  0.20341740635E+04  0.12699999809E+01 0.  1.
</event>
<event>
 5   0  0.3212523E-08  0.3589485E+04  0.7818609E-02  0.8092904E-01
        1   -1    0    0  501    0  0.00000000000E+00  0.00000000000E+00  0.11193144393E+04  0.11193144393E+04  0.50400001928E-02 0.  1.
       -1   -1    0    0    0  501  0.00000000000E+00  0.00000000000E+00 -0.28777444169E+04  0.28777444170E+04  0.50400001928E-02 0. -1.
    10030    2    1    2    0    0  0.00000000000E+00  0.00000000000E+00 -0.17584299777E+04  0.39970588562E+04  0.35894851321E+04 0.  0.
        3    1    3    3  502    0  0.13378408835E+04 -0.48724203984E+03  0.33749851685E+03  0.14632594760E+04  0.10100000352E+00 0.  1.
       -3    1    3    3    0  502 -0.13378408835E+04  0.48724203984E+03 -0.20959284945E+04  0.25337993802E+04  0.10100000352E+00 0. -1.
</event>
<event>
 5   0  0.3212523E-08  0.3595554E+04  0.7818609E-02  0.8091511E-01
       -1   -1    0    0    0  501  0.00000000000E+00  0.00000000000E+00  0.13936997401E+04  0.13936997401E+04  0.50400001928E-02 0.  1.
        1   -1    0    0  501    0  0.00000000000E+00  0.00000000000E+00 -0.23190093395E+04  0.23190093395E+04  0.50400001928E-02 0. -1.
    10030    2    1    2    0    0  0.00000000000E+00  0.00000000000E+00 -0.92530959931E+03  0.37127090796E+04  0.35955543182E+04 0.  0.
        3    1    3    3  502    0  0.96064406727E+03 -0.41223209859E+03  0.10476125881E+04  0.14799542128E+04  0.10100000352E+00 0.  1.
       -3    1    3    3    0  502 -0.96064406727E+03  0.41223209859E+03 -0.19729221875E+04  0.22327548668E+04  0.10100000352E+00 0. -1.
</event>
<event>
 5   0  0.3202875E-08  0.3613059E+04  0.7818609E-02  0.8087507E-01
       -1   -1    0    0    0  501  0.00000000000E+00  0.00000000000E+00  0.13760073074E+04  0.13760073074E+04  0.50400001928E-02 0.  1.
        1   -1    0    0  501    0  0.00000000000E+00  0.00000000000E+00 -0.23717520841E+04  0.23717520841E+04  0.50400001928E-02 0. -1.
    10030    2    1    2    0    0  0.00000000000E+00  0.00000000000E+00 -0.99574477664E+03  0.37477593915E+04  0.36130586484E+04 0.  0.
        1    1    3    3  502    0  0.69107685760E+03 -0.31949718754E+03 -0.21972051920E+04  0.23253766000E+04  0.50400001928E-02 0. -1.
       -1    1    3    3    0  502 -0.69107685760E+03  0.31949718754E+03  0.12014604154E+04  0.14223827915E+04  0.50400001928E-02 0.  1.
</event>
<event>
 5   0  0.3279988E-08  0.3597229E+04  0.7818609E-02  0.8091127E-01
       -1   -1    0    0    0  501  0.00000000000E+00  0.00000000000E+00  0.11603211229E+04  0.11603211229E+04  0.50400001928E-02 0. -1.
        1   -1    0    0  501    0  0.00000000000E+00  0.00000000000E+00 -0.27880333817E+04  0.27880333817E+04  0.50400001928E-02 0.  1.
    10030    2    1    2    0    0  0.00000000000E+00  0.00000000000E+00 -0.16277122588E+04  0.39483545046E+04  0.35972289469E+04 0.  0.
        5    1    3    3  502    0 -0.78302798609E+03  0.10525711574E+04  0.53667396258E+03  0.14174201567E+04  0.46999998093E+01 0. -1.
       -5    1    3    3    0  502  0.78302798609E+03 -0.10525711574E+04 -0.21643862214E+04  0.25309343480E+04  0.46999998093E+01 0.  1.
</event>
<event>
 5   0  0.3279988E-08  0.3616220E+04  0.7818609E-02  0.8086786E-01
        1   -1    0    0  501    0  0.00000000000E+00  0.00000000000E+00  0.10660020340E+04  0.10660020340E+04  0.50400001928E-02 0. -1.
       -1   -1    0    0    0  501  0.00000000000E+00  0.00000000000E+00 -0.30668436261E+04  0.30668436261E+04  0.50400001928E-02 0.  1.
    10030    2    1    2    0    0  0.00000000000E+00  0.00000000000E+00 -0.20008415922E+04  0.41328456601E+04  0.36162198735E+04 0.  0.
        5    1    3    3  502    0 -0.17110055057E+04  0.49848093738E+03 -0.65148907977E+03  0.18974939253E+04  0.46999998093E+01 0. -1.
       -5    1    3    3    0  502  0.17110055057E+04 -0.49848093738E+03 -0.13493525124E+04  0.22353517348E+04  0.46999998093E+01 0.  1.
</event>
<event>
 5   0  0.3202875E-08  0.3599140E+04  0.7818609E-02  0.8090689E-01
        1   -1    0    0  501    0  0.00000000000E+00  0.00000000000E+00  0.11903618881E+04  0.11903618881E+04  0.50400001928E-02 0. -1.
       -1   -1    0    0    0  501  0.00000000000E+00  0.00000000000E+00 -0.27205610004E+04  0.27205610004E+04  0.50400001928E-02 0.  1.
    10030    2    1    2    0    0  0.00000000000E+00  0.00000000000E+00 -0.15301991123E+04  0.39109228885E+04  0.35991399691E+04 0.  0.
        2    1    3    3  502    0  0.34230219518E+03 -0.72164924812E+03 -0.25174027579E+04  0.26410727131E+04  0.25500000920E-02 0.  1.
       -2    1    3    3    0  502 -0.34230219518E+03  0.72164924812E+03  0.98720364564E+03  0.12698501755E+04  0.25500000920E-02 0. -1.
</event>
<event>
 5   0  0.3202875E-08  0.3586051E+04  0.7818609E-02  0.8093694E-01
        1   -1    0    0  501    0  0.00000000000E+00  0.00000000000E+00  0.16372665172E+04  0.16372665173E+04  0.50400001928E-02 0.  1.
       -1   -1    0    0    0  501  0.00000000000E+00  0.00000000000E+00 -0.19636028563E+04  0.19636028563E+04  0.50400001928E-02 0. -1.
    10030    2    1    2    0    0  0.00000000000E+00  0.00000000000E+00 -0.32633633905E+03  0.36008693735E+04  0.35860514273E+04 0.  0.
        2    1    3    3  502    0  0.33453928923E+03 -0.15285902117E+04  0.71591301019E+03  0.17207661112E+04  0.25500000920E-02 0.  1.
       -2    1    3    3    0  502 -0.33453928923E+03  0.15285902117E+04 -0.10422493492E+04  0.18801032624E+04  0.25500000920E-02 0. -1.
</event>
<event>
 5   0  0.3202875E-08  0.3598055E+04  0.7818609E-02  0.8090937E-01
       -1   -1    0    0    0  501  0.00000000000E+00  0.00000000000E+00  0.32075930016E+04  0.32075930016E+04  0.50400001928E-02 0. -1.
        1   -1    0    0  501    0  0.00000000000E+00  0.00000000000E+00 -0.10090119410E+04  0.10090119411E+04  0.50400001928E-02 0.  1.
    10030    2    1    2    0    0  0.00000000000E+00  0.00000000000E+00  0.21985810605E+04  0.42166049426E+04  0.35980548304E+04 0.  0.
        2    1    3    3  502    0  0.52464097477E+03 -0.68481723135E+03  0.29493823283E+04  0.30729593085E+04  0.25500000920E-02 0. -1.
       -2    1    3    3    0  502 -0.52464097477E+03  0.68481723135E+03 -0.75080126782E+03  0.11436456342E+04  0.25500000920E-02 0.  1.
</event>
<event>
 5   0  0.9905335E-08  0.3591764E+04  0.7818609E-02  0.8092381E-01
        2   -1    0    0  501    0  0.00000000000E+00  0.00000000000E+00  0.21056007127E+04  0.21056007127E+04  0.25500000920E-02 0.  1.
       -2   -1    0    0    0  501  0.00000000000E+00  0.00000000000E+00 -0.15317206363E+04  0.15317206363E+04  0.25500000920E-02 0. -1.
    10030    2    1    2    0    0  0.00000000000E+00  0.00000000000E+00  0.57388007646E+03  0.36373213490E+04  0.35917639474E+04 0.  0.
        5    1    3    3  502    0  0.36089639455E+03  0.90394324198E+03  0.18153246934E+04  0.20598022781E+04  0.46999998093E+01 0.  1.
       -5    1    3    3    0  502 -0.36089639455E+03 -0.90394324198E+03 -0.12414446169E+04  0.15775190710E+04  0.46999998093E+01 0. -1.
</event>
<event>
 5   0  0.3202875E-08  0.3591501E+04  0.7818609E-02  0.8092441E-01
       -1   -1    0    0    0  501  0.00000000000E+00  0.00000000000E+00  0.12650800518E+04  0.12650800518E+04  0.50400001928E-02 0. -1.
        1   -1    0    0  501    0  0.00000000000E+00  0.00000000000E+00 -0.25490237313E+04  0.25490237314E+04  0.50400001928E-02 0.  1.
    10030    2    1    2    0    0  0.00000000000E+00  0.00000000000E+00 -0.12839436796E+04  0.38141037831E+04  0.35915005633E+04 0.  0.
        1    1    3    3  502    0  0.11965745318E+04 -0.22060867199E+03 -0.20445343060E+04  0.23791972017E+04  0.50400001928E-02 0.  1.
       -1    1    3    3    0  502 -0.11965745318E+04  0.22060867199E+03  0.76059062643E+03  0.14349065814E+04  0.50400001928E-02 0. -1.
</event>
<event>
 5   0  0.9905335E-08  0.3602186E+04  0.7818609E-02  0.8089991E-01
        2   -1    0    0  501    0  0.00000000000E+00  0.00000000000E+00  0.18193685576E+04  0.18193685576E+04  0.25500000920E-02 0. -1.
       -2   -1    0    0    0  501  0.00000000000E+00  0.00000000000E+00 -0.17830013971E+04  0.17830013971E+04  0.25500000920E-02 0.  1.
    10030    2    1    2    0    0  0.00000000000E+00  0.00000000000E+00  0.36367160434E+02  0.36023699547E+04  0.36021863806E+04 0.  0.
        5    1    3    3  502    0  0.91290415841E+03  0.93955495560E+03 -0.12179041156E+04  0.17887062481E+04  0.46999998093E+01 0.  1.
       -5    1    3    3    0  502 -0.91290415841E+03 -0.93955495560E+03  0.12542712760E+04  0.18136637067E+04  0.46999998093E+01 0. -1.
</event>
<event>
 5   0  0.3215494E-08  0.3584953E+04  0.7818609E-02  0.8093947E-01
       -1   -1    0    0    0  501  0.00000000000E+00  0.00000000000E+00  0.22496694881E+04  0.22496694881E+04  0.50400001928E-02 0. -1.
        1   -1    0    0  501    0  0.00000000000E+00  0.00000000000E+00 -0.14281973808E+04  0.14281973808E+04  0.50400001928E-02 0.  1.
    10030    2    1    2    0    0  0.00000000000E+00  0.00000000000E+00  0.82147210732E+03  0.36778668688E+04  0.35849530376E+04 0.  0.
        4    1    3    3  502    0 -0.10379719548E+04 -0.14466526048E+04  0.19853985908E+03  0.17915382292E+04  0.12699999809E+01 0.  1.
       -4    1    3    3    0  502  0.10379719548E+04  0.14466526048E+04  0.62293224824E+03  0.18863286397E+04  0.12699999809E+01 0. -1.
</event>
<event>
 5   0  0.1029908E-07  0.3599849E+04  0.7818609E-02  0.8090526E-01
       -2   -1    0    0    0  501  0.00000000000E+00  0.00000000000E+00  0.19965290196E+04  0.19965290196E+04  0.25500000920E-02 0. -1.
        2   -1    0    0  501    0  0.00000000000E+00  0.00000000000E+00 -0.16226801408E+04  0.16226801408E+04  0.25500000920E-02 0.  1.
    10030    2    1    2    0    0  0.00000000000E+00  0.00000000000E+00  0.37384887875E+03  0.36192091604E+04  0.35998488805E+04 0.  0.
        4    1    3    3  502    0 -0.20499822012E+03 -0.65992795132E+03 -0.14839997785E+04  0.16370052311E+04  0.12699999809E+01 0.  1.
       -4    1    3    3    0  502  0.20499822012E+03  0.65992795132E+03  0.18578486572E+04  0.19822039293E+04  0.12699999809E+01 0. -1.
</event>
<event>
 5   0  0.1017794E-07  0.3596843E+04  0.7818609E-02  0.8091215E-01
       -2   -1    0    0    0  501  0.00000000000E+00  0.00000000000E+00  0.21100302817E+04  0.21100302817E+04  0.25500000920E-02 0.  1.
        2   -1    0    0  501    0  0.00000000000E+00  0.00000000000E+00 -0.15328312594E+04  0.15328312594E+04  0.25500000920E-02 0. -1.
    10030    2    1    2    0    0  0.00000000000E+00  0.00000000000E+00  0.57719902230E+03  0.36428615412E+04  0.35968432683E+04 0.  0.
        1    1    3    3  502    0  0.49461714166E+03  0.16037049626E+04  0.94324742088E+03  0.19251575055E+04  0.50400001928E-02 0.  1.
       -1    1    3    3    0  502 -0.49461714166E+03 -0.16037049626E+04 -0.36604839858E+03  0.17177040357E+04  0.50400001928E-02 0. -1.
</event>
<event>
 5   0  0.3212523E-08  0.3536601E+04  0.7818609E-02  0.8105170E-01
        1   -1    0    0  501    0  0.00000000000E+00  0.00000000000E+00  0.22199777421E+04  0.22199777422E+04  0.50400001928E-02 0.  1.
       -1   -1    0    0    0  501  0.00000000000E+00  0.00000000000E+00 -0.14085216000E+04  0.14085216000E+04  0.50400001928E-02 0. -1.
    10030    2    1    2    0    0  0.00000000000E+00  0.00000000000E+00  0.81145614212E+03  0.36284993422E+04  0.35366009678E+04 0.  0.
        3    1    3    3  502    0  0.78560238315E+02  0.47490958370E+03 -0.13400074743E+04  0.14238436941E+04  0.10100000352E+00 0. -1.
       -3    1    3    3    0  502 -0.78560238315E+02 -0.47490958370E+03  0.21514636164E+04  0.22046556481E+04  0.10100000352E+00 0.  1.
</event>
<event>
 5   0  0.1021087E-07  0.3663937E+04  0.7818609E-02  0.8076001E-01
       -2   -1    0    0    0  501  0.00000000000E+00  0.00000000000E+00  0.13048453673E+04  0.13048453673E+04  0.25500000920E-02 0. -1.
        2   -1    0    0  501    0  0.00000000000E+00  0.00000000000E+00 -0.25720354831E+04  0.25720354831E+04  0.25500000920E-02 0.  1.
    10030    2    1    2    0    0  0.00000000000E+00  0.00000000000E+00 -0.12671901158E+04  0.38768808504E+04  0.36639369998E+04 0.  0.
        3    1    3    3  502    0 -0.11152441820E+04 -0.70136868540E+02  0.90247132736E+03  0.14363646030E+04  0.10100000352E+00 0. -1.
       -3    1    3    3    0  502  0.11152441820E+04  0.70136868540E+02 -0.21696614431E+04  0.24405162474E+04  0.10100000352E+00 0.  1.
</event>
<event>
 5   0  0.3215494E-08  0.3601859E+04  0.7818609E-02  0.8090066E-01
        1   -1    0    0  501    0  0.00000000000E+00  0.00000000000E+00  0.20407754948E+04  0.20407754948E+04  0.50400001928E-02 0.  1.
       -1   -1    0    0    0  501  0.00000000000E+00  0.00000000000E+00 -0.15892719946E+04  0.15892719946E+04  0.50400001928E-02 0. -1.
    10030    2    1    2    0    0  0.00000000000E+00  0.00000000000E+00  0.45150350021E+03  0.36300474895E+04  0.36018591540E+04 0.  0.
        4    1    3    3  502    0 -0.95063093412E+02 -0.91176751910E+03  0.17880410099E+04  0.20093405054E+04  0.12699999809E+01 0.  1.
       -4    1    3    3    0  502  0.95063093412E+02  0.91176751910E+03 -0.13365375097E+04  0.16207069841E+04  0.12699999809E+01 0. -1.
</event>
<event>
 5   0  0.1044678E-07  0.3595929E+04  0.7818609E-02  0.8091425E-01
        2   -1    0    0  501    0  0.00000000000E+00  0.00000000000E+00  0.26456581685E+04  0.26456581685E+04  0.25500000920E-02 0. -1.
       -2   -1    0    0    0  501  0.00000000000E+00  0.00000000000E+00 -0.12218797610E+04  0.12218797610E+04  0.25500000920E-02 0.  1.
    10030    2    1    2    0    0  0.00000000000E+00  0.00000000000E+00  0.14237784075E+04  0.38675379295E+04  0.35959289040E+04 0.  0.
        2    1    3    3  502    0  0.89156766887E+03  0.90001260446E+03  0.20840934144E+04  0.24389261892E+04  0.25500000920E-02 0. -1.
       -2    1    3    3    0  502 -0.89156766887E+03 -0.90001260446E+03 -0.66031500684E+03  0.14286117403E+04  0.25500000920E-02 0.  1.
</event>
<event>
 5   0  0.3215494E-08  0.3598044E+04  0.7818609E-02  0.8090940E-01
        1   -1    0    0  501    0  0.00000000000E+00  0.00000000000E+00  0.10328717492E+04  0.10328717492E+04  0.50400001928E-02 0. -1.
       -1   -1    0    0    0  501  0.00000000000E+00  0.00000000000E+00 -0.31334772987E+04  0.31334772987E+04  0.50400001928E-02 0.  1.
    10030    2    1    2    0    0  0.00000000000E+00  0.00000000000E+00 -0.21006055495E+04  0.41663490480E+04  0.35980440123E+04 0.  0.
        4    1    3    3  502    0 -0.16557511066E+04 -0.69780071658E+03 -0.11541378719E+04  0.21355264942E+04  0.12699999809E+01 0.  1.
       -4    1    3    3    0  502  0.16557511066E+04  0.69780071658E+03 -0.94646767761E+03  0.20308225537E+04  0.12699999809E+01 0. -1.
</event>
<event>
 5   0  0.3202875E-08  0.3621699E+04  0.7818609E-02  0.8085539E-01
        1   -1    0    0  501    0  0.00000000000E+00  0.00000000000E+00  0.17355101652E+04  0.17355101652E+04  0.50400001928E-02 0.  1.
       -1   -1    0    0    0  501  0.00000000000E+00  0.00000000000E+00 -0.18894593324E+04  0.18894593324E+04  0.50400001928E-02 0. -1.
    10030    2    1    2    0    0  0.00000000000E+00  0.00000000000E+00 -0.15394916721E+03  0.36249694976E+04  0.36216989815E+04 0.  0.
        1    1    3    3  502    0  0.17138449219E+04  0.55698579461E+03 -0.25511925874E+03  0.18200503916E+04  0.50400001928E-02 0. -1.
       -1    1    3    3    0  502 -0.17138449219E+04 -0.55698579461E+03  0.10117009154E+03  0.18049191060E+04  0.50400001928E-02 0.  1.
</event>
<event>
 5   0  0.3202875E-08  0.3603866E+04  0.7818609E-02  0.8089607E-01
       -1   -1    0    0    0  501  0.00000000000E+00  0.00000000000E+00  0.18512994677E+04  0.18512994677E+04  0.50400001928E-02 0.  1.
        1   -1    0    0  501    0  0.00000000000E+00  0.00000000000E+00 -0.17538833642E+04  0.17538833642E+04  0.50400001928E-02 0. -1.
    10030    2    1    2    0    0  0.00000000000E+00  0.00000000000E+00  0.97416103490E+02  0.36051828320E+04  0.36038664452E+04 0.  0.
        2    1    3    3  502    0 -0.84407726809E+03  0.10168868593E+03 -0.15406316391E+04  0.17596456662E+04  0.25500000920E-02 0. -1.
       -2    1    3    3    0  502  0.84407726809E+03 -0.10168868593E+03  0.16380477425E+04  0.18455371658E+04  0.25500000920E-02 0.  1.
</event>
<event>
 5   0  0.1044678E-07  0.3601828E+04  0.7818609E-02  0.8090073E-01
        2   -1    0    0  501    0  0.00000000000E+00  0.00000000000E+00  0.23926292388E+04  0.23926292388E+04  0.25500000920E-02 0.  1.
       -2   -1    0    0    0  501  0.00000000000E+00  0.00000000000E+00 -0.13555346626E+04  0.13555346626E+04  0.25500000920E-02 0. -1.
    10030    2    1    2    0    0  0.00000000000E+00  0.00000000000E+00  0.10370945762E+04  0.37481639015E+04  0.36018283513E+04 0.  0.
        2    1    3    3  502    0  0.13459118160E+04 -0.10135473347E+04  0.11804187265E+04  0.20572178266E+04  0.25500000920E-02 0.  1.
       -2    1    3    3    0  502 -0.13459118160E+04  0.10135473347E+04 -0.14332415034E+03  0.16909460749E+04  0.25500000920E-02 0. -1.
</event>
<event>
 5   0  0.1017794E-07  0.3604746E+04  0.7818609E-02  0.8089406E-01
        2   -1    0    0  501    0  0.00000000000E+00  0.00000000000E+00  0.22941419680E+04  0.22941419680E+04  0.25500000920E-02 0. -1.
       -2   -1    0    0    0  501  0.00000000000E+00  0.00000000000E+00 -0.14160185980E+04  0.14160185980E+04  0.25500000920E-02 0.  1.
    10030    2    1    2    0    0  0.00000000000E+00  0.00000000000E+00  0.87812336997E+03  0.37101605661E+04  0.36047455906E+04 0.  0.
        1    1    3    3  502    0 -0.16295543879E+04 -0.21834659143E+03  0.11991876865E+04  0.20349874310E+04  0.50400001928E-02 0.  1.
       -1    1    3    3    0  502  0.16295543879E+04  0.21834659143E+03 -0.32106431649E+03  0.16751731350E+04  0.50400001928E-02 0. -1.
</event>
<event>
 5   0  0.3202875E-08  0.3588901E+04  0.7818609E-02  0.8093039E-01
       -1   -1    0    0    0  501  0.00000000000E+00  0.00000000000E+00  0.14188088682E+04  0.14188088683E+04  0.50400001928E-02 0. -1.
        1   -1    0    0  501    0  0.00000000000E+00  0.00000000000E+00 -0.22695463157E+04  0.22695463157E+04  0.50400001928E-02 0.  1.
    10030    2    1    2    0    0  0.00000000000E+00  0.00000000000E+00 -0.85073744750E+03  0.36883551840E+04  0.35889009124E+04 0.  0.
        2    1    3    3  502    0 -0.12300044165E+04  0.85995843638E+03 -0.14363011566E+04  0.20773541801E+04  0.25500000920E-02 0.  1.
       -2    1    3    3    0  502  0.12300044165E+04 -0.85995843638E+03  0.58556370915E+03  0.16110010039E+04  0.25500000920E-02 0. -1.
</event>
<event>
 5   0  0.1017794E-07  0.3608881E+04  0.7818609E-02  0.8088460E-01
        2   -1    0    0  501    0  0.00000000000E+00  0.00000000000E+00  0.27998102710E+04  0.27998102710E+04  0.25500000920E-02 0. -1.
       -2   -1    0    0    0  501  0.00000000000E+00  0.00000000000E+00 -0.11629381738E+04  0.11629381738E+04  0.25500000920E-02 0.  1.
    10030    2    1    2    0    0  0.00000000000E+00  0.00000000000E+00  0.16368720972E+04  0.39627484448E+04  0.36088814021E+04 0.  0.
        1    1    3    3  502    0  0.12634113664E+04  0.66639681445E+03  0.20291442066E+04  0.24814752077E+04  0.50400001928E-02 0. -1.
       -1    1    3    3    0  502 -0.12634113664E+04 -0.66639681445E+03 -0.39227210942E+03  0.14812732371E+04  0.50400001928E-02 0.  1.
</event>
<event>
 5   0  0.3202875E-08  0.3599134E+04  0.7818609E-02  0.8090690E-01
       -1   -1    0    0    0  501  0.00000000000E+00  0.00000000000E+00  0.14579844216E+04  0.14579844216E+04  0.50400001928E-02 0.  1.
        1   -1    0    0  501    0  0.00000000000E+00  0.00000000000E+00 -0.22211773105E+04  0.22211773105E+04  0.50400001928E-02 0. -1.
    10030    2    1    2    0    0  0.00000000000E+00  0.00000000000E+00 -0.76319288894E+03  0.36791617321E+04  0.35991342938E+04 0.  0.
        1    1    3    3  502    0 -0.92996700263E+03 -0.28549782870E+03  0.11660332942E+04  0.15185457778E+04  0.50400001928E-02 0.  1.
       -1    1    3    3    0  502  0.92996700263E+03  0.28549782870E+03 -0.19292261831E+04  0.21606159543E+04  0.50400001928E-02 0. -1.
</event>
<event>
 5   0  0.9905335E-08  0.3599984E+04  0.7818609E-02  0.8090495E-01
        2   -1    0    0  501    0  0.00000000000E+00  0.00000000000E+00  0.12804137914E+04  0.12804137914E+04  0.25500000920E-02 0. -1.
       -2   -1    0    0    0  501  0.00000000000E+00  0.00000000000E+00 -0.25304097169E+04  0.25304097169E+04  0.25500000920E-02 0.  1.
    10030    2    1    2    0    0  0.00000000000E+00  0.00000000000E+00 -0.12499959256E+04  0.38108235083E+04  0.35999841663E+04 0.  0.
        5    1    3    3  502    0 -0.30701945066E+03 -0.16786501509E+04 -0.18907592930E+02  0.17066068262E+04  0.46999998093E+01 0. -1.
       -5    1    3    3    0  502  0.30701945066E+03  0.16786501509E+04 -0.12310883327E+04  0.21042166821E+04  0.46999998093E+01 0.  1.
</event>
<event>
 5   0  0.1029908E-07  0.3596684E+04  0.7818609E-02  0.8091252E-01
       -2   -1    0    0    0  501  0.00000000000E+00  0.00000000000E+00  0.18590442991E+04  0.18590442991E+04  0.25500000920E-02 0.  1.
        2   -1    0    0  501    0  0.00000000000E+00  0.00000000000E+00 -0.17396216629E+04  0.17396216629E+04  0.25500000920E-02 0. -1.
    10030    2    1    2    0    0  0.00000000000E+00  0.00000000000E+00  0.11942263614E+03  0.35986659620E+04  0.35966838810E+04 0.  0.
        4    1    3    3  502    0  0.13933684334E+04 -0.86973950630E+03 -0.67288732357E+03  0.17750215106E+04  0.12699999809E+01 0. -1.
       -4    1    3    3    0  502 -0.13933684334E+04  0.86973950630E+03  0.79230995971E+03  0.18236444514E+04  0.12699999809E+01 0.  1.
</event>
<event>
 5   0  0.1029908E-07  0.3612154E+04  0.7818609E-02  0.8087713E-01
       -2   -1    0    0    0  501  0.00000000000E+00  0.00000000000E+00  0.21135071102E+04  0.21135071102E+04  0.25500000920E-02 0.  1.
        2   -1    0    0  501    0  0.00000000000E+00  0.00000000000E+00 -0.15433653989E+04  0.15433653989E+04  0.25500000920E-02 0. -1.
    10030    2    1    2    0    0  0.00000000000E+00  0.00000000000E+00  0.57014171131E+03  0.36568725091E+04  0.36121537864E+04 0.  0.
        4    1    3    3  502    0 -0.17605332564E+04 -0.17268142051E+03  0.65374391667E+03  0.18859159423E+04  0.12699999809E+01 0.  1.
       -4    1    3    3    0  502  0.17605332564E+04  0.17268142051E+03 -0.83602205359E+02  0.17709565668E+04  0.12699999809E+01 0. -1.
</event>
<event>
 5   0  0.3202875E-08  0.3605139E+04  0.7818609E-02  0.8089316E-01
       -1   -1    0    0    0  501  0.00000000000E+00  0.00000000000E+00  0.24844563829E+04  0.24844563829E+04  0.50400001928E-02 0. -1.
        1   -1    0    0  501    0  0.00000000000E+00  0.00000000000E+00 -0.13078339868E+04  0.13078339869E+04  0.50400001928E-02 0.  1.
    10030    2    1    2    0    0  0.00000000000E+00  0.00000000000E+00  0.11766223960E+04  0.37922903697E+04  0.36051388303E+04 0.  0.
        2    1    3    3  502    0  0.10336124352E+04  0.14759597833E+04  0.64032024470E+03  0.19122818736E+04  0.25500000920E-02 0. -1.
       -2    1    3    3    0  502 -0.10336124352E+04 -0.14759597833E+04  0.53630215134E+03  0.18800084962E+04  0.25500000920E-02 0.  1.
</event>
<event>
 5   0  0.3212523E-08  0.3594812E+04  0.7818609E-02  0.8091681E-01
        1   -1    0    0  501    0  0.00000000000E+00  0.00000000000E+00  0.21958271403E+04  0.21958271403E+04  0.50400001928E-02 0. -1.
       -1   -1    0    0    0  501  0.00000000000E+00  0.00000000000E+00 -0.14712766247E+04  0.14712766247E+04  0.50400001928E-02 0.  1.
    10030    2    1    2    0    0  0.00000000000E+00  0.00000000000E+00  0.72455051563E+03  0.36671037650E+04  0.35948124532E+04 0.  0.
        3    1    3    3  502    0 -0.89374563511E+03 -0.14196787256E+04  0.10205427682E+04  0.19636131228E+04  0.10100000352E+00 0. -1.
       -3    1    3    3    0  502  0.89374563511E+03  0.14196787256E+04 -0.29599225256E+03  0.17034906422E+04  0.10100000352E+00 0.  1.
</event>
<event>
 5   0  0.3279988E-08  0.3599198E+04  0.7818609E-02  0.8090675E-01
       -1   -1    0    0    0  501  0.00000000000E+00  0.00000000000E+00  0.16893524852E+04  0.16893524852E+04  0.50400001928E-02 0.  1.
        1   -1    0    0  501    0  0.00000000000E+00  0.00000000000E+00 -0.19170402815E+04  0.19170402815E+04  0.50400001928E-02 0. -1.
    10030    2    1    2    0    0  0.00000000000E+00  0.00000000000E+00 -0.22768779628E+03  0.36063927667E+04  0.35991981127E+04 0.  0.
        5    1    3    3  502    0 -0.16650595905E+04 -0.66401879227E+03  0.45187817817E+02  0.17931559958E+04  0.46999998093E+01 0.  1.
       -5    1    3    3    0  502  0.16650595905E+04  0.66401879227E+03 -0.27287561410E+03  0.18132367709E+04  0.46999998093E+01 0. -1.
</event>
<event>
 5   0  0.1029908E-07  0.3603907E+04  0.7818609E-02  0.8089597E-01
        2   -1    0    0  501    0  0.00000000000E+00  0.00000000000E+00  0.31385425042E+04  0.31385425042E+04  0.25500000920E-02 0.  1.
       -2   -1    0    0    0  501  0.00000000000E+00  0.00000000000E+00 -0.10345683967E+04  0.10345683967E+04  0.25500000920E-02 0. -1.
    10030    2    1    2    0    0  0.00000000000E+00  0.00000000000E+00  0.21039741075E+04  0.41731109009E+04  0.36039072610E+04 0.  0.
        4    1    3    3  502    0  0.36012790401E+03  0.14159404610E+04 -0.16932796408E+03  0.14708001457E+04  0.12699999809E+01 0. -1.
       -4    1    3    3    0  502 -0.36012790401E+03 -0.14159404610E+04  0.22733020716E+04  0.27023107552E+04  0.12699999809E+01 0.  1.
</event>
<event>
 5   0  0.9905335E-08  0.3577851E+04  0.7818609E-02  0.8095584E-01
       -2   -1    0    0    0  501  0.00000000000E+00  0.00000000000E+00  0.26671337988E+04  0.26671337988E+04  0.25500000920E-02 0. -1.
        2   -1    0    0  501    0  0.00000000000E+00  0.00000000000E+00 -0.11998851185E+04  0.11998851185E+04  0.25500000920E-02 0.  1.
    10030    2    1    2    0    0  0.00000000000E+00  0.00000000000E+00  0.14672486803E+04  0.38670189174E+04  0.35778508378E+04 0.  0.
        5    1    3    3  502    0 -0.81694239862E+03  0.90067854548E+03  0.21517742044E+04  0.24715928147E+04  0.46999998093E+01 0. -1.
       -5    1    3    3    0  502  0.81694239862E+03 -0.90067854548E+03 -0.68452552409E+03  0.13954261027E+04  0.46999998093E+01 0.  1.
</event>
<event>
 5   0  0.1017794E-07  0.3608441E+04  0.7818609E-02  0.8088561E-01
       -2   -1    0    0    0  501  0.00000000000E+00  0.00000000000E+00  0.15509917959E+04  0.15509917959E+04  0.25500000920E-02 0.  1.
        2   -1    0    0  501    0  0.00000000000E+00  0.00000000000E+00 -0.20987939872E+04  0.20987939872E+04  0.25500000920E-02 0. -1.
    10030    2    1    2    0    0  0.00000000000E+00  0.00000000000E+00 -0.54780219127E+03  0.36497857831E+04  0.36084413563E+04 0.  0.
        1    1    3    3  502    0  0.11262511064E+04  0.34822127918E+03  0.11075859655E+04  0.16175432869E+04  0.50400001928E-02 0.  1.
       -1    1    3    3    0  502 -0.11262511064E+04 -0.34822127918E+03 -0.16553881568E+04  0.20322424962E+04  0.50400001928E-02 0. -1.
</event>
<event>
 5   0  0.1017794E-07  0.3612382E+04  0.7818609E-02  0.8087661E-01
       -2   -1    0    0    0  501  0.00000000000E+00  0.00000000000E+00  0.20842058150E+04  0.20842058150E+04  0.25500000920E-02 0.  1.
        2   -1    0    0  501    0  0.00000000000E+00  0.00000000000E+00 -0.15652612458E+04  0.15652612458E+04  0.25500000920E-02 0. -1.
    10030    2    1    2    0    0  0.00000000000E+00  0.00000000000E+00  0.51894456926E+03  0.36494670608E+04  0.36123823665E+04 0.  0.
        1    1    3    3  502    0  0.14641132145E+04  0.98126528835E+03  0.65826193411E+03  0.18814403644E+04  0.50400001928E-02 0. -1.
       -1    1    3    3    0  502 -0.14641132145E+04 -0.98126528835E+03 -0.13931736486E+03  0.17680266964E+04  0.50400001928E-02 0.  1.
</event>
<event>
 5   0  0.3202875E-08  0.3610292E+04  0.7818609E-02  0.8088138E-01
       -3   -1    0    0    0  501  0.00000000000E+00  0.00000000000E+00  0.21941001215E+04  0.21941001238E+04  0.10100000352E+00 0. -1.
        3   -1    0    0  501    0  0.00000000000E+00  0.00000000000E+00 -0.14851431668E+04  0.14851431703E+04  0.10100000352E+00 0.  1.
    10030    2    1    2    0    0  0.00000000000E+00  0.00000000000E+00  0.70895695463E+03  0.36792432941E+04  0.36102924055E+04 0.  0.
        3    1    3    3  502    0 -0.32784163300E+03  0.75191826730E+03  0.19931974817E+04  0.21553879995E+04  0.10100000352E+00 0. -1.
       -3    1    3    3    0  502  0.32784163300E+03 -0.75191826730E+03 -0.12842405271E+04  0.15238552945E+04  0.10100000352E+00 0.  1.
</event>
<event>
 5   0  0.3202875E-08  0.3587917E+04  0.7818609E-02  0.8093265E-01
       -3   -1    0    0    0  501  0.00000000000E+00  0.00000000000E+00  0.25859306722E+04  0.25859306742E+04  0.10100000352E+00 0.  1.
        3   -1    0    0  501    0  0.00000000000E+00  0.00000000000E+00 -0.12445374951E+04  0.12445374992E+04  0.10100000352E+00 0. -1.
    10030    2    1    2    0    0  0.00000000000E+00  0.00000000000E+00  0.13413931771E+04  0.38304681734E+04  0.35879173307E+04 0.  0.
        5    1    3    3  502    0  0.29350939408E+03 -0.16146650402E+04 -0.10283596468E+03  0.16443504134E+04  0.46999998093E+01 0. -1.
       -5    1    3    3    0  502 -0.29350939408E+03  0.16146650402E+04  0.14442291418E+04  0.21861177600E+04  0.46999998093E+01 0.  1.
</event>
<event>
 5   0  0.1029908E-07  0.3589696E+04  0.7818609E-02  0.8092856E-01
       -2   -1    0    0    0  501  0.00000000000E+00  0.00000000000E+00  0.18822354772E+04  0.18822354772E+04  0.25500000920E-02 0.  1.
        2   -1    0    0  501    0  0.00000000000E+00  0.00000000000E+00 -0.17115179374E+04  0.17115179374E+04  0.25500000920E-02 0. -1.
    10030    2    1    2    0    0  0.00000000000E+00  0.00000000000E+00  0.17071753980E+03  0.35937534147E+04  0.35896962444E+04 0.  0.
        4    1    3    3  502    0  0.17090020077E+04  0.46773101820E+03 -0.20135276412E+03  0.17832567724E+04  0.12699999809E+01 0. -1.
       -4    1    3    3    0  502 -0.17090020077E+04 -0.46773101820E+03  0.37207030392E+03  0.18104966423E+04  0.12699999809E+01 0.  1.
</event>
<event>
 5   0  0.3215494E-08  0.3587582E+04  0.7818609E-02  0.8093342E-01
       -1   -1    0    0    0  501  0.00000000000E+00  0.00000000000E+00  0.20835574433E+04  0.20835574433E+04  0.50400001928E-02 0. -1.
        1   -1    0    0  501    0  0.00000000000E+00  0.00000000000E+00 -0.15443229194E+04  0.15443229194E+04  0.50400001928E-02 0.  1.
    10030    2    1    2    0    0  0.00000000000E+00  0.00000000000E+00  0.53923452390E+03  0.36278803626E+04  0.35875816442E+04 0.  0.
        4    1    3    3  502    0 -0.13933369382E+04  0.45847230201E+03 -0.77450168678E+03  0.16587462587E+04  0.12699999809E+01 0. -1.
       -4    1    3    3    0  502  0.13933369382E+04 -0.45847230201E+03  0.13137362107E+04  0.19691341039E+04  0.12699999809E+01 0.  1.
</event>
<event>
 5   0  0.1029908E-07  0.3596187E+04  0.7818609E-02  0.8091366E-01
        2   -1    0    0  501    0  0.00000000000E+00  0.00000000000E+00  0.28699651413E+04  0.28699651413E+04  0.25500000920E-02 0. -1.
       -2   -1    0    0    0  501  0.00000000000E+00  0.00000000000E+00 -0.11265435251E+04  0.11265435251E+04  0.25500000920E-02 0.  1.
    10030    2    1    2    0    0  0.00000000000E+00  0.00000000000E+00  0.17434216161E+04  0.39965086664E+04  0.35961872294E+04 0.  0.
        4    1    3    3  502    0 -0.83137280709E+03 -0.76830210781E+03 -0.68082517918E+03  0.13209819873E+04  0.12699999809E+01 0.  1.
       -4    1    3    3    0  502  0.83137280709E+03  0.76830210781E+03  0.24242467953E+04  0.26755266791E+04  0.12699999809E+01 0. -1.
</event>
<event>
 5   0  0.3212523E-08  0.3600963E+04  0.7818609E-02  0.8090271E-01
        1   -1    0    0  501    0  0.00000000000E+00  0.00000000000E+00  0.18490576701E+04  0.18490576701E+04  0.50400001928E-02 0. -1.
       -1   -1    0    0    0  501  0.00000000000E+00  0.00000000000E+00 -0.17531809900E+04  0.17531809900E+04  0.50400001928E-02 0.  1.
    10030    2    1    2    0    0  0.00000000000E+00  0.00000000000E+00  0.95876680108E+02  0.36022386600E+04  0.36009625138E+04 0.  0.
        3    1    3    3  502    0 -0.38414813437E+03  0.10545294149E+04 -0.13604422246E+04  0.17636340700E+04  0.10100000352E+00 0.  1.
       -3    1    3    3    0  502  0.38414813437E+03 -0.10545294149E+04  0.14563189047E+04  0.18386045901E+04  0.10100000352E+00 0. -1.
</event>
<event>
 5   0  0.3215494E-08  0.3560490E+04  0.7818609E-02  0.8099602E-01
        1   -1    0    0  501    0  0.00000000000E+00  0.00000000000E+00  0.23539369879E+04  0.23539369879E+04  0.50400001928E-02 0. -1.
       -1   -1    0    0    0  501  0.00000000000E+00  0.00000000000E+00 -0.13463708102E+04  0.13463708102E+04  0.50400001928E-02 0.  1.
    10030    2    1    2    0    0  0.00000000000E+00  0.00000000000E+00  0.10075661777E+04  0.37003077982E+04  0.35604898818E+04 0.  0.
        4    1    3    3  502    0  0.11440287276E+04 -0.11783684235E+04 -0.21015525331E+03  0.16557538206E+04  0.12699999809E+01 0.  1.
       -4    1    3    3    0  502 -0.11440287276E+04  0.11783684235E+04  0.12177214310E+04  0.20445539776E+04  0.12699999809E+01 0. -1.
</event>
<event>
 5   0  0.3202875E-08  0.3598260E+04  0.7818609E-02  0.8090890E-01
       -1   -1    0    0    0  501  0.00000000000E+00  0.00000000000E+00  0.14713742980E+04  0.14713742980E+04  0.50400001928E-02 0.  1.
        1   -1    0    0  501    0  0.00000000000E+00  0.00000000000E+00 -0.21998947610E+04  0.21998947610E+04  0.50400001928E-02 0. -1.
    10030    2    1    2    0    0  0.00000000000E+00  0.00000000000E+00 -0.72852046302E+03  0.36712690590E+04  0.35982599181E+04 0.  0.
        2    1    3    3  502    0 -0.10846474442E+04  0.12280646923E+04 -0.11224845266E+04  0.19860952845E+04  0.25500000920E-02 0. -1.
       -2    1    3    3    0  502  0.10846474442E+04 -0.12280646923E+04  0.39396406361E+03  0.16851737744E+04  0.25500000920E-02 0.  1.
</event>
<event>
 5   0  0.1017794E-07  0.3601558E+04  0.7818609E-02  0.8090135E-01
        2   -1    0    0  501    0  0.00000000000E+00  0.00000000000E+00  0.13216373524E+04  0.13216373524E+04  0.25500000920E-02 0. -1.
       -2   -1    0    0    0  501  0.00000000000E+00  0.00000000000E+00 -0.24536267133E+04  0.24536267133E+04  0.25500000920E-02 0.  1.
    10030    2    1    2    0    0  0.00000000000E+00  0.00000000000E+00 -0.11319893609E+04  0.37752640657E+04  0.36015578369E+04 0.  0.
        1    1    3    3  502    0  0.51416959671E+03  0.11654809734E+04  0.76822180486E+03  0.14875755493E+04  0.50400001928E-02 0. -1.
       -1    1    3    3    0  502 -0.51416959671E+03 -0.11654809734E+04 -0.19002111657E+04  0.22876885163E+04  0.50400001928E-02 0.  1.
</event>
<event>
 5   0  0.3212523E-08  0.3597922E+04  0.7818609E-02  0.8090968E-01
        1   -1    0    0  501    0  0.00000000000E+00  0.00000000000E+00  0.19610162935E+04  0.19610162935E+04  0.50400001928E-02 0.  1.
       -1   -1    0    0    0  501  0.00000000000E+00  0.00000000000E+00 -0.16502980769E+04  0.16502980769E+04  0.50400001928E-02 0. -1.
    10030    2    1    2    0    0  0.00000000000E+00  0.00000000000E+00  0.31071821660E+03  0.36113143704E+04  0.35979224104E+04 0.  0.
        3    1    3    3  502    0  0.10593393116E+03 -0.16790282451E+04  0.79483611567E+03  0.18606779158E+04  0.10100000352E+00 0.  1.
       -3    1    3    3    0  502 -0.10593393116E+03  0.16790282451E+04 -0.48411789907E+03  0.17506364545E+04  0.10100000352E+00 0. -1.
</event>
<event>
 5   0  0.1021087E-07  0.3571276E+04  0.7818609E-02  0.8097103E-01
       -2   -1    0    0    0  501  0.00000000000E+00  0.00000000000E+00  0.17575063456E+04  0.17575063456E+04  0.25500000920E-02 0.  1.
        2   -1    0    0  501    0  0.00000000000E+00  0.00000000000E+00 -0.18142204388E+04  0.18142204388E+04  0.25500000920E-02 0. -1.
    10030    2    1    2    0    0  0.00000000000E+00  0.00000000000E+00 -0.56714093212E+02  0.35717267844E+04  0.35712764852E+04 0.  0.
        3    1    3    3  502    0  0.14927041113E+04  0.45450029347E+03 -0.89666456031E+03  0.17996509174E+04  0.10100000352E+00 0. -1.
       -3    1    3    3    0  502 -0.14927041113E+04 -0.45450029347E+03  0.83995046709E+03  0.17720758669E+04  0.10100000352E+00 0.  1.
</event>
<event>
 5   0  0.1044678E-07  0.3611995E+04  0.7818609E-02  0.8087750E-01
        2   -1    0    0  501    0  0.00000000000E+00  0.00000000000E+00  0.12273455903E+04  0.12273455903E+04  0.25500000920E-02 0. -1.
       -2   -1    0    0    0  501  0.00000000000E+00  0.00000000000E+00 -0.26574640944E+04  0.26574640944E+04  0.25500000920E-02 0.  1.
    10030    2    1    2    0    0  0.00000000000E+00  0.00000000000E+00 -0.14301185041E+04  0.38848096847E+04  0.36119949267E+04 0.  0.
        2    1    3    3  502    0 -0.11975479701E+04  0.98680968287E+03 -0.17088121252E+04  0.23082359867E+04  0.25500000920E-02 0.  1.
       -2    1    3    3    0  502  0.11975479701E+04 -0.98680968287E+03  0.27869362107E+03  0.15765736981E+04  0.25500000920E-02 0. -1.
</event>
<event>
 5   0  0.1029908E-07  0.3600978E+04  0.7818609E-02  0.8090268E-01
       -2   -1    0    0    0  501  0.00000000000E+00  0.00000000000E+00  0.17841368785E+04  0.17841368785E+04  0.25500000920E-02 0.  1.
        2   -1    0    0  501    0  0.00000000000E+00  0.00000000000E+00 -0.18169914028E+04  0.18169914028E+04  0.25500000920E-02 0. -1.
    10030    2    1    2    0    0  0.00000000000E+00  0.00000000000E+00 -0.32854524296E+02  0.36011282813E+04  0.36009784057E+04 0.  0.
        4    1    3    3  502    0 -0.45142315561E+03 -0.17323592312E+04  0.17569628612E+03  0.17988113212E+04  0.12699999809E+01 0. -1.
       -4    1    3    3    0  502  0.45142315561E+03  0.17323592312E+04 -0.20855081042E+03  0.18023169601E+04  0.12699999809E+01 0.  1.
</event>
<event>
 5   0  0.3215494E-08  0.3603023E+04  0.7818609E-02  0.8089800E-01
       -1   -1    0    0    0  501  0.00000000000E+00  0.00000000000E+00  0.13110327153E+04  0.13110327153E+04  0.50400001928E-02 0.  1.
        1   -1    0    0  501    0  0.00000000000E+00  0.00000000000E+00 -0.24754866272E+04  0.24754866272E+04  0.50400001928E-02 0. -1.
    10030    2    1    2    0    0  0.00000000000E+00  0.00000000000E+00 -0.11644539119E+04  0.37865193424E+04  0.36030231498E+04 0.  0.
        4    1    3    3  502    0 -0.98867610447E+03  0.14833638543E+04 -0.85545535921E+03  0.19772845643E+04  0.12699999809E+01 0. -1.
       -4    1    3    3    0  502  0.98867610447E+03 -0.14833638543E+04 -0.30899855268E+03  0.18092347781E+04  0.12699999809E+01 0.  1.
</event>
<event>
 5   0  0.3202875E-08  0.3612312E+04  0.7818609E-02  0.8087677E-01
        1   -1    0    0  501    0  0.00000000000E+00  0.00000000000E+00  0.24946364780E+04  0.24946364780E+04  0.50400001928E-02 0.  1.
       -1   -1    0    0    0  501  0.00000000000E+00  0.00000000000E+00 -0.13076852849E+04  0.13076852849E+04  0.50400001928E-02 0. -1.
    10030    2    1    2    0    0  0.00000000000E+00  0.00000000000E+00  0.11869511931E+04  0.38023217629E+04  0.36123119542E+04 0.  0.
        1    1    3    3  502    0  0.13192443786E+04 -0.19793032392E+03 -0.68820008546E+03  0.15010667877E+04  0.50400001928E-02 0. -1.
       -1    1    3    3    0  502 -0.13192443786E+04  0.19793032392E+03  0.18751512786E+04  0.23012549752E+04  0.50400001928E-02 0.  1.
</event>
<event>
 5   0  0.1029908E-07  0.3583726E+04  0.7818609E-02  0.8094230E-01
       -2   -1    0    0    0  501  0.00000000000E+00  0.00000000000E+00  0.13427818488E+04  0.13427818488E+04  0.25500000920E-02 0.  1.
        2   -1    0    0  501    0  0.00000000000E+00  0.00000000000E+00 -0.23911358049E+04  0.23911358049E+04  0.25500000920E-02 0. -1.
    10030    2    1    2    0    0  0.00000000000E+00  0.00000000000E+00 -0.10483539561E+04  0.37339176537E+04  0.35837264163E+04 0.  0.
        4    1    3    3  502    0  0.12089431826E+04  0.34513046625E+03 -0.18544439492E+04  0.22404514346E+04  0.12699999809E+01 0. -1.
       -4    1    3    3    0  502 -0.12089431826E+04 -0.34513046625E+03  0.80608999305E+03  0.14934662190E+04  0.12699999809E+01 0.  1.
</event>
<event>
 5   0  0.9905335E-08  0.3606136E+04  0.7818609E-02  0.8089088E-01
        2   -1    0    0  501    0  0.00000000000E+00  0.00000000000E+00  0.16042972566E+04  0.16042972566E+04  0.25500000920E-02 0.  1.
       -2   -1    0    0    0  501  0.00000000000E+00  0.00000000000E+00 -0.20264666728E+04  0.20264666728E+04  0.25500000920E-02 0. -1.
    10030    2    1    2    0    0  0.00000000000E+00  0.00000000000E+00 -0.42216941620E+03  0.36307639293E+04  0.36061363943E+04 0.  0.
        5    1    3    3  502    0 -0.88320017993E+03 -0.56726697819E+03  0.12649416832E+04  0.16437560446E+04  0.46999998093E+01 0.  1.
       -5    1    3    3    0  502  0.88320017993E+03  0.56726697819E+03 -0.16871110994E+04  0.19870078847E+04  0.46999998093E+01 0. -1.
</event>
<event>
 5   0  0.3202875E-08  0.3615523E+04  0.7818609E-02  0.8086945E-01
       -1   -1    0    0    0  501  0.00000000000E+00  0.00000000000E+00  0.16469695907E+04  0.16469695907E+04  0.50400001928E-02 0.  1.
        1   -1    0    0  501    0  0.00000000000E+00  0.00000000000E+00 -0.19842508595E+04  0.19842508595E+04  0.50400001928E-02 0. -1.
    10030    2    1    2    0    0  0.00000000000E+00  0.00000000000E+00 -0.33728126885E+03  0.36312204502E+04  0.36155225492E+04 0.  0.
        2    1    3    3  502    0  0.68390703439E+03  0.96952513470E+03  0.12012068544E+04  0.16883736925E+04  0.25500000920E-02 0.  1.
       -2    1    3    3    0  502 -0.68390703439E+03 -0.96952513470E+03 -0.15384881232E+04  0.19428467577E+04  0.25500000920E-02 0. -1.
</event>
<event>
 5   0  0.3212523E-08  0.3598975E+04  0.7818609E-02  0.8090726E-01
        1   -1    0    0  501    0  0.00000000000E+00  0.00000000000E+00  0.15774790762E+04  0.15774790762E+04  0.50400001928E-02 0.  1.
       -1   -1    0    0    0  501  0.00000000000E+00  0.00000000000E+00 -0.20527411094E+04  0.20527411094E+04  0.50400001928E-02 0. -1.
    10030    2    1    2    0    0  0.00000000000E+00  0.00000000000E+00 -0.47526203317E+03  0.36302201856E+04  0.35989754925E+04 0.  0.
        3    1    3    3  502    0 -0.24242776799E+03  0.79335352243E+03  0.13730963898E+04  0.16042364976E+04  0.10100000352E+00 0.  1.
       -3    1    3    3    0  502  0.24242776799E+03 -0.79335352243E+03 -0.18483584230E+04  0.20259836880E+04  0.10100000352E+00 0. -1.
</event>
<event>
 5   0  0.1044678E-07  0.3596568E+04  0.7818609E-02  0.8091278E-01
        2   -1    0    0  501    0  0.00000000000E+00  0.00000000000E+00  0.24857587610E+04  0.24857587610E+04  0.25500000920E-02 0.  1.
       -2   -1    0    0    0  501  0.00000000000E+00  0.00000000000E+00 -0.13009408561E+04  0.13009408561E+04  0.25500000920E-02 0. -1.
    10030    2    1    2    0    0  0.00000000000E+00  0.00000000000E+00  0.11848179049E+04  0.37866996171E+04  0.35965678810E+04 0.  0.
        2    1    3    3  502    0 -0.60450763093E+03  0.56617487216E+03  0.22729874874E+04  0.24191848998E+04  0.25500000920E-02 0.  1.
       -2    1    3    3    0  502  0.60450763093E+03 -0.56617487216E+03 -0.10881695825E+04  0.13675147173E+04  0.25500000920E-02 0. -1.
</event>
<event>
 5   0  0.1029908E-07  0.3597212E+04  0.7818609E-02  0.8091131E-01
       -2   -1    0    0    0  501  0.00000000000E+00  0.00000000000E+00  0.11707050061E+04  0.11707050061E+04  0.25500000920E-02 0. -1.
        2   -1    0    0  501    0  0.00000000000E+00  0.00000000000E+00 -0.27632780677E+04  0.27632780677E+04  0.25500000920E-02 0.  1.
    10030    2    1    2    0    0  0.00000000000E+00  0.00000000000E+00 -0.15925730616E+04  0.39339830739E+04  0.35972119577E+04 0.  0.
        4    1    3    3  502    0  0.42122554233E+03 -0.17324387497E+04 -0.10555618516E+04  0.20719525608E+04  0.12699999809E+01 0.  1.
       -4    1    3    3    0  502 -0.42122554233E+03  0.17324387497E+04 -0.53701121000E+03  0.18620305130E+04  0.12699999809E+01 0. -1.
</event>
<event>
 5   0  0.3202875E-08  0.3606798E+04  0.7818609E-02  0.8088936E-01
        1   -1    0    0  501    0  0.00000000000E+00  0.00000000000E+00  0.21006306379E+04  0.21006306379E+04  0.50400001928E-02 0.  1.
       -1   -1    0    0    0  501  0.00000000000E+00  0.00000000000E+00 -0.15482243342E+04  0.15482243342E+04  0.50400001928E-02 0. -1.
    10030    2    1    2    0    0  0.00000000000E+00  0.00000000000E+00  0.55240630373E+03  0.36488549721E+04  0.36067977325E+04 0.  0.
        1    1    3    3  502    0  0.89509686068E+03 -0.14446386184E+04 -0.33421335989E+03  0.17320155016E+04  0.50400001928E-02 0. -1.
       -1    1    3    3    0  502 -0.89509686068E+03  0.14446386184E+04  0.88661966362E+03  0.19168394705E+04  0.50400001928E-02 0.  1.
</event>
<event>
 5   0  0.3202875E-08  0.3613037E+04  0.7818609E-02  0.8087512E-01
        1   -1    0    0  501    0  0.00000000000E+00  0.00000000000E+00  0.22036631781E+04  0.22036631781E+04  0.50400001928E-02 0. -1.
       -1   -1    0    0    0  501  0.00000000000E+00  0.00000000000E+00 -0.14809474949E+04  0.14809474949E+04  0.50400001928E-02 0.  1.
    10030    2    1    2    0    0  0.00000000000E+00  0.00000000000E+00  0.72271568322E+03  0.36846106730E+04  0.36130372061E+04 0.  0.
        1    1    3    3  502    0 -0.73028104710E+03 -0.98506081402E+03  0.17142323771E+04  0.21076640761E+04  0.50400001928E-02 0. -1.
       -1    1    3    3    0  502  0.73028104710E+03  0.98506081402E+03 -0.99151669386E+03  0.15769465968E+04  0.50400001928E-02 0.  1.
</event>
<event>
 5   0  0.1021087E-07  0.3595998E+04  0.7818609E-02  0.8091409E-01
       -2   -1    0    0    0  501  0.00000000000E+00  0.00000000000E+00  0.10712827015E+04  0.10712827015E+04  0.25500000920E-02 0. -1.
        2   -1    0    0  501    0  0.00000000000E+00  0.00000000000E+00 -0.30176909504E+04  0.30176909504E+04  0.25500000920E-02 0.  1.
    10030    2    1    2    0    0  0.00000000000E+00  0.00000000000E+00 -0.19464082489E+04  0.40889736520E+04  0.35959978386E+04 0.  0.
        3    1    3    3  502    0 -0.11006927718E+04 -0.11191973678E+04 -0.19701363636E+04  0.25190404179E+04  0.10100000352E+00 0.  1.
       -3    1    3    3    0  502  0.11006927718E+04  0.11191973678E+04  0.23728114643E+02  0.15699332341E+04  0.10100000352E+00 0. -1.
</event>
<event>
 5   0  0.3215494E-08  0.3591894E+04  0.7818609E-02  0.8092351E-01
       -1   -1    0    0    0  501  0.00000000000E+00  0.00000000000E+00  0.22260549882E+04  0.22260549882E+04  0.50400001928E-02 0.  1.
        1   -1    0    0  501    0  0.00000000000E+00  0.00000000000E+00 -0.14489422363E+04  0.14489422363E+04  0.50400001928E-02 0. -1.
    10030    2    1    2    0    0  0.00000000000E+00  0.00000000000E+00  0.77711275195E+03  0.36749972245E+04  0.35918937026E+04 0.  0.
        4    1    3    3  502    0 -0.12373443774E+04 -0.12276487660E+04 -0.54215735819E+02  0.17438702819E+04  0.12699999809E+01 0. -1.
       -4    1    3    3    0  502  0.12373443774E+04  0.12276487660E+04  0.83132848777E+03  0.19311269426E+04  0.12699999809E+01 0.  1.
</event>
<event>
 5   0  0.3212523E-08  0.3591131E+04  0.7818609E-02  0.8092526E-01
       -1   -1    0    0    0  501  0.00000000000E+00  0.00000000000E+00  0.13344038243E+04  0.13344038243E+04  0.50400001928E-02 0.  1.
        1   -1    0    0  501    0  0.00000000000E+00  0.00000000000E+00 -0.24161013796E+04  0.24161013796E+04  0.50400001928E-02 0. -1.
    10030    2    1    2    0    0  0.00000000000E+00  0.00000000000E+00 -0.10816975553E+04  0.37505052040E+04  0.35911306971E+04 0.  0.
        3    1    3    3  502    0  0.15567216909E+02 -0.92088092117E+03  0.10689169188E+04  0.14109739185E+04  0.10100000352E+00 0.  1.
       -3    1    3    3    0  502 -0.15567216909E+02  0.92088092117E+03 -0.21506144741E+04  0.23395312855E+04  0.10100000352E+00 0. -1.
</event>
<event>
 5   0  0.3202875E-08  0.3595856E+04  0.7818609E-02  0.8091442E-01
        1   -1    0    0  501    0  0.00000000000E+00  0.00000000000E+00  0.30555280182E+04  0.30555280182E+04  0.50400001928E-02 0.  1.
       -1   -1    0    0    0  501  0.00000000000E+00  0.00000000000E+00 -0.10579333403E+04  0.10579333403E+04  0.50400001928E-02 0. -1.
    10030    2    1    2    0    0  0.00000000000E+00  0.00000000000E+00  0.19975946779E+04  0.41134613585E+04  0.35958559274E+04 0.  0.
        1    1    3    3  502    0 -0.15953123776E+04  0.47188288870E+03  0.17787379228E+04  0.24354883783E+04  0.50400001928E-02 0.  1.
       -1    1    3    3    0  502  0.15953123776E+04 -0.47188288870E+03  0.21885675513E+03  0.16779729802E+04  0.50400001928E-02 0. -1.
</event>
<event>
 5   0  0.3212523E-08  0.3601195E+04  0.7818609E-02  0.8090218E-01
        1   -1    0    0  501    0  0.00000000000E+00  0.00000000000E+00  0.18799083392E+04  0.18799083393E+04  0.50400001928E-02 0. -1.
       -1   -1    0    0    0  501  0.00000000000E+00  0.00000000000E+00 -0.17246325943E+04  0.17246325943E+04  0.50400001928E-02 0.  1.
    10030    2    1    2    0    0  0.00000000000E+00  0.00000000000E+00  0.15527574497E+03  0.36045409335E+04  0.36011949107E+04 0.  0.
        3    1    3    3  502    0  0.90123694365E+03 -0.13992677099E+04  0.76527913154E+03  0.18318925492E+04  0.10100000352E+00 0. -1.
       -3    1    3    3    0  502 -0.90123694365E+03  0.13992677099E+04 -0.61000338657E+03  0.17726483843E+04  0.10100000352E+00 0.  1.
</event>
<event>
 5   0  0.9905335E-08  0.3599212E+04  0.7818609E-02  0.8090672E-01
        2   -1    0    0  501    0  0.00000000000E+00  0.00000000000E+00  0.18236291147E+04  0.18236291147E+04  0.25500000920E-02 0.  1.
       -2   -1    0    0    0  501  0.00000000000E+00  0.00000000000E+00 -0.17758989068E+04  0.17758989068E+04  0.25500000920E-02 0. -1.
    10030    2    1    2    0    0  0.00000000000E+00  0.00000000000E+00  0.47730207881E+02  0.35995280216E+04  0.35992115533E+04 0.  0.
        5    1    3    3  502    0 -0.97149646319E+03  0.93021977031E+03 -0.11718338746E+04  0.17839088874E+04  0.46999998093E+01 0. -1.
       -5    1    3    3    0  502  0.97149646319E+03 -0.93021977031E+03  0.12195640824E+04  0.18156191341E+04  0.46999998093E+01 0.  1.
</event>
<event>
 5   0  0.3215494E-08  0.3602019E+04  0.7818609E-02  0.8090029E-01
       -1   -1    0    0    0  501  0.00000000000E+00  0.00000000000E+00  0.30161908928E+04  0.30161908928E+04  0.50400001928E-02 0.  1.
        1   -1    0    0  501    0  0.00000000000E+00  0.00000000000E+00 -0.10754079151E+04  0.10754079151E+04  0.50400001928E-02 0. -1.
    10030    2    1    2    0    0  0.00000000000E+00  0.00000000000E+00  0.19407829776E+04  0.40915988079E+04  0.36020191891E+04 0.  0.
        4    1    3    3  502    0  0.77376358185E+03 -0.99848256827E+03 -0.48781787781E+03  0.13541216395E+04  0.12699999809E+01 0. -1.
       -4    1    3    3    0  502 -0.77376358185E+03  0.99848256827E+03  0.24286008554E+04  0.27374771684E+04  0.12699999809E+01 0.  1.
</event>
<event>
 5   0  0.3202875E-08  0.3603082E+04  0.7818609E-02  0.8089786E-01
        1   -1    0    0  501    0  0.00000000000E+00  0.00000000000E+00  0.12522157231E+04  0.12522157232E+04  0.50400001928E-02 0. -1.
       -1   -1    0    0    0  501  0.00000000000E+00  0.00000000000E+00 -0.25918462247E+04  0.25918462247E+04  0.50400001928E-02 0.  1.
    10030    2    1    2    0    0  0.00000000000E+00  0.00000000000E+00 -0.13396305015E+04  0.38440619478E+04  0.36030823441E+04 0.  0.
        1    1    3    3  502    0  0.74410688898E+03  0.78085017740E+03  0.86965024020E+03  0.13855372973E+04  0.50400001928E-02 0. -1.
       -1    1    3    3    0  502 -0.74410688898E+03 -0.78085017740E+03 -0.22092807417E+04  0.24585246506E+04  0.50400001928E-02 0.  1.
</event>
<event>
 5   0  0.3212523E-08  0.3599199E+04  0.7818609E-02  0.8090675E-01
        1   -1    0    0  501    0  0.00000000000E+00  0.00000000000E+00  0.22721450647E+04  0.22721450647E+04  0.50400001928E-02 0.  1.
       -1   -1    0    0    0  501  0.00000000000E+00  0.00000000000E+00 -0.14253310493E+04  0.14253310494E+04  0.50400001928E-02 0. -1.
    10030    2    1    2    0    0  0.00000000000E+00  0.00000000000E+00  0.84681401533E+03  0.36974761140E+04  0.35991993050E+04 0.  0.
        3    1    3    3  502    0  0.38811592371E+03  0.69060713653E+03 -0.12365690021E+04  0.14685622542E+04  0.10100000352E+00 0. -1.
       -3    1    3    3    0  502 -0.38811592371E+03 -0.69060713653E+03  0.20833830174E+04  0.22289138599E+04  0.10100000352E+00 0.  1.
</event>
<event>
 5   0  0.9905335E-08  0.3576227E+04  0.7818609E-02  0.8095959E-01
       -2   -1    0    0    0  501  0.00000000000E+00  0.00000000000E+00  0.20260915814E+04  0.20260915814E+04  0.25500000920E-02 0.  1.
        2   -1    0    0  501    0  0.00000000000E+00  0.00000000000E+00 -0.15780877194E+04  0.15780877194E+04  0.25500000920E-02 0. -1.
    10030    2    1    2    0    0  0.00000000000E+00  0.00000000000E+00  0.44800386196E+03  0.36041793008E+04  0.35762271980E+04 0.  0.
        5    1    3    3  502    0  0.13325444356E+04 -0.11353402093E+04  0.59106854124E+03  0.18477164756E+04  0.46999998093E+01 0.  1.
       -5    1    3    3    0  502 -0.13325444356E+04  0.11353402093E+04 -0.14306467927E+03  0.17564628252E+04  0.46999998093E+01 0. -1.
</event>
<event>
 5   0  0.1029908E-07  0.3598762E+04  0.7818609E-02  0.8090775E-01
       -2   -1    0    0    0  501  0.00000000000E+00  0.00000000000E+00  0.13818960465E+04  0.13818960465E+04  0.25500000920E-02 0.  1.
        2   -1    0    0  501    0  0.00000000000E+00  0.00000000000E+00 -0.23429922937E+04  0.23429922937E+04  0.25500000920E-02 0. -1.
    10030    2    1    2    0    0  0.00000000000E+00  0.00000000000E+00 -0.96109624724E+03  0.37248883402E+04  0.35987618913E+04 0.  0.
        4    1    3    3  502    0 -0.41834215322E+02  0.69595527386E+03  0.12364033883E+04  0.14194360839E+04  0.12699999809E+01 0.  1.
       -4    1    3    3    0  502  0.41834215322E+02 -0.69595527386E+03 -0.21974996356E+04  0.23054522563E+04  0.12699999809E+01 0. -1.
</event>
<event>
 5   0  0.3279988E-08  0.3601165E+04  0.7818609E-02  0.8090225E-01
        1   -1    0    0  501    0  0.00000000000E+00  0.00000000000E+00  0.16021150524E+04  0.16021150524E+04  0.50400001928E-02 0. -1.
       -1   -1    0    0    0  501  0.00000000000E+00  0.00000000000E+00 -0.20236363014E+04  0.20236363014E+04  0.50400001928E-02 0.  1.
    10030    2    1    2    0    0  0.00000000000E+00  0.00000000000E+00 -0.42152124896E+03  0.36257513538E+04  0.36011654664E+04 0.  0.
        5    1    3    3  502    0  0.85579790413E+03 -0.75844178016E+02  0.13824249059E+04  0.16276557076E+04  0.46999998093E+01 0. -1.
       -5    1    3    3    0  502 -0.85579790413E+03  0.75844178016E+02 -0.18039461548E+04  0.19980956463E+04  0.46999998093E+01 0.  1.
</event>
<event>
 5   0  0.1029908E-07  0.3606251E+04  0.7818609E-02  0.8089061E-01
        2   -1    0    0  501    0  0.00000000000E+00  0.00000000000E+00  0.14497406352E+04  0.14497406352E+04  0.25500000920E-02 0.  1.
       -2   -1    0    0    0  501  0.00000000000E+00  0.00000000000E+00 -0.22426503233E+04  0.22426503233E+04  0.25500000920E-02 0. -1.
    10030    2    1    2    0    0  0.00000000000E+00  0.00000000000E+00 -0.79290968817E+03  0.36923909585E+04  0.36062508533E+04 0.  0.
        4    1    3    3  502    0 -0.12044698528E+04  0.31830526634E+03 -0.17311227147E+04  0.21328041014E+04  0.12699999809E+01 0. -1.
       -4    1    3    3    0  502  0.12044698528E+04 -0.31830526634E+03  0.93821302650E+03  0.15595868571E+04  0.12699999809E+01 0.  1.
</event>
<event>
 5   0  0.3279988E-08  0.3602694E+04  0.7818609E-02  0.8089875E-01
        1   -1    0    0  501    0  0.00000000000E+00  0.00000000000E+00  0.32585722230E+04  0.32585722230E+04  0.50400001928E-02 0.  1.
       -1   -1    0    0    0  501  0.00000000000E+00  0.00000000000E+00 -0.99578925108E+03  0.99578925110E+03  0.50400001928E-02 0. -1.
    10030    2    1    2    0    0  0.00000000000E+00  0.00000000000E+00  0.22627829719E+04  0.42543614741E+04  0.36026940994E+04 0.  0.
        5    1    3    3  502    0  0.17584510024E+04 -0.31148782229E+02  0.15913435480E+04  0.23718171414E+04  0.46999998093E+01 0.  1.
       -5    1    3    3    0  502 -0.17584510024E+04  0.31148782229E+02  0.67143942384E+03  0.18825443326E+04  0.46999998093E+01 0. -1.
</event>
<event>
 5   0  0.1044678E-07  0.3591356E+04  0.7818609E-02  0.8092475E-01
        2   -1    0    0  501    0  0.00000000000E+00  0.00000000000E+00  0.23415747131E+04  0.23415747131E+04  0.25500000920E-02 0.  1.
       -2   -1    0    0    0  501  0.00000000000E+00  0.00000000000E+00 -0.13770474493E+04  0.13770474493E+04  0.25500000920E-02 0. -1.
    10030    2    1    2    0    0  0.00000000000E+00  0.00000000000E+00  0.96452726379E+03  0.37186221625E+04  0.35913560036E+04 0.  0.
        2    1    3    3  502    0  0.78786900581E+03 -0.15387786975E+04 -0.20624086229E+02  0.17288732756E+04  0.25500000920E-02 0. -1.
       -2    1    3    3    0  502 -0.78786900581E+03  0.15387786975E+04  0.98515135002E+03  0.19897488869E+04  0.25500000920E-02 0.  1.
</event>
<event>
 5   0  0.1017794E-07  0.3602691E+04  0.7818609E-02  0.8089876E-01
       -2   -1    0    0    0  501  0.00000000000E+00  0.00000000000E+00  0.14875829966E+04  0.14875829966E+04  0.25500000920E-02 0. -1.
        2   -1    0    0  501    0  0.00000000000E+00  0.00000000000E+00 -0.21812870328E+04  0.21812870328E+04  0.25500000920E-02 0.  1.
    10030    2    1    2    0    0  0.00000000000E+00  0.00000000000E+00 -0.69370403617E+03  0.36688700294E+04  0.36026909391E+04 0.  0.
        1    1    3    3  502    0 -0.99133602550E+02 -0.17249501839E+04  0.17198182335E+03  0.17363347476E+04  0.50400001928E-02 0.  1.
       -1    1    3    3    0  502  0.99133602550E+02  0.17249501839E+04 -0.86568585952E+03  0.19325352818E+04  0.50400001928E-02 0. -1.
</event>
<event>
 5   0  0.3215494E-08  0.3607788E+04  0.7818609E-02  0.8088710E-01
       -1   -1    0    0    0  501  0.00000000000E+00  0.00000000000E+00  0.19086449809E+04  0.19086449809E+04  0.50400001928E-02 0. -1.
        1   -1    0    0  501    0  0.00000000000E+00  0.00000000000E+00 -0.17048916284E+04  0.17048916284E+04  0.50400001928E-02 0.  1.
    10030    2    1    2    0    0  0.00000000000E+00  0.00000000000E+00  0.20375335250E+03  0.36135366093E+04  0.36077876044E+04 0.  0.
        4    1    3    3  502    0 -0.12963521372E+04  0.12105164361E+04 -0.22751258698E+03  0.17881953182E+04  0.12699999809E+01 0.  1.
       -4    1    3    3    0  502  0.12963521372E+04 -0.12105164361E+04  0.43126593948E+03  0.18253412912E+04  0.12699999809E+01 0. -1.
</event>
<event>
 5   0  0.1017794E-07  0.3596448E+04  0.7818609E-02  0.8091306E-01
       -2   -1    0    0    0  501  0.00000000000E+00  0.00000000000E+00  0.15135193835E+04  0.15135193835E+04  0.25500000920E-02 0. -1.
        2   -1    0    0  501    0  0.00000000000E+00  0.00000000000E+00 -0.21364839660E+04  0.21364839660E+04  0.25500000920E-02 0.  1.
    10030    2    1    2    0    0  0.00000000000E+00  0.00000000000E+00 -0.62296458251E+03  0.36500033496E+04  0.35964481897E+04 0.  0.
        1    1    3    3  502    0 -0.80048459961E+03 -0.37347821527E+03  0.12781587300E+04  0.15536895799E+04  0.50400001928E-02 0. -1.
       -1    1    3    3    0  502  0.80048459961E+03  0.37347821527E+03 -0.19011233125E+04  0.20963137697E+04  0.50400001928E-02 0.  1.
</event>
<event>
 5   0  0.3202875E-08  0.3600647E+04  0.7818609E-02  0.8090343E-01
       -1   -1    0    0    0  501  0.00000000000E+00  0.00000000000E+00  0.22972732497E+04  0.22972732497E+04  0.50400001928E-02 0. -1.
        1   -1    0    0  501    0  0.00000000000E+00  0.00000000000E+00 -0.14108750003E+04  0.14108750003E+04  0.50400001928E-02 0.  1.
    10030    2    1    2    0    0  0.00000000000E+00  0.00000000000E+00  0.88639824934E+03  0.37081482500E+04  0.36006473845E+04 0.  0.
        2    1    3    3  502    0  0.29951256229E+03 -0.16548299466E+04 -0.21863497599E+03  0.16958688569E+04  0.25500000920E-02 0.  1.
       -2    1    3    3    0  502 -0.29951256229E+03  0.16548299466E+04  0.11050332253E+04  0.20122793932E+04  0.25500000920E-02 0. -1.
</event>
<event>
 5   0  0.1029908E-07  0.3596213E+04  0.7818609E-02  0.8091360E-01
       -2   -1    0    0    0  501  0.00000000000E+00  0.00000000000E+00  0.13543721957E+04  0.13543721957E+04  0.25500000920E-02 0. -1.
        2   -1    0    0  501    0  0.00000000000E+00  0.00000000000E+00 -0.23872221690E+04  0.23872221690E+04  0.25500000920E-02 0.  1.
    10030    2    1    2    0    0  0.00000000000E+00  0.00000000000E+00 -0.10328499733E+04  0.37415943647E+04  0.35962131921E+04 0.  0.
        4    1    3    3  502    0  0.76092832330E+03  0.58407392665E+03 -0.20987731313E+04  0.23075971344E+04  0.12699999809E+01 0.  1.
       -4    1    3    3    0  502 -0.76092832330E+03 -0.58407392665E+03  0.10659231580E+04  0.14339972304E+04  0.12699999809E+01 0. -1.
</event>
<event>
 5   0  0.1021087E-07  0.3600645E+04  0.7818609E-02  0.8090344E-01
        2   -1    0    0  501    0  0.00000000000E+00  0.00000000000E+00  0.19996009830E+04  0.19996009830E+04  0.25500000920E-02 0. -1.
       -2   -1    0    0    0  501  0.00000000000E+00  0.00000000000E+00 -0.16209035289E+04  0.16209035289E+04  0.25500000920E-02 0.  1.
    10030    2    1    2    0    0  0.00000000000E+00  0.00000000000E+00  0.37869745405E+03  0.36205045119E+04  0.36006445477E+04 0.  0.
        3    1    3    3  502    0 -0.16908875042E+04 -0.45092252096E+03  0.61444361184E+03  0.18547163217E+04  0.10100000352E+00 0. -1.
       -3    1    3    3    0  502  0.16908875042E+04  0.45092252096E+03 -0.23574615779E+03  0.17657881902E+04  0.10100000352E+00 0.  1.
</event>
<event>
 5   0  0.3202875E-08  0.3595096E+04  0.7818609E-02  0.8091616E-01
        1   -1    0    0  501    0  0.00000000000E+00  0.00000000000E+00  0.23794138227E+04  0.23794138227E+04  0.50400001928E-02 0. -1.
       -1   -1    0    0    0  501  0.00000000000E+00  0.00000000000E+00 -0.13579728285E+04  0.13579728285E+04  0.50400001928E-02 0.  1.
    10030    2    1    2    0    0  0.00000000000E+00  0.00000000000E+00  0.10214409943E+04  0.37373866512E+04  0.35950962819E+04 0.  0.
        2    1    3    3  502    0  0.34136763831E+03  0.16302999758E+04  0.12133170679E+04  0.20607154541E+04  0.25500000920E-02 0. -1.
       -2    1    3    3    0  502 -0.34136763831E+03 -0.16302999758E+04 -0.19187607368E+03  0.16766711971E+04  0.25500000920E-02 0.  1.
</event>
<event>
 5   0  0.3215494E-08  0.3594485E+04  0.7818609E-02  0.8091756E-01
        1   -1    0    0  501    0  0.00000000000E+00  0.00000000000E+00  0.27755117863E+04  0.27755117863E+04  0.50400001928E-02 0. -1.
       -1   -1    0    0    0  501  0.00000000000E+00  0.00000000000E+00 -0.11637783581E+04  0.11637783582E+04  0.50400001928E-02 0.  1.
    10030    2    1    2    0    0  0.00000000000E+00  0.00000000000E+00  0.16117334282E+04  0.39392901445E+04  0.35944849699E+04 0.  0.
        4    1    3    3  502    0 -0.11172245149E+04 -0.72542278283E+03 -0.51637177759E+03  0.14286603011E+04  0.12699999809E+01 0.  1.
       -4    1    3    3    0  502  0.11172245149E+04  0.72542278283E+03  0.21281052058E+04  0.25106298433E+04  0.12699999809E+01 0. -1.
</event>
<event>
 5   0  0.3212523E-08  0.3612230E+04  0.7818609E-02  0.8087696E-01
        1   -1    0    0  501    0  0.00000000000E+00  0.00000000000E+00  0.23472176453E+04  0.23472176453E+04  0.50400001928E-02 0.  1.
       -1   -1    0    0    0  501  0.00000000000E+00  0.00000000000E+00 -0.13897526674E+04  0.13897526674E+04  0.50400001928E-02 0. -1.
    10030    2    1    2    0    0  0.00000000000E+00  0.00000000000E+00  0.95746497794E+03  0.37369703127E+04  0.36122303268E+04 0.  0.
        3    1    3    3  502    0  0.85555742709E+03  0.92750788640E+03 -0.85809934084E+03  0.15259698160E+04  0.10100000352E+00 0. -1.
       -3    1    3    3    0  502 -0.85555742709E+03 -0.92750788640E+03  0.18155643188E+04  0.22110004967E+04  0.10100000352E+00 0.  1.
</event>
<event>
 5   0  0.3212523E-08  0.3600980E+04  0.7818609E-02  0.8090267E-01
       -1   -1    0    0    0  501  0.00000000000E+00  0.00000000000E+00  0.15009261066E+04  0.15009261067E+04  0.50400001928E-02 0.  1.
        1   -1    0    0  501    0  0.00000000000E+00  0.00000000000E+00 -0.21598422520E+04  0.21598422520E+04  0.50400001928E-02 0. -1.
    10030    2    1    2    0    0  0.00000000000E+00  0.00000000000E+00 -0.65891614531E+03  0.36607683586E+04  0.36009796568E+04 0.  0.
        3    1    3    3  502    0  0.13008665712E+04  0.12315032473E+04 -0.51387993704E+03  0.18635789986E+04  0.10100000352E+00 0. -1.
       -3    1    3    3    0  502 -0.13008665712E+04 -0.12315032473E+04 -0.14503620827E+03  0.17971893601E+04  0.10100000352E+00 0.  1.
</event>
<event>
 5   0  0.1021087E-07  0.3636762E+04  0.7818609E-02  0.8082122E-01
        2   -1    0    0  501    0  0.00000000000E+00  0.00000000000E+00  0.13430666993E+04  0.13430666993E+04  0.25500000920E-02 0.  1.
       -2   -1    0    0    0  501  0.00000000000E+00  0.00000000000E+00 -0.24619107178E+04  0.24619107178E+04  0.25500000920E-02 0. -1.
    10030    2    1    2    0    0  0.00000000000E+00  0.00000000000E+00 -0.11188440184E+04  0.38049774171E+04  0.36367624623E+04 0.  0.
        3    1    3    3  502    0 -0.71920232669E+03  0.49800526667E+03 -0.22272865027E+04  0.23929200587E+04  0.10100000352E+00 0. -1.
       -3    1    3    3    0  502  0.71920232669E+03 -0.49800526667E+03  0.11084424842E+04  0.14120573584E+04  0.10100000352E+00 0.  1.
</event>
<event>
 5   0  0.9905335E-08  0.3599584E+04  0.7818609E-02  0.8090587E-01
        2   -1    0    0  501    0  0.00000000000E+00  0.00000000000E+00  0.21300145988E+04  0.21300145988E+04  0.25500000920E-02 0. -1.
       -2   -1    0    0    0  501  0.00000000000E+00  0.00000000000E+00 -0.15207650651E+04  0.15207650651E+04  0.25500000920E-02 0.  1.
    10030    2    1    2    0    0  0.00000000000E+00  0.00000000000E+00  0.60924953377E+03  0.36507796639E+04  0.35995843037E+04 0.  0.
        5    1    3    3  502    0  0.75670100670E+03 -0.28683965871E+01 -0.13515808428E+04  0.15489988721E+04  0.46999998093E+01 0.  1.
       -5    1    3    3    0  502 -0.75670100670E+03  0.28683965871E+01  0.19608303765E+04  0.21017807918E+04  0.46999998093E+01 0. -1.
</event>
<event>
 5   0  0.1044678E-07  0.3605033E+04  0.7818609E-02  0.8089340E-01
       -2   -1    0    0    0  501  0.00000000000E+00  0.00000000000E+00  0.18561024922E+04  0.18561024922E+04  0.25500000920E-02 0. -1.
        2   -1    0    0  501    0  0.00000000000E+00  0.00000000000E+00 -0.17504778134E+04  0.17504778134E+04  0.25500000920E-02 0.  1.
    10030    2    1    2    0    0  0.00000000000E+00  0.00000000000E+00  0.10562467885E+03  0.36065803056E+04  0.36050332770E+04 0.  0.
        2    1    3    3  502    0  0.17636068814E+04  0.11113443721E+03  0.40850131794E+03  0.18137070938E+04  0.25500000920E-02 0. -1.
       -2    1    3    3    0  502 -0.17636068814E+04 -0.11113443721E+03 -0.30287663910E+03  0.17928732118E+04  0.25500000920E-02 0.  1.
</event>
<event>
 5   0  0.3212523E-08  0.3596001E+04  0.7818609E-02  0.8091408E-01
       -1   -1    0    0    0  501  0.00000000000E+00  0.00000000000E+00  0.18644581349E+04  0.18644581349E+04  0.50400001928E-02 0. -1.
        1   -1    0    0  501    0  0.00000000000E+00  0.00000000000E+00 -0.17339121929E+04  0.17339121930E+04  0.50400001928E-02 0.  1.
    10030    2    1    2    0    0  0.00000000000E+00  0.00000000000E+00  0.13054594196E+03  0.35983703279E+04  0.35960014980E+04 0.  0.
        3    1    3    3  502    0 -0.17938604699E+04 -0.79499657762E+02  0.15780605484E+03  0.18025421888E+04  0.10100000352E+00 0. -1.
       -3    1    3    3    0  502  0.17938604699E+04  0.79499657762E+02 -0.27260112885E+02  0.17958281391E+04  0.10100000352E+00 0.  1.
</event>
<event>
 5   0  0.1044678E-07  0.3600600E+04  0.7818609E-02  0.8090354E-01
        2   -1    0    0  501    0  0.00000000000E+00  0.00000000000E+00  0.24234304835E+04  0.24234304835E+04  0.25500000920E-02 0.  1.
       -2   -1    0    0    0  501  0.00000000000E+00  0.00000000000E+00 -0.13373932415E+04  0.13373932415E+04  0.25500000920E-02 0. -1.
    10030    2    1    2    0    0  0.00000000000E+00  0.00000000000E+00  0.10860372420E+04  0.37608237250E+04  0.36005997000E+04 0.  0.
        2    1    3    3  502    0 -0.13025380013E+04  0.76184267510E+03  0.15685818264E+04  0.21765703418E+04  0.25500000920E-02 0.  1.
       -2    1    3    3    0  502  0.13025380013E+04 -0.76184267510E+03 -0.48254458436E+03  0.15842533833E+04  0.25500000920E-02 0. -1.
</event>
<event>
 5   0  0.3202875E-08  0.3609941E+04  0.7818609E-02  0.8088218E-01
        1   -1    0    0  501    0  0.00000000000E+00  0.00000000000E+00  0.20087657098E+04  0.20087657098E+04  0.50400001928E-02 0.  1.
       -1   -1    0    0    0  501  0.00000000000E+00  0.00000000000E+00 -0.16218506683E+04  0.16218506683E+04  0.50400001928E-02 0. -1.
    10030    2    1    2    0    0  0.00000000000E+00  0.00000000000E+00  0.38691504155E+03  0.36306163781E+04  0.36099407247E+04 0.  0.
        1    1    3    3  502    0  0.65363468681E+03 -0.50513399781E+03  0.18074915993E+04  0.19873159138E+04  0.50400001928E-02 0.  1.
       -1    1    3    3    0  502 -0.65363468681E+03  0.50513399781E+03 -0.14205765578E+04  0.16433004643E+04  0.50400001928E-02 0. -1.
</event>
<event>
 5   0  0.3202875E-08  0.3588254E+04  0.7818609E-02  0.8093188E-01
       -3   -1    0    0    0  501  0.00000000000E+00  0.00000000000E+00  0.14483888566E+04  0.14483888601E+04  0.10100000352E+00 0.  1.
        3   -1    0    0  501    0  0.00000000000E+00  0.00000000000E+00 -0.22223947320E+04  0.22223947343E+04  0.10100000352E+00 0. -1.
    10030    2    1    2    0    0  0.00000000000E+00  0.00000000000E+00 -0.77400587540E+03  0.36707835944E+04  0.35882540464E+04 0.  0.
        2    1    3    3  502    0  0.42577401269E+03  0.57375924316E+03 -0.20705788000E+04  0.21903834701E+04  0.25500000920E-02 0. -1.
       -2    1    3    3    0  502 -0.42577401269E+03 -0.57375924316E+03  0.12965729246E+04  0.14804001243E+04  0.25500000920E-02 0.  1.
</event>
<event>
 5   0  0.1029908E-07  0.3605988E+04  0.7818609E-02  0.8089121E-01
       -2   -1    0    0    0  501  0.00000000000E+00  0.00000000000E+00  0.12337728451E+04  0.12337728451E+04  0.25500000920E-02 0. -1.
        2   -1    0    0  501    0  0.00000000000E+00  0.00000000000E+00 -0.26348350504E+04  0.26348350504E+04  0.25500000920E-02 0.  1.
    10030    2    1    2    0    0  0.00000000000E+00  0.00000000000E+00 -0.14010622053E+04  0.38686078955E+04  0.36059883176E+04 0.  0.
        4    1    3    3  502    0 -0.17248890274E+04 -0.26172673712E+03 -0.21237247412E+03  0.17575115141E+04  0.12699999809E+01 0. -1.
       -4    1    3    3    0  502  0.17248890274E+04  0.26172673712E+03 -0.11886897311E+04  0.21110963814E+04  0.12699999809E+01 0.  1.
</event>
<event>
 5   0  0.3212523E-08  0.3597370E+04  0.7818609E-02  0.8091094E-01
        1   -1    0    0  501    0  0.00000000000E+00  0.00000000000E+00  0.19014277292E+04  0.19014277292E+04  0.50400001928E-02 0. -1.
       -1   -1    0    0    0  501  0.00000000000E+00  0.00000000000E+00 -0.17014941623E+04  0.17014941623E+04  0.50400001928E-02 0.  1.
    10030    2    1    2    0    0  0.00000000000E+00  0.00000000000E+00  0.19993356690E+03  0.36029218916E+04  0.35973702514E+04 0.  0.
        3    1    3    3  502    0 -0.17398089304E+04  0.45538921149E+03  0.13089684716E+03  0.18031773188E+04  0.10100000352E+00 0.  1.
       -3    1    3    3    0  502  0.17398089304E+04 -0.45538921149E+03  0.69036719743E+02  0.17997445728E+04  0.10100000352E+00 0. -1.
</event>
<event>
 5   0  0.3202875E-08  0.3598265E+04  0.7818609E-02  0.8090889E-01
       -1   -1    0    0    0  501  0.00000000000E+00  0.00000000000E+00  0.23543345177E+04  0.23543345177E+04  0.50400001928E-02 0. -1.
        1   -1    0    0  501    0  0.00000000000E+00  0.00000000000E+00 -0.13748590518E+04  0.13748590518E+04  0.50400001928E-02 0.  1.
    10030    2    1    2    0    0  0.00000000000E+00  0.00000000000E+00  0.97947546586E+03  0.37291935695E+04  0.35982652057E+04 0.  0.
        1    1    3    3  502    0  0.14876795070E+04  0.26856692269E+03  0.15007112015E+04  0.21301297185E+04  0.50400001928E-02 0. -1.
       -1    1    3    3    0  502 -0.14876795070E+04 -0.26856692269E+03 -0.52123573568E+03  0.15990638510E+04  0.50400001928E-02 0.  1.
</event>
<event>
 5   0  0.3202875E-08  0.3598834E+04  0.7818609E-02  0.8090759E-01
       -1   -1    0    0    0  501  0.00000000000E+00  0.00000000000E+00  0.19203102762E+04  0.19203102762E+04  0.50400001928E-02 0. -1.
        1   -1    0    0  501    0  0.00000000000E+00  0.00000000000E+00 -0.16861342905E+04  0.16861342905E+04  0.50400001928E-02 0.  1.
    10030    2    1    2    0    0  0.00000000000E+00  0.00000000000E+00  0.23417598571E+03  0.36064445667E+04  0.35988337027E+04 0.  0.
        2    1    3    3  502    0  0.69822866963E+03 -0.36202388831E+03  0.17389409094E+04  0.19085334834E+04  0.25500000920E-02 0. -1.
       -2    1    3    3    0  502 -0.69822866963E+03  0.36202388831E+03 -0.15047649237E+04  0.16979110832E+04  0.25500000920E-02 0.  1.
</event>
<event>
 5   0  0.3215494E-08  0.3605094E+04  0.7818609E-02  0.8089326E-01
       -1   -1    0    0    0  501  0.00000000000E+00  0.00000000000E+00  0.12892928573E+04  0.12892928573E+04  0.50400001928E-02 0. -1.
        1   -1    0    0  501    0  0.00000000000E+00  0.00000000000E+00 -0.25201217896E+04  0.25201217896E+04  0.50400001928E-02 0.  1.
    10030    2    1    2    0    0  0.00000000000E+00  0.00000000000E+00 -0.12308289323E+04  0.38094146470E+04  0.36050936315E+04 0.  0.
        4    1    3    3  502    0  0.95616846133E+03  0.10374718203E+04 -0.18008554993E+04  0.22877255182E+04  0.12699999809E+01 0.  1.
       -4    1    3    3    0  502 -0.95616846133E+03 -0.10374718203E+04  0.57002656707E+03  0.15216891287E+04  0.12699999809E+01 0. -1.
</event>
<event>
 5   0  0.3202875E-08  0.3600350E+04  0.7818609E-02  0.8090412E-01
        3   -1    0    0  501    0  0.00000000000E+00  0.00000000000E+00  0.12116308701E+04  0.12116308743E+04  0.10100000352E+00 0. -1.
       -3   -1    0    0    0  501  0.00000000000E+00  0.00000000000E+00 -0.26746014208E+04  0.26746014227E+04  0.10100000352E+00 0.  1.
    10030    2    1    2    0    0  0.00000000000E+00  0.00000000000E+00 -0.14629705507E+04  0.38862322970E+04  0.36003497933E+04 0.  0.
        3    1    3    3  502    0  0.16149908946E+04 -0.25200983850E+03  0.82678184567E+02  0.16366246487E+04  0.10100000352E+00 0. -1.
       -3    1    3    3    0  502 -0.16149908946E+04  0.25200983850E+03 -0.15456487353E+04  0.22496076483E+04  0.10100000352E+00 0.  1.
</event>
<event>
 5   0  0.1017794E-07  0.3592136E+04  0.7818609E-02  0.8092295E-01
       -2   -1    0    0    0  501  0.00000000000E+00  0.00000000000E+00  0.15738540938E+04  0.15738540938E+04  0.25500000920E-02 0.  1.
        2   -1    0    0  501    0  0.00000000000E+00  0.00000000000E+00 -0.20496564231E+04  0.20496564231E+04  0.25500000920E-02 0. -1.
    10030    2    1    2    0    0  0.00000000000E+00  0.00000000000E+00 -0.47580232929E+03  0.36235105169E+04  0.35921359397E+04 0.  0.
        1    1    3    3  502    0 -0.33177301511E+02  0.11486345203E+04 -0.16303191781E+04  0.19945933463E+04  0.50400001928E-02 0.  1.
       -1    1    3    3    0  502  0.33177301511E+02 -0.11486345203E+04  0.11545168488E+04  0.16289171706E+04  0.50400001928E-02 0. -1.
</event>
<event>
 5   0  0.3202875E-08  0.3601860E+04  0.7818609E-02  0.8090066E-01
        1   -1    0    0  501    0  0.00000000000E+00  0.00000000000E+00  0.25127782202E+04  0.25127782202E+04  0.50400001928E-02 0.  1.
       -1   -1    0    0    0  501  0.00000000000E+00  0.00000000000E+00 -0.12907424002E+04  0.12907424002E+04  0.50400001928E-02 0. -1.
    10030    2    1    2    0    0  0.00000000000E+00  0.00000000000E+00  0.12220358200E+04  0.38035206204E+04  0.36018602922E+04 0.  0.
        2    1    3    3  502    0 -0.68229689502E+03  0.59189064060E+02  0.23699009147E+04  0.24668730700E+04  0.25500000920E-02 0.  1.
       -2    1    3    3    0  502  0.68229689502E+03 -0.59189064060E+02 -0.11478650947E+04  0.13366475504E+04  0.25500000920E-02 0. -1.
</event>
<event>
 5   0  0.1021087E-07  0.3593691E+04  0.7818609E-02  0.8091938E-01
       -2   -1    0    0    0  501  0.00000000000E+00  0.00000000000E+00  0.15116959084E+04  0.15116959084E+04  0.25500000920E-02 0. -1.
        2   -1    0    0  501    0  0.00000000000E+00  0.00000000000E+00 -0.21357826983E+04  0.21357826983E+04  0.25500000920E-02 0.  1.
    10030    2    1    2    0    0  0.00000000000E+00  0.00000000000E+00 -0.62408678990E+03  0.36474786067E+04  0.35936911199E+04 0.  0.
        3    1    3    3  502    0  0.11976668563E+04  0.13292269845E+04 -0.14402514447E+03  0.17949912333E+04  0.10100000352E+00 0. -1.
       -3    1    3    3    0  502 -0.11976668563E+04 -0.13292269845E+04 -0.48006164543E+03  0.18524873734E+04  0.10100000352E+00 0.  1.
</event>
<event>
 5   0  0.3215494E-08  0.3599910E+04  0.7818609E-02  0.8090512E-01
        1   -1    0    0  501    0  0.00000000000E+00  0.00000000000E+00  0.12152235500E+04  0.12152235500E+04  0.50400001928E-02 0.  1.
       -1   -1    0    0    0  501  0.00000000000E+00  0.00000000000E+00 -0.26660430761E+04  0.26660430761E+04  0.50400001928E-02 0. -1.
    10030    2    1    2    0    0  0.00000000000E+00  0.00000000000E+00 -0.14508195261E+04  0.38812666261E+04  0.35999101829E+04 0.  0.
        4    1    3    3  502    0  0.64990654411E+03 -0.12892825383E+04  0.43339973267E+03  0.15074697081E+04  0.12699999809E+01 0.  1.
       -4    1    3    3    0  502 -0.64990654411E+03  0.12892825383E+04 -0.18842192588E+04  0.23737969180E+04  0.12699999809E+01 0. -1.
</event>
<event>
 5   0  0.1017794E-07  0.3610364E+04  0.7818609E-02  0.8088122E-01
       -2   -1    0    0    0  501  0.00000000000E+00  0.00000000000E+00  0.12686843200E+04  0.12686843200E+04  0.25500000920E-02 0. -1.
        2   -1    0    0  501    0  0.00000000000E+00  0.00000000000E+00 -0.25685517822E+04  0.25685517822E+04  0.25500000920E-02 0.  1.
    10030    2    1    2    0    0  0.00000000000E+00  0.00000000000E+00 -0.12998674622E+04  0.38372361023E+04  0.36103636223E+04 0.  0.
        1    1    3    3  502    0 -0.71136575018E+03  0.16296174259E+04 -0.98093126393E+03  0.20307437874E+04  0.50400001928E-02 0.  1.
       -1    1    3    3    0  502  0.71136575018E+03 -0.16296174259E+04 -0.31893619826E+03  0.18064923149E+04  0.50400001928E-02 0. -1.
</event>
<event>
 5   0  0.3212523E-08  0.3599541E+04  0.7818609E-02  0.8090597E-01
       -1   -1    0    0    0  501  0.00000000000E+00  0.00000000000E+00  0.16695325888E+04  0.16695325888E+04  0.50400001928E-02 0. -1.
        1   -1    0    0  501    0  0.00000000000E+00  0.00000000000E+00 -0.19401678674E+04  0.19401678674E+04  0.50400001928E-02 0.  1.
    10030    2    1    2    0    0  0.00000000000E+00  0.00000000000E+00 -0.27063527859E+03  0.36097004561E+04  0.35995407942E+04 0.  0.
        3    1    3    3  502    0  0.26442373872E+03  0.17719485564E+04  0.36782220202E+02  0.17919471371E+04  0.10100000352E+00 0.  1.
       -3    1    3    3    0  502 -0.26442373872E+03 -0.17719485564E+04 -0.30741749879E+03  0.18177533191E+04  0.10100000352E+00 0. -1.
</event>
<event>
 5   0  0.1029908E-07  0.3610600E+04  0.7818609E-02  0.8088068E-01
       -2   -1    0    0    0  501  0.00000000000E+00  0.00000000000E+00  0.12393853564E+04  0.12393853564E+04  0.25500000920E-02 0.  1.
        2   -1    0    0  501    0  0.00000000000E+00  0.00000000000E+00 -0.26296168374E+04  0.26296168374E+04  0.25500000920E-02 0. -1.
    10030    2    1    2    0    0  0.00000000000E+00  0.00000000000E+00 -0.13902314810E+04  0.38690021939E+04  0.36106002833E+04 0.  0.
        4    1    3    3  502    0  0.74591058965E+03  0.76024445654E+03  0.86685812746E+03  0.13732439213E+04  0.12699999809E+01 0.  1.
       -4    1    3    3    0  502 -0.74591058965E+03 -0.76024445654E+03 -0.22570896084E+04  0.24957582725E+04  0.12699999809E+01 0. -1.
</event>
<event>
 5   0  0.1029908E-07  0.3596091E+04  0.7818609E-02  0.8091388E-01
       -2   -1    0    0    0  501  0.00000000000E+00  0.00000000000E+00  0.11354449088E+04  0.11354449088E+04  0.25500000920E-02 0. -1.
        2   -1    0    0  501    0  0.00000000000E+00  0.00000000000E+00 -0.28473141631E+04  0.28473141631E+04  0.25500000920E-02 0.  1.
    10030    2    1    2    0    0  0.00000000000E+00  0.00000000000E+00 -0.17118692543E+04  0.39827590718E+04  0.35960914171E+04 0.  0.
        4    1    3    3  502    0  0.66808100501E+03  0.15355083796E+04 -0.15812139263E+04  0.23031190387E+04  0.12699999809E+01 0.  1.
       -4    1    3    3    0  502 -0.66808100501E+03 -0.15355083796E+04 -0.13065532805E+03  0.16796400331E+04  0.12699999809E+01 0. -1.
</event>
<event>
 5   0  0.9905335E-08  0.3510679E+04  0.7818609E-02  0.8111264E-01
        2   -1    0    0  501    0  0.00000000000E+00  0.00000000000E+00  0.29854816586E+04  0.29854816586E+04  0.25500000920E-02 0.  1.
       -2   -1    0    0    0  501  0.00000000000E+00  0.00000000000E+00 -0.10320669075E+04  0.10320669075E+04  0.25500000920E-02 0. -1.
    10030    2    1    2    0    0  0.00000000000E+00  0.00000000000E+00  0.19534147511E+04  0.40175485661E+04  0.35106790356E+04 0.  0.
        5    1    3    3  502    0 -0.13255840930E+04 -0.70019978417E+03  0.20216340104E+04  0.25168391063E+04  0.46999998093E+01 0.  1.
       -5    1    3    3    0  502  0.13255840930E+04  0.70019978417E+03 -0.68219259296E+02  0.15007094598E+04  0.46999998093E+01 0. -1.
</event>
<event>
 5   0  0.1044678E-07  0.3586612E+04  0.7818609E-02  0.8093565E-01
       -2   -1    0    0    0  501  0.00000000000E+00  0.00000000000E+00  0.11719753109E+04  0.11719753109E+04  0.25500000920E-02 0. -1.
        2   -1    0    0  501    0  0.00000000000E+00  0.00000000000E+00 -0.27440391324E+04  0.27440391324E+04  0.25500000920E-02 0.  1.
    10030    2    1    2    0    0  0.00000000000E+00  0.00000000000E+00 -0.15720638215E+04  0.39160144433E+04  0.35866118359E+04 0.  0.
        2    1    3    3  502    0  0.33417348314E+03  0.80663701096E+03  0.92423052316E+03  0.12714311795E+04  0.25500000920E-02 0. -1.
       -2    1    3    3    0  502 -0.33417348314E+03 -0.80663701096E+03 -0.24962943446E+04  0.26445832638E+04  0.25500000920E-02 0.  1.
</event>
<event>
 5   0  0.1021087E-07  0.3569683E+04  0.7818609E-02  0.8097472E-01
        2   -1    0    0  501    0  0.00000000000E+00  0.00000000000E+00  0.21005733696E+04  0.21005733696E+04  0.25500000920E-02 0.  1.
       -2   -1    0    0    0  501  0.00000000000E+00  0.00000000000E+00 -0.15165662649E+04  0.15165662649E+04  0.25500000920E-02 0. -1.
    10030    2    1    2    0    0  0.00000000000E+00  0.00000000000E+00  0.58400710463E+03  0.36171396345E+04  0.35696827362E+04 0.  0.
        3    1    3    3  502    0  0.51204654083E+03  0.79778585885E+03 -0.12403860270E+04  0.15611570846E+04  0.10100000352E+00 0. -1.
       -3    1    3    3    0  502 -0.51204654083E+03 -0.79778585885E+03  0.18243931317E+04  0.20559825499E+04  0.10100000352E+00 0.  1.
</event>
<event>
 5   0  0.1021087E-07  0.3605497E+04  0.7818609E-02  0.8089234E-01
       -2   -1    0    0    0  501  0.00000000000E+00  0.00000000000E+00  0.19836979762E+04  0.19836979762E+04  0.25500000920E-02 0.  1.
        2   -1    0    0  501    0  0.00000000000E+00  0.00000000000E+00 -0.16383053049E+04  0.16383053049E+04  0.25500000920E-02 0. -1.
    10030    2    1    2    0    0  0.00000000000E+00  0.00000000000E+00  0.34539267137E+03  0.36220032811E+04  0.36054974235E+04 0.  0.
        3    1    3    3  502    0 -0.91299366196E+03 -0.45469936478E+02  0.17336042593E+04  0.19598491472E+04  0.10100000352E+00 0.  1.
       -3    1    3    3    0  502  0.91299366196E+03  0.45469936478E+02 -0.13882115879E+04  0.16621541339E+04  0.10100000352E+00 0. -1.
</event>
<event>
 5   0  0.1044678E-07  0.3599263E+04  0.7818609E-02  0.8090661E-01
        2   -1    0    0  501    0  0.00000000000E+00  0.00000000000E+00  0.19550339379E+04  0.19550339379E+04  0.25500000920E-02 0. -1.
       -2   -1    0    0    0  501  0.00000000000E+00  0.00000000000E+00 -0.16565817739E+04  0.16565817739E+04  0.25500000920E-02 0.  1.
    10030    2    1    2    0    0  0.00000000000E+00  0.00000000000E+00  0.29845216406E+03  0.36116157118E+04  0.35992630295E+04 0.  0.
        2    1    3    3  502    0  0.84686176050E+03  0.10147772536E+04 -0.10763279395E+04  0.17045320616E+04  0.25500000920E-02 0.  1.
       -2    1    3    3    0  502 -0.84686176050E+03 -0.10147772536E+04  0.13747801035E+04  0.19070836502E+04  0.25500000920E-02 0. -1.
</event>
<event>
 5   0  0.3202875E-08  0.3597024E+04  0.7818609E-02  0.8091174E-01
        1   -1    0    0  501    0  0.00000000000E+00  0.00000000000E+00  0.21246181575E+04  0.21246181575E+04  0.50400001928E-02 0.  1.
       -1   -1    0    0    0  501  0.00000000000E+00  0.00000000000E+00 -0.15224593008E+04  0.15224593008E+04  0.50400001928E-02 0. -1.
    10030    2    1    2    0    0  0.00000000000E+00  0.00000000000E+00  0.60215885673E+03  0.36470774583E+04  0.35970235887E+04 0.  0.
        2    1    3    3  502    0 -0.12252733035E+04 -0.52143229687E+02 -0.10327612313E+04  0.16033119926E+04  0.25500000920E-02 0. -1.
       -2    1    3    3    0  502  0.12252733035E+04  0.52143229687E+02  0.16349200880E+04  0.20437654657E+04  0.25500000920E-02 0.  1.
</event>
<event>
 5   0  0.1021087E-07  0.3620325E+04  0.7818609E-02  0.8085852E-01
        2   -1    0    0  501    0  0.00000000000E+00  0.00000000000E+00  0.31875279291E+04  0.31875279291E+04  0.25500000920E-02 0.  1.
       -2   -1    0    0    0  501  0.00000000000E+00  0.00000000000E+00 -0.10279717195E+04  0.10279717195E+04  0.25500000920E-02 0. -1.
    10030    2    1    2    0    0  0.00000000000E+00  0.00000000000E+00  0.21595562096E+04  0.42154996487E+04  0.36203251602E+04 0.  0.
        3    1    3    3  502    0 -0.15038197175E+04 -0.52667160273E+03  0.20799627295E+04  0.26201339062E+04  0.10100000352E+00 0. -1.
       -3    1    3    3    0  502  0.15038197175E+04  0.52667160273E+03  0.79593480106E+02  0.15953657425E+04  0.10100000352E+00 0.  1.
</event>
<event>
 5   0  0.3202875E-08  0.3598213E+04  0.7818609E-02  0.8090901E-01
       -1   -1    0    0    0  501  0.00000000000E+00  0.00000000000E+00  0.25382661322E+04  0.25382661322E+04  0.50400001928E-02 0.  1.
        1   -1    0    0  501    0  0.00000000000E+00  0.00000000000E+00 -0.12751946979E+04  0.12751946979E+04  0.50400001928E-02 0. -1.
    10030    2    1    2    0    0  0.00000000000E+00  0.00000000000E+00  0.12630714343E+04  0.38134608301E+04  0.35982126194E+04 0.  0.
        1    1    3    3  502    0  0.14219008742E+04  0.10795997285E+04  0.86720195239E+03  0.19847863603E+04  0.50400001928E-02 0.  1.
       -1    1    3    3    0  502 -0.14219008742E+04 -0.10795997285E+04  0.39586948193E+03  0.18286744698E+04  0.50400001928E-02 0. -1.
</event>
<event>
 5   0  0.1017794E-07  0.3609511E+04  0.7818609E-02  0.8088317E-01
        2   -1    0    0  501    0  0.00000000000E+00  0.00000000000E+00  0.17614385940E+04  0.17614385940E+04  0.25500000920E-02 0.  1.
       -2   -1    0    0    0  501  0.00000000000E+00  0.00000000000E+00 -0.18491378735E+04  0.18491378735E+04  0.25500000920E-02 0. -1.
    10030    2    1    2    0    0  0.00000000000E+00  0.00000000000E+00 -0.87699279422E+02  0.36105764675E+04  0.36095112223E+04 0.  0.
        1    1    3    3  502    0  0.45822663412E+03 -0.10020197067E+04 -0.14736516525E+04  0.18400174819E+04  0.50400001928E-02 0. -1.
       -1    1    3    3    0  502 -0.45822663412E+03  0.10020197067E+04  0.13859523731E+04  0.17705589856E+04  0.50400001928E-02 0.  1.
</event>
<event>
 5   0  0.1044678E-07  0.3601001E+04  0.7818609E-02  0.8090262E-01
        2   -1    0    0  501    0  0.00000000000E+00  0.00000000000E+00  0.17000104144E+04  0.17000104144E+04  0.25500000920E-02 0. -1.
       -2   -1    0    0    0  501  0.00000000000E+00  0.00000000000E+00 -0.19069306143E+04  0.19069306143E+04  0.25500000920E-02 0.  1.
    10030    2    1    2    0    0  0.00000000000E+00  0.00000000000E+00 -0.20692019992E+03  0.36069410286E+04  0.36010009185E+04 0.  0.
        2    1    3    3  502    0  0.14224024046E+04 -0.11036445489E+04 -0.80140527441E+02  0.18021327351E+04  0.25500000920E-02 0.  1.
       -2    1    3    3    0  502 -0.14224024046E+04  0.11036445489E+04 -0.12677967248E+03  0.18048082935E+04  0.25500000920E-02 0. -1.
</event>
<event>
 5   0  0.3202875E-08  0.3592227E+04  0.7818609E-02  0.8092274E-01
        1   -1    0    0  501    0  0.00000000000E+00  0.00000000000E+00  0.28668670099E+04  0.28668670099E+04  0.50400001928E-02 0.  1.
       -1   -1    0    0    0  501  0.00000000000E+00  0.00000000000E+00 -0.11252785363E+04  0.11252785364E+04  0.50400001928E-02 0. -1.
    10030    2    1    2    0    0  0.00000000000E+00  0.00000000000E+00  0.17415884736E+04  0.39921455463E+04  0.35922271158E+04 0.  0.
        2    1    3    3  502    0 -0.10307179980E+04  0.40591286626E+03  0.24420100436E+04  0.26815215642E+04  0.25500000920E-02 0.  1.
       -2    1    3    3    0  502  0.10307179980E+04 -0.40591286626E+03 -0.70042157004E+03  0.13106239820E+04  0.25500000920E-02 0. -1.
</event>
<event>
 5   0  0.9905335E-08  0.3607892E+04  0.7818609E-02  0.8088686E-01
       -2   -1    0    0    0  501  0.00000000000E+00  0.00000000000E+00  0.22000719345E+04  0.22000719345E+04  0.25500000920E-02 0.  1.
        2   -1    0    0  501    0  0.00000000000E+00  0.00000000000E+00 -0.14791431083E+04  0.14791431083E+04  0.25500000920E-02 0. -1.
    10030    2    1    2    0    0  0.00000000000E+00  0.00000000000E+00  0.72092882613E+03  0.36792150428E+04  0.36078920381E+04 0.  0.
        5    1    3    3  502    0  0.25801069160E+03 -0.74613483496E+03 -0.12936092102E+04  0.15154978019E+04  0.46999998093E+01 0. -1.
       -5    1    3    3    0  502 -0.25801069160E+03  0.74613483496E+03  0.20145380363E+04  0.21637172409E+04  0.46999998093E+01 0.  1.
</event>
<event>
 5   0  0.3212523E-08  0.3585825E+04  0.7818609E-02  0.8093746E-01
       -1   -1    0    0    0  501  0.00000000000E+00  0.00000000000E+00  0.16291211520E+04  0.16291211520E+04  0.50400001928E-02 0. -1.
        1   -1    0    0  501    0  0.00000000000E+00  0.00000000000E+00 -0.19731714711E+04  0.19731714711E+04  0.50400001928E-02 0.  1.
    10030    2    1    2    0    0  0.00000000000E+00  0.00000000000E+00 -0.34405031906E+03  0.36022926231E+04  0.35858250823E+04 0.  0.
        3    1    3    3  502    0  0.79674138560E+03  0.10879469806E+04 -0.13590223518E+04  0.19145148814E+04  0.10100000352E+00 0.  1.
       -3    1    3    3    0  502 -0.79674138560E+03 -0.10879469806E+04  0.10149720328E+04  0.16877777418E+04  0.10100000352E+00 0. -1.
</event>
<event>
 5   0  0.3212523E-08  0.3503748E+04  0.7818609E-02  0.8112902E-01
        1   -1    0    0  501    0  0.00000000000E+00  0.00000000000E+00  0.22738637430E+04  0.22738637430E+04  0.50400001928E-02 0. -1.
       -1   -1    0    0    0  501  0.00000000000E+00  0.00000000000E+00 -0.13497123251E+04  0.13497123251E+04  0.50400001928E-02 0.  1.
    10030    2    1    2    0    0  0.00000000000E+00  0.00000000000E+00  0.92415141796E+03  0.36235760681E+04  0.35037476619E+04 0.  0.
        3    1    3    3  502    0 -0.14663822308E+03  0.51062057802E+03  0.21885474348E+04  0.22521047995E+04  0.10100000352E+00 0. -1.
       -3    1    3    3    0  502  0.14663822308E+03 -0.51062057802E+03 -0.12643960168E+04  0.13714712687E+04  0.10100000352E+00 0.  1.
</event>
<event>
 5   0  0.3215494E-08  0.3582658E+04  0.7818609E-02  0.8094476E-01
        1   -1    0    0  501    0  0.00000000000E+00  0.00000000000E+00  0.23338318119E+04  0.23338318119E+04  0.50400001928E-02 0. -1.
       -1   -1    0    0    0  501  0.00000000000E+00  0.00000000000E+00 -0.13749319489E+04  0.13749319489E+04  0.50400001928E-02 0.  1.
    10030    2    1    2    0    0  0.00000000000E+00  0.00000000000E+00  0.95889986305E+03  0.37087637608E+04  0.35826581871E+04 0.  0.
        4    1    3    3  502    0 -0.80348282742E+02  0.13591761386E+04 -0.72558679635E+03  0.15428199617E+04  0.12699999809E+01 0.  1.
       -4    1    3    3    0  502  0.80348282742E+02 -0.13591761386E+04  0.16844866594E+04  0.21659437991E+04  0.12699999809E+01 0. -1.
</event>
<event>
 5   0  0.1029908E-07  0.3599946E+04  0.7818609E-02  0.8090504E-01
        2   -1    0    0  501    0  0.00000000000E+00  0.00000000000E+00  0.17855940981E+04  0.17855940981E+04  0.25500000920E-02 0.  1.
       -2   -1    0    0    0  501  0.00000000000E+00  0.00000000000E+00 -0.18144675072E+04  0.18144675072E+04  0.25500000920E-02 0. -1.
    10030    2    1    2    0    0  0.00000000000E+00  0.00000000000E+00 -0.28873409048E+02  0.36000616053E+04  0.35999458174E+04 0.  0.
        4    1    3    3  502    0 -0.81392574110E+03 -0.11983843063E+04  0.10539144642E+04  0.17914623547E+04  0.12699999809E+01 0.  1.
       -4    1    3    3    0  502  0.81392574110E+03  0.11983843063E+04 -0.10827878733E+04  0.18085992505E+04  0.12699999809E+01 0. -1.
</event>
<event>
 5   0  0.1044678E-07  0.3601909E+04  0.7818609E-02  0.8090054E-01
       -2   -1    0    0    0  501  0.00000000000E+00  0.00000000000E+00  0.16759308480E+04  0.16759308480E+04  0.25500000920E-02 0. -1.
        2   -1    0    0  501    0  0.00000000000E+00  0.00000000000E+00 -0.19353052325E+04  0.19353052325E+04  0.25500000920E-02 0.  1.
    10030    2    1    2    0    0  0.00000000000E+00  0.00000000000E+00 -0.25937438453E+03  0.36112360805E+04  0.36019093489E+04 0.  0.
        2    1    3    3  502    0  0.11035900787E+04 -0.11257475472E+04 -0.10026997149E+04  0.18683215248E+04  0.25500000920E-02 0.  1.
       -2    1    3    3    0  502 -0.11035900787E+04  0.11257475472E+04  0.74332533040E+03  0.17429145557E+04  0.25500000920E-02 0. -1.
</event>
<event>
 5   0  0.1029908E-07  0.3616921E+04  0.7818609E-02  0.8086627E-01
       -2   -1    0    0    0  501  0.00000000000E+00  0.00000000000E+00  0.22571022246E+04  0.22571022246E+04  0.25500000920E-02 0.  1.
        2   -1    0    0  501    0  0.00000000000E+00  0.00000000000E+00 -0.14489945312E+04  0.14489945312E+04  0.25500000920E-02 0. -1.
    10030    2    1    2    0    0  0.00000000000E+00  0.00000000000E+00  0.80810769344E+03  0.37060967558E+04  0.36169206681E+04 0.  0.
        4    1    3    3  502    0 -0.46255020991E+03  0.29133411162E+03 -0.13623100207E+04  0.14678959319E+04  0.12699999809E+01 0. -1.
       -4    1    3    3    0  502  0.46255020991E+03 -0.29133411162E+03  0.21704177142E+04  0.22382008239E+04  0.12699999809E+01 0.  1.
</event>
<event>
 5   0  0.1017794E-07  0.3599007E+04  0.7818609E-02  0.8090719E-01
        2   -1    0    0  501    0  0.00000000000E+00  0.00000000000E+00  0.17148913780E+04  0.17148913780E+04  0.25500000920E-02 0. -1.
       -2   -1    0    0    0  501  0.00000000000E+00  0.00000000000E+00 -0.18882904525E+04  0.18882904525E+04  0.25500000920E-02 0.  1.
    10030    2    1    2    0    0  0.00000000000E+00  0.00000000000E+00 -0.17339907451E+03  0.36031818306E+04  0.35990070943E+04 0.  0.
        1    1    3    3  502    0 -0.15138178662E+04 -0.94806742396E+03  0.13204107190E+03  0.17910642694E+04  0.50400001928E-02 0. -1.
       -1    1    3    3    0  502  0.15138178662E+04  0.94806742396E+03 -0.30544014641E+03  0.18121175612E+04  0.50400001928E-02 0.  1.
</event>
<event>
 5   0  0.1021087E-07  0.3603875E+04  0.7818609E-02  0.8089605E-01
       -2   -1    0    0    0  501  0.00000000000E+00  0.00000000000E+00  0.20713800797E+04  0.20713800797E+04  0.25500000920E-02 0.  1.
        2   -1    0    0  501    0  0.00000000000E+00  0.00000000000E+00 -0.15675435177E+04  0.15675435177E+04  0.25500000920E-02 0. -1.
    10030    2    1    2    0    0  0.00000000000E+00  0.00000000000E+00  0.50383656199E+03  0.36389235974E+04  0.36038748128E+04 0.  0.
        3    1    3    3  502    0  0.16220781384E+04  0.63586560060E+03  0.71629956371E+03  0.18837589082E+04  0.10100000352E+00 0.  1.
       -3    1    3    3    0  502 -0.16220781384E+04 -0.63586560060E+03 -0.21246300172E+03  0.17551646892E+04  0.10100000352E+00 0. -1.
</event>
<event>
 5   0  0.3202875E-08  0.3602474E+04  0.7818609E-02  0.8089925E-01
        1   -1    0    0  501    0  0.00000000000E+00  0.00000000000E+00  0.19553124548E+04  0.19553124548E+04  0.50400001928E-02 0.  1.
       -1   -1    0    0    0  501  0.00000000000E+00  0.00000000000E+00 -0.16593021673E+04  0.16593021673E+04  0.50400001928E-02 0. -1.
    10030    2    1    2    0    0  0.00000000000E+00  0.00000000000E+00  0.29601028745E+03  0.36146146221E+04  0.36024737023E+04 0.  0.
        1    1    3    3  502    0  0.81568154976E+03  0.15746182863E+04  0.46481449499E+03  0.18332516611E+04  0.50400001928E-02 0. -1.
       -1    1    3    3    0  502 -0.81568154976E+03 -0.15746182863E+04 -0.16880420754E+03  0.17813629610E+04  0.50400001928E-02 0.  1.
</event>
<event>
 5   0  0.1044678E-07  0.3630152E+04  0.7818609E-02  0.8083620E-01
        2   -1    0    0  501    0  0.00000000000E+00  0.00000000000E+00  0.20776194036E+04  0.20776194036E+04  0.25500000920E-02 0. -1.
       -2   -1    0    0    0  501  0.00000000000E+00  0.00000000000E+00 -0.15857096449E+04  0.15857096449E+04  0.25500000920E-02 0.  1.
    10030    2    1    2    0    0  0.00000000000E+00  0.00000000000E+00  0.49190975869E+03  0.36633290486E+04  0.36301521328E+04 0.  0.
        2    1    3    3  502    0  0.93015364154E+03  0.15206591847E+04  0.59100226656E+03  0.18779972929E+04  0.25500000920E-02 0. -1.
       -2    1    3    3    0  502 -0.93015364154E+03 -0.15206591847E+04 -0.99092507876E+02  0.17853317557E+04  0.25500000920E-02 0.  1.
</event>
<event>
 5   0  0.3215494E-08  0.3598044E+04  0.7818609E-02  0.8090940E-01
        1   -1    0    0  501    0  0.00000000000E+00  0.00000000000E+00  0.22140338498E+04  0.22140338498E+04  0.50400001928E-02 0. -1.
       -1   -1    0    0    0  501  0.00000000000E+00  0.00000000000E+00 -0.14618028665E+04  0.14618028665E+04  0.50400001928E-02 0.  1.
    10030    2    1    2    0    0  0.00000000000E+00  0.00000000000E+00  0.75223098331E+03  0.36758367163E+04  0.35980444845E+04 0.  0.
        4    1    3    3  502    0  0.60438553343E+03 -0.12085896578E+04 -0.83721063477E+03  0.15896207390E+04  0.12699999809E+01 0.  1.
       -4    1    3    3    0  502 -0.60438553343E+03  0.12085896578E+04  0.15894416181E+04  0.20862159773E+04  0.12699999809E+01 0. -1.
</event>
<event>
 5   0  0.1029908E-07  0.3600369E+04  0.7818609E-02  0.8090407E-01
        2   -1    0    0  501    0  0.00000000000E+00  0.00000000000E+00  0.98253388545E+03  0.98253388545E+03  0.25500000920E-02 0. -1.
       -2   -1    0    0    0  501  0.00000000000E+00  0.00000000000E+00 -0.32982720046E+04  0.32982720046E+04  0.25500000920E-02 0.  1.
    10030    2    1    2    0    0  0.00000000000E+00  0.00000000000E+00 -0.23157381191E+04  0.42808058900E+04  0.36003688744E+04 0.  0.
        4    1    3    3  502    0 -0.16965438589E+04 -0.14276141874E+03 -0.46251721599E+03  0.17642464895E+04  0.12699999809E+01 0.  1.
       -4    1    3    3    0  502  0.16965438589E+04  0.14276141874E+03 -0.18532209031E+04  0.25165594005E+04  0.12699999809E+01 0. -1.
</event>
<event>
 5   0  0.1029908E-07  0.3606998E+04  0.7818609E-02  0.8088891E-01
        2   -1    0    0  501    0  0.00000000000E+00  0.00000000000E+00  0.18955401440E+04  0.18955401440E+04  0.25500000920E-02 0.  1.
       -2   -1    0    0    0  501  0.00000000000E+00  0.00000000000E+00 -0.17159269850E+04  0.17159269850E+04  0.25500000920E-02 0. -1.
    10030    2    1    2    0    0  0.00000000000E+00  0.00000000000E+00  0.17961315905E+03  0.36114671290E+04  0.36069979119E+04 0.  0.
        4    1    3    3  502    0  0.20230393457E+03 -0.15863719753E+04 -0.74495538455E+03  0.17642174083E+04  0.12699999809E+01 0. -1.
       -4    1    3    3    0  502 -0.20230393457E+03  0.15863719753E+04  0.92456854360E+03  0.18472497207E+04  0.12699999809E+01 0.  1.
</event>
<event>
 5   0  0.3202875E-08  0.3591413E+04  0.7818609E-02  0.8092461E-01
        1   -1    0    0  501    0  0.00000000000E+00  0.00000000000E+00  0.23013596635E+04  0.23013596635E+04  0.50400001928E-02 0. -1.
       -1   -1    0    0    0  501  0.00000000000E+00  0.00000000000E+00 -0.14011552818E+04  0.14011552818E+04  0.50400001928E-02 0.  1.
    10030    2    1    2    0    0  0.00000000000E+00  0.00000000000E+00  0.90020438170E+03  0.37025149453E+04  0.35914132304E+04 0.  0.
        1    1    3    3  502    0 -0.75492573947E+03 -0.28475708884E+03 -0.12037581201E+04  0.14491490894E+04  0.50400001928E-02 0.  1.
       -1    1    3    3    0  502  0.75492573947E+03  0.28475708884E+03  0.21039625018E+04  0.22533658559E+04  0.50400001928E-02 0. -1.
</event>
<event>
 5   0  0.3279988E-08  0.3618004E+04  0.7818609E-02  0.8086380E-01
        1   -1    0    0  501    0  0.00000000000E+00  0.00000000000E+00  0.11232723859E+04  0.11232723860E+04  0.50400001928E-02 0. -1.
       -1   -1    0    0    0  501  0.00000000000E+00  0.00000000000E+00 -0.29133518267E+04  0.29133518267E+04  0.50400001928E-02 0.  1.
    10030    2    1    2    0    0  0.00000000000E+00  0.00000000000E+00 -0.17900794407E+04  0.40366242127E+04  0.36180036802E+04 0.  0.
        5    1    3    3  502    0 -0.15645004070E+04 -0.40401527621E+03  0.12444515013E+02  0.16158795818E+04  0.46999998093E+01 0. -1.
       -5    1    3    3    0  502  0.15645004070E+04  0.40401527621E+03 -0.18025239558E+04  0.24207446309E+04  0.46999998093E+01 0.  1.
</event>
<event>
 5   0  0.1021087E-07  0.3597815E+04  0.7818609E-02  0.8090992E-01
       -2   -1    0    0    0  501  0.00000000000E+00  0.00000000000E+00  0.17642790290E+04  0.17642790290E+04  0.25500000920E-02 0. -1.
        2   -1    0    0  501    0  0.00000000000E+00  0.00000000000E+00 -0.18342152104E+04  0.18342152104E+04  0.25500000920E-02 0.  1.
    10030    2    1    2    0    0  0.00000000000E+00  0.00000000000E+00 -0.69936181337E+02  0.35984942394E+04  0.35978145757E+04 0.  0.
        3    1    3    3  502    0  0.81983700213E+03  0.16004080031E+04  0.16314724121E+02  0.17982504461E+04  0.10100000352E+00 0.  1.
       -3    1    3    3    0  502 -0.81983700213E+03 -0.16004080031E+04 -0.86250905458E+02  0.18002437933E+04  0.10100000352E+00 0. -1.
</event>
<event>
 5   0  0.3279988E-08  0.3595969E+04  0.7818609E-02  0.8091416E-01
        1   -1    0    0  501    0  0.00000000000E+00  0.00000000000E+00  0.17804542770E+04  0.17804542770E+04  0.50400001928E-02 0.  1.
       -1   -1    0    0    0  501  0.00000000000E+00  0.00000000000E+00 -0.18156874140E+04  0.18156874140E+04  0.50400001928E-02 0. -1.
    10030    2    1    2    0    0  0.00000000000E+00  0.00000000000E+00 -0.35233137040E+02  0.35961416910E+04  0.35959690888E+04 0.  0.
        5    1    3    3  502    0  0.16046249759E+04 -0.80666583368E+03  0.67212331759E+02  0.17972397358E+04  0.46999998093E+01 0.  1.
       -5    1    3    3    0  502 -0.16046249759E+04  0.80666583368E+03 -0.10244546880E+03  0.17989019552E+04  0.46999998093E+01 0. -1.
</event>
<event>
 5   0  0.3215494E-08  0.3598090E+04  0.7818609E-02  0.8090929E-01
        1   -1    0    0  501    0  0.00000000000E+00  0.00000000000E+00  0.18930554909E+04  0.18930554910E+04  0.50400001928E-02 0.  1.
       -1   -1    0    0    0  501  0.00000000000E+00  0.00000000000E+00 -0.17097033245E+04  0.17097033246E+04  0.50400001928E-02 0. -1.
    10030    2    1    2    0    0  0.00000000000E+00  0.00000000000E+00  0.18335216640E+03  0.36027588155E+04  0.35980901970E+04 0.  0.
        4    1    3    3  502    0  0.15328528600E+03 -0.11446382030E+04 -0.12895588384E+04  0.17310853836E+04  0.12699999809E+01 0. -1.
       -4    1    3    3    0  502 -0.15328528600E+03  0.11446382030E+04  0.14729110048E+04  0.18716734319E+04  0.12699999809E+01 0.  1.
</event>
<event>
 5   0  0.1029908E-07  0.3603346E+04  0.7818609E-02  0.8089726E-01
        2   -1    0    0  501    0  0.00000000000E+00  0.00000000000E+00  0.24144005230E+04  0.24144005230E+04  0.25500000920E-02 0.  1.
       -2   -1    0    0    0  501  0.00000000000E+00  0.00000000000E+00 -0.13444437051E+04  0.13444437051E+04  0.25500000920E-02 0. -1.
    10030    2    1    2    0    0  0.00000000000E+00  0.00000000000E+00  0.10699568178E+04  0.37588442281E+04  0.36033459922E+04 0.  0.
        4    1    3    3  502    0 -0.13185429136E+04  0.11048065313E+04 -0.23738418281E+02  0.17203831004E+04  0.12699999809E+01 0. -1.
       -4    1    3    3    0  502  0.13185429136E+04 -0.11048065313E+04  0.10936952361E+04  0.20384611277E+04  0.12699999809E+01 0.  1.
</event>
<event>
 5   0  0.1017794E-07  0.3601348E+04  0.7818609E-02  0.8090183E-01
       -2   -1    0    0    0  501  0.00000000000E+00  0.00000000000E+00  0.12417461474E+04  0.12417461474E+04  0.25500000920E-02 0. -1.
        2   -1    0    0  501    0  0.00000000000E+00  0.00000000000E+00 -0.26111836078E+04  0.26111836078E+04  0.25500000920E-02 0.  1.
    10030    2    1    2    0    0  0.00000000000E+00  0.00000000000E+00 -0.13694374604E+04  0.38529297552E+04  0.36013481837E+04 0.  0.
        1    1    3    3  502    0 -0.75595099139E+03  0.26662048234E+03 -0.24097720812E+04  0.25395963983E+04  0.50400001928E-02 0.  1.
       -1    1    3    3    0  502  0.75595099139E+03 -0.26662048234E+03  0.10403346208E+04  0.13133333569E+04  0.50400001928E-02 0. -1.
</event>
<event>
 5   0  0.3202875E-08  0.3599730E+04  0.7818609E-02  0.8090554E-01
       -1   -1    0    0    0  501  0.00000000000E+00  0.00000000000E+00  0.29688117094E+04  0.29688117094E+04  0.50400001928E-02 0.  1.
        1   -1    0    0  501    0  0.00000000000E+00  0.00000000000E+00 -0.10911818161E+04  0.10911818162E+04  0.50400001928E-02 0. -1.
    10030    2    1    2    0    0  0.00000000000E+00  0.00000000000E+00  0.18776298932E+04  0.40599935255E+04  0.35997296303E+04 0.  0.
        2    1    3    3  502    0 -0.69390048790E+03  0.40823676593E+03 -0.87678091190E+03  0.11903360499E+04  0.25500000920E-02 0. -1.
       -2    1    3    3    0  502  0.69390048790E+03 -0.40823676593E+03  0.27544108051E+04  0.28696574756E+04  0.25500000920E-02 0.  1.
</event>
<event>
 5   0  0.1044678E-07  0.3503593E+04  0.7818609E-02  0.8112939E-01
        2   -1    0    0  501    0  0.00000000000E+00  0.00000000000E+00  0.20631268160E+04  0.20631268160E+04  0.25500000920E-02 0.  1.
       -2   -1    0    0    0  501  0.00000000000E+00  0.00000000000E+00 -0.14874465963E+04  0.14874465963E+04  0.25500000920E-02 0. -1.
    10030    2    1    2    0    0  0.00000000000E+00  0.00000000000E+00  0.57568021974E+03  0.35505734123E+04  0.35035929902E+04 0.  0.
        2    1    3    3  502    0 -0.11130314442E+04  0.11329773300E+04 -0.46120184828E+03  0.16538391007E+04  0.25500000920E-02 0. -1.
       -2    1    3    3    0  502  0.11130314442E+04 -0.11329773300E+04  0.10368820680E+04  0.18967343117E+04  0.25500000920E-02 0.  1.
</event>
<event>
 5   0  0.1017794E-07  0.3594566E+04  0.7818609E-02  0.8091738E-01
       -2   -1    0    0    0  501  0.00000000000E+00  0.00000000000E+00  0.14005832357E+04  0.14005832357E+04  0.25500000920E-02 0.  1.
        2   -1    0    0  501    0  0.00000000000E+00  0.00000000000E+00 -0.23063434939E+04  0.23063434939E+04  0.25500000920E-02 0. -1.
    10030    2    1    2    0    0  0.00000000000E+00  0.00000000000E+00 -0.90576025818E+03  0.37069267296E+04  0.35945659172E+04 0.  0.
        1    1    3    3  502    0  0.52441782212E+03  0.11755872542E+02  0.13198870968E+04  0.14203007432E+04  0.50400001928E-02 0.  1.
       -1    1    3    3    0  502 -0.52441782212E+03 -0.11755872542E+02 -0.22256473550E+04  0.22866259864E+04  0.50400001928E-02 0. -1.
</event>
<event>
 5   0  0.1021087E-07  0.3614049E+04  0.7818609E-02  0.8087281E-01
       -2   -1    0    0    0  501  0.00000000000E+00  0.00000000000E+00  0.22323123628E+04  0.22323123628E+04  0.25500000920E-02 0. -1.
        2   -1    0    0  501    0  0.00000000000E+00  0.00000000000E+00 -0.14627601361E+04  0.14627601361E+04  0.25500000920E-02 0.  1.
    10030    2    1    2    0    0  0.00000000000E+00  0.00000000000E+00  0.76955222674E+03  0.36950724989E+04  0.36140489955E+04 0.  0.
        3    1    3    3  502    0 -0.47083738140E+03 -0.12369777687E+04 -0.87306347810E+03  0.15855729838E+04  0.10100000352E+00 0.  1.
       -3    1    3    3    0  502  0.47083738140E+03  0.12369777687E+04  0.16426157048E+04  0.21094995150E+04  0.10100000352E+00 0. -1.
</event>
<event>
 5   0  0.1044678E-07  0.3608884E+04  0.7818609E-02  0.8088460E-01
       -2   -1    0    0    0  501  0.00000000000E+00  0.00000000000E+00  0.15623888880E+04  0.15623888880E+04  0.25500000920E-02 0. -1.
        2   -1    0    0  501    0  0.00000000000E+00  0.00000000000E+00 -0.20839950185E+04  0.20839950185E+04  0.25500000920E-02 0.  1.
    10030    2    1    2    0    0  0.00000000000E+00  0.00000000000E+00 -0.52160613051E+03  0.36463839064E+04  0.36088838493E+04 0.  0.
        2    1    3    3  502    0  0.16120606600E+04  0.77557030881E+03 -0.22209999912E+02  0.17890618098E+04  0.25500000920E-02 0.  1.
       -2    1    3    3    0  502 -0.16120606600E+04 -0.77557030881E+03 -0.49939613059E+03  0.18573220966E+04  0.25500000920E-02 0. -1.
</event>
<event>
 5   0  0.3279988E-08  0.3603431E+04  0.7818609E-02  0.8089706E-01
        1   -1    0    0  501    0  0.00000000000E+00  0.00000000000E+00  0.11220566902E+04  0.11220566902E+04  0.50400001928E-02 0. -1.
       -1   -1    0    0    0  501  0.00000000000E+00  0.00000000000E+00 -0.28930611797E+04  0.28930611797E+04  0.50400001928E-02 0.  1.
    10030    2    1    2    0    0  0.00000000000E+00  0.00000000000E+00 -0.17710044895E+04  0.40151178699E+04  0.36034309494E+04 0.  0.
        5    1    3    3  502    0  0.90894897507E+03  0.14409383592E+04 -0.15387075847E+04  0.22956773980E+04  0.46999998093E+01 0.  1.
       -5    1    3    3    0  502 -0.90894897507E+03 -0.14409383592E+04 -0.23229690481E+03  0.17194404719E+04  0.46999998093E+01 0. -1.
</event>
<event>
 5   0  0.1029908E-07  0.3600043E+04  0.7818609E-02  0.8090482E-01
       -2   -1    0    0    0  501  0.00000000000E+00  0.00000000000E+00  0.18509235257E+04  0.18509235257E+04  0.25500000920E-02 0. -1.
        2   -1    0    0  501    0  0.00000000000E+00  0.00000000000E+00 -0.17505194887E+04  0.17505194887E+04  0.25500000920E-02 0.  1.
    10030    2    1    2    0    0  0.00000000000E+00  0.00000000000E+00  0.10040403702E+03  0.36014430144E+04  0.36000431685E+04 0.  0.
        4    1    3    3  502    0 -0.14528470492E+04  0.81847649421E+03 -0.62785779734E+03  0.17818179892E+04  0.12699999809E+01 0.  1.
       -4    1    3    3    0  502  0.14528470492E+04 -0.81847649421E+03  0.72826183436E+03  0.18196250252E+04  0.12699999809E+01 0. -1.
</event>
<event>
 5   0  0.3212523E-08  0.3601052E+04  0.7818609E-02  0.8090251E-01
        1   -1    0    0  501    0  0.00000000000E+00  0.00000000000E+00  0.11095662104E+04  0.11095662104E+04  0.50400001928E-02 0.  1.
       -1   -1    0    0    0  501  0.00000000000E+00  0.00000000000E+00 -0.29217663058E+04  0.29217663059E+04  0.50400001928E-02 0. -1.
    10030    2    1    2    0    0  0.00000000000E+00  0.00000000000E+00 -0.18122000955E+04  0.40313325162E+04  0.36010516062E+04 0.  0.
        3    1    3    3  502    0  0.12545326131E+04  0.27423839512E+03 -0.23189778018E+04  0.26507955089E+04  0.10100000352E+00 0. -1.
       -3    1    3    3    0  502 -0.12545326131E+04 -0.27423839512E+03  0.50677770635E+03  0.13805370073E+04  0.10100000352E+00 0.  1.
</event>
<event>
 5   0  0.3212523E-08  0.3618698E+04  0.7818609E-02  0.8086222E-01
        1   -1    0    0  501    0  0.00000000000E+00  0.00000000000E+00  0.18676055722E+04  0.18676055722E+04  0.50400001928E-02 0.  1.
       -1   -1    0    0    0  501  0.00000000000E+00  0.00000000000E+00 -0.17529099241E+04  0.17529099241E+04  0.50400001928E-02 0. -1.
    10030    2    1    2    0    0  0.00000000000E+00  0.00000000000E+00  0.11469564809E+03  0.36205154963E+04  0.36186982974E+04 0.  0.
        3    1    3    3  502    0 -0.64835525534E+03  0.16841365014E+04  0.18804281804E+03  0.18143980832E+04  0.10100000352E+00 0.  1.
       -3    1    3    3    0  502  0.64835525534E+03 -0.16841365014E+04 -0.73347169948E+02  0.18061174132E+04  0.10100000352E+00 0. -1.
</event>
<event>
 5   0  0.1021087E-07  0.3604229E+04  0.7818609E-02  0.8089524E-01
        2   -1    0    0  501    0  0.00000000000E+00  0.00000000000E+00  0.14582860755E+04  0.14582860755E+04  0.25500000920E-02 0.  1.
       -2   -1    0    0    0  501  0.00000000000E+00  0.00000000000E+00 -0.22270092012E+04  0.22270092012E+04  0.25500000920E-02 0. -1.
    10030    2    1    2    0    0  0.00000000000E+00  0.00000000000E+00 -0.76872312574E+03  0.36852952767E+04  0.36042289095E+04 0.  0.
        3    1    3    3  502    0  0.16279666277E+04  0.39930083573E+03  0.29226243527E+03  0.17015092829E+04  0.10100000352E+00 0.  1.
       -3    1    3    3    0  502 -0.16279666277E+04 -0.39930083573E+03 -0.10609855610E+04  0.19837859938E+04  0.10100000352E+00 0. -1.
</event>
<event>
 5   0  0.3212523E-08  0.3597222E+04  0.7818609E-02  0.8091128E-01
       -1   -1    0    0    0  501  0.00000000000E+00  0.00000000000E+00  0.16105304680E+04  0.16105304680E+04  0.50400001928E-02 0.  1.
        1   -1    0    0  501    0  0.00000000000E+00  0.00000000000E+00 -0.20086563648E+04  0.20086563648E+04  0.50400001928E-02 0. -1.
    10030    2    1    2    0    0  0.00000000000E+00  0.00000000000E+00 -0.39812589684E+03  0.36191868328E+04  0.35972224147E+04 0.  0.
        3    1    3    3  502    0  0.12808339927E+04 -0.61845879354E+03 -0.13066824438E+04  0.19314362571E+04  0.10100000352E+00 0. -1.
       -3    1    3    3    0  502 -0.12808339927E+04  0.61845879354E+03  0.90855654696E+03  0.16877505756E+04  0.10100000352E+00 0.  1.
</event>
<event>
 5   0  0.3215494E-08  0.3585464E+04  0.7818609E-02  0.8093830E-01
        1   -1    0    0  501    0  0.00000000000E+00  0.00000000000E+00  0.16193524393E+04  0.16193524394E+04  0.50400001928E-02 0. -1.
       -1   -1    0    0    0  501  0.00000000000E+00  0.00000000000E+00 -0.19846745974E+04  0.19846745974E+04  0.50400001928E-02 0.  1.
    10030    2    1    2    0    0  0.00000000000E+00  0.00000000000E+00 -0.36532215802E+03  0.36040270367E+04  0.35854637918E+04 0.  0.
        4    1    3    3  502    0 -0.96938991337E+03 -0.26962008540E+03  0.13087573442E+04  0.16508359075E+04  0.12699999809E+01 0. -1.
       -4    1    3    3    0  502  0.96938991337E+03  0.26962008540E+03 -0.16740795022E+04  0.19531911292E+04  0.12699999809E+01 0.  1.
</event>
<event>
 5   0  0.3279988E-08  0.3598814E+04  0.7818609E-02  0.8090763E-01
        1   -1    0    0  501    0  0.00000000000E+00  0.00000000000E+00  0.19229920150E+04  0.19229920150E+04  0.50400001928E-02 0. -1.
       -1   -1    0    0    0  501  0.00000000000E+00  0.00000000000E+00 -0.16837645935E+04  0.16837645935E+04  0.50400001928E-02 0.  1.
    10030    2    1    2    0    0  0.00000000000E+00  0.00000000000E+00  0.23922742151E+03  0.36067566085E+04  0.35988141760E+04 0.  0.
        5    1    3    3  502    0 -0.12020926096E+04 -0.29371372415E+03 -0.11896189893E+04  0.17165400734E+04  0.46999998093E+01 0.  1.
       -5    1    3    3    0  502  0.12020926096E+04  0.29371372415E+03  0.14288464108E+04  0.18902165351E+04  0.46999998093E+01 0. -1.
</event>
<event>
 5   0  0.3215494E-08  0.3589644E+04  0.7818609E-02  0.8092868E-01
        1   -1    0    0  501    0  0.00000000000E+00  0.00000000000E+00  0.12988980703E+04  0.12988980703E+04  0.50400001928E-02 0. -1.
       -1   -1    0    0    0  501  0.00000000000E+00  0.00000000000E+00 -0.24800907777E+04  0.24800907777E+04  0.50400001928E-02 0.  1.
    10030    2    1    2    0    0  0.00000000000E+00  0.00000000000E+00 -0.11811927074E+04  0.37789888481E+04  0.35896435063E+04 0.  0.
        4    1    3    3  502    0 -0.82397340051E+03  0.15484453040E+04 -0.99115057224E+03  0.20146950375E+04  0.12699999809E+01 0.  1.
       -4    1    3    3    0  502  0.82397340051E+03 -0.15484453040E+04 -0.19004213516E+03  0.17642938106E+04  0.12699999809E+01 0. -1.
</event>
<event>
 5   0  0.1021087E-07  0.3599812E+04  0.7818609E-02  0.8090535E-01
       -2   -1    0    0    0  501  0.00000000000E+00  0.00000000000E+00  0.17266438338E+04  0.17266438338E+04  0.25500000920E-02 0.  1.
        2   -1    0    0  501    0  0.00000000000E+00  0.00000000000E+00 -0.18762763219E+04  0.18762763220E+04  0.25500000920E-02 0. -1.
    10030    2    1    2    0    0  0.00000000000E+00  0.00000000000E+00 -0.14963248813E+03  0.36029201558E+04  0.35998116294E+04 0.  0.
        3    1    3    3  502    0  0.17099327445E+04 -0.10963329896E+03  0.47681437110E+03  0.17785503663E+04  0.10100000352E+00 0.  1.
       -3    1    3    3    0  502 -0.17099327445E+04  0.10963329896E+03 -0.62644685923E+03  0.18243697894E+04  0.10100000352E+00 0. -1.
</event>
<event>
 5   0  0.3202875E-08  0.3604060E+04  0.7818609E-02  0.8089562E-01
       -1   -1    0    0    0  501  0.00000000000E+00  0.00000000000E+00  0.14336516420E+04  0.14336516420E+04  0.50400001928E-02 0. -1.
        1   -1    0    0  501    0  0.00000000000E+00  0.00000000000E+00 -0.22650629805E+04  0.22650629805E+04  0.50400001928E-02 0.  1.
    10030    2    1    2    0    0  0.00000000000E+00  0.00000000000E+00 -0.83141133853E+03  0.36987146225E+04  0.36040595230E+04 0.  0.
        1    1    3    3  502    0  0.69011423322E+03 -0.11538261921E+04  0.81569876260E+03  0.15725574736E+04  0.50400001928E-02 0. -1.
       -1    1    3    3    0  502 -0.69011423322E+03  0.11538261921E+04 -0.16471101011E+04  0.21261571489E+04  0.50400001928E-02 0.  1.
</event>
<event>
 5   0  0.1021087E-07  0.3600738E+04  0.7818609E-02  0.8090323E-01
       -2   -1    0    0    0  501  0.00000000000E+00  0.00000000000E+00  0.17136250908E+04  0.17136250908E+04  0.25500000920E-02 0.  1.
        2   -1    0    0  501    0  0.00000000000E+00  0.00000000000E+00 -0.18915035208E+04  0.18915035208E+04  0.25500000920E-02 0. -1.
    10030    2    1    2    0    0  0.00000000000E+00  0.00000000000E+00 -0.17787842996E+03  0.36051286116E+04  0.36007376425E+04 0.  0.
        3    1    3    3  502    0 -0.13687651094E+04  0.10547568447E+04 -0.59482555526E+03  0.18275249321E+04  0.10100000352E+00 0. -1.
       -3    1    3    3    0  502  0.13687651094E+04 -0.10547568447E+04  0.41694712530E+03  0.17776036795E+04  0.10100000352E+00 0.  1.
</event>
<event>
 5   0  0.1029908E-07  0.3596463E+04  0.7818609E-02  0.8091302E-01
        2   -1    0    0  501    0  0.00000000000E+00  0.00000000000E+00  0.12462744110E+04  0.12462744110E+04  0.25500000920E-02 0. -1.
       -2   -1    0    0    0  501  0.00000000000E+00  0.00000000000E+00 -0.25946420168E+04  0.25946420168E+04  0.25500000920E-02 0.  1.
    10030    2    1    2    0    0  0.00000000000E+00  0.00000000000E+00 -0.13483676058E+04  0.38409164278E+04  0.35964626795E+04 0.  0.
        4    1    3    3  502    0 -0.85570687735E+03 -0.11743968243E+04 -0.18055232188E+04  0.23176190083E+04  0.12699999809E+01 0.  1.
       -4    1    3    3    0  502  0.85570687735E+03  0.11743968243E+04  0.45715561308E+03  0.15232974195E+04  0.12699999809E+01 0. -1.
</event>
<event>
 5   0  0.3202875E-08  0.3594090E+04  0.7818609E-02  0.8091847E-01
       -1   -1    0    0    0  501  0.00000000000E+00  0.00000000000E+00  0.14198494969E+04  0.14198494969E+04  0.50400001928E-02 0. -1.
        1   -1    0    0  501    0  0.00000000000E+00  0.00000000000E+00 -0.22744454597E+04  0.22744454597E+04  0.50400001928E-02 0.  1.
    10030    2    1    2    0    0  0.00000000000E+00  0.00000000000E+00 -0.85459596283E+03  0.36942949566E+04  0.35940897272E+04 0.  0.
        1    1    3    3  502    0  0.17930879827E+04  0.56466356692E+01 -0.54967122370E+03  0.18754559052E+04  0.50400001928E-02 0.  1.
       -1    1    3    3    0  502 -0.17930879827E+04 -0.56466356692E+01 -0.30492473913E+03  0.18188390514E+04  0.50400001928E-02 0. -1.
</event>
<event>
 5   0  0.3202875E-08  0.3598657E+04  0.7818609E-02  0.8090799E-01
       -1   -1    0    0    0  501  0.00000000000E+00  0.00000000000E+00  0.14160168484E+04  0.14160168484E+04  0.50400001928E-02 0.  1.
        1   -1    0    0  501    0  0.00000000000E+00  0.00000000000E+00 -0.22864010801E+04  0.22864010801E+04  0.50400001928E-02 0. -1.
    10030    2    1    2    0    0  0.00000000000E+00  0.00000000000E+00 -0.87038423168E+03  0.37024179285E+04  0.35986566670E+04 0.  0.
        1    1    3    3  502    0  0.89750512581E+02 -0.45450895993E+02  0.14131210708E+04  0.14166976033E+04  0.50400001928E-02 0.  1.
       -1    1    3    3    0  502 -0.89750512581E+02  0.45450895993E+02 -0.22835053025E+04  0.22857203252E+04  0.50400001928E-02 0. -1.
</event>
<event>
 5   0  0.1044678E-07  0.3602730E+04  0.7818609E-02  0.8089867E-01
        2   -1    0    0  501    0  0.00000000000E+00  0.00000000000E+00  0.19360374792E+04  0.19360374792E+04  0.25500000920E-02 0. -1.
       -2   -1    0    0    0  501  0.00000000000E+00  0.00000000000E+00 -0.16760600890E+04  0.16760600890E+04  0.25500000920E-02 0.  1.
    10030    2    1    2    0    0  0.00000000000E+00  0.00000000000E+00  0.25997739015E+03  0.36120975682E+04  0.36027296039E+04 0.  0.
        2    1    3    3  502    0  0.17096840871E+04  0.40513132880E+03 -0.26823937284E+03  0.17773866863E+04  0.25500000920E-02 0.  1.
       -2    1    3    3    0  502 -0.17096840871E+04 -0.40513132880E+03  0.52821676300E+03  0.18347108819E+04  0.25500000920E-02 0. -1.
</event>
<event>
 5   0  0.1021087E-07  0.3607314E+04  0.7818609E-02  0.8088818E-01
        2   -1    0    0  501    0  0.00000000000E+00  0.00000000000E+00  0.96345668003E+03  0.96345668003E+03  0.25500000920E-02 0. -1.
       -2   -1    0    0    0  501  0.00000000000E+00  0.00000000000E+00 -0.33765694676E+04  0.33765694676E+04  0.25500000920E-02 0.  1.
    10030    2    1    2    0    0  0.00000000000E+00  0.00000000000E+00 -0.24131127876E+04  0.43400261477E+04  0.36073139088E+04 0.  0.
        3    1    3    3  502    0  0.57718784032E+03  0.13532605895E+04 -0.24619103216E+04  0.28680067064E+04  0.10100000352E+00 0. -1.
       -3    1    3    3    0  502 -0.57718784032E+03 -0.13532605895E+04  0.48797534001E+02  0.14720194413E+04  0.10100000352E+00 0.  1.
</event>
<event>
 5   0  0.3215494E-08  0.3600417E+04  0.7818609E-02  0.8090396E-01
       -1   -1    0    0    0  501  0.00000000000E+00  0.00000000000E+00  0.14568912888E+04  0.14568912888E+04  0.50400001928E-02 0.  1.
        1   -1    0    0  501    0  0.00000000000E+00  0.00000000000E+00 -0.22244287302E+04  0.22244287302E+04  0.50400001928E-02 0. -1.
    10030    2    1    2    0    0  0.00000000000E+00  0.00000000000E+00 -0.76753744137E+03  0.36813200190E+04  0.36004171089E+04 0.  0.
        4    1    3    3  502    0  0.70367371069E+03 -0.11565803498E+04  0.82944939295E+03  0.15877098932E+04  0.12699999809E+01 0. -1.
       -4    1    3    3    0  502 -0.70367371069E+03  0.11565803498E+04 -0.15969868343E+04  0.20936101257E+04  0.12699999809E+01 0.  1.
</event>
<event>
 5   0  0.3202875E-08  0.3586161E+04  0.7818609E-02  0.8093669E-01
        1   -1    0    0  501    0  0.00000000000E+00  0.00000000000E+00  0.19781045066E+04  0.19781045066E+04  0.50400001928E-02 0. -1.
       -1   -1    0    0    0  501  0.00000000000E+00  0.00000000000E+00 -0.16253627469E+04  0.16253627469E+04  0.50400001928E-02 0.  1.
    10030    2    1    2    0    0  0.00000000000E+00  0.00000000000E+00  0.35274175966E+03  0.36034672535E+04  0.35861608300E+04 0.  0.
        2    1    3    3  502    0 -0.17247609777E+03  0.11881577493E+04  0.15145901908E+04  0.19327313024E+04  0.25500000920E-02 0. -1.
       -2    1    3    3    0  502  0.17247609777E+03 -0.11881577493E+04 -0.11618484311E+04  0.16707359511E+04  0.25500000920E-02 0.  1.
</event>
<event>
 5   0  0.3202875E-08  0.3600139E+04  0.7818609E-02  0.8090460E-01
        1   -1    0    0  501    0  0.00000000000E+00  0.00000000000E+00  0.15416702070E+04  0.15416702070E+04  0.50400001928E-02 0.  1.
       -1   -1    0    0    0  501  0.00000000000E+00  0.00000000000E+00 -0.21017787081E+04  0.21017787081E+04  0.50400001928E-02 0. -1.
    10030    2    1    2    0    0  0.00000000000E+00  0.00000000000E+00 -0.56010850105E+03  0.36434489151E+04  0.36001386729E+04 0.  0.
        1    1    3    3  502    0 -0.15313626422E+04  0.91321256877E+03 -0.53045938725E+03  0.18602193148E+04  0.50400001928E-02 0. -1.
       -1    1    3    3    0  502  0.15313626422E+04 -0.91321256877E+03 -0.29649113808E+02  0.17832296003E+04  0.50400001928E-02 0.  1.
</event>
<event>
 5   0  0.1044678E-07  0.3594676E+04  0.7818609E-02  0.8091712E-01
       -2   -1    0    0    0  501  0.00000000000E+00  0.00000000000E+00  0.18807838091E+04  0.18807838091E+04  0.25500000920E-02 0.  1.
        2   -1    0    0  501    0  0.00000000000E+00  0.00000000000E+00 -0.17175946197E+04  0.17175946197E+04  0.25500000920E-02 0. -1.
    10030    2    1    2    0    0  0.00000000000E+00  0.00000000000E+00  0.16318918936E+03  0.35983784289E+04  0.35946761475E+04 0.  0.
        2    1    3    3  502    0  0.11803223706E+04  0.13488503614E+04  0.21539584997E+03  0.18052572028E+04  0.25500000920E-02 0.  1.
       -2    1    3    3    0  502 -0.11803223706E+04 -0.13488503614E+04 -0.52206660606E+02  0.17931212261E+04  0.25500000920E-02 0. -1.
</event>
<event>
 5   0  0.3279988E-08  0.3602606E+04  0.7818609E-02  0.8089895E-01
        1   -1    0    0  501    0  0.00000000000E+00  0.00000000000E+00  0.12984102840E+04  0.12984102840E+04  0.50400001928E-02 0.  1.
       -1   -1    0    0    0  501  0.00000000000E+00  0.00000000000E+00 -0.24989728367E+04  0.24989728367E+04  0.50400001928E-02 0. -1.
    10030    2    1    2    0    0  0.00000000000E+00  0.00000000000E+00 -0.12005625528E+04  0.37973831207E+04  0.36026057406E+04 0.  0.
        5    1    3    3  502    0 -0.16736940622E+04  0.43378541352E+03 -0.11328174868E+04  0.20670556711E+04  0.46999998093E+01 0. -1.
       -5    1    3    3    0  502  0.16736940622E+04 -0.43378541352E+03 -0.67745065973E+02  0.17303274496E+04  0.46999998093E+01 0.  1.
</event>
<event>
 5   0  0.3212523E-08  0.3615637E+04  0.7818609E-02  0.8086919E-01
        1   -1    0    0  501    0  0.00000000000E+00  0.00000000000E+00  0.16769039544E+04  0.16769039544E+04  0.50400001928E-02 0. -1.
       -1   -1    0    0    0  501  0.00000000000E+00  0.00000000000E+00 -0.19489530751E+04  0.19489530751E+04  0.50400001928E-02 0.  1.
    10030    2    1    2    0    0  0.00000000000E+00  0.00000000000E+00 -0.27204912068E+03  0.36258570295E+04  0.36156366623E+04 0.  0.
        3    1    3    3  502    0 -0.25073913478E+03  0.15761513130E+04  0.71554245991E+03  0.17490351904E+04  0.10100000352E+00 0.  1.
       -3    1    3    3    0  502  0.25073913478E+03 -0.15761513130E+04 -0.98759158060E+03  0.18768218390E+04  0.10100000352E+00 0. -1.
</event>
<event>
 5   0  0.1021087E-07  0.3598230E+04  0.7818609E-02  0.8090897E-01
        2   -1    0    0  501    0  0.00000000000E+00  0.00000000000E+00  0.25122620729E+04  0.25122620729E+04  0.25500000920E-02 0. -1.
       -2   -1    0    0    0  501  0.00000000000E+00  0.00000000000E+00 -0.12884062428E+04  0.12884062428E+04  0.25500000920E-02 0.  1.
    10030    2    1    2    0    0  0.00000000000E+00  0.00000000000E+00  0.12238558301E+04  0.38006683157E+04  0.35982296415E+04 0.  0.
        3    1    3    3  502    0  0.12480987773E+04  0.12953479467E+04  0.57630722280E+03  0.18888639141E+04  0.10100000352E+00 0. -1.
       -3    1    3    3    0  502 -0.12480987773E+04 -0.12953479467E+04  0.64754860729E+03  0.19118044016E+04  0.10100000352E+00 0.  1.
</event>
<event>
 5   0  0.1021087E-07  0.3601529E+04  0.7818609E-02  0.8090141E-01
       -2   -1    0    0    0  501  0.00000000000E+00  0.00000000000E+00  0.13032338512E+04  0.13032338512E+04  0.25500000920E-02 0.  1.
        2   -1    0    0  501    0  0.00000000000E+00  0.00000000000E+00 -0.24882362028E+04  0.24882362028E+04  0.25500000920E-02 0. -1.
    10030    2    1    2    0    0  0.00000000000E+00  0.00000000000E+00 -0.11850023516E+04  0.37914700540E+04  0.36015294803E+04 0.  0.
        3    1    3    3  502    0  0.14147052591E+04 -0.54652919443E+03  0.42961475113E+03  0.15762785208E+04  0.10100000352E+00 0.  1.
       -3    1    3    3    0  502 -0.14147052591E+04  0.54652919443E+03 -0.16146171027E+04  0.22151915333E+04  0.10100000352E+00 0. -1.
</event>
<event>
 5   0  0.3202875E-08  0.3598587E+04  0.7818609E-02  0.8090815E-01
       -1   -1    0    0    0  501  0.00000000000E+00  0.00000000000E+00  0.11427381953E+04  0.11427381953E+04  0.50400001928E-02 0.  1.
        1   -1    0    0  501    0  0.00000000000E+00  0.00000000000E+00 -0.28330702016E+04  0.28330702016E+04  0.50400001928E-02 0. -1.
    10030    2    1    2    0    0  0.00000000000E+00  0.00000000000E+00 -0.16903320063E+04  0.39758083968E+04  0.35985872390E+04 0.  0.
        1    1    3    3  502    0  0.16517856626E+04  0.55268995082E+03 -0.13436801287E+04  0.21998496188E+04  0.50400001928E-02 0. -1.
       -1    1    3    3    0  502 -0.16517856626E+04 -0.55268995082E+03 -0.34665187760E+03  0.17759587780E+04  0.50400001928E-02 0.  1.
</event>
<event>
 5   0  0.1017794E-07  0.3591251E+04  0.7818609E-02  0.8092499E-01
        2   -1    0    0  501    0  0.00000000000E+00  0.00000000000E+00  0.19281389414E+04  0.19281389414E+04  0.25500000920E-02 0.  1.
       -2   -1    0    0    0  501  0.00000000000E+00  0.00000000000E+00 -0.16722189233E+04  0.16722189233E+04  0.25500000920E-02 0. -1.
    10030    2    1    2    0    0  0.00000000000E+00  0.00000000000E+00  0.25592001810E+03  0.36003578647E+04  0.35912507151E+04 0.  0.
        1    1    3    3  502    0 -0.10580225475E+04  0.17051720849E+03 -0.13164512934E+04  0.16975075367E+04  0.50400001928E-02 0. -1.
       -1    1    3    3    0  502  0.10580225475E+04 -0.17051720849E+03  0.15723713115E+04  0.19028503280E+04  0.50400001928E-02 0.  1.
</event>
<event>
 5   0  0.3215494E-08  0.3596904E+04  0.7818609E-02  0.8091201E-01
        1   -1    0    0  501    0  0.00000000000E+00  0.00000000000E+00  0.16946693895E+04  0.16946693896E+04  0.50400001928E-02 0.  1.
       -1   -1    0    0    0  501  0.00000000000E+00  0.00000000000E+00 -0.19085898923E+04  0.19085898923E+04  0.50400001928E-02 0. -1.
    10030    2    1    2    0    0  0.00000000000E+00  0.00000000000E+00 -0.21392050272E+03  0.36032592818E+04  0.35969035948E+04 0.  0.
        4    1    3    3  502    0 -0.36324175016E+02 -0.50935507342E+03 -0.18344391562E+04  0.19041876660E+04  0.12699999809E+01 0. -1.
       -4    1    3    3    0  502  0.36324175016E+02  0.50935507342E+03  0.16205186535E+04  0.16990716158E+04  0.12699999809E+01 0.  1.
</event>
<event>
 5   0  0.3202875E-08  0.3604713E+04  0.7818609E-02  0.8089413E-01
       -1   -1    0    0    0  501  0.00000000000E+00  0.00000000000E+00  0.30574092879E+04  0.30574092879E+04  0.50400001928E-02 0.  1.
        1   -1    0    0  501    0  0.00000000000E+00  0.00000000000E+00 -0.10624974035E+04  0.10624974036E+04  0.50400001928E-02 0. -1.
    10030    2    1    2    0    0  0.00000000000E+00  0.00000000000E+00  0.19949118843E+04  0.41199066914E+04  0.36047132646E+04 0.  0.
        1    1    3    3  502    0  0.13372162995E+04 -0.64215759320E+03 -0.17256125723E+03  0.14934159480E+04  0.50400001928E-02 0. -1.
       -1    1    3    3    0  502 -0.13372162995E+04  0.64215759320E+03  0.21674731416E+04  0.26264907435E+04  0.50400001928E-02 0.  1.
</event>
<event>
 5   0  0.3202875E-08  0.3570659E+04  0.7818609E-02  0.8097246E-01
       -1   -1    0    0    0  501  0.00000000000E+00  0.00000000000E+00  0.19902022424E+04  0.19902022424E+04  0.50400001928E-02 0.  1.
        1   -1    0    0  501    0  0.00000000000E+00  0.00000000000E+00 -0.16015461406E+04  0.16015461406E+04  0.50400001928E-02 0. -1.
    10030    2    1    2    0    0  0.00000000000E+00  0.00000000000E+00  0.38865610178E+03  0.35917483830E+04  0.35706586061E+04 0.  0.
        2    1    3    3  502    0 -0.12421002119E+04 -0.12758971794E+04  0.32421924400E+03  0.18099294647E+04  0.25500000920E-02 0.  1.
       -2    1    3    3    0  502  0.12421002119E+04  0.12758971794E+04  0.64436857773E+02  0.17818189183E+04  0.25500000920E-02 0. -1.
</event>
<event>
 5   0  0.1021087E-07  0.3599286E+04  0.7818609E-02  0.8090655E-01
        2   -1    0    0  501    0  0.00000000000E+00  0.00000000000E+00  0.23932958867E+04  0.23932958867E+04  0.25500000920E-02 0. -1.
       -2   -1    0    0    0  501  0.00000000000E+00  0.00000000000E+00 -0.13532447059E+04  0.13532447059E+04  0.25500000920E-02 0.  1.
    10030    2    1    2    0    0  0.00000000000E+00  0.00000000000E+00  0.10400511808E+04  0.37465405926E+04  0.35992860338E+04 0.  0.
        3    1    3    3  502    0  0.67076968226E+03 -0.32086942909E+03  0.22259233685E+04  0.23468327613E+04  0.10100000352E+00 0. -1.
       -3    1    3    3    0  502 -0.67076968226E+03  0.32086942909E+03 -0.11858721877E+04  0.13997078313E+04  0.10100000352E+00 0.  1.
</event>
<event>
 5   0  0.3215494E-08  0.3596294E+04  0.7818609E-02  0.8091341E-01
       -1   -1    0    0    0  501  0.00000000000E+00  0.00000000000E+00  0.16479739261E+04  0.16479739261E+04  0.50400001928E-02 0. -1.
        1   -1    0    0  501    0  0.00000000000E+00  0.00000000000E+00 -0.19620047329E+04  0.19620047329E+04  0.50400001928E-02 0.  1.
    10030    2    1    2    0    0  0.00000000000E+00  0.00000000000E+00 -0.31403080680E+03  0.36099786590E+04  0.35962940050E+04 0.  0.
        4    1    3    3  502    0 -0.13039588989E+04 -0.10671582549E+04  0.47322358282E+03  0.17501650560E+04  0.12699999809E+01 0. -1.
       -4    1    3    3    0  502  0.13039588989E+04  0.10671582549E+04 -0.78725438962E+03  0.18598136030E+04  0.12699999809E+01 0.  1.
</event>
<event>
 5   0  0.3202875E-08  0.3602225E+04  0.7818609E-02  0.8089982E-01
        1   -1    0    0  501    0  0.00000000000E+00  0.00000000000E+00  0.18685129368E+04  0.18685129368E+04  0.50400001928E-02 0. -1.
       -1   -1    0    0    0  501  0.00000000000E+00  0.00000000000E+00 -0.17361433391E+04  0.17361433391E+04  0.50400001928E-02 0.  1.
    10030    2    1    2    0    0  0.00000000000E+00  0.00000000000E+00  0.13236959764E+03  0.36046562759E+04  0.36022250287E+04 0.  0.
        2    1    3    3  502    0  0.51576020620E+03  0.59478367580E+03  0.16872257030E+04  0.18618557367E+04  0.25500000920E-02 0. -1.
       -2    1    3    3    0  502 -0.51576020620E+03 -0.59478367580E+03 -0.15548561054E+04  0.17428005393E+04  0.25500000920E-02 0.  1.
</event>
<event>
 5   0  0.1044678E-07  0.3590660E+04  0.7818609E-02  0.8092634E-01
       -2   -1    0    0    0  501  0.00000000000E+00  0.00000000000E+00  0.16065487622E+04  0.16065487622E+04  0.25500000920E-02 0.  1.
        2   -1    0    0  501    0  0.00000000000E+00  0.00000000000E+00 -0.20062946539E+04  0.20062946539E+04  0.25500000920E-02 0. -1.
    10030    2    1    2    0    0  0.00000000000E+00  0.00000000000E+00 -0.39974589171E+03  0.36128434161E+04  0.35906602139E+04 0.  0.
        2    1    3    3  502    0  0.55127968619E+03 -0.17045585039E+04 -0.31799159226E+03  0.18194910383E+04  0.25500000920E-02 0.  1.
       -2    1    3    3    0  502 -0.55127968619E+03  0.17045585039E+04 -0.81754299448E+02  0.17933523778E+04  0.25500000920E-02 0. -1.
</event>
<event>
 5   0  0.3212523E-08  0.3596358E+04  0.7818609E-02  0.8091327E-01
        1   -1    0    0  501    0  0.00000000000E+00  0.00000000000E+00  0.13568794350E+04  0.13568794350E+04  0.50400001928E-02 0.  1.
       -1   -1    0    0    0  501  0.00000000000E+00  0.00000000000E+00 -0.23830025655E+04  0.23830025656E+04  0.50400001928E-02 0. -1.
    10030    2    1    2    0    0  0.00000000000E+00  0.00000000000E+00 -0.10261231305E+04  0.37398820006E+04  0.35963576990E+04 0.  0.
        3    1    3    3  502    0 -0.13150472297E+04 -0.12241439731E+04 -0.59066883426E+03  0.18912343496E+04  0.10100000352E+00 0.  1.
       -3    1    3    3    0  502  0.13150472297E+04  0.12241439731E+04 -0.43545429627E+03  0.18486476510E+04  0.10100000352E+00 0. -1.
</event>
<event>
 5   0  0.9905335E-08  0.3598902E+04  0.7818609E-02  0.8090743E-01
       -2   -1    0    0    0  501  0.00000000000E+00  0.00000000000E+00  0.15074943740E+04  0.15074943740E+04  0.25500000920E-02 0.  1.
        2   -1    0    0  501    0  0.00000000000E+00  0.00000000000E+00 -0.21479505911E+04  0.21479505911E+04  0.25500000920E-02 0. -1.
    10030    2    1    2    0    0  0.00000000000E+00  0.00000000000E+00 -0.64045621714E+03  0.36554449652E+04  0.35989017390E+04 0.  0.
        5    1    3    3  502    0 -0.14954203233E+04 -0.59432509565E+03 -0.11381734300E+04  0.19710314836E+04  0.46999998093E+01 0. -1.
       -5    1    3    3    0  502  0.14954203233E+04  0.59432509565E+03  0.49771721286E+03  0.16844134815E+04  0.46999998093E+01 0.  1.
</event>
<event>
 5   0  0.3212523E-08  0.3616772E+04  0.7818609E-02  0.8086661E-01
       -1   -1    0    0    0  501  0.00000000000E+00  0.00000000000E+00  0.15683245408E+04  0.15683245408E+04  0.50400001928E-02 0.  1.
        1   -1    0    0  501    0  0.00000000000E+00  0.00000000000E+00 -0.20851932719E+04  0.20851932719E+04  0.50400001928E-02 0. -1.
    10030    2    1    2    0    0  0.00000000000E+00  0.00000000000E+00 -0.51686873103E+03  0.36535178127E+04  0.36167719202E+04 0.  0.
        3    1    3    3  502    0 -0.15136261641E+04  0.98304659728E+03 -0.14408090764E+03  0.18105811484E+04  0.10100000352E+00 0.  1.
       -3    1    3    3    0  502  0.15136261641E+04 -0.98304659728E+03 -0.37278782339E+03  0.18429366642E+04  0.10100000352E+00 0. -1.
</event>
<event>
 5   0  0.1044678E-07  0.3600518E+04  0.7818609E-02  0.8090373E-01
        2   -1    0    0  501    0  0.00000000000E+00  0.00000000000E+00  0.23269686788E+04  0.23269686788E+04  0.25500000920E-02 0.  1.
       -2   -1    0    0    0  501  0.00000000000E+00  0.00000000000E+00 -0.13927704787E+04  0.13927704787E+04  0.25500000920E-02 0. -1.
    10030    2    1    2    0    0  0.00000000000E+00  0.00000000000E+00  0.93419820018E+03  0.37197391575E+04  0.36005184519E+04 0.  0.
        2    1    3    3  502    0  0.54863874212E+03  0.10862682029E+04 -0.90345958320E+03  0.15156590304E+04  0.25500000920E-02 0. -1.
       -2    1    3    3    0  502 -0.54863874212E+03 -0.10862682029E+04  0.18376577834E+04  0.22040801271E+04  0.25500000920E-02 0.  1.
</event>
<event>
 5   0  0.1044678E-07  0.3591321E+04  0.7818609E-02  0.8092483E-01
        2   -1    0    0  501    0  0.00000000000E+00  0.00000000000E+00  0.18452682533E+04  0.18452682533E+04  0.25500000920E-02 0. -1.
       -2   -1    0    0    0  501  0.00000000000E+00  0.00000000000E+00 -0.17473868013E+04  0.17473868013E+04  0.25500000920E-02 0.  1.
    10030    2    1    2    0    0  0.00000000000E+00  0.00000000000E+00  0.97881452005E+02  0.35926550545E+04  0.35913214228E+04 0.  0.
        2    1    3    3  502    0 -0.19732064762E+03  0.26921801257E+03 -0.17160794005E+04  0.17482397676E+04  0.25500000920E-02 0.  1.
       -2    1    3    3    0  502  0.19732064762E+03 -0.26921801257E+03  0.18139608525E+04  0.18444152869E+04  0.25500000920E-02 0. -1.
</event>
<event>
 5   0  0.3202875E-08  0.3600175E+04  0.7818609E-02  0.8090452E-01
        1   -1    0    0  501    0  0.00000000000E+00  0.00000000000E+00  0.21698643524E+04  0.21698643524E+04  0.50400001928E-02 0.  1.
       -1   -1    0    0    0  501  0.00000000000E+00  0.00000000000E+00 -0.14933263518E+04  0.14933263518E+04  0.50400001928E-02 0. -1.
    10030    2    1    2    0    0  0.00000000000E+00  0.00000000000E+00  0.67653800056E+03  0.36631907042E+04  0.36001753387E+04 0.  0.
        1    1    3    3  502    0  0.96367737948E+03 -0.29271318502E+03 -0.11798108092E+04  0.15512281089E+04  0.50400001928E-02 0. -1.
       -1    1    3    3    0  502 -0.96367737948E+03  0.29271318502E+03  0.18563488098E+04  0.21119625953E+04  0.50400001928E-02 0.  1.
</event>
<event>
 5   0  0.1021087E-07  0.3599318E+04  0.7818609E-02  0.8090648E-01
       -2   -1    0    0    0  501  0.00000000000E+00  0.00000000000E+00  0.13662804324E+04  0.13662804324E+04  0.25500000920E-02 0. -1.
        2   -1    0    0  501    0  0.00000000000E+00  0.00000000000E+00 -0.23705032428E+04  0.23705032428E+04  0.25500000920E-02 0.  1.
    10030    2    1    2    0    0  0.00000000000E+00  0.00000000000E+00 -0.10042228103E+04  0.37367836752E+04  0.35993178218E+04 0.  0.
        3    1    3    3  502    0 -0.87527160830E+03 -0.12230215781E+04 -0.15282371782E+04  0.21441527585E+04  0.10100000352E+00 0.  1.
       -3    1    3    3    0  502  0.87527160830E+03  0.12230215781E+04  0.52401436790E+03  0.15926309167E+04  0.10100000352E+00 0. -1.
</event>
<event>
 5   0  0.1044678E-07  0.3604061E+04  0.7818609E-02  0.8089562E-01
        2   -1    0    0  501    0  0.00000000000E+00  0.00000000000E+00  0.30509025050E+04  0.30509025050E+04  0.25500000920E-02 0.  1.
       -2   -1    0    0    0  501  0.00000000000E+00  0.00000000000E+00 -0.10643783786E+04  0.10643783786E+04  0.25500000920E-02 0. -1.
    10030    2    1    2    0    0  0.00000000000E+00  0.00000000000E+00  0.19865241264E+04  0.41152808836E+04  0.36040614099E+04 0.  0.
        2    1    3    3  502    0  0.99712069828E+03  0.13900129316E+04  0.34639982581E+03  0.17453877725E+04  0.25500000920E-02 0. -1.
       -2    1    3    3    0  502 -0.99712069828E+03 -0.13900129316E+04  0.16401243006E+04  0.23698931112E+04  0.25500000920E-02 0.  1.
</event>
<event>
 5   0  0.3212523E-08  0.3598856E+04  0.7818609E-02  0.8090754E-01
        1   -1    0    0  501    0  0.00000000000E+00  0.00000000000E+00  0.14591508300E+04  0.14591508300E+04  0.50400001928E-02 0. -1.
       -1   -1    0    0    0  501  0.00000000000E+00  0.00000000000E+00 -0.22190581137E+04  0.22190581137E+04  0.50400001928E-02 0.  1.
    10030    2    1    2    0    0  0.00000000000E+00  0.00000000000E+00 -0.75990728367E+03  0.36782089437E+04  0.35988556450E+04 0.  0.
        3    1    3    3  502    0 -0.24787453788E+03  0.17192972552E+04  0.99991574832E+02  0.17399491842E+04  0.10100000352E+00 0.  1.
       -3    1    3    3    0  502  0.24787453788E+03 -0.17192972552E+04 -0.85989885851E+03  0.19382597595E+04  0.10100000352E+00 0. -1.
</event>
<event>
 5   0  0.3279988E-08  0.3599048E+04  0.7818609E-02  0.8090710E-01
       -1   -1    0    0    0  501  0.00000000000E+00  0.00000000000E+00  0.13084723784E+04  0.13084723784E+04  0.50400001928E-02 0. -1.
        1   -1    0    0  501    0  0.00000000000E+00  0.00000000000E+00 -0.24748606974E+04  0.24748606974E+04  0.50400001928E-02 0.  1.
    10030    2    1    2    0    0  0.00000000000E+00  0.00000000000E+00 -0.11663883190E+04  0.37833330758E+04  0.35990481313E+04 0.  0.
        5    1    3    3  502    0 -0.28357843488E+03 -0.79799976924E+03  0.10858859085E+04  0.13770950064E+04  0.46999998093E+01 0. -1.
       -5    1    3    3    0  502  0.28357843488E+03  0.79799976924E+03 -0.22522742275E+04  0.24062380694E+04  0.46999998093E+01 0.  1.
</event>
<event>
 5   0  0.3215494E-08  0.3595034E+04  0.7818609E-02  0.8091630E-01
       -1   -1    0    0    0  501  0.00000000000E+00  0.00000000000E+00  0.12918799717E+04  0.12918799717E+04  0.50400001928E-02 0. -1.
        1   -1    0    0  501    0  0.00000000000E+00  0.00000000000E+00 -0.25010584515E+04  0.25010584515E+04  0.50400001928E-02 0.  1.
    10030    2    1    2    0    0  0.00000000000E+00  0.00000000000E+00 -0.12091784798E+04  0.37929384232E+04  0.35950339756E+04 0.  0.
        4    1    3    3  502    0 -0.11966329116E+03 -0.13982535272E+04 -0.17896466645E+04  0.22742623037E+04  0.12699999809E+01 0.  1.
       -4    1    3    3    0  502  0.11966329116E+03  0.13982535272E+04  0.58046818465E+03  0.15186761195E+04  0.12699999809E+01 0. -1.
</event>
<event>
 5   0  0.1021087E-07  0.3599221E+04  0.7818609E-02  0.8090670E-01
        2   -1    0    0  501    0  0.00000000000E+00  0.00000000000E+00  0.11156010377E+04  0.11156010377E+04  0.25500000920E-02 0. -1.
       -2   -1    0    0    0  501  0.00000000000E+00  0.00000000000E+00 -0.29030075938E+04  0.29030075938E+04  0.25500000920E-02 0.  1.
    10030    2    1    2    0    0  0.00000000000E+00  0.00000000000E+00 -0.17874065561E+04  0.40186086316E+04  0.35992211848E+04 0.  0.
        3    1    3    3  502    0 -0.14590202277E+04  0.16066078140E+03 -0.20561983073E+04  0.25263616924E+04  0.10100000352E+00 0.  1.
       -3    1    3    3    0  502  0.14590202277E+04 -0.16066078140E+03  0.26879175127E+03  0.14922469391E+04  0.10100000352E+00 0. -1.
</event>
<event>
 5   0  0.1044678E-07  0.3596467E+04  0.7818609E-02  0.8091301E-01
        2   -1    0    0  501    0  0.00000000000E+00  0.00000000000E+00  0.17607066195E+04  0.17607066195E+04  0.25500000920E-02 0.  1.
       -2   -1    0    0    0  501  0.00000000000E+00  0.00000000000E+00 -0.18365601964E+04  0.18365601964E+04  0.25500000920E-02 0. -1.
    10030    2    1    2    0    0  0.00000000000E+00  0.00000000000E+00 -0.75853576907E+02  0.35972668158E+04  0.35964669857E+04 0.  0.
        2    1    3    3  502    0  0.10013180042E+04  0.14848045855E+04  0.12447092854E+03  0.17952090170E+04  0.25500000920E-02 0.  1.
       -2    1    3    3    0  502 -0.10013180042E+04 -0.14848045855E+04 -0.20032450545E+03  0.18020577988E+04  0.25500000920E-02 0. -1.
</event>
<event>
 5   0  0.1029908E-07  0.3612947E+04  0.7818609E-02  0.8087532E-01
        2   -1    0    0  501    0  0.00000000000E+00  0.00000000000E+00  0.18173937448E+04  0.18173937448E+04  0.25500000920E-02 0.  1.
       -2   -1    0    0    0  501  0.00000000000E+00  0.00000000000E+00 -0.17956187165E+04  0.17956187165E+04  0.25500000920E-02 0. -1.
    10030    2    1    2    0    0  0.00000000000E+00  0.00000000000E+00  0.21775028227E+02  0.36130124613E+04  0.36129468435E+04 0.  0.
        4    1    3    3  502    0  0.23684657377E+03  0.15067234134E+04 -0.95713464640E+03  0.18006721213E+04  0.12699999809E+01 0. -1.
       -4    1    3    3    0  502 -0.23684657377E+03 -0.15067234134E+04  0.97890967463E+03  0.18123403400E+04  0.12699999809E+01 0.  1.
</event>
<event>
 5   0  0.3202875E-08  0.3532126E+04  0.7818609E-02  0.8106218E-01
        1   -1    0    0  501    0  0.00000000000E+00  0.00000000000E+00  0.25053215567E+04  0.25053215567E+04  0.50400001928E-02 0.  1.
       -1   -1    0    0    0  501  0.00000000000E+00  0.00000000000E+00 -0.12449413826E+04  0.12449413826E+04  0.50400001928E-02 0. -1.
    10030    2    1    2    0    0  0.00000000000E+00  0.00000000000E+00  0.12603801741E+04  0.37502629394E+04  0.35321259789E+04 0.  0.
        2    1    3    3  502    0 -0.60018667205E+03  0.67264463558E+03  0.22426308733E+04  0.24170370458E+04  0.25500000920E-02 0.  1.
       -2    1    3    3    0  502  0.60018667205E+03 -0.67264463558E+03 -0.98225069919E+03  0.13332258935E+04  0.25500000920E-02 0. -1.
</event>
<event>
 5   0  0.1021087E-07  0.3594689E+04  0.7818609E-02  0.8091709E-01
        2   -1    0    0  501    0  0.00000000000E+00  0.00000000000E+00  0.23498343223E+04  0.23498343223E+04  0.25500000920E-02 0. -1.
       -2   -1    0    0    0  501  0.00000000000E+00  0.00000000000E+00 -0.13747556587E+04  0.13747556587E+04  0.25500000920E-02 0.  1.
    10030    2    1    2    0    0  0.00000000000E+00  0.00000000000E+00  0.97507866362E+03  0.37245899810E+04  0.35946894339E+04 0.  0.
        3    1    3    3  502    0  0.62387628261E+03  0.51364550812E+03 -0.11759022782E+04  0.14268144596E+04  0.10100000352E+00 0.  1.
       -3    1    3    3    0  502 -0.62387628261E+03 -0.51364550812E+03  0.21509809419E+04  0.22977755213E+04  0.10100000352E+00 0. -1.
</event>
<event>
 5   0  0.1044678E-07  0.3590216E+04  0.7818609E-02  0.8092736E-01
       -2   -1    0    0    0  501  0.00000000000E+00  0.00000000000E+00  0.15590443656E+04  0.15590443656E+04  0.25500000920E-02 0. -1.
        2   -1    0    0  501    0  0.00000000000E+00  0.00000000000E+00 -0.20669156783E+04  0.20669156783E+04  0.25500000920E-02 0.  1.
    10030    2    1    2    0    0  0.00000000000E+00  0.00000000000E+00 -0.50787131271E+03  0.36259600439E+04  0.35902162845E+04 0.  0.
        2    1    3    3  502    0  0.40706935638E+03 -0.17300296163E+04 -0.50884761607E+03  0.18486843513E+04  0.25500000920E-02 0.  1.
       -2    1    3    3    0  502 -0.40706935638E+03  0.17300296163E+04  0.97630336253E+00  0.17772756926E+04  0.25500000920E-02 0. -1.
</event>
<event>
 5   0  0.3202875E-08  0.3583812E+04  0.7818609E-02  0.8094210E-01
        1   -1    0    0  501    0  0.00000000000E+00  0.00000000000E+00  0.22172796560E+04  0.22172796560E+04  0.50400001928E-02 0.  1.
       -1   -1    0    0    0  501  0.00000000000E+00  0.00000000000E+00 -0.14481380593E+04  0.14481380593E+04  0.50400001928E-02 0. -1.
    10030    2    1    2    0    0  0.00000000000E+00  0.00000000000E+00  0.76914159670E+03  0.36654177153E+04  0.35838119694E+04 0.  0.
        1    1    3    3  502    0 -0.60599007711E+03 -0.26832254463E+02 -0.13399379388E+04  0.14708424876E+04  0.50400001928E-02 0. -1.
       -1    1    3    3    0  502  0.60599007711E+03  0.26832254463E+02  0.21090795355E+04  0.21945752278E+04  0.50400001928E-02 0.  1.
</event>
<event>
 5   0  0.3279988E-08  0.3606995E+04  0.7818609E-02  0.8088891E-01
       -1   -1    0    0    0  501  0.00000000000E+00  0.00000000000E+00  0.29245232229E+04  0.29245232230E+04  0.50400001928E-02 0. -1.
        1   -1    0    0  501    0  0.00000000000E+00  0.00000000000E+00 -0.11121821184E+04  0.11121821184E+04  0.50400001928E-02 0.  1.
    10030    2    1    2    0    0  0.00000000000E+00  0.00000000000E+00  0.18123411045E+04  0.40367053414E+04  0.36069945570E+04 0.  0.
        5    1    3    3  502    0  0.13101186397E+03  0.16287956048E+04  0.52072810037E+02  0.16348923201E+04  0.46999998093E+01 0.  1.
       -5    1    3    3    0  502 -0.13101186397E+03 -0.16287956048E+04  0.17602682945E+04  0.24018130213E+04  0.46999998093E+01 0. -1.
</event>
<event>
 5   0  0.3215494E-08  0.3604151E+04  0.7818609E-02  0.8089541E-01
       -1   -1    0    0    0  501  0.00000000000E+00  0.00000000000E+00  0.15186797890E+04  0.15186797890E+04  0.50400001928E-02 0.  1.
        1   -1    0    0  501    0  0.00000000000E+00  0.00000000000E+00 -0.21383552365E+04  0.21383552365E+04  0.50400001928E-02 0. -1.
    10030    2    1    2    0    0  0.00000000000E+00  0.00000000000E+00 -0.61967544744E+03  0.36570350255E+04  0.36041514282E+04 0.  0.
        4    1    3    3  502    0 -0.13829619905E+03 -0.17581274374E+04 -0.68586591771E+03  0.18922345507E+04  0.12699999809E+01 0. -1.
       -4    1    3    3    0  502  0.13829619905E+03  0.17581274374E+04  0.66190470272E+02  0.17648004748E+04  0.12699999809E+01 0.  1.
</event>
<event>
 5   0  0.3212523E-08  0.3599641E+04  0.7818609E-02  0.8090574E-01
       -1   -1    0    0    0  501  0.00000000000E+00  0.00000000000E+00  0.15814403967E+04  0.15814403967E+04  0.50400001928E-02 0.  1.
        1   -1    0    0  501    0  0.00000000000E+00  0.00000000000E+00 -0.20483560725E+04  0.20483560725E+04  0.50400001928E-02 0. -1.
    10030    2    1    2    0    0  0.00000000000E+00  0.00000000000E+00 -0.46691567581E+03  0.36297964693E+04  0.35996405598E+04 0.  0.
        3    1    3    3  502    0 -0.49250483929E+03 -0.12221232269E+04  0.10028667529E+04  0.16558647084E+04  0.10100000352E+00 0.  1.
       -3    1    3    3    0  502  0.49250483929E+03  0.12221232269E+04 -0.14697824287E+04  0.19739317608E+04  0.10100000352E+00 0. -1.
</event>
<event>
 5   0  0.1021087E-07  0.3633745E+04  0.7818609E-02  0.8082805E-01
       -2   -1    0    0    0  501  0.00000000000E+00  0.00000000000E+00  0.10947004509E+04  0.10947004509E+04  0.25500000920E-02 0. -1.
        2   -1    0    0  501    0  0.00000000000E+00  0.00000000000E+00 -0.30154605498E+04  0.30154605498E+04  0.25500000920E-02 0.  1.
    10030    2    1    2    0    0  0.00000000000E+00  0.00000000000E+00 -0.19207600990E+04  0.41101610007E+04  0.36337451883E+04 0.  0.
        3    1    3    3  502    0 -0.91613069463E+03 -0.26494949594E+02  0.81406556528E+03  0.12258467224E+04  0.10100000352E+00 0. -1.
       -3    1    3    3    0  502  0.91613069463E+03  0.26494949594E+02 -0.27348256642E+04  0.28843142783E+04  0.10100000352E+00 0.  1.
</event>
<event>
 5   0  0.3215494E-08  0.3600164E+04  0.7818609E-02  0.8090454E-01
       -1   -1    0    0    0  501  0.00000000000E+00  0.00000000000E+00  0.11453103927E+04  0.11453103927E+04  0.50400001928E-02 0.  1.
        1   -1    0    0  501    0  0.00000000000E+00  0.00000000000E+00 -0.28291848925E+04  0.28291848925E+04  0.50400001928E-02 0. -1.
    10030    2    1    2    0    0  0.00000000000E+00  0.00000000000E+00 -0.16838744999E+04  0.39744952852E+04  0.36001638075E+04 0.  0.
        4    1    3    3  502    0 -0.25607453065E+03 -0.25130643730E+03  0.11054355718E+04  0.11622041589E+04  0.12699999809E+01 0.  1.
       -4    1    3    3    0  502  0.25607453065E+03  0.25130643730E+03 -0.27893100716E+04  0.28122911263E+04  0.12699999809E+01 0. -1.
</event>
<event>
 5   0  0.1017794E-07  0.3581368E+04  0.7818609E-02  0.8094773E-01
        2   -1    0    0  501    0  0.00000000000E+00  0.00000000000E+00  0.17743404512E+04  0.17743404512E+04  0.25500000920E-02 0.  1.
       -2   -1    0    0    0  501  0.00000000000E+00  0.00000000000E+00 -0.18071779340E+04  0.18071779340E+04  0.25500000920E-02 0. -1.
    10030    2    1    2    0    0  0.00000000000E+00  0.00000000000E+00 -0.32837482854E+02  0.35815183852E+04  0.35813678453E+04 0.  0.
        1    1    3    3  502    0  0.10032390578E+04  0.12255804864E+03 -0.14946688979E+04  0.18043126660E+04  0.50400001928E-02 0. -1.
       -1    1    3    3    0  502 -0.10032390578E+04 -0.12255804864E+03  0.14618314150E+04  0.17772057192E+04  0.50400001928E-02 0.  1.
</event>
<event>
 5   0  0.3202875E-08  0.3602634E+04  0.7818609E-02  0.8089889E-01
       -1   -1    0    0    0  501  0.00000000000E+00  0.00000000000E+00  0.18404943512E+04  0.18404943512E+04  0.50400001928E-02 0. -1.
        1   -1    0    0  501    0  0.00000000000E+00  0.00000000000E+00 -0.17629731128E+04  0.17629731128E+04  0.50400001928E-02 0.  1.
    10030    2    1    2    0    0  0.00000000000E+00  0.00000000000E+00  0.77521238394E+02  0.36034674641E+04  0.36026335121E+04 0.  0.
        2    1    3    3  502    0 -0.61144479572E+03  0.29190144568E+03 -0.16306586478E+04  0.17658195882E+04  0.25500000920E-02 0.  1.
       -2    1    3    3    0  502  0.61144479572E+03 -0.29190144568E+03  0.17081798862E+04  0.18376478759E+04  0.25500000920E-02 0. -1.
</event>
<event>
 5   0  0.3212523E-08  0.3591847E+04  0.7818609E-02  0.8092362E-01
        1   -1    0    0  501    0  0.00000000000E+00  0.00000000000E+00  0.17333241657E+04  0.17333241657E+04  0.50400001928E-02 0.  1.
       -1   -1    0    0    0  501  0.00000000000E+00  0.00000000000E+00 -0.18607836621E+04  0.18607836621E+04  0.50400001928E-02 0. -1.
    10030    2    1    2    0    0  0.00000000000E+00  0.00000000000E+00 -0.12745949642E+03  0.35941078278E+04  0.35918470394E+04 0.  0.
        3    1    3    3  502    0 -0.14377221226E+04  0.44318510757E+03 -0.10451035708E+04  0.18318568245E+04  0.10100000352E+00 0. -1.
       -3    1    3    3    0  502  0.14377221226E+04 -0.44318510757E+03  0.91764407434E+03  0.17622510034E+04  0.10100000352E+00 0.  1.
</event>
<event>
 5   0  0.1017794E-07  0.3600201E+04  0.7818609E-02  0.8090446E-01
        2   -1    0    0  501    0  0.00000000000E+00  0.00000000000E+00  0.22555593763E+04  0.22555593763E+04  0.25500000920E-02 0.  1.
       -2   -1    0    0    0  501  0.00000000000E+00  0.00000000000E+00 -0.14366114854E+04  0.14366114854E+04  0.25500000920E-02 0. -1.
    10030    2    1    2    0    0  0.00000000000E+00  0.00000000000E+00  0.81894789093E+03  0.36921708616E+04  0.36002013865E+04 0.  0.
        1    1    3    3  502    0 -0.11948391164E+04  0.11720792341E+04  0.10889335481E+04  0.19967940598E+04  0.50400001928E-02 0.  1.
       -1    1    3    3    0  502  0.11948391164E+04 -0.11720792341E+04 -0.26998565715E+03  0.16953768018E+04  0.50400001928E-02 0. -1.
</event>
<event>
 5   0  0.3215494E-08  0.3600423E+04  0.7818609E-02  0.8090395E-01
        1   -1    0    0  501    0  0.00000000000E+00  0.00000000000E+00  0.26629640840E+04  0.26629640840E+04  0.50400001928E-02 0.  1.
       -1   -1    0    0    0  501  0.00000000000E+00  0.00000000000E+00 -0.12169753582E+04  0.12169753582E+04  0.50400001928E-02 0. -1.
    10030    2    1    2    0    0  0.00000000000E+00  0.00000000000E+00  0.14459887258E+04  0.38799394422E+04  0.36004231251E+04 0.  0.
        4    1    3    3  502    0  0.13687023949E+04  0.91200415155E+03 -0.65714862560E+02  0.16460309458E+04  0.12699999809E+01 0. -1.
       -4    1    3    3    0  502 -0.13687023949E+04 -0.91200415155E+03  0.15117035884E+04  0.22339084964E+04  0.12699999809E+01 0.  1.
</event>
<event>
 5   0  0.1044678E-07  0.3603537E+04  0.7818609E-02  0.8089682E-01
        2   -1    0    0  501    0  0.00000000000E+00  0.00000000000E+00  0.23233658657E+04  0.23233658657E+04  0.25500000920E-02 0. -1.
       -2   -1    0    0    0  501  0.00000000000E+00  0.00000000000E+00 -0.13972697854E+04  0.13972697854E+04  0.25500000920E-02 0.  1.
    10030    2    1    2    0    0  0.00000000000E+00  0.00000000000E+00  0.92609608033E+03  0.37206356512E+04  0.36035365544E+04 0.  0.
        2    1    3    3  502    0  0.15635023628E+04 -0.88629536862E+03  0.59490789869E+03  0.18931388028E+04  0.25500000920E-02 0.  1.
       -2    1    3    3    0  502 -0.15635023628E+04  0.88629536862E+03  0.33118818164E+03  0.18274968483E+04  0.25500000920E-02 0. -1.
</event>
<event>
 5   0  0.3279988E-08  0.3601469E+04  0.7818609E-02  0.8090155E-01
       -1   -1    0    0    0  501  0.00000000000E+00  0.00000000000E+00  0.23153054948E+04  0.23153054948E+04  0.50400001928E-02 0. -1.
        1   -1    0    0  501    0  0.00000000000E+00  0.00000000000E+00 -0.14005260110E+04  0.14005260110E+04  0.50400001928E-02 0.  1.
    10030    2    1    2    0    0  0.00000000000E+00  0.00000000000E+00  0.91477948384E+03  0.37158315058E+04  0.36014694605E+04 0.  0.
        5    1    3    3  502    0  0.10577213402E+04  0.11349813106E+04  0.14005657931E+04  0.20901109156E+04  0.46999998093E+01 0. -1.
       -5    1    3    3    0  502 -0.10577213402E+04 -0.11349813106E+04 -0.48578630924E+03  0.16257205901E+04  0.46999998093E+01 0.  1.
</event>
<event>
 5   0  0.1021087E-07  0.3601345E+04  0.7818609E-02  0.8090184E-01
        2   -1    0    0  501    0  0.00000000000E+00  0.00000000000E+00  0.17906394442E+04  0.17906394442E+04  0.25500000920E-02 0.  1.
       -2   -1    0    0    0  501  0.00000000000E+00  0.00000000000E+00 -0.18107618074E+04  0.18107618074E+04  0.25500000920E-02 0. -1.
    10030    2    1    2    0    0  0.00000000000E+00  0.00000000000E+00 -0.20122363136E+02  0.36014012516E+04  0.36013450356E+04 0.  0.
        3    1    3    3  502    0 -0.75113703571E+03 -0.13614874562E+04  0.89800947050E+03  0.17956268986E+04  0.10100000352E+00 0.  1.
       -3    1    3    3    0  502  0.75113703571E+03  0.13614874562E+04 -0.91813183363E+03  0.18057743530E+04  0.10100000352E+00 0. -1.
</event>
<event>
 5   0  0.3202875E-08  0.3602787E+04  0.7818609E-02  0.8089854E-01
        1   -1    0    0  501    0  0.00000000000E+00  0.00000000000E+00  0.25288833369E+04  0.25288833369E+04  0.50400001928E-02 0. -1.
       -1   -1    0    0    0  501  0.00000000000E+00  0.00000000000E+00 -0.12831822648E+04  0.12831822648E+04  0.50400001928E-02 0.  1.
    10030    2    1    2    0    0  0.00000000000E+00  0.00000000000E+00  0.12457010721E+04  0.38120656017E+04  0.36027868367E+04 0.  0.
        2    1    3    3  502    0  0.17271455416E+03  0.21275178283E+03 -0.12609992285E+04  0.12904312041E+04  0.25500000920E-02 0.  1.
       -2    1    3    3    0  502 -0.17271455416E+03 -0.21275178283E+03  0.25067003006E+04  0.25216343976E+04  0.25500000920E-02 0. -1.
</event>
<event>
 5   0  0.1044678E-07  0.3604244E+04  0.7818609E-02  0.8089520E-01
        2   -1    0    0  501    0  0.00000000000E+00  0.00000000000E+00  0.22835749698E+04  0.22835749698E+04  0.25500000920E-02 0.  1.
       -2   -1    0    0    0  501  0.00000000000E+00  0.00000000000E+00 -0.14221755483E+04  0.14221755483E+04  0.25500000920E-02 0. -1.
    10030    2    1    2    0    0  0.00000000000E+00  0.00000000000E+00  0.86139942157E+03  0.37057505181E+04  0.36042444339E+04 0.  0.
        2    1    3    3  502    0 -0.45080136276E+03  0.14299722843E+04  0.14586579555E+04  0.20918235188E+04  0.25500000920E-02 0.  1.
       -2    1    3    3    0  502  0.45080136276E+03 -0.14299722843E+04 -0.59725853396E+03  0.16139269993E+04  0.25500000920E-02 0. -1.
</event>
<event>
 5   0  0.1017794E-07  0.3598929E+04  0.7818609E-02  0.8090737E-01
        2   -1    0    0  501    0  0.00000000000E+00  0.00000000000E+00  0.20152976570E+04  0.20152976570E+04  0.25500000920E-02 0.  1.
       -2   -1    0    0    0  501  0.00000000000E+00  0.00000000000E+00 -0.16067468191E+04  0.16067468191E+04  0.25500000920E-02 0. -1.
    10030    2    1    2    0    0  0.00000000000E+00  0.00000000000E+00  0.40855083792E+03  0.36220444761E+04  0.35989293407E+04 0.  0.
        1    1    3    3  502    0 -0.57733488308E+03 -0.13055836475E+04  0.13068522829E+04  0.19353881051E+04  0.50400001928E-02 0.  1.
       -1    1    3    3    0  502  0.57733488308E+03  0.13055836475E+04 -0.89830144497E+03  0.16866563710E+04  0.50400001928E-02 0. -1.
</event>
<event>
 5   0  0.3212523E-08  0.3601344E+04  0.7818609E-02  0.8090184E-01
        1   -1    0    0  501    0  0.00000000000E+00  0.00000000000E+00  0.13643570639E+04  0.13643570639E+04  0.50400001928E-02 0.  1.
       -1   -1    0    0    0  501  0.00000000000E+00  0.00000000000E+00 -0.23765181246E+04  0.23765181246E+04  0.50400001928E-02 0. -1.
    10030    2    1    2    0    0  0.00000000000E+00  0.00000000000E+00 -0.10121610607E+04  0.37408751886E+04  0.36013437997E+04 0.  0.
        3    1    3    3  502    0 -0.15046957347E+04 -0.92746726402E+03 -0.86307397789E+03  0.19670285919E+04  0.10100000352E+00 0. -1.
       -3    1    3    3    0  502  0.15046957347E+04  0.92746726402E+03 -0.14908708284E+03  0.17738465966E+04  0.10100000352E+00 0.  1.
</event>
<event>
 5   0  0.3215494E-08  0.3595538E+04  0.7818609E-02  0.8091515E-01
       -1   -1    0    0    0  501  0.00000000000E+00  0.00000000000E+00  0.32075648284E+04  0.32075648284E+04  0.50400001928E-02 0.  1.
        1   -1    0    0  501    0  0.00000000000E+00  0.00000000000E+00 -0.10076096016E+04  0.10076096016E+04  0.50400001928E-02 0. -1.
    10030    2    1    2    0    0  0.00000000000E+00  0.00000000000E+00  0.21999552269E+04  0.42151744300E+04  0.35955378562E+04 0.  0.
        4    1    3    3  502    0 -0.14065175635E+04  0.70165644236E+03  0.77047019438E+02  0.15737062228E+04  0.12699999809E+01 0. -1.
       -4    1    3    3    0  502  0.14065175635E+04 -0.70165644236E+03  0.21229082074E+04  0.26414682072E+04  0.12699999809E+01 0.  1.
</event>
<event>
 5   0  0.1044678E-07  0.3598172E+04  0.7818609E-02  0.8090911E-01
        2   -1    0    0  501    0  0.00000000000E+00  0.00000000000E+00  0.20894747141E+04  0.20894747141E+04  0.25500000920E-02 0. -1.
       -2   -1    0    0    0  501  0.00000000000E+00  0.00000000000E+00 -0.15490545800E+04  0.15490545800E+04  0.25500000920E-02 0.  1.
    10030    2    1    2    0    0  0.00000000000E+00  0.00000000000E+00  0.54042013415E+03  0.36385292941E+04  0.35981719668E+04 0.  0.
        2    1    3    3  502    0 -0.49081999697E+03  0.17153405248E+04  0.50391474520E+03  0.18539761206E+04  0.25500000920E-02 0. -1.
       -2    1    3    3    0  502  0.49081999697E+03 -0.17153405248E+04  0.36505388956E+02  0.17845531735E+04  0.25500000920E-02 0.  1.
</event>
<event>
 5   0  0.1029908E-07  0.3549278E+04  0.7818609E-02  0.8102210E-01
       -2   -1    0    0    0  501  0.00000000000E+00  0.00000000000E+00  0.16237791017E+04  0.16237791017E+04  0.25500000920E-02 0. -1.
        2   -1    0    0  501    0  0.00000000000E+00  0.00000000000E+00 -0.19395149501E+04  0.19395149501E+04  0.25500000920E-02 0.  1.
    10030    2    1    2    0    0  0.00000000000E+00  0.00000000000E+00 -0.31573584838E+03  0.35632940518E+04  0.35492781483E+04 0.  0.
        4    1    3    3  502    0  0.13478517444E+04  0.61856906484E+03  0.82066572784E+03  0.16949412564E+04  0.12699999809E+01 0. -1.
       -4    1    3    3    0  502 -0.13478517444E+04 -0.61856906484E+03 -0.11364015762E+04  0.18683527954E+04  0.12699999809E+01 0.  1.
</event>
<event>
 5   0  0.1021087E-07  0.3599364E+04  0.7818609E-02  0.8090637E-01
        2   -1    0    0  501    0  0.00000000000E+00  0.00000000000E+00  0.25717546967E+04  0.25717546967E+04  0.25500000920E-02 0. -1.
       -2   -1    0    0    0  501  0.00000000000E+00  0.00000000000E+00 -0.12593951425E+04  0.12593951425E+04  0.25500000920E-02 0.  1.
    10030    2    1    2    0    0  0.00000000000E+00  0.00000000000E+00  0.13123595542E+04  0.38311498392E+04  0.35993640398E+04 0.  0.
        3    1    3    3  502    0  0.17076813371E+04 -0.55616394801E+03  0.53314423415E+03  0.18734291208E+04  0.10100000352E+00 0.  1.
       -3    1    3    3    0  502 -0.17076813371E+04  0.55616394801E+03  0.77921532007E+03  0.19577207184E+04  0.10100000352E+00 0. -1.
</event>
<event>
 5   0  0.9905335E-08  0.3686005E+04  0.7818609E-02  0.8071070E-01
        2   -1    0    0  501    0  0.00000000000E+00  0.00000000000E+00  0.20753346979E+04  0.20753346979E+04  0.25500000920E-02 0. -1.
       -2   -1    0    0    0  501  0.00000000000E+00  0.00000000000E+00 -0.16366796499E+04  0.16366796499E+04  0.25500000920E-02 0.  1.
    10030    2    1    2    0    0  0.00000000000E+00  0.00000000000E+00  0.43865504802E+03  0.37120143477E+04  0.36860049195E+04 0.  0.
        5    1    3    3  502    0 -0.12880687684E+04  0.56531125371E+03  0.14185019502E+04  0.19977156551E+04  0.46999998093E+01 0. -1.
       -5    1    3    3    0  502  0.12880687684E+04 -0.56531125371E+03 -0.97984690222E+03  0.17142986926E+04  0.46999998093E+01 0.  1.
</event>
<event>
 5   0  0.3215494E-08  0.3605173E+04  0.7818609E-02  0.8089308E-01
        1   -1    0    0  501    0  0.00000000000E+00  0.00000000000E+00  0.24538602094E+04  0.24538602094E+04  0.50400001928E-02 0. -1.
       -1   -1    0    0    0  501  0.00000000000E+00  0.00000000000E+00 -0.13241657762E+04  0.13241657763E+04  0.50400001928E-02 0.  1.
    10030    2    1    2    0    0  0.00000000000E+00  0.00000000000E+00  0.11296944331E+04  0.37780259856E+04  0.36051727886E+04 0.  0.
        4    1    3    3  502    0  0.14974430688E+04 -0.56449005109E+03  0.14342832316E+04  0.21489892423E+04  0.12699999809E+01 0. -1.
       -4    1    3    3    0  502 -0.14974430688E+04  0.56449005109E+03 -0.30458879846E+03  0.16290367434E+04  0.12699999809E+01 0.  1.
</event>
<event>
 5   0  0.3279988E-08  0.3600750E+04  0.7818609E-02  0.8090320E-01
       -1   -1    0    0    0  501  0.00000000000E+00  0.00000000000E+00  0.26361310381E+04  0.26361310381E+04  0.50400001928E-02 0.  1.
        1   -1    0    0  501    0  0.00000000000E+00  0.00000000000E+00 -0.12295863725E+04  0.12295863725E+04  0.50400001928E-02 0. -1.
    10030    2    1    2    0    0  0.00000000000E+00  0.00000000000E+00  0.14065446657E+04  0.38657174106E+04  0.36007503665E+04 0.  0.
        5    1    3    3  502    0  0.99855784283E+03 -0.10653897744E+04  0.18339357032E+04  0.23442515629E+04  0.46999998093E+01 0.  1.
       -5    1    3    3    0  502 -0.99855784283E+03  0.10653897744E+04 -0.42739103749E+03  0.15214658477E+04  0.46999998093E+01 0. -1.
</event>
<event>
 5   0  0.3202875E-08  0.3606451E+04  0.7818609E-02  0.8089016E-01
       -1   -1    0    0    0  501  0.00000000000E+00  0.00000000000E+00  0.28637755359E+04  0.28637755359E+04  0.50400001928E-02 0.  1.
        1   -1    0    0  501    0  0.00000000000E+00  0.00000000000E+00 -0.11354320958E+04  0.11354320958E+04  0.50400001928E-02 0. -1.
    10030    2    1    2    0    0  0.00000000000E+00  0.00000000000E+00  0.17283434401E+04  0.39992076317E+04  0.36064512522E+04 0.  0.
        1    1    3    3  502    0  0.55595702446E+03  0.43090432240E+03  0.27053715249E+04  0.27953178416E+04  0.50400001928E-02 0.  1.
       -1    1    3    3    0  502 -0.55595702446E+03 -0.43090432240E+03 -0.97702808480E+03  0.12038897901E+04  0.50400001928E-02 0. -1.
</event>
<event>
 5   0  0.1029908E-07  0.3601964E+04  0.7818609E-02  0.8090042E-01
        2   -1    0    0  501    0  0.00000000000E+00  0.00000000000E+00  0.22556619514E+04  0.22556619514E+04  0.25500000920E-02 0.  1.
       -2   -1    0    0    0  501  0.00000000000E+00  0.00000000000E+00 -0.14379534118E+04  0.14379534118E+04  0.25500000920E-02 0. -1.
    10030    2    1    2    0    0  0.00000000000E+00  0.00000000000E+00  0.81770853956E+03  0.36936153632E+04  0.36019643523E+04 0.  0.
        4    1    3    3  502    0 -0.89443817319E+03 -0.20631476014E+03  0.19977807170E+04  0.21985710887E+04  0.12699999809E+01 0.  1.
       -4    1    3    3    0  502  0.89443817319E+03  0.20631476014E+03 -0.11800721774E+04  0.14950442745E+04  0.12699999809E+01 0. -1.
</event>
<event>
 5   0  0.1029908E-07  0.3592111E+04  0.7818609E-02  0.8092301E-01
        2   -1    0    0  501    0  0.00000000000E+00  0.00000000000E+00  0.26339728113E+04  0.26339728113E+04  0.25500000920E-02 0.  1.
       -2   -1    0    0    0  501  0.00000000000E+00  0.00000000000E+00 -0.12246958800E+04  0.12246958800E+04  0.25500000920E-02 0. -1.
    10030    2    1    2    0    0  0.00000000000E+00  0.00000000000E+00  0.14092769313E+04  0.38586686913E+04  0.35921111620E+04 0.  0.
        4    1    3    3  502    0 -0.10965617414E+04 -0.14223286061E+04  0.72466948287E+03  0.19366501462E+04  0.12699999809E+01 0.  1.
       -4    1    3    3    0  502  0.10965617414E+04  0.14223286061E+04  0.68460744838E+03  0.19220185451E+04  0.12699999809E+01 0. -1.
</event>
<event>
 5   0  0.1044678E-07  0.3592275E+04  0.7818609E-02  0.8092263E-01
       -2   -1    0    0    0  501  0.00000000000E+00  0.00000000000E+00  0.12753248428E+04  0.12753248428E+04  0.25500000920E-02 0. -1.
        2   -1    0    0  501    0  0.00000000000E+00  0.00000000000E+00 -0.25296378191E+04  0.25296378191E+04  0.25500000920E-02 0.  1.
    10030    2    1    2    0    0  0.00000000000E+00  0.00000000000E+00 -0.12543129763E+04  0.38049626619E+04  0.35922750195E+04 0.  0.
        2    1    3    3  502    0 -0.15974357685E+04 -0.33541736110E+02  0.24189933170E+03  0.16159954732E+04  0.25500000920E-02 0. -1.
       -2    1    3    3    0  502  0.15974357685E+04  0.33541736110E+02 -0.14962123080E+04  0.21889671887E+04  0.25500000920E-02 0.  1.
</event>
<event>
 5   0  0.3202875E-08  0.3603136E+04  0.7818609E-02  0.8089774E-01
        1   -1    0    0  501    0  0.00000000000E+00  0.00000000000E+00  0.18100807677E+04  0.18100807677E+04  0.50400001928E-02 0. -1.
       -1   -1    0    0    0  501  0.00000000000E+00  0.00000000000E+00 -0.17930953768E+04  0.17930953768E+04  0.50400001928E-02 0.  1.
    10030    2    1    2    0    0  0.00000000000E+00  0.00000000000E+00  0.16985390882E+02  0.36031761444E+04  0.36031361096E+04 0.  0.
        2    1    3    3  502    0  0.68578755746E+03 -0.92072273448E+02  0.16719009631E+04  0.18094293874E+04  0.25500000920E-02 0. -1.
       -2    1    3    3    0  502 -0.68578755746E+03  0.92072273448E+02 -0.16549155722E+04  0.17937467571E+04  0.25500000920E-02 0.  1.
</event>
<event>
 5   0  0.3212523E-08  0.3595563E+04  0.7818609E-02  0.8091509E-01
       -1   -1    0    0    0  501  0.00000000000E+00  0.00000000000E+00  0.12958595808E+04  0.12958595808E+04  0.50400001928E-02 0.  1.
        1   -1    0    0  501    0  0.00000000000E+00  0.00000000000E+00 -0.24941117393E+04  0.24941117393E+04  0.50400001928E-02 0. -1.
    10030    2    1    2    0    0  0.00000000000E+00  0.00000000000E+00 -0.11982521586E+04  0.37899713201E+04  0.35955631508E+04 0.  0.
        3    1    3    3  502    0 -0.73845094313E+03  0.15535363947E+04 -0.48145943540E+02  0.17207856249E+04  0.10100000352E+00 0.  1.
       -3    1    3    3    0  502  0.73845094313E+03 -0.15535363947E+04 -0.11501062150E+04  0.20691856951E+04  0.10100000352E+00 0. -1.
</event>
<event>
 5   0  0.9905335E-08  0.3607754E+04  0.7818609E-02  0.8088718E-01
        2   -1    0    0  501    0  0.00000000000E+00  0.00000000000E+00  0.14421774884E+04  0.14421774884E+04  0.25500000920E-02 0. -1.
       -2   -1    0    0    0  501  0.00000000000E+00  0.00000000000E+00 -0.22562912686E+04  0.22562912686E+04  0.25500000920E-02 0.  1.
    10030    2    1    2    0    0  0.00000000000E+00  0.00000000000E+00 -0.81411378017E+03  0.36984687570E+04  0.36077541352E+04 0.  0.
        5    1    3    3  502    0  0.12437055832E+04  0.63158431316E+03  0.76548960091E+03  0.15911312772E+04  0.46999998093E+01 0. -1.
       -5    1    3    3    0  502 -0.12437055832E+04 -0.63158431316E+03 -0.15796033811E+04  0.21073374798E+04  0.46999998093E+01 0.  1.
</event>
<event>
 5   0  0.1017794E-07  0.3598405E+04  0.7818609E-02  0.8090857E-01
        2   -1    0    0  501    0  0.00000000000E+00  0.00000000000E+00  0.19918263306E+04  0.19918263306E+04  0.25500000920E-02 0. -1.
       -2   -1    0    0    0  501  0.00000000000E+00  0.00000000000E+00 -0.16252072017E+04  0.16252072017E+04  0.25500000920E-02 0.  1.
    10030    2    1    2    0    0  0.00000000000E+00  0.00000000000E+00  0.36661912888E+03  0.36170335322E+04  0.35984054785E+04 0.  0.
        1    1    3    3  502    0 -0.93264060726E+02  0.16251368024E+04 -0.58705378369E+03  0.17304334592E+04  0.50400001928E-02 0.  1.
       -1    1    3    3    0  502  0.93264060726E+02 -0.16251368024E+04  0.95367291256E+03  0.18866000731E+04  0.50400001928E-02 0. -1.
</event>
<event>
 5   0  0.3215494E-08  0.3600658E+04  0.7818609E-02  0.8090341E-01
        1   -1    0    0  501    0  0.00000000000E+00  0.00000000000E+00  0.15818640760E+04  0.15818640760E+04  0.50400001928E-02 0.  1.
       -1   -1    0    0    0  501  0.00000000000E+00  0.00000000000E+00 -0.20489647814E+04  0.20489647814E+04  0.50400001928E-02 0. -1.
    10030    2    1    2    0    0  0.00000000000E+00  0.00000000000E+00 -0.46710070546E+03  0.36308288574E+04  0.36006575958E+04 0.  0.
        4    1    3    3  502    0  0.14136363213E+04 -0.10258129066E+04  0.20659586619E+03  0.17587902755E+04  0.12699999809E+01 0.  1.
       -4    1    3    3    0  502 -0.14136363213E+04  0.10258129066E+04 -0.67369657165E+03  0.18720385819E+04  0.12699999809E+01 0. -1.
</event>
<event>
 5   0  0.3215494E-08  0.3591829E+04  0.7818609E-02  0.8092366E-01
        1   -1    0    0  501    0  0.00000000000E+00  0.00000000000E+00  0.13646225470E+04  0.13646225470E+04  0.50400001928E-02 0.  1.
       -1   -1    0    0    0  501  0.00000000000E+00  0.00000000000E+00 -0.23635176631E+04  0.23635176631E+04  0.50400001928E-02 0. -1.
    10030    2    1    2    0    0  0.00000000000E+00  0.00000000000E+00 -0.99889511613E+03  0.37281402101E+04  0.35918293351E+04 0.  0.
        4    1    3    3  502    0 -0.46429595983E+03  0.11615194738E+04  0.83810335842E+03  0.15056948823E+04  0.12699999809E+01 0.  1.
       -4    1    3    3    0  502  0.46429595983E+03 -0.11615194738E+04 -0.18369984746E+04  0.22224453277E+04  0.12699999809E+01 0. -1.
</event>
<event>
 5   0  0.3279988E-08  0.3600538E+04  0.7818609E-02  0.8090369E-01
        1   -1    0    0  501    0  0.00000000000E+00  0.00000000000E+00  0.23311968635E+04  0.23311968635E+04  0.50400001928E-02 0.  1.
       -1   -1    0    0    0  501  0.00000000000E+00  0.00000000000E+00 -0.13902593104E+04  0.13902593104E+04  0.50400001928E-02 0. -1.
    10030    2    1    2    0    0  0.00000000000E+00  0.00000000000E+00  0.94093755302E+03  0.37214561739E+04  0.36005378176E+04 0.  0.
        5    1    3    3  502    0 -0.47788020458E+03  0.14360829621E+04  0.14780097332E+04  0.21154759808E+04  0.46999998093E+01 0. -1.
       -5    1    3    3    0  502  0.47788020458E+03 -0.14360829621E+04 -0.53707218017E+03  0.16059801931E+04  0.46999998093E+01 0.  1.
</event>
<event>
 5   0  0.1029908E-07  0.3612580E+04  0.7818609E-02  0.8087616E-01
        2   -1    0    0  501    0  0.00000000000E+00  0.00000000000E+00  0.18321147878E+04  0.18321147878E+04  0.25500000920E-02 0. -1.
       -2   -1    0    0    0  501  0.00000000000E+00  0.00000000000E+00 -0.17808289886E+04  0.17808289886E+04  0.25500000920E-02 0.  1.
    10030    2    1    2    0    0  0.00000000000E+00  0.00000000000E+00  0.51285799284E+02  0.36129437764E+04  0.36125797567E+04 0.  0.
        4    1    3    3  502    0  0.11760827717E+04 -0.12151027305E+04 -0.60927237628E+03  0.17974592549E+04  0.12699999809E+01 0.  1.
       -4    1    3    3    0  502 -0.11760827717E+04  0.12151027305E+04  0.66055817557E+03  0.18154845215E+04  0.12699999809E+01 0. -1.
</event>
<event>
 5   0  0.3202875E-08  0.3608366E+04  0.7818609E-02  0.8088578E-01
        3   -1    0    0  501    0  0.00000000000E+00  0.00000000000E+00  0.14861151359E+04  0.14861151394E+04  0.10100000352E+00 0.  1.
       -3   -1    0    0    0  501  0.00000000000E+00  0.00000000000E+00 -0.21903259896E+04  0.21903259920E+04  0.10100000352E+00 0. -1.
    10030    2    1    2    0    0  0.00000000000E+00  0.00000000000E+00 -0.70421085372E+03  0.36764411313E+04  0.36083661768E+04 0.  0.
        2    1    3    3  502    0  0.75677848504E+03 -0.97329015382E+03 -0.16941761900E+04  0.20952900424E+04  0.25500000920E-02 0. -1.
       -2    1    3    3    0  502 -0.75677848504E+03  0.97329015382E+03  0.98996533629E+03  0.15811510889E+04  0.25500000920E-02 0.  1.
</event>
<event>
 5   0  0.1021087E-07  0.3596317E+04  0.7818609E-02  0.8091336E-01
        2   -1    0    0  501    0  0.00000000000E+00  0.00000000000E+00  0.21795068843E+04  0.21795068843E+04  0.25500000920E-02 0. -1.
       -2   -1    0    0    0  501  0.00000000000E+00  0.00000000000E+00 -0.14835348082E+04  0.14835348082E+04  0.25500000920E-02 0.  1.
    10030    2    1    2    0    0  0.00000000000E+00  0.00000000000E+00  0.69597207611E+03  0.36630416926E+04  0.35963171872E+04 0.  0.
        3    1    3    3  502    0 -0.13676038305E+04 -0.83381035968E+03  0.11803346279E+04  0.19896657501E+04  0.10100000352E+00 0. -1.
       -3    1    3    3    0  502  0.13676038305E+04  0.83381035968E+03 -0.48436255174E+03  0.16733759425E+04  0.10100000352E+00 0.  1.
</event>
<event>
 5   0  0.1021087E-07  0.3603713E+04  0.7818609E-02  0.8089642E-01
        2   -1    0    0  501    0  0.00000000000E+00  0.00000000000E+00  0.17823730140E+04  0.17823730140E+04  0.25500000920E-02 0. -1.
       -2   -1    0    0    0  501  0.00000000000E+00  0.00000000000E+00 -0.18215527536E+04  0.18215527536E+04  0.25500000920E-02 0.  1.
    10030    2    1    2    0    0  0.00000000000E+00  0.00000000000E+00 -0.39179739673E+02  0.36039257676E+04  0.36037127919E+04 0.  0.
        3    1    3    3  502    0  0.71541513680E+03 -0.15834137045E+04 -0.49676446525E+03  0.18071504425E+04  0.10100000352E+00 0.  1.
       -3    1    3    3    0  502 -0.71541513680E+03  0.15834137045E+04  0.45758472558E+03  0.17967753251E+04  0.10100000352E+00 0. -1.
</event>
<event>
 5   0  0.3279988E-08  0.3600010E+04  0.7818609E-02  0.8090489E-01
       -1   -1    0    0    0  501  0.00000000000E+00  0.00000000000E+00  0.24393108083E+04  0.24393108083E+04  0.50400001928E-02 0. -1.
        1   -1    0    0  501    0  0.00000000000E+00  0.00000000000E+00 -0.13282513985E+04  0.13282513985E+04  0.50400001928E-02 0.  1.
    10030    2    1    2    0    0  0.00000000000E+00  0.00000000000E+00  0.11110594099E+04  0.37675622068E+04  0.36000099958E+04 0.  0.
        5    1    3    3  502    0 -0.56907917950E+03  0.98868143209E+03 -0.90162900734E+03  0.14540629435E+04  0.46999998093E+01 0.  1.
       -5    1    3    3    0  502  0.56907917950E+03 -0.98868143209E+03  0.20126884172E+04  0.23134992633E+04  0.46999998093E+01 0. -1.
</event>
<event>
 5   0  0.1021087E-07  0.3600696E+04  0.7818609E-02  0.8090332E-01
        2   -1    0    0  501    0  0.00000000000E+00  0.00000000000E+00  0.32511849428E+04  0.32511849428E+04  0.25500000920E-02 0.  1.
       -2   -1    0    0    0  501  0.00000000000E+00  0.00000000000E+00 -0.99694528609E+03  0.99694528609E+03  0.25500000920E-02 0. -1.
    10030    2    1    2    0    0  0.00000000000E+00  0.00000000000E+00  0.22542396567E+04  0.42481302289E+04  0.36006963232E+04 0.  0.
        3    1    3    3  502    0  0.16354192207E+04 -0.20834968890E+03  0.27369541514E+03  0.16712016068E+04  0.10100000352E+00 0. -1.
       -3    1    3    3    0  502 -0.16354192207E+04  0.20834968890E+03  0.19805442416E+04  0.25769286221E+04  0.10100000352E+00 0.  1.
</event>
<event>
 5   0  0.1044678E-07  0.3601415E+04  0.7818609E-02  0.8090168E-01
       -2   -1    0    0    0  501  0.00000000000E+00  0.00000000000E+00  0.23879447668E+04  0.23879447668E+04  0.25500000920E-02 0.  1.
        2   -1    0    0  501    0  0.00000000000E+00  0.00000000000E+00 -0.13578819865E+04  0.13578819865E+04  0.25500000920E-02 0. -1.
    10030    2    1    2    0    0  0.00000000000E+00  0.00000000000E+00  0.10300627804E+04  0.37458267533E+04  0.36014148240E+04 0.  0.
        2    1    3    3  502    0 -0.13621705222E+04 -0.87060601977E+03  0.13399836065E+04  0.20997665200E+04  0.25500000920E-02 0.  1.
       -2    1    3    3    0  502  0.13621705222E+04  0.87060601977E+03 -0.30992082607E+03  0.16460602333E+04  0.25500000920E-02 0. -1.
</event>
<event>
 5   0  0.1017794E-07  0.3599123E+04  0.7818609E-02  0.8090693E-01
        2   -1    0    0  501    0  0.00000000000E+00  0.00000000000E+00  0.21502122562E+04  0.21502122562E+04  0.25500000920E-02 0. -1.
       -2   -1    0    0    0  501  0.00000000000E+00  0.00000000000E+00 -0.15060938232E+04  0.15060938232E+04  0.25500000920E-02 0.  1.
    10030    2    1    2    0    0  0.00000000000E+00  0.00000000000E+00  0.64411843301E+03  0.36563060794E+04  0.35991228918E+04 0.  0.
        1    1    3    3  502    0 -0.52133487662E+03 -0.11672656707E+04 -0.96460313378E+03  0.16014863113E+04  0.50400001928E-02 0.  1.
       -1    1    3    3    0  502  0.52133487662E+03  0.11672656707E+04  0.16087215668E+04  0.20548197680E+04  0.50400001928E-02 0. -1.
</event>
<event>
 5   0  0.3212523E-08  0.3614459E+04  0.7818609E-02  0.8087188E-01
       -1   -1    0    0    0  501  0.00000000000E+00  0.00000000000E+00  0.11822904406E+04  0.11822904406E+04  0.50400001928E-02 0. -1.
        1   -1    0    0  501    0  0.00000000000E+00  0.00000000000E+00 -0.27625006927E+04  0.27625006927E+04  0.50400001928E-02 0.  1.
    10030    2    1    2    0    0  0.00000000000E+00  0.00000000000E+00 -0.15802102521E+04  0.39447911333E+04  0.36144588315E+04 0.  0.
        3    1    3    3  502    0  0.11504323522E+04 -0.10854721531E+04 -0.17442674230E+04  0.23546153073E+04  0.10100000352E+00 0.  1.
       -3    1    3    3    0  502 -0.11504323522E+04  0.10854721531E+04  0.16405717093E+03  0.15901758260E+04  0.10100000352E+00 0. -1.
</event>
<event>
 5   0  0.1029908E-07  0.3599441E+04  0.7818609E-02  0.8090620E-01
        2   -1    0    0  501    0  0.00000000000E+00  0.00000000000E+00  0.19354201185E+04  0.19354201185E+04  0.25500000920E-02 0.  1.
       -2   -1    0    0    0  501  0.00000000000E+00  0.00000000000E+00 -0.16735354011E+04  0.16735354012E+04  0.25500000920E-02 0. -1.
    10030    2    1    2    0    0  0.00000000000E+00  0.00000000000E+00  0.26188471737E+03  0.36089555197E+04  0.35994411146E+04 0.  0.
        4    1    3    3  502    0  0.56314160498E+02 -0.17987773812E+04  0.14585176124E+03  0.18055596642E+04  0.12699999809E+01 0. -1.
       -4    1    3    3    0  502 -0.56314160498E+02  0.17987773812E+04  0.11603295613E+03  0.18033958555E+04  0.12699999809E+01 0.  1.
</event>
<event>
 5   0  0.1029908E-07  0.3602391E+04  0.7818609E-02  0.8089944E-01
        2   -1    0    0  501    0  0.00000000000E+00  0.00000000000E+00  0.24848823971E+04  0.24848823971E+04  0.25500000920E-02 0. -1.
       -2   -1    0    0    0  501  0.00000000000E+00  0.00000000000E+00 -0.13056174484E+04  0.13056174484E+04  0.25500000920E-02 0.  1.
    10030    2    1    2    0    0  0.00000000000E+00  0.00000000000E+00  0.11792649487E+04  0.37904998455E+04  0.36023913252E+04 0.  0.
        4    1    3    3  502    0 -0.80914126033E+02  0.63395542974E+03 -0.11823026061E+04  0.13439820117E+04  0.12699999809E+01 0.  1.
       -4    1    3    3    0  502  0.80914126033E+02 -0.63395542974E+03  0.23615675547E+04  0.24465178338E+04  0.12699999809E+01 0. -1.
</event>
<event>
 5   0  0.9905335E-08  0.3595749E+04  0.7818609E-02  0.8091466E-01
        2   -1    0    0  501    0  0.00000000000E+00  0.00000000000E+00  0.24961738013E+04  0.24961738013E+04  0.25500000920E-02 0.  1.
       -2   -1    0    0    0  501  0.00000000000E+00  0.00000000000E+00 -0.12949231405E+04  0.12949231405E+04  0.25500000920E-02 0. -1.
    10030    2    1    2    0    0  0.00000000000E+00  0.00000000000E+00  0.12012506608E+04  0.37910969418E+04  0.35957492783E+04 0.  0.
        5    1    3    3  502    0  0.17387999836E+04 -0.22922125377E+02  0.11933865362E+03  0.17430475069E+04  0.46999998093E+01 0. -1.
       -5    1    3    3    0  502 -0.17387999836E+04  0.22922125377E+02  0.10819120072E+04  0.20480494350E+04  0.46999998093E+01 0.  1.
</event>
<event>
 5   0  0.3215494E-08  0.3603770E+04  0.7818609E-02  0.8089629E-01
       -1   -1    0    0    0  501  0.00000000000E+00  0.00000000000E+00  0.15030506979E+04  0.15030506979E+04  0.50400001928E-02 0. -1.
        1   -1    0    0  501    0  0.00000000000E+00  0.00000000000E+00 -0.21601333828E+04  0.21601333828E+04  0.50400001928E-02 0.  1.
    10030    2    1    2    0    0  0.00000000000E+00  0.00000000000E+00 -0.65708268490E+03  0.36631840806E+04  0.36037702415E+04 0.  0.
        4    1    3    3  502    0 -0.25531010709E+02  0.35130699678E+03  0.14677143872E+04  0.15093891393E+04  0.12699999809E+01 0. -1.
       -4    1    3    3    0  502  0.25531010709E+02 -0.35130699678E+03 -0.21247970721E+04  0.21537949413E+04  0.12699999809E+01 0.  1.
</event>
<event>
 5   0  0.3202875E-08  0.3595925E+04  0.7818609E-02  0.8091426E-01
        1   -1    0    0  501    0  0.00000000000E+00  0.00000000000E+00  0.17674745287E+04  0.17674745287E+04  0.50400001928E-02 0. -1.
       -1   -1    0    0    0  501  0.00000000000E+00  0.00000000000E+00 -0.18289768134E+04  0.18289768135E+04  0.50400001928E-02 0.  1.
    10030    2    1    2    0    0  0.00000000000E+00  0.00000000000E+00 -0.61502284743E+02  0.35964513422E+04  0.35959254338E+04 0.  0.
        2    1    3    3  502    0 -0.35417005320E+03  0.17597200432E+04  0.72311851854E+02  0.17964632089E+04  0.25500000920E-02 0.  1.
       -2    1    3    3    0  502  0.35417005320E+03 -0.17597200432E+04 -0.13381413660E+03  0.17999881333E+04  0.25500000920E-02 0. -1.
</event>
<event>
 5   0  0.1021087E-07  0.3598600E+04  0.7818609E-02  0.8090812E-01
        2   -1    0    0  501    0  0.00000000000E+00  0.00000000000E+00  0.16801811255E+04  0.16801811255E+04  0.25500000920E-02 0.  1.
       -2   -1    0    0    0  501  0.00000000000E+00  0.00000000000E+00 -0.19268639453E+04  0.19268639453E+04  0.25500000920E-02 0. -1.
    10030    2    1    2    0    0  0.00000000000E+00  0.00000000000E+00 -0.24668281974E+03  0.36070450708E+04  0.35985999680E+04 0.  0.
        3    1    3    3  502    0 -0.42132217687E+03  0.15637200946E+04 -0.90923977765E+03  0.18572694727E+04  0.10100000352E+00 0. -1.
       -3    1    3    3    0  502  0.42132217687E+03 -0.15637200946E+04  0.66255695790E+03  0.17497755981E+04  0.10100000352E+00 0.  1.
</event>
<event>
 5   0  0.1017794E-07  0.3595752E+04  0.7818609E-02  0.8091465E-01
       -2   -1    0    0    0  501  0.00000000000E+00  0.00000000000E+00  0.12270084897E+04  0.12270084897E+04  0.25500000920E-02 0.  1.
        2   -1    0    0  501    0  0.00000000000E+00  0.00000000000E+00 -0.26343406580E+04  0.26343406580E+04  0.25500000920E-02 0. -1.
    10030    2    1    2    0    0  0.00000000000E+00  0.00000000000E+00 -0.14073321683E+04  0.38613491477E+04  0.35957521339E+04 0.  0.
        1    1    3    3  502    0 -0.43300024260E+03 -0.17436409959E+04 -0.77638198537E+03  0.19571770793E+04  0.50400001928E-02 0.  1.
       -1    1    3    3    0  502  0.43300024260E+03  0.17436409959E+04 -0.63095018288E+03  0.19041720684E+04  0.50400001928E-02 0. -1.
</event>
<event>
 5   0  0.1029908E-07  0.3606125E+04  0.7818609E-02  0.8089090E-01
       -2   -1    0    0    0  501  0.00000000000E+00  0.00000000000E+00  0.20560924783E+04  0.20560924784E+04  0.25500000920E-02 0. -1.
        2   -1    0    0  501    0  0.00000000000E+00  0.00000000000E+00 -0.15811714710E+04  0.15811714710E+04  0.25500000920E-02 0.  1.
    10030    2    1    2    0    0  0.00000000000E+00  0.00000000000E+00  0.47492100732E+03  0.36372639494E+04  0.36061252161E+04 0.  0.
        4    1    3    3  502    0  0.53975436822E+03  0.12479469181E+04 -0.95696383069E+03  0.16626748553E+04  0.12699999809E+01 0.  1.
       -4    1    3    3    0  502 -0.53975436822E+03 -0.12479469181E+04  0.14318848380E+04  0.19745890941E+04  0.12699999809E+01 0. -1.
</event>
<event>
 5   0  0.3212523E-08  0.3600432E+04  0.7818609E-02  0.8090393E-01
        1   -1    0    0  501    0  0.00000000000E+00  0.00000000000E+00  0.24817147787E+04  0.24817147788E+04  0.50400001928E-02 0. -1.
       -1   -1    0    0    0  501  0.00000000000E+00  0.00000000000E+00 -0.13058623944E+04  0.13058623944E+04  0.50400001928E-02 0.  1.
    10030    2    1    2    0    0  0.00000000000E+00  0.00000000000E+00  0.11758523843E+04  0.37875771732E+04  0.36004321981E+04 0.  0.
        3    1    3    3  502    0 -0.15383660035E+04 -0.89240594802E+03  0.29446443914E+03  0.18026834589E+04  0.10100000352E+00 0.  1.
       -3    1    3    3    0  502  0.15383660035E+04  0.89240594802E+03  0.88138794518E+03  0.19848937143E+04  0.10100000352E+00 0. -1.
</event>
<event>
 5   0  0.3202875E-08  0.3611066E+04  0.7818609E-02  0.8087962E-01
       -1   -1    0    0    0  501  0.00000000000E+00  0.00000000000E+00  0.16345760331E+04  0.16345760331E+04  0.50400001928E-02 0.  1.
        1   -1    0    0  501    0  0.00000000000E+00  0.00000000000E+00 -0.19943699761E+04  0.19943699761E+04  0.50400001928E-02 0. -1.
    10030    2    1    2    0    0  0.00000000000E+00  0.00000000000E+00 -0.35979394301E+03  0.36289460092E+04  0.36110659723E+04 0.  0.
        1    1    3    3  502    0 -0.90670597390E+03 -0.91857160619E+03 -0.14487093151E+04  0.19402701355E+04  0.50400001928E-02 0. -1.
       -1    1    3    3    0  502  0.90670597390E+03  0.91857160619E+03  0.10889153721E+04  0.16886758737E+04  0.50400001928E-02 0.  1.
</event>
<event>
 5   0  0.3215494E-08  0.3579816E+04  0.7818609E-02  0.8095131E-01
       -1   -1    0    0    0  501  0.00000000000E+00  0.00000000000E+00  0.18260045819E+04  0.18260045819E+04  0.50400001928E-02 0.  1.
        1   -1    0    0  501    0  0.00000000000E+00  0.00000000000E+00 -0.17545250849E+04  0.17545250849E+04  0.50400001928E-02 0. -1.
    10030    2    1    2    0    0  0.00000000000E+00  0.00000000000E+00  0.71479496975E+02  0.35805296668E+04  0.35798161093E+04 0.  0.
        4    1    3    3  502    0  0.14614405263E+04  0.79852638668E+03 -0.62037609060E+03  0.17771665394E+04  0.12699999809E+01 0. -1.
       -4    1    3    3    0  502 -0.14614405263E+04 -0.79852638668E+03  0.69185558758E+03  0.18033631274E+04  0.12699999809E+01 0.  1.
</event>
<event>
 5   0  0.1017794E-07  0.3594879E+04  0.7818609E-02  0.8091666E-01
        2   -1    0    0  501    0  0.00000000000E+00  0.00000000000E+00  0.20409467849E+04  0.20409467849E+04  0.25500000920E-02 0.  1.
       -2   -1    0    0    0  501  0.00000000000E+00  0.00000000000E+00 -0.15829856611E+04  0.15829856611E+04  0.25500000920E-02 0. -1.
    10030    2    1    2    0    0  0.00000000000E+00  0.00000000000E+00  0.45796112379E+03  0.36239324459E+04  0.35948794113E+04 0.  0.
        1    1    3    3  502    0 -0.13294196881E+04 -0.11088284358E+04 -0.25859378895E+03  0.17503508091E+04  0.50400001928E-02 0.  1.
       -1    1    3    3    0  502  0.13294196881E+04  0.11088284358E+04  0.71655491274E+03  0.18735816369E+04  0.50400001928E-02 0. -1.
</event>
<event>
 5   0  0.1029908E-07  0.3601334E+04  0.7818609E-02  0.8090186E-01
       -2   -1    0    0    0  501  0.00000000000E+00  0.00000000000E+00  0.20529393885E+04  0.20529393885E+04  0.25500000920E-02 0. -1.
        2   -1    0    0  501    0  0.00000000000E+00  0.00000000000E+00 -0.15793948168E+04  0.15793948168E+04  0.25500000920E-02 0.  1.
    10030    2    1    2    0    0  0.00000000000E+00  0.00000000000E+00  0.47354457168E+03  0.36323342054E+04  0.36013341025E+04 0.  0.
        4    1    3    3  502    0 -0.23562793998E+03 -0.17810644694E+04  0.35901393136E+03  0.18321036505E+04  0.12699999809E+01 0.  1.
       -4    1    3    3    0  502  0.23562793998E+03  0.17810644694E+04  0.11453064032E+03  0.18002305549E+04  0.12699999809E+01 0. -1.
</event>
<event>
 5   0  0.3279988E-08  0.3600379E+04  0.7818609E-02  0.8090405E-01
        1   -1    0    0  501    0  0.00000000000E+00  0.00000000000E+00  0.24675164146E+04  0.24675164146E+04  0.50400001928E-02 0.  1.
       -1   -1    0    0    0  501  0.00000000000E+00  0.00000000000E+00 -0.13133377340E+04  0.13133377340E+04  0.50400001928E-02 0. -1.
    10030    2    1    2    0    0  0.00000000000E+00  0.00000000000E+00  0.11541786807E+04  0.37808541486E+04  0.36003791003E+04 0.  0.
        5    1    3    3  502    0 -0.66889872685E+03  0.15778579400E+04  0.11557073691E+04  0.20670613921E+04  0.46999998093E+01 0.  1.
       -5    1    3    3    0  502  0.66889872685E+03 -0.15778579400E+04 -0.15286884210E+01  0.17137927566E+04  0.46999998093E+01 0. -1.
</event>
<event>
 5   0  0.1017794E-07  0.3521030E+04  0.7818609E-02  0.8108824E-01
       -2   -1    0    0    0  501  0.00000000000E+00  0.00000000000E+00  0.18358096412E+04  0.18358096412E+04  0.25500000920E-02 0.  1.
        2   -1    0    0  501    0  0.00000000000E+00  0.00000000000E+00 -0.16883088317E+04  0.16883088317E+04  0.25500000920E-02 0. -1.
    10030    2    1    2    0    0  0.00000000000E+00  0.00000000000E+00  0.14750080951E+03  0.35241184730E+04  0.35210303212E+04 0.  0.
        1    1    3    3  502    0  0.72233575510E+03 -0.87381172723E+03  0.14218161637E+04  0.18184820816E+04  0.50400001928E-02 0.  1.
       -1    1    3    3    0  502 -0.72233575510E+03  0.87381172723E+03 -0.12743153542E+04  0.17056363914E+04  0.50400001928E-02 0. -1.
</event>
<event>
 5   0  0.3212523E-08  0.3604200E+04  0.7818609E-02  0.8089530E-01
        1   -1    0    0  501    0  0.00000000000E+00  0.00000000000E+00  0.16567949405E+04  0.16567949406E+04  0.50400001928E-02 0.  1.
       -1   -1    0    0    0  501  0.00000000000E+00  0.00000000000E+00 -0.19601485954E+04  0.19601485954E+04  0.50400001928E-02 0. -1.
    10030    2    1    2    0    0  0.00000000000E+00  0.00000000000E+00 -0.30335365483E+03  0.36169435359E+04  0.36041999254E+04 0.  0.
        3    1    3    3  502    0  0.22460817158E+03 -0.11011167123E+04 -0.15654366386E+04  0.19270440380E+04  0.10100000352E+00 0. -1.
       -3    1    3    3    0  502 -0.22460817158E+03  0.11011167123E+04  0.12620829838E+04  0.16898994979E+04  0.10100000352E+00 0.  1.
</event>
<event>
 5   0  0.3202875E-08  0.3602149E+04  0.7818609E-02  0.8090000E-01
       -3   -1    0    0    0  501  0.00000000000E+00  0.00000000000E+00  0.11514946242E+04  0.11514946286E+04  0.10100000352E+00 0. -1.
        3   -1    0    0  501    0  0.00000000000E+00  0.00000000000E+00 -0.28170948809E+04  0.28170948827E+04  0.10100000352E+00 0.  1.
    10030    2    1    2    0    0  0.00000000000E+00  0.00000000000E+00 -0.16656002567E+04  0.39685895114E+04  0.36021491494E+04 0.  0.
        3    1    3    3  502    0  0.31444336108E+03  0.28289216410E+03  0.10960007328E+04  0.11747851805E+04  0.10100000352E+00 0. -1.
       -3    1    3    3    0  502 -0.31444336108E+03 -0.28289216410E+03 -0.27616009895E+04  0.27938043309E+04  0.10100000352E+00 0.  1.
</event>
<event>
 5   0  0.3279988E-08  0.3588005E+04  0.7818609E-02  0.8093245E-01
        1   -1    0    0  501    0  0.00000000000E+00  0.00000000000E+00  0.23126598963E+04  0.23126598964E+04  0.50400001928E-02 0. -1.
       -1   -1    0    0    0  501  0.00000000000E+00  0.00000000000E+00 -0.13916637456E+04  0.13916637456E+04  0.50400001928E-02 0.  1.
    10030    2    1    2    0    0  0.00000000000E+00  0.00000000000E+00  0.92099615075E+03  0.37043236420E+04  0.35880049797E+04 0.  0.
        5    1    3    3  502    0  0.34527973804E+03 -0.15862998637E+04 -0.32770309725E+03  0.16561934564E+04  0.46999998093E+01 0.  1.
       -5    1    3    3    0  502 -0.34527973804E+03  0.15862998637E+04  0.12486992480E+04  0.20481301856E+04  0.46999998093E+01 0. -1.
</event>
<event>
 5   0  0.3202875E-08  0.3561171E+04  0.7818609E-02  0.8099444E-01
       -1   -1    0    0    0  501  0.00000000000E+00  0.00000000000E+00  0.15968102257E+04  0.15968102257E+04  0.50400001928E-02 0.  1.
        1   -1    0    0  501    0  0.00000000000E+00  0.00000000000E+00 -0.19855116823E+04  0.19855116823E+04  0.50400001928E-02 0. -1.
    10030    2    1    2    0    0  0.00000000000E+00  0.00000000000E+00 -0.38870145660E+03  0.35823219080E+04  0.35611713565E+04 0.  0.
        2    1    3    3  502    0  0.62301153208E+03 -0.11747339641E+04  0.99688777947E+03  0.16619050817E+04  0.25500000920E-02 0.  1.
       -2    1    3    3    0  502 -0.62301153208E+03  0.11747339641E+04 -0.13855892361E+04  0.19204168263E+04  0.25500000920E-02 0. -1.
</event>
<event>
 5   0  0.9905335E-08  0.3563858E+04  0.7818609E-02  0.8098821E-01
        2   -1    0    0  501    0  0.00000000000E+00  0.00000000000E+00  0.12366920498E+04  0.12366920498E+04  0.25500000920E-02 0.  1.
       -2   -1    0    0    0  501  0.00000000000E+00  0.00000000000E+00 -0.25675517563E+04  0.25675517563E+04  0.25500000920E-02 0. -1.
    10030    2    1    2    0    0  0.00000000000E+00  0.00000000000E+00 -0.13308597065E+04  0.38042438061E+04  0.35638579346E+04 0.  0.
        5    1    3    3  502    0 -0.10154754577E+04  0.84784423230E+02  0.89497396618E+03  0.13562371819E+04  0.46999998093E+01 0.  1.
       -5    1    3    3    0  502  0.10154754577E+04 -0.84784423230E+02 -0.22258336727E+04  0.24480066242E+04  0.46999998093E+01 0. -1.
</event>
<event>
 5   0  0.1029908E-07  0.3598253E+04  0.7818609E-02  0.8090892E-01
        2   -1    0    0  501    0  0.00000000000E+00  0.00000000000E+00  0.21743353296E+04  0.21743353296E+04  0.25500000920E-02 0. -1.
       -2   -1    0    0    0  501  0.00000000000E+00  0.00000000000E+00 -0.14886642913E+04  0.14886642913E+04  0.25500000920E-02 0.  1.
    10030    2    1    2    0    0  0.00000000000E+00  0.00000000000E+00  0.68567103827E+03  0.36629996209E+04  0.35982525551E+04 0.  0.
        4    1    3    3  502    0  0.17675393105E+04 -0.62223553468E+02  0.67859884826E+03  0.18943508108E+04  0.12699999809E+01 0. -1.
       -4    1    3    3    0  502 -0.17675393105E+04  0.62223553468E+02  0.70721900143E+01  0.17686488101E+04  0.12699999809E+01 0.  1.
</event>
<event>
 5   0  0.3202875E-08  0.3610517E+04  0.7818609E-02  0.8088087E-01
       -1   -1    0    0    0  501  0.00000000000E+00  0.00000000000E+00  0.25680525372E+04  0.25680525373E+04  0.50400001928E-02 0. -1.
        1   -1    0    0  501    0  0.00000000000E+00  0.00000000000E+00 -0.12690391063E+04  0.12690391063E+04  0.50400001928E-02 0.  1.
    10030    2    1    2    0    0  0.00000000000E+00  0.00000000000E+00  0.12990134310E+04  0.38370916435E+04  0.36105174680E+04 0.  0.
        1    1    3    3  502    0  0.18668191554E+03  0.14763832439E+04  0.17355983281E+04  0.22862325291E+04  0.50400001928E-02 0. -1.
       -1    1    3    3    0  502 -0.18668191554E+03 -0.14763832439E+04 -0.43658489710E+03  0.15508591145E+04  0.50400001928E-02 0.  1.
</event>
<event>
 5   0  0.9905335E-08  0.3585554E+04  0.7818609E-02  0.8093809E-01
       -2   -1    0    0    0  501  0.00000000000E+00  0.00000000000E+00  0.28389763754E+04  0.28389763754E+04  0.25500000920E-02 0.  1.
        2   -1    0    0  501    0  0.00000000000E+00  0.00000000000E+00 -0.11321157530E+04  0.11321157530E+04  0.25500000920E-02 0. -1.
    10030    2    1    2    0    0  0.00000000000E+00  0.00000000000E+00  0.17068606224E+04  0.39710921284E+04  0.35855542818E+04 0.  0.
        5    1    3    3  502    0 -0.40850199294E+03  0.32532488373E+03  0.27528661321E+04  0.28019643448E+04  0.46999998093E+01 0.  1.
       -5    1    3    3    0  502  0.40850199294E+03 -0.32532488373E+03 -0.10460055097E+04  0.11691277836E+04  0.46999998093E+01 0. -1.
</event>
<event>
 5   0  0.3279988E-08  0.3599706E+04  0.7818609E-02  0.8090559E-01
       -1   -1    0    0    0  501  0.00000000000E+00  0.00000000000E+00  0.14966960467E+04  0.14966960467E+04  0.50400001928E-02 0. -1.
        1   -1    0    0  501    0  0.00000000000E+00  0.00000000000E+00 -0.21644146614E+04  0.21644146614E+04  0.50400001928E-02 0.  1.
    10030    2    1    2    0    0  0.00000000000E+00  0.00000000000E+00 -0.66771861470E+03  0.36611107081E+04  0.35997060253E+04 0.  0.
        5    1    3    3  502    0 -0.16507021360E+04 -0.30881451898E+03 -0.99241126085E+03  0.19506630026E+04  0.46999998093E+01 0.  1.
       -5    1    3    3    0  502  0.16507021360E+04  0.30881451898E+03  0.32469264615E+03  0.17104477055E+04  0.46999998093E+01 0. -1.
</event>
<event>
 5   0  0.1021087E-07  0.3599245E+04  0.7818609E-02  0.8090665E-01
       -2   -1    0    0    0  501  0.00000000000E+00  0.00000000000E+00  0.14892240928E+04  0.14892240928E+04  0.25500000920E-02 0.  1.
        2   -1    0    0  501    0  0.00000000000E+00  0.00000000000E+00 -0.21747176197E+04  0.21747176197E+04  0.25500000920E-02 0. -1.
    10030    2    1    2    0    0  0.00000000000E+00  0.00000000000E+00 -0.68549352691E+03  0.36639417125E+04  0.35992454067E+04 0.  0.
        3    1    3    3  502    0 -0.16759198828E+03  0.69892678907E+03 -0.20222685253E+04  0.21461956411E+04  0.10100000352E+00 0. -1.
       -3    1    3    3    0  502  0.16759198828E+03 -0.69892678907E+03  0.13367749984E+04  0.15177460715E+04  0.10100000352E+00 0.  1.
</event>
<event>
 5   0  0.9905335E-08  0.3599011E+04  0.7818609E-02  0.8090718E-01
       -2   -1    0    0    0  501  0.00000000000E+00  0.00000000000E+00  0.35576259673E+04  0.35576259673E+04  0.25500000920E-02 0.  1.
        2   -1    0    0  501    0  0.00000000000E+00  0.00000000000E+00 -0.91021960552E+03  0.91021960552E+03  0.25500000920E-02 0. -1.
    10030    2    1    2    0    0  0.00000000000E+00  0.00000000000E+00  0.26474063617E+04  0.44678455728E+04  0.35990114779E+04 0.  0.
        5    1    3    3  502    0 -0.28317440843E+03  0.16548389128E+04  0.51963872487E+03  0.17574771883E+04  0.46999998093E+01 0.  1.
       -5    1    3    3    0  502  0.28317440843E+03 -0.16548389128E+04  0.21277676369E+04  0.27103683845E+04  0.46999998093E+01 0. -1.
</event>
<event>
 5   0  0.3215494E-08  0.3600245E+04  0.7818609E-02  0.8090436E-01
        1   -1    0    0  501    0  0.00000000000E+00  0.00000000000E+00  0.22007665918E+04  0.22007665918E+04  0.50400001928E-02 0. -1.
       -1   -1    0    0    0  501  0.00000000000E+00  0.00000000000E+00 -0.14724144335E+04  0.14724144335E+04  0.50400001928E-02 0.  1.
    10030    2    1    2    0    0  0.00000000000E+00  0.00000000000E+00  0.72835215835E+03  0.36731810253E+04  0.36002447109E+04 0.  0.
        4    1    3    3  502    0 -0.93572331523E+03 -0.11226489369E+03 -0.12006019100E+04  0.15263119236E+04  0.12699999809E+01 0.  1.
       -4    1    3    3    0  502  0.93572331523E+03  0.11226489369E+03  0.19289540684E+04  0.21468691017E+04  0.12699999809E+01 0. -1.
</event>
<event>
 5   0  0.1021087E-07  0.3597208E+04  0.7818609E-02  0.8091132E-01
       -2   -1    0    0    0  501  0.00000000000E+00  0.00000000000E+00  0.14297327260E+04  0.14297327260E+04  0.25500000920E-02 0.  1.
        2   -1    0    0  501    0  0.00000000000E+00  0.00000000000E+00 -0.22626438512E+04  0.22626438512E+04  0.25500000920E-02 0. -1.
    10030    2    1    2    0    0  0.00000000000E+00  0.00000000000E+00 -0.83291112523E+03  0.36923765772E+04  0.35972077846E+04 0.  0.
        3    1    3    3  502    0 -0.14600863151E+04 -0.58529295884E+03  0.47871558754E+03  0.16442592615E+04  0.10100000352E+00 0.  1.
       -3    1    3    3    0  502  0.14600863151E+04  0.58529295884E+03 -0.13116267128E+04  0.20481173157E+04  0.10100000352E+00 0. -1.
</event>
<event>
 5   0  0.1044678E-07  0.3594958E+04  0.7818609E-02  0.8091648E-01
        2   -1    0    0  501    0  0.00000000000E+00  0.00000000000E+00  0.23818163316E+04  0.23818163316E+04  0.25500000920E-02 0.  1.
       -2   -1    0    0    0  501  0.00000000000E+00  0.00000000000E+00 -0.13564984441E+04  0.13564984441E+04  0.25500000920E-02 0. -1.
    10030    2    1    2    0    0  0.00000000000E+00  0.00000000000E+00  0.10253178876E+04  0.37383147757E+04  0.35949576620E+04 0.  0.
        2    1    3    3  502    0 -0.48202353194E+03  0.13225986985E+04 -0.64964112495E+03  0.15503701474E+04  0.25500000920E-02 0. -1.
       -2    1    3    3    0  502  0.48202353194E+03 -0.13225986985E+04  0.16749590125E+04  0.21879446283E+04  0.25500000920E-02 0.  1.
</event>
<event>
 5   0  0.1029908E-07  0.3600011E+04  0.7818609E-02  0.8090489E-01
       -2   -1    0    0    0  501  0.00000000000E+00  0.00000000000E+00  0.17124446275E+04  0.17124446275E+04  0.25500000920E-02 0. -1.
        2   -1    0    0  501    0  0.00000000000E+00  0.00000000000E+00 -0.18920431503E+04  0.18920431503E+04  0.25500000920E-02 0.  1.
    10030    2    1    2    0    0  0.00000000000E+00  0.00000000000E+00 -0.17959852277E+03  0.36044877777E+04  0.36000106264E+04 0.  0.
        4    1    3    3  502    0 -0.94685621588E+03 -0.12231817794E+04 -0.10114369193E+04  0.18481657430E+04  0.12699999809E+01 0. -1.
       -4    1    3    3    0  502  0.94685621588E+03  0.12231817794E+04  0.83183839653E+03  0.17563220348E+04  0.12699999809E+01 0.  1.
</event>
<event>
 5   0  0.9905335E-08  0.3587585E+04  0.7818609E-02  0.8093341E-01
       -2   -1    0    0    0  501  0.00000000000E+00  0.00000000000E+00  0.13590848656E+04  0.13590848656E+04  0.25500000920E-02 0.  1.
        2   -1    0    0  501    0  0.00000000000E+00  0.00000000000E+00 -0.23675425160E+04  0.23675425160E+04  0.25500000920E-02 0. -1.
    10030    2    1    2    0    0  0.00000000000E+00  0.00000000000E+00 -0.10084576503E+04  0.37266273816E+04  0.35875848156E+04 0.  0.
        5    1    3    3  502    0  0.11221926439E+04 -0.82258046372E+03 -0.16802344124E+04  0.21815509895E+04  0.46999998093E+01 0. -1.
       -5    1    3    3    0  502 -0.11221926439E+04  0.82258046372E+03  0.67177676207E+03  0.15450763921E+04  0.46999998093E+01 0.  1.
</event>
<event>
 5   0  0.1017794E-07  0.3697772E+04  0.7818609E-02  0.8068456E-01
        2   -1    0    0  501    0  0.00000000000E+00  0.00000000000E+00  0.13120797847E+04  0.13120797847E+04  0.25500000920E-02 0.  1.
       -2   -1    0    0    0  501  0.00000000000E+00  0.00000000000E+00 -0.26053130850E+04  0.26053130850E+04  0.25500000920E-02 0. -1.
    10030    2    1    2    0    0  0.00000000000E+00  0.00000000000E+00 -0.12932333003E+04  0.39173928697E+04  0.36977715623E+04 0.  0.
        1    1    3    3  502    0  0.36253959667E+03 -0.14933167682E+04  0.44252409444E+03  0.15991427402E+04  0.50400001928E-02 0.  1.
       -1    1    3    3    0  502 -0.36253959667E+03  0.14933167682E+04 -0.17357573947E+04  0.23182501295E+04  0.50400001928E-02 0. -1.
</event>
<event>
 5   0  0.1017794E-07  0.3604685E+04  0.7818609E-02  0.8089419E-01
        2   -1    0    0  501    0  0.00000000000E+00  0.00000000000E+00  0.21900408075E+04  0.21900408075E+04  0.25500000920E-02 0.  1.
       -2   -1    0    0    0  501  0.00000000000E+00  0.00000000000E+00 -0.14832778642E+04  0.14832778642E+04  0.25500000920E-02 0. -1.
    10030    2    1    2    0    0  0.00000000000E+00  0.00000000000E+00  0.70676294327E+03  0.36733186717E+04  0.36046853130E+04 0.  0.
        1    1    3    3  502    0  0.14269245230E+04  0.21062440269E+02 -0.76843389958E+03  0.16208170405E+04  0.50400001928E-02 0. -1.
       -1    1    3    3    0  502 -0.14269245230E+04 -0.21062440269E+02  0.14751968429E+04  0.20525016312E+04  0.50400001928E-02 0.  1.
</event>
<event>
 5   0  0.3202875E-08  0.3607311E+04  0.7818609E-02  0.8088819E-01
       -1   -1    0    0    0  501  0.00000000000E+00  0.00000000000E+00  0.18496194594E+04  0.18496194594E+04  0.50400001928E-02 0.  1.
        1   -1    0    0  501    0  0.00000000000E+00  0.00000000000E+00 -0.17588341386E+04  0.17588341386E+04  0.50400001928E-02 0. -1.
    10030    2    1    2    0    0  0.00000000000E+00  0.00000000000E+00  0.90785320848E+02  0.36084535980E+04  0.36073113803E+04 0.  0.
        1    1    3    3  502    0 -0.92986177192E+02  0.16379873894E+04 -0.70419415234E+03  0.17853678952E+04  0.50400001928E-02 0.  1.
       -1    1    3    3    0  502  0.92986177192E+02 -0.16379873894E+04  0.79497947319E+03  0.18230857028E+04  0.50400001928E-02 0. -1.
</event>
<event>
 5   0  0.3202875E-08  0.3585121E+04  0.7818609E-02  0.8093908E-01
       -1   -1    0    0    0  501  0.00000000000E+00  0.00000000000E+00  0.13509428928E+04  0.13509428928E+04  0.50400001928E-02 0. -1.
        1   -1    0    0  501    0  0.00000000000E+00  0.00000000000E+00 -0.23785412713E+04  0.23785412713E+04  0.50400001928E-02 0.  1.
    10030    2    1    2    0    0  0.00000000000E+00  0.00000000000E+00 -0.10275983785E+04  0.37294841641E+04  0.35851211559E+04 0.  0.
        2    1    3    3  502    0  0.15359453858E+04  0.17056722213E+03  0.43110026150E+03  0.16043904889E+04  0.25500000920E-02 0. -1.
       -2    1    3    3    0  502 -0.15359453858E+04 -0.17056722213E+03 -0.14586986400E+04  0.21250936751E+04  0.25500000920E-02 0.  1.
</event>
<event>
 5   0  0.1017794E-07  0.3599178E+04  0.7818609E-02  0.8090680E-01
        2   -1    0    0  501    0  0.00000000000E+00  0.00000000000E+00  0.16427959663E+04  0.16427959663E+04  0.25500000920E-02 0. -1.
       -2   -1    0    0    0  501  0.00000000000E+00  0.00000000000E+00 -0.19713472651E+04  0.19713472651E+04  0.25500000920E-02 0.  1.
    10030    2    1    2    0    0  0.00000000000E+00  0.00000000000E+00 -0.32855129878E+03  0.36141432315E+04  0.35991784259E+04 0.  0.
        1    1    3    3  502    0  0.12138093900E+04  0.11531190427E+04  0.49839592723E+03  0.17468300610E+04  0.50400001928E-02 0. -1.
       -1    1    3    3    0  502 -0.12138093900E+04 -0.11531190427E+04 -0.82694722600E+03  0.18673131704E+04  0.50400001928E-02 0.  1.
</event>
<event>
 5   0  0.3279988E-08  0.3602902E+04  0.7818609E-02  0.8089827E-01
        1   -1    0    0  501    0  0.00000000000E+00  0.00000000000E+00  0.10398615593E+04  0.10398615593E+04  0.50400001928E-02 0.  1.
       -1   -1    0    0    0  501  0.00000000000E+00  0.00000000000E+00 -0.31208250058E+04  0.31208250058E+04  0.50400001928E-02 0. -1.
    10030    2    1    2    0    0  0.00000000000E+00  0.00000000000E+00 -0.20809634465E+04  0.41606865651E+04  0.36029021396E+04 0.  0.
        5    1    3    3  502    0  0.11109608749E+04  0.57273478510E+03 -0.25386046590E+04  0.28296280505E+04  0.46999998093E+01 0. -1.
       -5    1    3    3    0  502 -0.11109608749E+04 -0.57273478510E+03  0.45764121252E+03  0.13310585145E+04  0.46999998093E+01 0.  1.
</event>
<event>
 5   0  0.9905335E-08  0.3605047E+04  0.7818609E-02  0.8089337E-01
        2   -1    0    0  501    0  0.00000000000E+00  0.00000000000E+00  0.22445097567E+04  0.22445097567E+04  0.25500000920E-02 0. -1.
       -2   -1    0    0    0  501  0.00000000000E+00  0.00000000000E+00 -0.14475725820E+04  0.14475725820E+04  0.25500000920E-02 0.  1.
    10030    2    1    2    0    0  0.00000000000E+00  0.00000000000E+00  0.79693717472E+03  0.36920823387E+04  0.36050468978E+04 0.  0.
        5    1    3    3  502    0 -0.12092804186E+04  0.26553756514E+03  0.17401343194E+04  0.21356401544E+04  0.46999998093E+01 0. -1.
       -5    1    3    3    0  502  0.12092804186E+04 -0.26553756514E+03 -0.94319714467E+03  0.15564421843E+04  0.46999998093E+01 0.  1.
</event>
<event>
 5   0  0.3212523E-08  0.3600376E+04  0.7818609E-02  0.8090406E-01
       -1   -1    0    0    0  501  0.00000000000E+00  0.00000000000E+00  0.11826569478E+04  0.11826569478E+04  0.50400001928E-02 0.  1.
        1   -1    0    0  501    0  0.00000000000E+00  0.00000000000E+00 -0.27401667014E+04  0.27401667014E+04  0.50400001928E-02 0. -1.
    10030    2    1    2    0    0  0.00000000000E+00  0.00000000000E+00 -0.15575097536E+04  0.39228236492E+04  0.36003761957E+04 0.  0.
        3    1    3    3  502    0  0.47949803977E+03 -0.11779326052E+04  0.60941115492E+03  0.14102572668E+04  0.10100000352E+00 0.  1.
       -3    1    3    3    0  502 -0.47949803977E+03  0.11779326052E+04 -0.21669209085E+04  0.25125663825E+04  0.10100000352E+00 0. -1.
</event>
<event>
 5   0  0.1044678E-07  0.3603225E+04  0.7818609E-02  0.8089753E-01
       -2   -1    0    0    0  501  0.00000000000E+00  0.00000000000E+00  0.21542340954E+04  0.21542340954E+04  0.25500000920E-02 0. -1.
        2   -1    0    0  501    0  0.00000000000E+00  0.00000000000E+00 -0.15067107917E+04  0.15067107917E+04  0.25500000920E-02 0.  1.
    10030    2    1    2    0    0  0.00000000000E+00  0.00000000000E+00  0.64752330367E+03  0.36609448871E+04  0.36032250884E+04 0.  0.
        2    1    3    3  502    0  0.10992003026E+03  0.16874347578E+04  0.95523951236E+03  0.19421639995E+04  0.25500000920E-02 0. -1.
       -2    1    3    3    0  502 -0.10992003026E+03 -0.16874347578E+04 -0.30771620869E+03  0.17187808877E+04  0.25500000920E-02 0.  1.
</event>
<event>
 5   0  0.3215494E-08  0.3601397E+04  0.7818609E-02  0.8090172E-01
        1   -1    0    0  501    0  0.00000000000E+00  0.00000000000E+00  0.21488438244E+04  0.21488438244E+04  0.50400001928E-02 0. -1.
       -1   -1    0    0    0  501  0.00000000000E+00  0.00000000000E+00 -0.15089577743E+04  0.15089577743E+04  0.50400001928E-02 0.  1.
    10030    2    1    2    0    0  0.00000000000E+00  0.00000000000E+00  0.63988605005E+03  0.36578015987E+04  0.36013967261E+04 0.  0.
        4    1    3    3  502    0  0.17285593890E+04  0.49758394682E+03  0.40495360317E+03  0.18437723230E+04  0.12699999809E+01 0.  1.
       -4    1    3    3    0  502 -0.17285593890E+04 -0.49758394682E+03  0.23493244688E+03  0.18140292757E+04  0.12699999809E+01 0. -1.
</event>
<event>
 5   0  0.3279988E-08  0.3592666E+04  0.7818609E-02  0.8092174E-01
       -1   -1    0    0    0  501  0.00000000000E+00  0.00000000000E+00  0.19081045556E+04  0.19081045556E+04  0.50400001928E-02 0.  1.
        1   -1    0    0  501    0  0.00000000000E+00  0.00000000000E+00 -0.16911089333E+04  0.16911089333E+04  0.50400001928E-02 0. -1.
    10030    2    1    2    0    0  0.00000000000E+00  0.00000000000E+00  0.21699562234E+03  0.35992134889E+04  0.35926662298E+04 0.  0.
        5    1    3    3  502    0  0.12419504757E+03 -0.70090066152E+02  0.19024183905E+04  0.19077617382E+04  0.46999998093E+01 0.  1.
       -5    1    3    3    0  502 -0.12419504757E+03  0.70090066152E+02 -0.16854227682E+04  0.16914517507E+04  0.46999998093E+01 0. -1.
</event>
<event>
 5   0  0.3212523E-08  0.3591916E+04  0.7818609E-02  0.8092346E-01
        1   -1    0    0  501    0  0.00000000000E+00  0.00000000000E+00  0.16098432563E+04  0.16098432563E+04  0.50400001928E-02 0.  1.
       -1   -1    0    0    0  501  0.00000000000E+00  0.00000000000E+00 -0.20035899259E+04  0.20035899259E+04  0.50400001928E-02 0. -1.
    10030    2    1    2    0    0  0.00000000000E+00  0.00000000000E+00 -0.39374666960E+03  0.36134331822E+04  0.35919163301E+04 0.  0.
        3    1    3    3  502    0  0.16372428618E+04  0.67489200907E+03  0.10395362460E+03  0.17739362386E+04  0.10100000352E+00 0. -1.
       -3    1    3    3    0  502 -0.16372428618E+04 -0.67489200907E+03 -0.49770029419E+03  0.18394969436E+04  0.10100000352E+00 0.  1.
</event>
<event>
 5   0  0.3202875E-08  0.3598069E+04  0.7818609E-02  0.8090934E-01
       -1   -1    0    0    0  501  0.00000000000E+00  0.00000000000E+00  0.15745517853E+04  0.15745517853E+04  0.50400001928E-02 0. -1.
        1   -1    0    0  501    0  0.00000000000E+00  0.00000000000E+00 -0.20555220404E+04  0.20555220404E+04  0.50400001928E-02 0.  1.
    10030    2    1    2    0    0  0.00000000000E+00  0.00000000000E+00 -0.48097025504E+03  0.36300738257E+04  0.35980694259E+04 0.  0.
        2    1    3    3  502    0  0.12975726984E+03 -0.17759220556E+04 -0.49926185001E+03  0.18493237930E+04  0.25500000920E-02 0.  1.
       -2    1    3    3    0  502 -0.12975726984E+03  0.17759220556E+04  0.18291594967E+02  0.17807500327E+04  0.25500000920E-02 0. -1.
</event>
<event>
 5   0  0.1021087E-07  0.3619762E+04  0.7818609E-02  0.8085980E-01
       -2   -1    0    0    0  501  0.00000000000E+00  0.00000000000E+00  0.15977786496E+04  0.15977786496E+04  0.25500000920E-02 0. -1.
        2   -1    0    0  501    0  0.00000000000E+00  0.00000000000E+00 -0.20501399703E+04  0.20501399703E+04  0.25500000920E-02 0.  1.
    10030    2    1    2    0    0  0.00000000000E+00  0.00000000000E+00 -0.45236132068E+03  0.36479186199E+04  0.36197623531E+04 0.  0.
        3    1    3    3  502    0 -0.49997714529E+02 -0.67548164055E+03  0.14652351447E+04  0.16142147495E+04  0.10100000352E+00 0. -1.
       -3    1    3    3    0  502  0.49997714529E+02  0.67548164055E+03 -0.19175964654E+04  0.20337038704E+04  0.10100000352E+00 0.  1.
</event>
<event>
 5   0  0.1017794E-07  0.3601714E+04  0.7818609E-02  0.8090099E-01
        2   -1    0    0  501    0  0.00000000000E+00  0.00000000000E+00  0.10106994311E+04  0.10106994311E+04  0.25500000920E-02 0. -1.
       -2   -1    0    0    0  501  0.00000000000E+00  0.00000000000E+00 -0.32087532310E+04  0.32087532310E+04  0.25500000920E-02 0.  1.
    10030    2    1    2    0    0  0.00000000000E+00  0.00000000000E+00 -0.21980537999E+04  0.42194526621E+04  0.36017135172E+04 0.  0.
        1    1    3    3  502    0  0.16661340000E+04  0.68342792829E+03 -0.11025072905E+04  0.21115393827E+04  0.50400001928E-02 0.  1.
       -1    1    3    3    0  502 -0.16661340000E+04 -0.68342792829E+03 -0.10955465094E+04  0.21079132794E+04  0.50400001928E-02 0. -1.
</event>
<event>
 5   0  0.3202875E-08  0.3589554E+04  0.7818609E-02  0.8092889E-01
       -1   -1    0    0    0  501  0.00000000000E+00  0.00000000000E+00  0.18417847716E+04  0.18417847716E+04  0.50400001928E-02 0. -1.
        1   -1    0    0  501    0  0.00000000000E+00  0.00000000000E+00 -0.17489693991E+04  0.17489693992E+04  0.50400001928E-02 0.  1.
    10030    2    1    2    0    0  0.00000000000E+00  0.00000000000E+00  0.92815372460E+02  0.35907541708E+04  0.35895544043E+04 0.  0.
        2    1    3    3  502    0  0.36267856119E+03  0.59514797916E+03 -0.16080763013E+04  0.17526112651E+04  0.25500000920E-02 0.  1.
       -2    1    3    3    0  502 -0.36267856119E+03 -0.59514797916E+03  0.17008916737E+04  0.18381429057E+04  0.25500000920E-02 0. -1.
</event>
<event>
 5   0  0.3215494E-08  0.3597021E+04  0.7818609E-02  0.8091175E-01
        1   -1    0    0  501    0  0.00000000000E+00  0.00000000000E+00  0.21798567054E+04  0.21798567054E+04  0.50400001928E-02 0.  1.
       -1   -1    0    0    0  501  0.00000000000E+00  0.00000000000E+00 -0.14838769869E+04  0.14838769869E+04  0.50400001928E-02 0. -1.
    10030    2    1    2    0    0  0.00000000000E+00  0.00000000000E+00  0.69597971849E+03  0.36637336923E+04  0.35970205448E+04 0.  0.
        4    1    3    3  502    0  0.75984659499E+03  0.12713420558E+04  0.13871871959E+04  0.20292775563E+04  0.12699999809E+01 0.  1.
       -4    1    3    3    0  502 -0.75984659499E+03 -0.12713420558E+04 -0.69120747745E+03  0.16344561360E+04  0.12699999809E+01 0. -1.
</event>
<event>
 5   0  0.3212523E-08  0.3598093E+04  0.7818609E-02  0.8090929E-01
       -1   -1    0    0    0  501  0.00000000000E+00  0.00000000000E+00  0.12592566893E+04  0.12592566893E+04  0.50400001928E-02 0. -1.
        1   -1    0    0  501    0  0.00000000000E+00  0.00000000000E+00 -0.25702206973E+04  0.25702206973E+04  0.50400001928E-02 0.  1.
    10030    2    1    2    0    0  0.00000000000E+00  0.00000000000E+00 -0.13109640080E+04  0.38294773866E+04  0.35980926092E+04 0.  0.
        3    1    3    3  502    0  0.19911393877E+03 -0.20466123393E+03 -0.25459497139E+04  0.25619118910E+04  0.10100000352E+00 0.  1.
       -3    1    3    3    0  502 -0.19911393877E+03  0.20466123393E+03  0.12349857060E+04  0.12675654955E+04  0.10100000352E+00 0. -1.
</event>
<event>
 5   0  0.3215494E-08  0.3649107E+04  0.7818609E-02  0.8079335E-01
       -1   -1    0    0    0  501  0.00000000000E+00  0.00000000000E+00  0.18607224325E+04  0.18607224325E+04  0.50400001928E-02 0.  1.
        1   -1    0    0  501    0  0.00000000000E+00  0.00000000000E+00 -0.17890877400E+04  0.17890877400E+04  0.50400001928E-02 0. -1.
    10030    2    1    2    0    0  0.00000000000E+00  0.00000000000E+00  0.71634692525E+02  0.36498101725E+04  0.36491071190E+04 0.  0.
        4    1    3    3  502    0  0.13032709681E+04  0.80575269215E+02  0.13104201541E+04  0.18499216695E+04  0.12699999809E+01 0.  1.
       -4    1    3    3    0  502 -0.13032709681E+04 -0.80575269215E+02 -0.12387854616E+04  0.17998885029E+04  0.12699999809E+01 0. -1.
</event>
<event>
 5   0  0.1044678E-07  0.3622691E+04  0.7818609E-02  0.8085314E-01
        2   -1    0    0  501    0  0.00000000000E+00  0.00000000000E+00  0.22489244820E+04  0.22489244820E+04  0.25500000920E-02 0.  1.
       -2   -1    0    0    0  501  0.00000000000E+00  0.00000000000E+00 -0.14589076218E+04  0.14589076218E+04  0.25500000920E-02 0. -1.
    10030    2    1    2    0    0  0.00000000000E+00  0.00000000000E+00  0.79001686028E+03  0.37078321038E+04  0.36226913021E+04 0.  0.
        2    1    3    3  502    0 -0.11306368575E+04 -0.10326272524E+04  0.13853831936E+04  0.20649322844E+04  0.25500000920E-02 0.  1.
       -2    1    3    3    0  502  0.11306368575E+04  0.10326272524E+04 -0.59536633332E+03  0.16428998194E+04  0.25500000920E-02 0. -1.
</event>
<event>
 5   0  0.1017794E-07  0.3602596E+04  0.7818609E-02  0.8089897E-01
       -2   -1    0    0    0  501  0.00000000000E+00  0.00000000000E+00  0.15180710930E+04  0.15180710930E+04  0.25500000920E-02 0. -1.
        2   -1    0    0  501    0  0.00000000000E+00  0.00000000000E+00 -0.21373663349E+04  0.21373663349E+04  0.25500000920E-02 0.  1.
    10030    2    1    2    0    0  0.00000000000E+00  0.00000000000E+00 -0.61929524194E+03  0.36554374279E+04  0.36025957576E+04 0.  0.
        1    1    3    3  502    0  0.17977135101E+04 -0.11356044007E+03 -0.31172956975E+03  0.18280714326E+04  0.50400001928E-02 0. -1.
       -1    1    3    3    0  502 -0.17977135101E+04  0.11356044007E+03 -0.30756567219E+03  0.18273659953E+04  0.50400001928E-02 0.  1.
</event>
<event>
 5   0  0.3202875E-08  0.3606743E+04  0.7818609E-02  0.8088949E-01
        1   -1    0    0  501    0  0.00000000000E+00  0.00000000000E+00  0.15190350734E+04  0.15190350734E+04  0.50400001928E-02 0.  1.
       -1   -1    0    0    0  501  0.00000000000E+00  0.00000000000E+00 -0.21409309257E+04  0.21409309257E+04  0.50400001928E-02 0. -1.
    10030    2    1    2    0    0  0.00000000000E+00  0.00000000000E+00 -0.62189585228E+03  0.36599659991E+04  0.36067432212E+04 0.  0.
        1    1    3    3  502    0 -0.11572118685E+04  0.13641330847E+04 -0.79212596976E+02  0.17906068851E+04  0.50400001928E-02 0. -1.
       -1    1    3    3    0  502  0.11572118685E+04 -0.13641330847E+04 -0.54268325531E+03  0.18693591140E+04  0.50400001928E-02 0.  1.
</event>
<event>
 5   0  0.1044678E-07  0.3590382E+04  0.7818609E-02  0.8092698E-01
       -2   -1    0    0    0  501  0.00000000000E+00  0.00000000000E+00  0.12813645419E+04  0.12813645419E+04  0.25500000920E-02 0. -1.
        2   -1    0    0  501    0  0.00000000000E+00  0.00000000000E+00 -0.25150621219E+04  0.25150621219E+04  0.25500000920E-02 0.  1.
    10030    2    1    2    0    0  0.00000000000E+00  0.00000000000E+00 -0.12336975800E+04  0.37964266638E+04  0.35903823884E+04 0.  0.
        2    1    3    3  502    0 -0.95857430331E+03  0.49940357167E+03 -0.21324374154E+04  0.23907233117E+04  0.25500000920E-02 0.  1.
       -2    1    3    3    0  502  0.95857430331E+03 -0.49940357167E+03  0.89873983542E+03  0.14057033521E+04  0.25500000920E-02 0. -1.
</event>
<event>
 5   0  0.3212523E-08  0.3612642E+04  0.7818609E-02  0.8087602E-01
        1   -1    0    0  501    0  0.00000000000E+00  0.00000000000E+00  0.21036556203E+04  0.21036556203E+04  0.50400001928E-02 0. -1.
       -1   -1    0    0    0  501  0.00000000000E+00  0.00000000000E+00 -0.15510118869E+04  0.15510118869E+04  0.50400001928E-02 0.  1.
    10030    2    1    2    0    0  0.00000000000E+00  0.00000000000E+00  0.55264373337E+03  0.36546675073E+04  0.36126416225E+04 0.  0.
        3    1    3    3  502    0  0.16897244269E+04  0.52994309830E+03  0.63653501416E+03  0.18818036988E+04  0.10100000352E+00 0. -1.
       -3    1    3    3    0  502 -0.16897244269E+04 -0.52994309830E+03 -0.83891280792E+02  0.17728638085E+04  0.10100000352E+00 0.  1.
</event>
<event>
 5   0  0.1017794E-07  0.3595523E+04  0.7818609E-02  0.8091518E-01
       -2   -1    0    0    0  501  0.00000000000E+00  0.00000000000E+00  0.12985410717E+04  0.12985410717E+04  0.25500000920E-02 0.  1.
        2   -1    0    0  501    0  0.00000000000E+00  0.00000000000E+00 -0.24889053819E+04  0.24889053819E+04  0.25500000920E-02 0. -1.
    10030    2    1    2    0    0  0.00000000000E+00  0.00000000000E+00 -0.11903643102E+04  0.37874464537E+04  0.35955226947E+04 0.  0.
        1    1    3    3  502    0  0.67279770236E+03  0.11659034166E+04  0.66004483280E+03  0.14992153636E+04  0.50400001928E-02 0.  1.
       -1    1    3    3    0  502 -0.67279770236E+03 -0.11659034166E+04 -0.18504091430E+04  0.22882310901E+04  0.50400001928E-02 0. -1.
</event>
<event>
 5   0  0.3212523E-08  0.3601310E+04  0.7818609E-02  0.8090192E-01
        1   -1    0    0  501    0  0.00000000000E+00  0.00000000000E+00  0.22782134146E+04  0.22782134146E+04  0.50400001928E-02 0.  1.
       -1   -1    0    0    0  501  0.00000000000E+00  0.00000000000E+00 -0.14232026143E+04  0.14232026143E+04  0.50400001928E-02 0. -1.
    10030    2    1    2    0    0  0.00000000000E+00  0.00000000000E+00  0.85501080034E+03  0.37014160289E+04  0.36013104768E+04 0.  0.
        3    1    3    3  502    0 -0.57169585568E+03 -0.27899817113E+03 -0.13038622047E+04  0.14507697233E+04  0.10100000352E+00 0. -1.
       -3    1    3    3    0  502  0.57169585568E+03  0.27899817113E+03  0.21588730051E+04  0.22506463057E+04  0.10100000352E+00 0.  1.
</event>
<event>
 5   0  0.9905335E-08  0.3600575E+04  0.7818609E-02  0.8090360E-01
       -2   -1    0    0    0  501  0.00000000000E+00  0.00000000000E+00  0.37496130907E+04  0.37496130907E+04  0.25500000920E-02 0. -1.
        2   -1    0    0  501    0  0.00000000000E+00  0.00000000000E+00 -0.86436534224E+03  0.86436534224E+03  0.25500000920E-02 0.  1.
    10030    2    1    2    0    0  0.00000000000E+00  0.00000000000E+00  0.28852477484E+04  0.46139784329E+04  0.36005752887E+04 0.  0.
        5    1    3    3  502    0  0.54748483187E+03 -0.14585017103E+04  0.25988114697E+04  0.30299851526E+04  0.46999998093E+01 0. -1.
       -5    1    3    3    0  502 -0.54748483187E+03  0.14585017103E+04  0.28643627873E+03  0.15839932803E+04  0.46999998093E+01 0.  1.
</event>
<event>
 5   0  0.1017794E-07  0.3604400E+04  0.7818609E-02  0.8089485E-01
       -2   -1    0    0    0  501  0.00000000000E+00  0.00000000000E+00  0.13630320160E+04  0.13630320160E+04  0.25500000920E-02 0.  1.
        2   -1    0    0  501    0  0.00000000000E+00  0.00000000000E+00 -0.23828673264E+04  0.23828673264E+04  0.25500000920E-02 0. -1.
    10030    2    1    2    0    0  0.00000000000E+00  0.00000000000E+00 -0.10198353104E+04  0.37458993424E+04  0.36043997868E+04 0.  0.
        1    1    3    3  502    0  0.43978465005E+03  0.12143831102E+04 -0.18161562009E+04  0.22285780720E+04  0.50400001928E-02 0. -1.
       -1    1    3    3    0  502 -0.43978465005E+03 -0.12143831102E+04  0.79632089052E+03  0.15173212704E+04  0.50400001928E-02 0.  1.
</event>
<event>
 5   0  0.3202875E-08  0.3628483E+04  0.7818609E-02  0.8083998E-01
       -1   -1    0    0    0  501  0.00000000000E+00  0.00000000000E+00  0.13426478924E+04  0.13426478924E+04  0.50400001928E-02 0.  1.
        1   -1    0    0  501    0  0.00000000000E+00  0.00000000000E+00 -0.24514788129E+04  0.24514788129E+04  0.50400001928E-02 0. -1.
    10030    2    1    2    0    0  0.00000000000E+00  0.00000000000E+00 -0.11088309205E+04  0.37941267053E+04  0.36284833533E+04 0.  0.
        2    1    3    3  502    0 -0.24371126879E+03 -0.75617379355E+02 -0.24326208681E+04  0.24459675915E+04  0.25500000920E-02 0. -1.
       -2    1    3    3    0  502  0.24371126879E+03  0.75617379355E+02  0.13237899476E+04  0.13481591138E+04  0.25500000920E-02 0.  1.
</event>
<event>
 5   0  0.1044678E-07  0.3603215E+04  0.7818609E-02  0.8089756E-01
       -2   -1    0    0    0  501  0.00000000000E+00  0.00000000000E+00  0.16479248661E+04  0.16479248661E+04  0.25500000920E-02 0. -1.
        2   -1    0    0  501    0  0.00000000000E+00  0.00000000000E+00 -0.19696218867E+04  0.19696218867E+04  0.25500000920E-02 0.  1.
    10030    2    1    2    0    0  0.00000000000E+00  0.00000000000E+00 -0.32169702066E+03  0.36175467528E+04  0.36032146113E+04 0.  0.
        2    1    3    3  502    0 -0.71288799830E+03  0.63323162927E+03  0.13738248587E+04  0.16722997150E+04  0.25500000920E-02 0. -1.
       -2    1    3    3    0  502  0.71288799830E+03 -0.63323162927E+03 -0.16955218794E+04  0.19452470378E+04  0.25500000920E-02 0.  1.
</event>
<event>
 5   0  0.1017794E-07  0.3559062E+04  0.7818609E-02  0.8099934E-01
        2   -1    0    0  501    0  0.00000000000E+00  0.00000000000E+00  0.30858312582E+04  0.30858312582E+04  0.25500000920E-02 0.  1.
       -2   -1    0    0    0  501  0.00000000000E+00  0.00000000000E+00 -0.10262162184E+04  0.10262162184E+04  0.25500000920E-02 0. -1.
    10030    2    1    2    0    0  0.00000000000E+00  0.00000000000E+00  0.20596150399E+04  0.41120474766E+04  0.35590617215E+04 0.  0.
        1    1    3    3  502    0 -0.13677876646E+04 -0.11256571547E+04  0.12258229768E+04  0.21542026590E+04  0.50400001928E-02 0.  1.
       -1    1    3    3    0  502  0.13677876646E+04  0.11256571547E+04  0.83379206309E+03  0.19578448176E+04  0.50400001928E-02 0. -1.
</event>
<event>
 5   0  0.3202875E-08  0.3602833E+04  0.7818609E-02  0.8089843E-01
        1   -1    0    0  501    0  0.00000000000E+00  0.00000000000E+00  0.17920396776E+04  0.17920396776E+04  0.50400001928E-02 0. -1.
       -1   -1    0    0    0  501  0.00000000000E+00  0.00000000000E+00 -0.18108428464E+04  0.18108428464E+04  0.50400001928E-02 0.  1.
    10030    2    1    2    0    0  0.00000000000E+00  0.00000000000E+00 -0.18803168807E+02  0.36028825240E+04  0.36028334575E+04 0.  0.
        2    1    3    3  502    0 -0.32473942081E+03  0.13008332628E+04 -0.12125303339E+04  0.18077202991E+04  0.25500000920E-02 0.  1.
       -2    1    3    3    0  502  0.32473942081E+03 -0.13008332628E+04  0.11937271651E+04  0.17951622249E+04  0.25500000920E-02 0. -1.
</event>
<event>
 5   0  0.3215494E-08  0.3601927E+04  0.7818609E-02  0.8090050E-01
        1   -1    0    0  501    0  0.00000000000E+00  0.00000000000E+00  0.20343470147E+04  0.20343470148E+04  0.50400001928E-02 0.  1.
       -1   -1    0    0    0  501  0.00000000000E+00  0.00000000000E+00 -0.15943541354E+04  0.15943541354E+04  0.50400001928E-02 0. -1.
    10030    2    1    2    0    0  0.00000000000E+00  0.00000000000E+00  0.43999287939E+03  0.36287011501E+04  0.36019270263E+04 0.  0.
        4    1    3    3  502    0 -0.17722029425E+04  0.81063351172E+02 -0.92459647460E+02  0.17764641667E+04  0.12699999809E+01 0. -1.
       -4    1    3    3    0  502  0.17722029425E+04 -0.81063351172E+02  0.53245252685E+03  0.18522369834E+04  0.12699999809E+01 0.  1.
</event>
<event>
 5   0  0.9905335E-08  0.3535621E+04  0.7818609E-02  0.8105400E-01
        2   -1    0    0  501    0  0.00000000000E+00  0.00000000000E+00  0.18201750217E+04  0.18201750217E+04  0.25500000920E-02 0. -1.
       -2   -1    0    0    0  501  0.00000000000E+00  0.00000000000E+00 -0.17169522558E+04  0.17169522558E+04  0.25500000920E-02 0.  1.
    10030    2    1    2    0    0  0.00000000000E+00  0.00000000000E+00  0.10322276581E+03  0.35371272775E+04  0.35356207995E+04 0.  0.
        5    1    3    3  502    0 -0.64483334805E+02 -0.55616868082E+03  0.17291233311E+04  0.18175178916E+04  0.46999998093E+01 0. -1.
       -5    1    3    3    0  502  0.64483334805E+02  0.55616868082E+03 -0.16259005653E+04  0.17196093859E+04  0.46999998093E+01 0.  1.
</event>
<event>
 5   0  0.3279988E-08  0.3613376E+04  0.7818609E-02  0.8087435E-01
        1   -1    0    0  501    0  0.00000000000E+00  0.00000000000E+00  0.14689116558E+04  0.14689116559E+04  0.50400001928E-02 0. -1.
       -1   -1    0    0    0  501  0.00000000000E+00  0.00000000000E+00 -0.22221359030E+04  0.22221359030E+04  0.50400001928E-02 0.  1.
    10030    2    1    2    0    0  0.00000000000E+00  0.00000000000E+00 -0.75322424710E+03  0.36910475588E+04  0.36133758890E+04 0.  0.
        5    1    3    3  502    0 -0.78517653555E+03  0.14004491240E+04 -0.12228762511E+04  0.20182191051E+04  0.46999998093E+01 0.  1.
       -5    1    3    3    0  502  0.78517653555E+03 -0.14004491240E+04  0.46965200396E+03  0.16728284537E+04  0.46999998093E+01 0. -1.
</event>
<event>
 5   0  0.3212523E-08  0.3613545E+04  0.7818609E-02  0.8087396E-01
       -1   -1    0    0    0  501  0.00000000000E+00  0.00000000000E+00  0.14344361323E+04  0.14344361323E+04  0.50400001928E-02 0.  1.
        1   -1    0    0  501    0  0.00000000000E+00  0.00000000000E+00 -0.22757558886E+04  0.22757558886E+04  0.50400001928E-02 0. -1.
    10030    2    1    2    0    0  0.00000000000E+00  0.00000000000E+00 -0.84131975630E+03  0.37101920210E+04  0.36135447832E+04 0.  0.
        3    1    3    3  502    0 -0.18504643272E+03  0.17797789201E+04 -0.16382709466E+03  0.17968568429E+04  0.10100000352E+00 0.  1.
       -3    1    3    3    0  502  0.18504643272E+03 -0.17797789201E+04 -0.67749266164E+03  0.19133351781E+04  0.10100000352E+00 0. -1.
</event>
<event>
 5   0  0.1021087E-07  0.3601231E+04  0.7818609E-02  0.8090210E-01
        2   -1    0    0  501    0  0.00000000000E+00  0.00000000000E+00  0.19734532461E+04  0.19734532461E+04  0.25500000920E-02 0.  1.
       -2   -1    0    0    0  501  0.00000000000E+00  0.00000000000E+00 -0.16429152469E+04  0.16429152469E+04  0.25500000920E-02 0. -1.
    10030    2    1    2    0    0  0.00000000000E+00  0.00000000000E+00  0.33053799918E+03  0.36163684930E+04  0.36012311378E+04 0.  0.
        3    1    3    3  502    0  0.42164377891E+03 -0.24508740731E+03 -0.15753272151E+04  0.16490928289E+04  0.10100000352E+00 0. -1.
       -3    1    3    3    0  502 -0.42164377891E+03  0.24508740731E+03  0.19058652142E+04  0.19672756641E+04  0.10100000352E+00 0.  1.
</event>
<event>
 5   0  0.9905335E-08  0.3594365E+04  0.7818609E-02  0.8091784E-01
       -2   -1    0    0    0  501  0.00000000000E+00  0.00000000000E+00  0.13570652144E+04  0.13570652144E+04  0.25500000920E-02 0. -1.
        2   -1    0    0  501    0  0.00000000000E+00  0.00000000000E+00 -0.23800364441E+04  0.23800364441E+04  0.25500000920E-02 0.  1.
    10030    2    1    2    0    0  0.00000000000E+00  0.00000000000E+00 -0.10229712297E+04  0.37371016585E+04  0.35943648492E+04 0.  0.
        5    1    3    3  502    0  0.82807043070E+03 -0.15946450786E+04 -0.54823043551E+03  0.18786091305E+04  0.46999998093E+01 0.  1.
       -5    1    3    3    0  502 -0.82807043070E+03  0.15946450786E+04 -0.47474079424E+03  0.18584925280E+04  0.46999998093E+01 0. -1.
</event>
<event>
 5   0  0.3279988E-08  0.3596230E+04  0.7818609E-02  0.8091356E-01
       -1   -1    0    0    0  501  0.00000000000E+00  0.00000000000E+00  0.15807761556E+04  0.15807761556E+04  0.50400001928E-02 0.  1.
        1   -1    0    0  501    0  0.00000000000E+00  0.00000000000E+00 -0.20453353679E+04  0.20453353679E+04  0.50400001928E-02 0. -1.
    10030    2    1    2    0    0  0.00000000000E+00  0.00000000000E+00 -0.46455921235E+03  0.36261115235E+04  0.35962299036E+04 0.  0.
        5    1    3    3  502    0 -0.51496818190E+03 -0.84681983887E+03 -0.17450455348E+04  0.20068637414E+04  0.46999998093E+01 0. -1.
       -5    1    3    3    0  502  0.51496818190E+03  0.84681983887E+03  0.12804863225E+04  0.16192477821E+04  0.46999998093E+01 0.  1.
</event>
<event>
 5   0  0.3202875E-08  0.3589699E+04  0.7818609E-02  0.8092855E-01
        1   -1    0    0  501    0  0.00000000000E+00  0.00000000000E+00  0.16220494430E+04  0.16220494430E+04  0.50400001928E-02 0. -1.
       -1   -1    0    0    0  501  0.00000000000E+00  0.00000000000E+00 -0.19860579471E+04  0.19860579472E+04  0.50400001928E-02 0.  1.
    10030    2    1    2    0    0  0.00000000000E+00  0.00000000000E+00 -0.36400850414E+03  0.36081073902E+04  0.35896986988E+04 0.  0.
        2    1    3    3  502    0 -0.63069839263E+03  0.45530440121E+03 -0.18078287486E+04  0.19680770677E+04  0.25500000920E-02 0.  1.
       -2    1    3    3    0  502  0.63069839263E+03 -0.45530440121E+03  0.14438202445E+04  0.16400303224E+04  0.25500000920E-02 0. -1.
</event>
<event>
 5   0  0.1029908E-07  0.3613611E+04  0.7818609E-02  0.8087381E-01
        2   -1    0    0  501    0  0.00000000000E+00  0.00000000000E+00  0.19789735173E+04  0.19789735173E+04  0.25500000920E-02 0. -1.
       -2   -1    0    0    0  501  0.00000000000E+00  0.00000000000E+00 -0.16496162958E+04  0.16496162958E+04  0.25500000920E-02 0.  1.
    10030    2    1    2    0    0  0.00000000000E+00  0.00000000000E+00  0.32935722149E+03  0.36285898132E+04  0.36136114696E+04 0.  0.
        4    1    3    3  502    0  0.76343625521E+02 -0.54369784206E+03 -0.15638249678E+04  0.16574033412E+04  0.12699999809E+01 0.  1.
       -4    1    3    3    0  502 -0.76343625521E+02  0.54369784206E+03  0.18931821893E+04  0.19711864720E+04  0.12699999809E+01 0. -1.
</event>
<event>
 5   0  0.9905335E-08  0.3603019E+04  0.7818609E-02  0.8089800E-01
        2   -1    0    0  501    0  0.00000000000E+00  0.00000000000E+00  0.16545568286E+04  0.16545568286E+04  0.25500000920E-02 0. -1.
       -2   -1    0    0    0  501  0.00000000000E+00  0.00000000000E+00 -0.19615141134E+04  0.19615141134E+04  0.25500000920E-02 0.  1.
    10030    2    1    2    0    0  0.00000000000E+00  0.00000000000E+00 -0.30695728481E+03  0.36160709421E+04  0.36030190512E+04 0.  0.
        5    1    3    3  502    0  0.16947847347E+04  0.35841272778E+03 -0.64990110656E+03  0.18501752670E+04  0.46999998093E+01 0.  1.
       -5    1    3    3    0  502 -0.16947847347E+04 -0.35841272778E+03  0.34294382175E+03  0.17658956751E+04  0.46999998093E+01 0. -1.
</event>
<event>
 5   0  0.3202875E-08  0.3590663E+04  0.7818609E-02  0.8092634E-01
       -1   -1    0    0    0  501  0.00000000000E+00  0.00000000000E+00  0.24460578479E+04  0.24460578479E+04  0.50400001928E-02 0.  1.
        1   -1    0    0  501    0  0.00000000000E+00  0.00000000000E+00 -0.13177182130E+04  0.13177182130E+04  0.50400001928E-02 0. -1.
    10030    2    1    2    0    0  0.00000000000E+00  0.00000000000E+00  0.11283396349E+04  0.37637760610E+04  0.35906628783E+04 0.  0.
        1    1    3    3  502    0  0.97919978385E+03  0.75270593097E+03  0.19299931390E+04  0.22913471914E+04  0.50400001928E-02 0.  1.
       -1    1    3    3    0  502 -0.97919978385E+03 -0.75270593097E+03 -0.80165350405E+03  0.14724288695E+04  0.50400001928E-02 0. -1.
</event>
<event>
 5   0  0.1044678E-07  0.3599476E+04  0.7818609E-02  0.8090612E-01
        2   -1    0    0  501    0  0.00000000000E+00  0.00000000000E+00  0.21927266025E+04  0.21927266025E+04  0.25500000920E-02 0.  1.
       -2   -1    0    0    0  501  0.00000000000E+00  0.00000000000E+00 -0.14771820935E+04  0.14771820935E+04  0.25500000920E-02 0. -1.
    10030    2    1    2    0    0  0.00000000000E+00  0.00000000000E+00  0.71554450908E+03  0.36699086960E+04  0.35994757802E+04 0.  0.
        2    1    3    3  502    0 -0.39528370211E+03 -0.17555042596E+04  0.39020768527E+03  0.18412784820E+04  0.25500000920E-02 0. -1.
       -2    1    3    3    0  502  0.39528370211E+03  0.17555042596E+04  0.32533682381E+03  0.18286302140E+04  0.25500000920E-02 0.  1.
</event>
<event>
 5   0  0.3202875E-08  0.3606126E+04  0.7818609E-02  0.8089090E-01
       -1   -1    0    0    0  501  0.00000000000E+00  0.00000000000E+00  0.20163292815E+04  0.20163292815E+04  0.50400001928E-02 0. -1.
        1   -1    0    0  501    0  0.00000000000E+00  0.00000000000E+00 -0.16123537696E+04  0.16123537696E+04  0.50400001928E-02 0.  1.
    10030    2    1    2    0    0  0.00000000000E+00  0.00000000000E+00  0.40397551198E+03  0.36286830511E+04  0.36061259644E+04 0.  0.
        2    1    3    3  502    0  0.14952749147E+04 -0.27639535040E+03 -0.77298717288E+03  0.17057991176E+04  0.25500000920E-02 0.  1.
       -2    1    3    3    0  502 -0.14952749147E+04  0.27639535040E+03  0.11769626849E+04  0.19228839335E+04  0.25500000920E-02 0. -1.
</event>
<event>
 5   0  0.1017794E-07  0.3607182E+04  0.7818609E-02  0.8088848E-01
       -2   -1    0    0    0  501  0.00000000000E+00  0.00000000000E+00  0.15922302396E+04  0.15922302396E+04  0.25500000920E-02 0. -1.
        2   -1    0    0  501    0  0.00000000000E+00  0.00000000000E+00 -0.20430093343E+04  0.20430093343E+04  0.25500000920E-02 0.  1.
    10030    2    1    2    0    0  0.00000000000E+00  0.00000000000E+00 -0.45077909468E+03  0.36352395739E+04  0.36071824139E+04 0.  0.
        1    1    3    3  502    0 -0.13945373153E+04  0.15704773608E+02 -0.13779460094E+04  0.19605397645E+04  0.50400001928E-02 0.  1.
       -1    1    3    3    0  502  0.13945373153E+04 -0.15704773608E+02  0.92716691469E+03  0.16746998093E+04  0.50400001928E-02 0. -1.
</event>
<event>
 5   0  0.3212523E-08  0.3579134E+04  0.7818609E-02  0.8095288E-01
        1   -1    0    0  501    0  0.00000000000E+00  0.00000000000E+00  0.12140025785E+04  0.12140025785E+04  0.50400001928E-02 0.  1.
       -1   -1    0    0    0  501  0.00000000000E+00  0.00000000000E+00 -0.26380092602E+04  0.26380092602E+04  0.50400001928E-02 0. -1.
    10030    2    1    2    0    0  0.00000000000E+00  0.00000000000E+00 -0.14240066817E+04  0.38520118388E+04  0.35791339981E+04 0.  0.
        3    1    3    3  502    0 -0.14288494061E+04  0.90403972815E+03 -0.13429153974E+04  0.21592406605E+04  0.10100000352E+00 0. -1.
       -3    1    3    3    0  502  0.14288494061E+04 -0.90403972815E+03 -0.81091284297E+02  0.16927711782E+04  0.10100000352E+00 0.  1.
</event>
<event>
 5   0  0.3212523E-08  0.3605898E+04  0.7818609E-02  0.8089142E-01
       -1   -1    0    0    0  501  0.00000000000E+00  0.00000000000E+00  0.13768687514E+04  0.13768687514E+04  0.50400001928E-02 0. -1.
        1   -1    0    0  501    0  0.00000000000E+00  0.00000000000E+00 -0.23608829010E+04  0.23608829010E+04  0.50400001928E-02 0.  1.
    10030    2    1    2    0    0  0.00000000000E+00  0.00000000000E+00 -0.98401414963E+03  0.37377516524E+04  0.36058984412E+04 0.  0.
        3    1    3    3  502    0 -0.19253591485E+03  0.17388094063E+04 -0.40062343776E+02  0.17498952059E+04  0.10100000352E+00 0. -1.
       -3    1    3    3    0  502  0.19253591485E+03 -0.17388094063E+04 -0.94395180585E+03  0.19878564465E+04  0.10100000352E+00 0.  1.
</event>
<event>
 5   0  0.1029908E-07  0.3579197E+04  0.7818609E-02  0.8095274E-01
       -2   -1    0    0    0  501  0.00000000000E+00  0.00000000000E+00  0.21576872399E+04  0.21576872399E+04  0.25500000920E-02 0. -1.
        2   -1    0    0  501    0  0.00000000000E+00  0.00000000000E+00 -0.14843035731E+04  0.14843035731E+04  0.25500000920E-02 0.  1.
    10030    2    1    2    0    0  0.00000000000E+00  0.00000000000E+00  0.67338366682E+03  0.36419908131E+04  0.35791970496E+04 0.  0.
        4    1    3    3  502    0 -0.12871843152E+04  0.11476831134E+04 -0.14986161589E+03  0.17310344037E+04  0.12699999809E+01 0.  1.
       -4    1    3    3    0  502  0.12871843152E+04 -0.11476831134E+04  0.82324528270E+03  0.19109564093E+04  0.12699999809E+01 0. -1.
</event>
<event>
 5   0  0.1017794E-07  0.3601796E+04  0.7818609E-02  0.8090080E-01
       -2   -1    0    0    0  501  0.00000000000E+00  0.00000000000E+00  0.10703797789E+04  0.10703797789E+04  0.25500000920E-02 0. -1.
        2   -1    0    0  501    0  0.00000000000E+00  0.00000000000E+00 -0.30299836171E+04  0.30299836171E+04  0.25500000920E-02 0.  1.
    10030    2    1    2    0    0  0.00000000000E+00  0.00000000000E+00 -0.19596038382E+04  0.41003633959E+04  0.36017957710E+04 0.  0.
        1    1    3    3  502    0  0.94781059024E+03  0.11437628301E+04 -0.21389228236E+04  0.26041369342E+04  0.50400001928E-02 0.  1.
       -1    1    3    3    0  502 -0.94781059024E+03 -0.11437628301E+04  0.17931898541E+03  0.14962264618E+04  0.50400001928E-02 0. -1.
</event>
<event>
 5   0  0.3202875E-08  0.3599321E+04  0.7818609E-02  0.8090647E-01
       -1   -1    0    0    0  501  0.00000000000E+00  0.00000000000E+00  0.20238507785E+04  0.20238507785E+04  0.50400001928E-02 0. -1.
        1   -1    0    0  501    0  0.00000000000E+00  0.00000000000E+00 -0.16003046854E+04  0.16003046854E+04  0.50400001928E-02 0.  1.
    10030    2    1    2    0    0  0.00000000000E+00  0.00000000000E+00  0.42354609311E+03  0.36241554640E+04  0.35993209824E+04 0.  0.
        2    1    3    3  502    0  0.14086171220E+03  0.85694892733E+03  0.17989021077E+04  0.19975615833E+04  0.25500000920E-02 0. -1.
       -2    1    3    3    0  502 -0.14086171220E+03 -0.85694892733E+03 -0.13753560146E+04  0.16265938807E+04  0.25500000920E-02 0.  1.
</event>
<event>
 5   0  0.3215494E-08  0.3667776E+04  0.7818609E-02  0.8075141E-01
        1   -1    0    0  501    0  0.00000000000E+00  0.00000000000E+00  0.21230870178E+04  0.21230870178E+04  0.50400001928E-02 0.  1.
       -1   -1    0    0    0  501  0.00000000000E+00  0.00000000000E+00 -0.15840822813E+04  0.15840822813E+04  0.50400001928E-02 0. -1.
    10030    2    1    2    0    0  0.00000000000E+00  0.00000000000E+00  0.53900473648E+03  0.37071692992E+04  0.36677756347E+04 0.  0.
        4    1    3    3  502    0 -0.19800737528E+03 -0.15160146244E+04  0.12931163589E+04  0.20024132422E+04  0.12699999809E+01 0.  1.
       -4    1    3    3    0  502  0.19800737528E+03  0.15160146244E+04 -0.75411162240E+03  0.17047560570E+04  0.12699999809E+01 0. -1.
</event>
<event>
 5   0  0.3279988E-08  0.3601844E+04  0.7818609E-02  0.8090069E-01
        1   -1    0    0  501    0  0.00000000000E+00  0.00000000000E+00  0.15852272420E+04  0.15852272420E+04  0.50400001928E-02 0. -1.
       -1   -1    0    0    0  501  0.00000000000E+00  0.00000000000E+00 -0.20459657519E+04  0.20459657519E+04  0.50400001928E-02 0.  1.
    10030    2    1    2    0    0  0.00000000000E+00  0.00000000000E+00 -0.46073850994E+03  0.36311929939E+04  0.36018443310E+04 0.  0.
        5    1    3    3  502    0  0.11987921237E+04  0.26686739069E+03 -0.15582875471E+04  0.19840874299E+04  0.46999998093E+01 0.  1.
       -5    1    3    3    0  502 -0.11987921237E+04 -0.26686739069E+03  0.10975490372E+04  0.16471055640E+04  0.46999998093E+01 0. -1.
</event>
<event>
 5   0  0.1044678E-07  0.3590407E+04  0.7818609E-02  0.8092693E-01
        2   -1    0    0  501    0  0.00000000000E+00  0.00000000000E+00  0.22510550544E+04  0.22510550544E+04  0.25500000920E-02 0. -1.
       -2   -1    0    0    0  501  0.00000000000E+00  0.00000000000E+00 -0.14316642211E+04  0.14316642211E+04  0.25500000920E-02 0.  1.
    10030    2    1    2    0    0  0.00000000000E+00  0.00000000000E+00  0.81939083339E+03  0.36827192755E+04  0.35904066517E+04 0.  0.
        2    1    3    3  502    0  0.14668219379E+04  0.10304162326E+04  0.50930441579E+03  0.18635222558E+04  0.25500000920E-02 0.  1.
       -2    1    3    3    0  502 -0.14668219379E+04 -0.10304162326E+04  0.31008641760E+03  0.18191970197E+04  0.25500000920E-02 0. -1.
</event>
<event>
 5   0  0.3215494E-08  0.3516421E+04  0.7818609E-02  0.8109909E-01
        1   -1    0    0  501    0  0.00000000000E+00  0.00000000000E+00  0.10808103666E+04  0.10808103666E+04  0.50400001928E-02 0.  1.
       -1   -1    0    0    0  501  0.00000000000E+00  0.00000000000E+00 -0.28601731022E+04  0.28601731022E+04  0.50400001928E-02 0. -1.
    10030    2    1    2    0    0  0.00000000000E+00  0.00000000000E+00 -0.17793627356E+04  0.39409834688E+04  0.35164213281E+04 0.  0.
        4    1    3    3  502    0 -0.13191131480E+04  0.77628290847E+03 -0.18593802136E+04  0.24083129038E+04  0.12699999809E+01 0. -1.
       -4    1    3    3    0  502  0.13191131480E+04 -0.77628290847E+03  0.80017477990E+02  0.15326705650E+04  0.12699999809E+01 0.  1.
</event>
<event>
 5   0  0.9905335E-08  0.3603574E+04  0.7818609E-02  0.8089673E-01
       -2   -1    0    0    0  501  0.00000000000E+00  0.00000000000E+00  0.21008819485E+04  0.21008819485E+04  0.25500000920E-02 0.  1.
        2   -1    0    0  501    0  0.00000000000E+00  0.00000000000E+00 -0.15452733091E+04  0.15452733091E+04  0.25500000920E-02 0. -1.
    10030    2    1    2    0    0  0.00000000000E+00  0.00000000000E+00  0.55560863937E+03  0.36461552576E+04  0.36035742260E+04 0.  0.
        5    1    3    3  502    0  0.16590065495E+04  0.40629664134E+03  0.85819809516E+03  0.19115192263E+04  0.46999998093E+01 0.  1.
       -5    1    3    3    0  502 -0.16590065495E+04 -0.40629664134E+03 -0.30258945579E+03  0.17346360312E+04  0.46999998093E+01 0. -1.
</event>
<event>
 5   0  0.3279988E-08  0.3611422E+04  0.7818609E-02  0.8087880E-01
       -1   -1    0    0    0  501  0.00000000000E+00  0.00000000000E+00  0.28646643242E+04  0.28646643242E+04  0.50400001928E-02 0. -1.
        1   -1    0    0  501    0  0.00000000000E+00  0.00000000000E+00 -0.11382110604E+04  0.11382110604E+04  0.50400001928E-02 0.  1.
    10030    2    1    2    0    0  0.00000000000E+00  0.00000000000E+00  0.17264532638E+04  0.40028753846E+04  0.36114222230E+04 0.  0.
        5    1    3    3  502    0  0.33335102098E+03 -0.10544620791E+04 -0.71892726225E+03  0.13190495358E+04  0.46999998093E+01 0.  1.
       -5    1    3    3    0  502 -0.33335102098E+03  0.10544620791E+04  0.24453805260E+04  0.26838258488E+04  0.46999998093E+01 0. -1.
</event>
<event>
 5   0  0.3202875E-08  0.3600864E+04  0.7818609E-02  0.8090294E-01
       -1   -1    0    0    0  501  0.00000000000E+00  0.00000000000E+00  0.15385112069E+04  0.15385112069E+04  0.50400001928E-02 0.  1.
        1   -1    0    0  501    0  0.00000000000E+00  0.00000000000E+00 -0.21069431242E+04  0.21069431242E+04  0.50400001928E-02 0. -1.
    10030    2    1    2    0    0  0.00000000000E+00  0.00000000000E+00 -0.56843191725E+03  0.36454543311E+04  0.36008641235E+04 0.  0.
        1    1    3    3  502    0  0.68496093897E+03 -0.30754876155E+03  0.13724457140E+04  0.15644056272E+04  0.50400001928E-02 0.  1.
       -1    1    3    3    0  502 -0.68496093897E+03  0.30754876155E+03 -0.19408776312E+04  0.20810487039E+04  0.50400001928E-02 0. -1.
</event>
<event>
 5   0  0.1044678E-07  0.3592934E+04  0.7818609E-02  0.8092112E-01
       -2   -1    0    0    0  501  0.00000000000E+00  0.00000000000E+00  0.13201573409E+04  0.13201573409E+04  0.25500000920E-02 0. -1.
        2   -1    0    0  501    0  0.00000000000E+00  0.00000000000E+00 -0.24446274102E+04  0.24446274102E+04  0.25500000920E-02 0.  1.
    10030    2    1    2    0    0  0.00000000000E+00  0.00000000000E+00 -0.11244700693E+04  0.37647847511E+04  0.35929335208E+04 0.  0.
        2    1    3    3  502    0  0.54358493098E+03 -0.91829450479E+03  0.95206776802E+03  0.14300987412E+04  0.25500000920E-02 0. -1.
       -2    1    3    3    0  502 -0.54358493098E+03  0.91829450479E+03 -0.20765378373E+04  0.23346860098E+04  0.25500000920E-02 0.  1.
</event>
<event>
 5   0  0.3279988E-08  0.3611537E+04  0.7818609E-02  0.8087854E-01
        1   -1    0    0  501    0  0.00000000000E+00  0.00000000000E+00  0.24615447250E+04  0.24615447251E+04  0.50400001928E-02 0.  1.
       -1   -1    0    0    0  501  0.00000000000E+00  0.00000000000E+00 -0.13246962667E+04  0.13246962667E+04  0.50400001928E-02 0. -1.
    10030    2    1    2    0    0  0.00000000000E+00  0.00000000000E+00  0.11368484584E+04  0.37862409917E+04  0.36115365747E+04 0.  0.
        5    1    3    3  502    0 -0.13805858625E+04  0.10057336842E+04 -0.45800767975E+02  0.17086946385E+04  0.46999998093E+01 0.  1.
       -5    1    3    3    0  502  0.13805858625E+04 -0.10057336842E+04  0.11826492263E+04  0.20775463532E+04  0.46999998093E+01 0. -1.
</event>
<event>
 5   0  0.1017794E-07  0.3598718E+04  0.7818609E-02  0.8090785E-01
        2   -1    0    0  501    0  0.00000000000E+00  0.00000000000E+00  0.15378800434E+04  0.15378800434E+04  0.25500000920E-02 0. -1.
       -2   -1    0    0    0  501  0.00000000000E+00  0.00000000000E+00 -0.21052964369E+04  0.21052964369E+04  0.25500000920E-02 0.  1.
    10030    2    1    2    0    0  0.00000000000E+00  0.00000000000E+00 -0.56741639352E+03  0.36431764803E+04  0.35987183139E+04 0.  0.
        1    1    3    3  502    0  0.54108761392E+03  0.51735367696E+03  0.13727399781E+04  0.15636002304E+04  0.50400001928E-02 0. -1.
       -1    1    3    3    0  502 -0.54108761392E+03 -0.51735367696E+03 -0.19401563716E+04  0.20795762499E+04  0.50400001928E-02 0.  1.
</event>
<event>
 5   0  0.3202875E-08  0.3596446E+04  0.7818609E-02  0.8091306E-01
       -1   -1    0    0    0  501  0.00000000000E+00  0.00000000000E+00  0.11494937193E+04  0.11494937193E+04  0.50400001928E-02 0. -1.
        1   -1    0    0  501    0  0.00000000000E+00  0.00000000000E+00 -0.28130697727E+04  0.28130697727E+04  0.50400001928E-02 0.  1.
    10030    2    1    2    0    0  0.00000000000E+00  0.00000000000E+00 -0.16635760534E+04  0.39625634920E+04  0.35964460433E+04 0.  0.
        1    1    3    3  502    0 -0.61646015549E+03 -0.64359624840E+03  0.88905492595E+03  0.12588319648E+04  0.50400001928E-02 0. -1.
       -1    1    3    3    0  502  0.61646015549E+03  0.64359624840E+03 -0.25526309794E+04  0.27037315272E+04  0.50400001928E-02 0.  1.
</event>
<event>
 5   0  0.3202875E-08  0.3604131E+04  0.7818609E-02  0.8089546E-01
        1   -1    0    0  501    0  0.00000000000E+00  0.00000000000E+00  0.20009445192E+04  0.20009445192E+04  0.50400001928E-02 0.  1.
       -1   -1    0    0    0  501  0.00000000000E+00  0.00000000000E+00 -0.16229532497E+04  0.16229532497E+04  0.50400001928E-02 0. -1.
    10030    2    1    2    0    0  0.00000000000E+00  0.00000000000E+00  0.37799126948E+03  0.36238977689E+04  0.36041306358E+04 0.  0.
        2    1    3    3  502    0 -0.10261062497E+03  0.15738625013E+04  0.10654802358E+04  0.19033707590E+04  0.25500000920E-02 0.  1.
       -2    1    3    3    0  502  0.10261062497E+03 -0.15738625013E+04 -0.68748896631E+03  0.17205270100E+04  0.25500000920E-02 0. -1.
</event>
<event>
 5   0  0.1029908E-07  0.3602902E+04  0.7818609E-02  0.8089827E-01
       -2   -1    0    0    0  501  0.00000000000E+00  0.00000000000E+00  0.10500147698E+04  0.10500147698E+04  0.25500000920E-02 0.  1.
        2   -1    0    0  501    0  0.00000000000E+00  0.00000000000E+00 -0.30906472902E+04  0.30906472902E+04  0.25500000920E-02 0. -1.
    10030    2    1    2    0    0  0.00000000000E+00  0.00000000000E+00 -0.20406325203E+04  0.41406620600E+04  0.36029017767E+04 0.  0.
        4    1    3    3  502    0 -0.39352077644E+03  0.56709353374E+03  0.89200479134E+03  0.11278864474E+04  0.12699999809E+01 0.  1.
       -4    1    3    3    0  502  0.39352077644E+03 -0.56709353374E+03 -0.29326373117E+04  0.30127756127E+04  0.12699999809E+01 0. -1.
</event>
<event>
 5   0  0.1044678E-07  0.3600816E+04  0.7818609E-02  0.8090305E-01
        2   -1    0    0  501    0  0.00000000000E+00  0.00000000000E+00  0.23098076120E+04  0.23098076120E+04  0.25500000920E-02 0.  1.
       -2   -1    0    0    0  501  0.00000000000E+00  0.00000000000E+00 -0.14033502364E+04  0.14033502364E+04  0.25500000920E-02 0. -1.
    10030    2    1    2    0    0  0.00000000000E+00  0.00000000000E+00  0.90645737562E+03  0.37131578484E+04  0.36008160510E+04 0.  0.
        2    1    3    3  502    0  0.11707240813E+04 -0.13598022716E+04  0.30093220223E+03  0.18194002536E+04  0.25500000920E-02 0. -1.
       -2    1    3    3    0  502 -0.11707240813E+04  0.13598022716E+04  0.60552517338E+03  0.18937575948E+04  0.25500000920E-02 0.  1.
</event>
<event>
 5   0  0.1029908E-07  0.3602543E+04  0.7818609E-02  0.8089910E-01
        2   -1    0    0  501    0  0.00000000000E+00  0.00000000000E+00  0.21513094463E+04  0.21513094463E+04  0.25500000920E-02 0. -1.
       -2   -1    0    0    0  501  0.00000000000E+00  0.00000000000E+00 -0.15081875540E+04  0.15081875540E+04  0.25500000920E-02 0.  1.
    10030    2    1    2    0    0  0.00000000000E+00  0.00000000000E+00  0.64312189229E+03  0.36594970002E+04  0.36025425086E+04 0.  0.
        4    1    3    3  502    0 -0.83071767995E+03 -0.15508915033E+04  0.71395831838E+03  0.18987086169E+04  0.12699999809E+01 0. -1.
       -4    1    3    3    0  502  0.83071767995E+03  0.15508915033E+04 -0.70836426085E+02  0.17607883833E+04  0.12699999809E+01 0.  1.
</event>
<event>
 5   0  0.3202875E-08  0.3621034E+04  0.7818609E-02  0.8085690E-01
        1   -1    0    0  501    0  0.00000000000E+00  0.00000000000E+00  0.97870291537E+03  0.97870291538E+03  0.50400001928E-02 0. -1.
       -1   -1    0    0    0  501  0.00000000000E+00  0.00000000000E+00 -0.33493027991E+04  0.33493027991E+04  0.50400001928E-02 0.  1.
    10030    2    1    2    0    0  0.00000000000E+00  0.00000000000E+00 -0.23705998837E+04  0.43280057145E+04  0.36210343351E+04 0.  0.
        2    1    3    3  502    0 -0.58830464089E+03 -0.15241712969E+04 -0.21178721936E+04  0.26748052492E+04  0.25500000920E-02 0. -1.
       -2    1    3    3    0  502  0.58830464089E+03  0.15241712969E+04 -0.25272769011E+03  0.16532004652E+04  0.25500000920E-02 0.  1.
</event>
<event>
 5   0  0.1017794E-07  0.3599758E+04  0.7818609E-02  0.8090547E-01
       -2   -1    0    0    0  501  0.00000000000E+00  0.00000000000E+00  0.16175727671E+04  0.16175727671E+04  0.25500000920E-02 0. -1.
        2   -1    0    0  501    0  0.00000000000E+00  0.00000000000E+00 -0.20027317732E+04  0.20027317732E+04  0.25500000920E-02 0.  1.
    10030    2    1    2    0    0  0.00000000000E+00  0.00000000000E+00 -0.38515900610E+03  0.36203045403E+04  0.35997579786E+04 0.  0.
        1    1    3    3  502    0  0.16347805841E+04 -0.27818142566E+03  0.51118020493E+03  0.17352802845E+04  0.50400001928E-02 0. -1.
       -1    1    3    3    0  502 -0.16347805841E+04  0.27818142566E+03 -0.89633921104E+03  0.18850242558E+04  0.50400001928E-02 0.  1.
</event>
<event>
 5   0  0.3215494E-08  0.3583895E+04  0.7818609E-02  0.8094191E-01
       -1   -1    0    0    0  501  0.00000000000E+00  0.00000000000E+00  0.13392437308E+04  0.13392437308E+04  0.50400001928E-02 0. -1.
        1   -1    0    0  501    0  0.00000000000E+00  0.00000000000E+00 -0.23976783886E+04  0.23976783886E+04  0.50400001928E-02 0.  1.
    10030    2    1    2    0    0  0.00000000000E+00  0.00000000000E+00 -0.10584346579E+04  0.37369221194E+04  0.35838949484E+04 0.  0.
        4    1    3    3  502    0  0.56468213964E+03 -0.89735585516E+03  0.97709804949E+03  0.14418167917E+04  0.12699999809E+01 0. -1.
       -4    1    3    3    0  502 -0.56468213964E+03  0.89735585516E+03 -0.20355327074E+04  0.22951053277E+04  0.12699999809E+01 0.  1.
</event>
<event>
 5   0  0.3202875E-08  0.3624416E+04  0.7818609E-02  0.8084922E-01
       -1   -1    0    0    0  501  0.00000000000E+00  0.00000000000E+00  0.15028280283E+04  0.15028280283E+04  0.50400001928E-02 0.  1.
        1   -1    0    0  501    0  0.00000000000E+00  0.00000000000E+00 -0.21852786259E+04  0.21852786259E+04  0.50400001928E-02 0. -1.
    10030    2    1    2    0    0  0.00000000000E+00  0.00000000000E+00 -0.68245059762E+03  0.36881066542E+04  0.36244160736E+04 0.  0.
        2    1    3    3  502    0  0.26567332460E+02 -0.54551340771E+02 -0.21842446885E+04  0.21850873052E+04  0.25500000920E-02 0. -1.
       -2    1    3    3    0  502 -0.26567332460E+02  0.54551340771E+02  0.15017940909E+04  0.15030193490E+04  0.25500000920E-02 0.  1.
</event>
<event>
 5   0  0.3202875E-08  0.3595496E+04  0.7818609E-02  0.8091524E-01
       -1   -1    0    0    0  501  0.00000000000E+00  0.00000000000E+00  0.19130437975E+04  0.19130437975E+04  0.50400001928E-02 0.  1.
        1   -1    0    0  501    0  0.00000000000E+00  0.00000000000E+00 -0.16894008460E+04  0.16894008460E+04  0.50400001928E-02 0. -1.
    10030    2    1    2    0    0  0.00000000000E+00  0.00000000000E+00  0.22364295147E+03  0.36024446435E+04  0.35954959658E+04 0.  0.
        1    1    3    3  502    0  0.73718579226E+03  0.16202309324E+04  0.36391584960E+03  0.18168725636E+04  0.50400001928E-02 0. -1.
       -1    1    3    3    0  502 -0.73718579226E+03 -0.16202309324E+04 -0.14027289813E+03  0.17855720799E+04  0.50400001928E-02 0.  1.
</event>
<event>
 5   0  0.1017794E-07  0.3594354E+04  0.7818609E-02  0.8091786E-01
       -2   -1    0    0    0  501  0.00000000000E+00  0.00000000000E+00  0.16069515132E+04  0.16069515132E+04  0.25500000920E-02 0.  1.
        2   -1    0    0  501    0  0.00000000000E+00  0.00000000000E+00 -0.20099211099E+04  0.20099211099E+04  0.25500000920E-02 0. -1.
    10030    2    1    2    0    0  0.00000000000E+00  0.00000000000E+00 -0.40296959667E+03  0.36168726232E+04  0.35943543337E+04 0.  0.
        1    1    3    3  502    0  0.61472924596E+03 -0.16193696940E+04  0.28067836596E+03  0.17547166714E+04  0.50400001928E-02 0.  1.
       -1    1    3    3    0  502 -0.61472924596E+03  0.16193696940E+04 -0.68364796263E+03  0.18621559517E+04  0.50400001928E-02 0. -1.
</event>
<event>
 5   0  0.3212523E-08  0.3606619E+04  0.7818609E-02  0.8088977E-01
        1   -1    0    0  501    0  0.00000000000E+00  0.00000000000E+00  0.17042683862E+04  0.17042683862E+04  0.50400001928E-02 0.  1.
       -1   -1    0    0    0  501  0.00000000000E+00  0.00000000000E+00 -0.19081057808E+04  0.19081057808E+04  0.50400001928E-02 0. -1.
    10030    2    1    2    0    0  0.00000000000E+00  0.00000000000E+00 -0.20383739464E+03  0.36123741670E+04  0.36066185603E+04 0.  0.
        3    1    3    3  502    0  0.34447872449E+03 -0.13447189536E+04  0.10510002185E+04  0.17411307031E+04  0.10100000352E+00 0.  1.
       -3    1    3    3    0  502 -0.34447872449E+03  0.13447189536E+04 -0.12548376131E+04  0.18712434639E+04  0.10100000352E+00 0. -1.
</event>
<event>
 5   0  0.3279988E-08  0.3662417E+04  0.7818609E-02  0.8076342E-01
        1   -1    0    0  501    0  0.00000000000E+00  0.00000000000E+00  0.23617508496E+04  0.23617508496E+04  0.50400001928E-02 0.  1.
       -1   -1    0    0    0  501  0.00000000000E+00  0.00000000000E+00 -0.14198467582E+04  0.14198467583E+04  0.50400001928E-02 0. -1.
    10030    2    1    2    0    0  0.00000000000E+00  0.00000000000E+00  0.94190409135E+03  0.37815976079E+04  0.36624168455E+04 0.  0.
        5    1    3    3  502    0 -0.17459344324E+03 -0.15663310821E+04  0.14337250857E+04  0.21306021779E+04  0.46999998093E+01 0.  1.
       -5    1    3    3    0  502  0.17459344324E+03  0.15663310821E+04 -0.49182099434E+03  0.16509954299E+04  0.46999998093E+01 0. -1.
</event>
<event>
 5   0  0.3212523E-08  0.3602334E+04  0.7818609E-02  0.8089957E-01
        1   -1    0    0  501    0  0.00000000000E+00  0.00000000000E+00  0.19694654754E+04  0.19694654755E+04  0.50400001928E-02 0. -1.
       -1   -1    0    0    0  501  0.00000000000E+00  0.00000000000E+00 -0.16472503162E+04  0.16472503162E+04  0.50400001928E-02 0.  1.
    10030    2    1    2    0    0  0.00000000000E+00  0.00000000000E+00  0.32221515926E+03  0.36167157916E+04  0.36023340362E+04 0.  0.
        3    1    3    3  502    0 -0.15073841412E+03 -0.30386680549E+03  0.19371088846E+04  0.19665828093E+04  0.10100000352E+00 0. -1.
       -3    1    3    3    0  502  0.15073841412E+03  0.30386680549E+03 -0.16148937253E+04  0.16501329823E+04  0.10100000352E+00 0.  1.
</event>
<event>
 5   0  0.1044678E-07  0.3606947E+04  0.7818609E-02  0.8088902E-01
       -2   -1    0    0    0  501  0.00000000000E+00  0.00000000000E+00  0.20964467939E+04  0.20964467939E+04  0.25500000920E-02 0.  1.
        2   -1    0    0  501    0  0.00000000000E+00  0.00000000000E+00 -0.15514421325E+04  0.15514421325E+04  0.25500000920E-02 0. -1.
    10030    2    1    2    0    0  0.00000000000E+00  0.00000000000E+00  0.54500466137E+03  0.36478889264E+04  0.36069465671E+04 0.  0.
        2    1    3    3  502    0  0.58612128912E+03 -0.53173042037E+02 -0.14515916536E+04  0.15663600693E+04  0.25500000920E-02 0. -1.
       -2    1    3    3    0  502 -0.58612128912E+03  0.53173042037E+02  0.19965963149E+04  0.20815288571E+04  0.25500000920E-02 0.  1.
</event>
<event>
 5   0  0.1044678E-07  0.3607383E+04  0.7818609E-02  0.8088803E-01
       -2   -1    0    0    0  501  0.00000000000E+00  0.00000000000E+00  0.22510001834E+04  0.22510001834E+04  0.25500000920E-02 0. -1.
        2   -1    0    0  501    0  0.00000000000E+00  0.00000000000E+00 -0.14452700327E+04  0.14452700327E+04  0.25500000920E-02 0.  1.
    10030    2    1    2    0    0  0.00000000000E+00  0.00000000000E+00  0.80573015071E+03  0.36962702161E+04  0.36073830452E+04 0.  0.
        2    1    3    3  502    0  0.12722595456E+04 -0.94541777217E+03  0.12847965357E+04  0.20403826243E+04  0.25500000920E-02 0. -1.
       -2    1    3    3    0  502 -0.12722595456E+04  0.94541777217E+03 -0.47906638498E+03  0.16558875918E+04  0.25500000920E-02 0.  1.
</event>
<event>
 5   0  0.1029908E-07  0.3601151E+04  0.7818609E-02  0.8090228E-01
        2   -1    0    0  501    0  0.00000000000E+00  0.00000000000E+00  0.22942466574E+04  0.22942466574E+04  0.25500000920E-02 0. -1.
       -2   -1    0    0    0  501  0.00000000000E+00  0.00000000000E+00 -0.14131317357E+04  0.14131317357E+04  0.25500000920E-02 0.  1.
    10030    2    1    2    0    0  0.00000000000E+00  0.00000000000E+00  0.88111492171E+03  0.37073783932E+04  0.36011513499E+04 0.  0.
        4    1    3    3  502    0  0.10980088609E+02  0.17293390368E+04  0.95668118722E+03  0.19763538584E+04  0.12699999809E+01 0. -1.
       -4    1    3    3    0  502 -0.10980088609E+02 -0.17293390368E+04 -0.75566265516E+02  0.17310245348E+04  0.12699999809E+01 0.  1.
</event>
<event>
 5   0  0.3212523E-08  0.3561905E+04  0.7818609E-02  0.8099274E-01
       -1   -1    0    0    0  501  0.00000000000E+00  0.00000000000E+00  0.18237820856E+04  0.18237820856E+04  0.50400001928E-02 0. -1.
        1   -1    0    0  501    0  0.00000000000E+00  0.00000000000E+00 -0.17391287751E+04  0.17391287751E+04  0.50400001928E-02 0.  1.
    10030    2    1    2    0    0  0.00000000000E+00  0.00000000000E+00  0.84653310455E+02  0.35629108607E+04  0.35619050546E+04 0.  0.
        3    1    3    3  502    0 -0.32542665511E+03  0.13772183551E+04 -0.10392552294E+04  0.17557574854E+04  0.10100000352E+00 0.  1.
       -3    1    3    3    0  502  0.32542665511E+03 -0.13772183551E+04  0.11239085399E+04  0.18071533753E+04  0.10100000352E+00 0. -1.
</event>
<event>
 5   0  0.3215494E-08  0.3598105E+04  0.7818609E-02  0.8090926E-01
        1   -1    0    0  501    0  0.00000000000E+00  0.00000000000E+00  0.23191397907E+04  0.23191397907E+04  0.50400001928E-02 0. -1.
       -1   -1    0    0    0  501  0.00000000000E+00  0.00000000000E+00 -0.13955994620E+04  0.13955994620E+04  0.50400001928E-02 0.  1.
    10030    2    1    2    0    0  0.00000000000E+00  0.00000000000E+00  0.92354032864E+03  0.37147392527E+04  0.35981051926E+04 0.  0.
        4    1    3    3  502    0  0.69625923995E+03 -0.15454145133E+04  0.10842282061E+04  0.20121221044E+04  0.12699999809E+01 0.  1.
       -4    1    3    3    0  502 -0.69625923995E+03  0.15454145133E+04 -0.16068787749E+03  0.17026171484E+04  0.12699999809E+01 0. -1.
</event>
<event>
 5   0  0.9905335E-08  0.3605442E+04  0.7818609E-02  0.8089246E-01
       -2   -1    0    0    0  501  0.00000000000E+00  0.00000000000E+00  0.22745492656E+04  0.22745492656E+04  0.25500000920E-02 0. -1.
        2   -1    0    0  501    0  0.00000000000E+00  0.00000000000E+00 -0.14287681866E+04  0.14287681866E+04  0.25500000920E-02 0.  1.
    10030    2    1    2    0    0  0.00000000000E+00  0.00000000000E+00  0.84578107899E+03  0.37033174523E+04  0.36054423472E+04 0.  0.
        5    1    3    3  502    0 -0.58442347349E+03  0.33382931512E+03  0.21406494778E+04  0.22439686015E+04  0.46999998093E+01 0. -1.
       -5    1    3    3    0  502  0.58442347349E+03 -0.33382931512E+03 -0.12948683988E+04  0.14593488507E+04  0.46999998093E+01 0.  1.
</event>
<event>
 5   0  0.3279988E-08  0.3598465E+04  0.7818609E-02  0.8090843E-01
       -1   -1    0    0    0  501  0.00000000000E+00  0.00000000000E+00  0.19272353659E+04  0.19272353659E+04  0.50400001928E-02 0. -1.
        1   -1    0    0  501    0  0.00000000000E+00  0.00000000000E+00 -0.16797311817E+04  0.16797311817E+04  0.50400001928E-02 0.  1.
    10030    2    1    2    0    0  0.00000000000E+00  0.00000000000E+00  0.24750418423E+03  0.36069665476E+04  0.35984648608E+04 0.  0.
        5    1    3    3  502    0 -0.18904395607E+03  0.36404684289E+03 -0.16322279675E+04  0.16829907751E+04  0.46999998093E+01 0.  1.
       -5    1    3    3    0  502  0.18904395607E+03 -0.36404684289E+03  0.18797321517E+04  0.19239757726E+04  0.46999998093E+01 0. -1.
</event>
<event>
 5   0  0.3202875E-08  0.3601691E+04  0.7818609E-02  0.8090104E-01
        1   -1    0    0  501    0  0.00000000000E+00  0.00000000000E+00  0.14474381784E+04  0.14474381784E+04  0.50400001928E-02 0.  1.
       -1   -1    0    0    0  501  0.00000000000E+00  0.00000000000E+00 -0.22405411742E+04  0.22405411742E+04  0.50400001928E-02 0. -1.
    10030    2    1    2    0    0  0.00000000000E+00  0.00000000000E+00 -0.79310299582E+03  0.36879793525E+04  0.36016911782E+04 0.  0.
        2    1    3    3  502    0 -0.87238329440E+03 -0.13743512904E+04  0.39206262824E+03  0.16743975592E+04  0.25500000920E-02 0.  1.
       -2    1    3    3    0  502  0.87238329440E+03  0.13743512904E+04 -0.11851656241E+04  0.20135817933E+04  0.25500000920E-02 0. -1.
</event>
<event>
 5   0  0.9905335E-08  0.3569072E+04  0.7818609E-02  0.8097613E-01
       -2   -1    0    0    0  501  0.00000000000E+00  0.00000000000E+00  0.25317776029E+04  0.25317776029E+04  0.25500000920E-02 0. -1.
        2   -1    0    0  501    0  0.00000000000E+00  0.00000000000E+00 -0.12578389670E+04  0.12578389670E+04  0.25500000920E-02 0.  1.
    10030    2    1    2    0    0  0.00000000000E+00  0.00000000000E+00  0.12739386358E+04  0.37896165699E+04  0.35690718820E+04 0.  0.
        5    1    3    3  502    0 -0.87154401206E+03 -0.10856661039E+04  0.18223256806E+04  0.22932842890E+04  0.46999998093E+01 0. -1.
       -5    1    3    3    0  502  0.87154401206E+03  0.10856661039E+04 -0.54838704473E+03  0.14963322809E+04  0.46999998093E+01 0.  1.
</event>
<event>
 5   0  0.3212523E-08  0.3631447E+04  0.7818609E-02  0.8083326E-01
       -1   -1    0    0    0  501  0.00000000000E+00  0.00000000000E+00  0.14978020233E+04  0.14978020233E+04  0.50400001928E-02 0.  1.
        1   -1    0    0  501    0  0.00000000000E+00  0.00000000000E+00 -0.22011269349E+04  0.22011269349E+04  0.50400001928E-02 0. -1.
    10030    2    1    2    0    0  0.00000000000E+00  0.00000000000E+00 -0.70332491164E+03  0.36989289582E+04  0.36314473019E+04 0.  0.
        3    1    3    3  502    0 -0.17484309298E+04 -0.22034072273E+03  0.93833957703E+02  0.17647565193E+04  0.10100000352E+00 0.  1.
       -3    1    3    3    0  502  0.17484309298E+04  0.22034072273E+03 -0.79715886934E+03  0.19341724390E+04  0.10100000352E+00 0. -1.
</event>
<event>
 5   0  0.3212523E-08  0.3609473E+04  0.7818609E-02  0.8088325E-01
        1   -1    0    0  501    0  0.00000000000E+00  0.00000000000E+00  0.24440771615E+04  0.24440771615E+04  0.50400001928E-02 0. -1.
       -1   -1    0    0    0  501  0.00000000000E+00  0.00000000000E+00 -0.13326395720E+04  0.13326395720E+04  0.50400001928E-02 0.  1.
    10030    2    1    2    0    0  0.00000000000E+00  0.00000000000E+00  0.11114375895E+04  0.37767167335E+04  0.36094730598E+04 0.  0.
        3    1    3    3  502    0 -0.17126824821E+04  0.74538982120E+02  0.11459819327E+04  0.20620649710E+04  0.10100000352E+00 0. -1.
       -3    1    3    3    0  502  0.17126824821E+04 -0.74538982120E+02 -0.34544343266E+02  0.17146517624E+04  0.10100000352E+00 0.  1.
</event>
<event>
 5   0  0.3212523E-08  0.3599202E+04  0.7818609E-02  0.8090675E-01
        1   -1    0    0  501    0  0.00000000000E+00  0.00000000000E+00  0.14503696406E+04  0.14503696406E+04  0.50400001928E-02 0. -1.
       -1   -1    0    0    0  501  0.00000000000E+00  0.00000000000E+00 -0.22329226949E+04  0.22329226949E+04  0.50400001928E-02 0.  1.
    10030    2    1    2    0    0  0.00000000000E+00  0.00000000000E+00 -0.78255305427E+03  0.36832923355E+04  0.35992017374E+04 0.  0.
        3    1    3    3  502    0  0.67785449377E+03 -0.24292079752E+03  0.12965185829E+04  0.14830568683E+04  0.10100000352E+00 0. -1.
       -3    1    3    3    0  502 -0.67785449377E+03  0.24292079752E+03 -0.20790716372E+04  0.22002354672E+04  0.10100000352E+00 0.  1.
</event>
<event>
 5   0  0.3202875E-08  0.3599346E+04  0.7818609E-02  0.8090641E-01
       -1   -1    0    0    0  501  0.00000000000E+00  0.00000000000E+00  0.18285773853E+04  0.18285773853E+04  0.50400001928E-02 0.  1.
        1   -1    0    0  501    0  0.00000000000E+00  0.00000000000E+00 -0.17712255901E+04  0.17712255901E+04  0.50400001928E-02 0. -1.
    10030    2    1    2    0    0  0.00000000000E+00  0.00000000000E+00  0.57351795235E+02  0.35998029754E+04  0.35993460842E+04 0.  0.
        2    1    3    3  502    0  0.77702565164E+03 -0.15209792942E+04 -0.53856113590E+03  0.17908643092E+04  0.25500000920E-02 0. -1.
       -2    1    3    3    0  502 -0.77702565164E+03  0.15209792942E+04  0.59591293114E+03  0.18089386663E+04  0.25500000920E-02 0.  1.
</event>
<event>
 5   0  0.3215494E-08  0.3608056E+04  0.7818609E-02  0.8088649E-01
        1   -1    0    0  501    0  0.00000000000E+00  0.00000000000E+00  0.19565295136E+04  0.19565295136E+04  0.50400001928E-02 0. -1.
       -1   -1    0    0    0  501  0.00000000000E+00  0.00000000000E+00 -0.16634136423E+04  0.16634136423E+04  0.50400001928E-02 0.  1.
    10030    2    1    2    0    0  0.00000000000E+00  0.00000000000E+00  0.29311587135E+03  0.36199431559E+04  0.36080564766E+04 0.  0.
        4    1    3    3  502    0  0.17624675829E+04 -0.21158367982E+03 -0.17614848232E+03  0.17838412304E+04  0.12699999809E+01 0.  1.
       -4    1    3    3    0  502 -0.17624675829E+04  0.21158367982E+03  0.46926435367E+03  0.18361019256E+04  0.12699999809E+01 0. -1.
</event>
<event>
 5   0  0.3215494E-08  0.3603066E+04  0.7818609E-02  0.8089790E-01
       -1   -1    0    0    0  501  0.00000000000E+00  0.00000000000E+00  0.21631960657E+04  0.21631960657E+04  0.50400001928E-02 0. -1.
        1   -1    0    0  501    0  0.00000000000E+00  0.00000000000E+00 -0.15003361245E+04  0.15003361245E+04  0.50400001928E-02 0.  1.
    10030    2    1    2    0    0  0.00000000000E+00  0.00000000000E+00  0.66285994123E+03  0.36635321902E+04  0.36030660286E+04 0.  0.
        4    1    3    3  502    0  0.11663323098E+04 -0.11953381309E+04  0.10183075380E+04  0.19560460523E+04  0.12699999809E+01 0. -1.
       -4    1    3    3    0  502 -0.11663323098E+04  0.11953381309E+04 -0.35544759673E+03  0.17074861378E+04  0.12699999809E+01 0.  1.
</event>
<event>
 5   0  0.1021087E-07  0.3594529E+04  0.7818609E-02  0.8091746E-01
        2   -1    0    0  501    0  0.00000000000E+00  0.00000000000E+00  0.98148762959E+03  0.98148762959E+03  0.25500000920E-02 0. -1.
       -2   -1    0    0    0  501  0.00000000000E+00  0.00000000000E+00 -0.32910853038E+04  0.32910853038E+04  0.25500000920E-02 0.  1.
    10030    2    1    2    0    0  0.00000000000E+00  0.00000000000E+00 -0.23095976742E+04  0.42725729334E+04  0.35945289058E+04 0.  0.
        3    1    3    3  502    0  0.62042272427E+03 -0.22810181758E+03 -0.31413460322E+04  0.32101416947E+04  0.10100000352E+00 0.  1.
       -3    1    3    3    0  502 -0.62042272427E+03  0.22810181758E+03  0.83174835792E+03  0.10624312387E+04  0.10100000352E+00 0. -1.
</event>
<event>
 5   0  0.1029908E-07  0.3618960E+04  0.7818609E-02  0.8086162E-01
        2   -1    0    0  501    0  0.00000000000E+00  0.00000000000E+00  0.21368795775E+04  0.21368795775E+04  0.25500000920E-02 0. -1.
       -2   -1    0    0    0  501  0.00000000000E+00  0.00000000000E+00 -0.15322428139E+04  0.15322428139E+04  0.25500000920E-02 0.  1.
    10030    2    1    2    0    0  0.00000000000E+00  0.00000000000E+00  0.60463676353E+03  0.36691223914E+04  0.36189602799E+04 0.  0.
        4    1    3    3  502    0  0.92233442617E+03 -0.38454876906E+03  0.18317497437E+04  0.20865970588E+04  0.12699999809E+01 0. -1.
       -4    1    3    3    0  502 -0.92233442617E+03  0.38454876906E+03 -0.12271129801E+04  0.15825253326E+04  0.12699999809E+01 0.  1.
</event>
<event>
 5   0  0.1029908E-07  0.3570105E+04  0.7818609E-02  0.8097374E-01
       -2   -1    0    0    0  501  0.00000000000E+00  0.00000000000E+00  0.13860542972E+04  0.13860542972E+04  0.25500000920E-02 0.  1.
        2   -1    0    0  501    0  0.00000000000E+00  0.00000000000E+00 -0.22989086673E+04  0.22989086673E+04  0.25500000920E-02 0. -1.
    10030    2    1    2    0    0  0.00000000000E+00  0.00000000000E+00 -0.91285437005E+03  0.36849629645E+04  0.35701048932E+04 0.  0.
        4    1    3    3  502    0 -0.13930183897E+04  0.50511667920E+03 -0.14838235713E+04  0.20969923932E+04  0.12699999809E+01 0. -1.
       -4    1    3    3    0  502  0.13930183897E+04 -0.50511667920E+03  0.57096920124E+03  0.15879705713E+04  0.12699999809E+01 0.  1.
</event>
<event>
 5   0  0.3279988E-08  0.3596886E+04  0.7818609E-02  0.8091205E-01
        1   -1    0    0  501    0  0.00000000000E+00  0.00000000000E+00  0.13596686843E+04  0.13596686843E+04  0.50400001928E-02 0.  1.
       -1   -1    0    0    0  501  0.00000000000E+00  0.00000000000E+00 -0.23788129901E+04  0.23788129901E+04  0.50400001928E-02 0. -1.
    10030    2    1    2    0    0  0.00000000000E+00  0.00000000000E+00 -0.10191443058E+04  0.37384816744E+04  0.35968861692E+04 0.  0.
        5    1    3    3  502    0  0.93768392390E+03 -0.62803846944E+03 -0.19649415826E+04  0.22659878581E+04  0.46999998093E+01 0. -1.
       -5    1    3    3    0  502 -0.93768392390E+03  0.62803846944E+03  0.94579727678E+03  0.14724938163E+04  0.46999998093E+01 0.  1.
</event>
<event>
 5   0  0.3212523E-08  0.3613358E+04  0.7818609E-02  0.8087439E-01
       -1   -1    0    0    0  501  0.00000000000E+00  0.00000000000E+00  0.11672288074E+04  0.11672288074E+04  0.50400001928E-02 0.  1.
        1   -1    0    0  501    0  0.00000000000E+00  0.00000000000E+00 -0.27964436764E+04  0.27964436764E+04  0.50400001928E-02 0. -1.
    10030    2    1    2    0    0  0.00000000000E+00  0.00000000000E+00 -0.16292148690E+04  0.39636724838E+04  0.36133583367E+04 0.  0.
        3    1    3    3  502    0 -0.17113284773E+04  0.42500147568E+03 -0.12462236274E+04  0.21592463387E+04  0.10100000352E+00 0. -1.
       -3    1    3    3    0  502  0.17113284773E+04 -0.42500147568E+03 -0.38299124161E+03  0.18044261451E+04  0.10100000352E+00 0.  1.
</event>
<event>
 5   0  0.1029908E-07  0.3491562E+04  0.7818609E-02  0.8115793E-01
        2   -1    0    0  501    0  0.00000000000E+00  0.00000000000E+00  0.16646745371E+04  0.16646745371E+04  0.25500000920E-02 0.  1.
       -2   -1    0    0    0  501  0.00000000000E+00  0.00000000000E+00 -0.18308390185E+04  0.18308390185E+04  0.25500000920E-02 0. -1.
    10030    2    1    2    0    0  0.00000000000E+00  0.00000000000E+00 -0.16616448136E+03  0.34955135556E+04  0.34915618830E+04 0.  0.
        4    1    3    3  502    0  0.22530388653E+03 -0.59519022535E+03 -0.17105715965E+04  0.18251219261E+04  0.12699999809E+01 0. -1.
       -4    1    3    3    0  502 -0.22530388653E+03  0.59519022535E+03  0.15444071151E+04  0.16703916295E+04  0.12699999809E+01 0.  1.
</event>
<event>
 5   0  0.9905335E-08  0.3582742E+04  0.7818609E-02  0.8094456E-01
       -2   -1    0    0    0  501  0.00000000000E+00  0.00000000000E+00  0.17494072534E+04  0.17494072534E+04  0.25500000920E-02 0. -1.
        2   -1    0    0  501    0  0.00000000000E+00  0.00000000000E+00 -0.18343417088E+04  0.18343417088E+04  0.25500000920E-02 0.  1.
    10030    2    1    2    0    0  0.00000000000E+00  0.00000000000E+00 -0.84934455381E+02  0.35837489623E+04  0.35827423523E+04 0.  0.
        5    1    3    3  502    0  0.56354372133E+03 -0.66027704634E+03  0.15249578123E+04  0.17547266805E+04  0.46999998093E+01 0. -1.
       -5    1    3    3    0  502 -0.56354372133E+03  0.66027704634E+03 -0.16098922677E+04  0.18290222818E+04  0.46999998093E+01 0.  1.
</event>
<event>
 5   0  0.3279988E-08  0.3601443E+04  0.7818609E-02  0.8090161E-01
        1   -1    0    0  501    0  0.00000000000E+00  0.00000000000E+00  0.14234482704E+04  0.14234482704E+04  0.50400001928E-02 0. -1.
       -1   -1    0    0    0  501  0.00000000000E+00  0.00000000000E+00 -0.22779874713E+04  0.22779874713E+04  0.50400001928E-02 0.  1.
    10030    2    1    2    0    0  0.00000000000E+00  0.00000000000E+00 -0.85453920087E+03  0.37014357417E+04  0.36014426699E+04 0.  0.
        5    1    3    3  502    0  0.10433476529E+04 -0.69994102912E+03  0.89854031106E+03  0.15446321730E+04  0.46999998093E+01 0. -1.
       -5    1    3    3    0  502 -0.10433476529E+04  0.69994102912E+03 -0.17530795119E+04  0.21568035688E+04  0.46999998093E+01 0.  1.
</event>
<event>
 5   0  0.3212523E-08  0.3597448E+04  0.7818609E-02  0.8091076E-01
        1   -1    0    0  501    0  0.00000000000E+00  0.00000000000E+00  0.13136194490E+04  0.13136194490E+04  0.50400001928E-02 0.  1.
       -1   -1    0    0    0  501  0.00000000000E+00  0.00000000000E+00 -0.24629726677E+04  0.24629726677E+04  0.50400001928E-02 0. -1.
    10030    2    1    2    0    0  0.00000000000E+00  0.00000000000E+00 -0.11493532187E+04  0.37765921167E+04  0.35974484284E+04 0.  0.
        3    1    3    3  502    0 -0.75165880829E+03  0.16285661804E+04 -0.71626319120E+03  0.19313859628E+04  0.10100000352E+00 0. -1.
       -3    1    3    3    0  502  0.75165880829E+03 -0.16285661804E+04 -0.43309002752E+03  0.18452061539E+04  0.10100000352E+00 0.  1.
</event>
<event>
 5   0  0.1044678E-07  0.3606353E+04  0.7818609E-02  0.8089038E-01
       -2   -1    0    0    0  501  0.00000000000E+00  0.00000000000E+00  0.15672010702E+04  0.15672010702E+04  0.25500000920E-02 0. -1.
        2   -1    0    0  501    0  0.00000000000E+00  0.00000000000E+00 -0.20746825987E+04  0.20746825987E+04  0.25500000920E-02 0.  1.
    10030    2    1    2    0    0  0.00000000000E+00  0.00000000000E+00 -0.50748152848E+03  0.36418836688E+04  0.36063526111E+04 0.  0.
        2    1    3    3  502    0 -0.13107516342E+04 -0.99997680452E+03 -0.99129348886E+03  0.19237167767E+04  0.25500000920E-02 0.  1.
       -2    1    3    3    0  502  0.13107516342E+04  0.99997680452E+03  0.48381196037E+03  0.17181668921E+04  0.25500000920E-02 0. -1.
</event>
<event>
 5   0  0.9905335E-08  0.3595027E+04  0.7818609E-02  0.8091632E-01
       -2   -1    0    0    0  501  0.00000000000E+00  0.00000000000E+00  0.25771861609E+04  0.25771861609E+04  0.25500000920E-02 0. -1.
        2   -1    0    0  501    0  0.00000000000E+00  0.00000000000E+00 -0.12537139225E+04  0.12537139225E+04  0.25500000920E-02 0.  1.
    10030    2    1    2    0    0  0.00000000000E+00  0.00000000000E+00  0.13234722384E+04  0.38309000834E+04  0.35950266596E+04 0.  0.
        5    1    3    3  502    0 -0.11952594456E+04 -0.10959940664E+04 -0.16449661400E+03  0.16300090067E+04  0.46999998093E+01 0.  1.
       -5    1    3    3    0  502  0.11952594456E+04  0.10959940664E+04  0.14879688524E+04  0.22008910767E+04  0.46999998093E+01 0. -1.
</event>
<event>
 5   0  0.1017794E-07  0.3603456E+04  0.7818609E-02  0.8089700E-01
        2   -1    0    0  501    0  0.00000000000E+00  0.00000000000E+00  0.26381997966E+04  0.26381997966E+04  0.25500000920E-02 0. -1.
       -2   -1    0    0    0  501  0.00000000000E+00  0.00000000000E+00 -0.12304695306E+04  0.12304695306E+04  0.25500000920E-02 0.  1.
    10030    2    1    2    0    0  0.00000000000E+00  0.00000000000E+00  0.14077302660E+04  0.38686693271E+04  0.36034563770E+04 0.  0.
        1    1    3    3  502    0 -0.13535221651E+04 -0.11156097851E+04  0.11460226953E+04  0.20952268283E+04  0.50400001928E-02 0. -1.
       -1    1    3    3    0  502  0.13535221651E+04  0.11156097851E+04  0.26170757074E+03  0.17734424988E+04  0.50400001928E-02 0.  1.
</event>
<event>
 5   0  0.1029908E-07  0.3604110E+04  0.7818609E-02  0.8089551E-01
        2   -1    0    0  501    0  0.00000000000E+00  0.00000000000E+00  0.26902074839E+04  0.26902074839E+04  0.25500000920E-02 0.  1.
       -2   -1    0    0    0  501  0.00000000000E+00  0.00000000000E+00 -0.12071193551E+04  0.12071193551E+04  0.25500000920E-02 0. -1.
    10030    2    1    2    0    0  0.00000000000E+00  0.00000000000E+00  0.14830881288E+04  0.38973268389E+04  0.36041096115E+04 0.  0.
        4    1    3    3  502    0 -0.71573105273E+03  0.15021049020E+04 -0.67122115924E+01  0.16639220965E+04  0.12699999809E+01 0.  1.
       -4    1    3    3    0  502  0.71573105273E+03 -0.15021049020E+04  0.14898003404E+04  0.22334047424E+04  0.12699999809E+01 0. -1.
</event>
<event>
 5   0  0.9905335E-08  0.3593493E+04  0.7818609E-02  0.8091984E-01
       -2   -1    0    0    0  501  0.00000000000E+00  0.00000000000E+00  0.14608585262E+04  0.14608585262E+04  0.25500000920E-02 0.  1.
        2   -1    0    0  501    0  0.00000000000E+00  0.00000000000E+00 -0.22098639154E+04  0.22098639154E+04  0.25500000920E-02 0. -1.
    10030    2    1    2    0    0  0.00000000000E+00  0.00000000000E+00 -0.74900538916E+03  0.36707224416E+04  0.35934933102E+04 0.  0.
        5    1    3    3  502    0 -0.11171669706E+04  0.25527601175E+03  0.10390910116E+04  0.15469195528E+04  0.46999998093E+01 0.  1.
       -5    1    3    3    0  502  0.11171669706E+04 -0.25527601175E+03 -0.17880964007E+04  0.21238028888E+04  0.46999998093E+01 0. -1.
</event>
<event>
 5   0  0.1021087E-07  0.3600978E+04  0.7818609E-02  0.8090268E-01
       -2   -1    0    0    0  501  0.00000000000E+00  0.00000000000E+00  0.16324960931E+04  0.16324960931E+04  0.25500000920E-02 0. -1.
        2   -1    0    0  501    0  0.00000000000E+00  0.00000000000E+00 -0.19857689277E+04  0.19857689277E+04  0.25500000920E-02 0.  1.
    10030    2    1    2    0    0  0.00000000000E+00  0.00000000000E+00 -0.35327283458E+03  0.36182650208E+04  0.36009776540E+04 0.  0.
        3    1    3    3  502    0 -0.10274551885E+04  0.59295263755E+03  0.11843041562E+04  0.16762557500E+04  0.10100000352E+00 0. -1.
       -3    1    3    3    0  502  0.10274551885E+04 -0.59295263755E+03 -0.15375769908E+04  0.19420092707E+04  0.10100000352E+00 0.  1.
</event>
<event>
 5   0  0.3215494E-08  0.3614382E+04  0.7818609E-02  0.8087205E-01
        1   -1    0    0  501    0  0.00000000000E+00  0.00000000000E+00  0.17791734165E+04  0.17791734165E+04  0.50400001928E-02 0. -1.
       -1   -1    0    0    0  501  0.00000000000E+00  0.00000000000E+00 -0.18356492881E+04  0.18356492881E+04  0.50400001928E-02 0.  1.
    10030    2    1    2    0    0  0.00000000000E+00  0.00000000000E+00 -0.56475871621E+02  0.36148227046E+04  0.36143815047E+04 0.  0.
        4    1    3    3  502    0  0.12536076196E+04 -0.69472966911E+03 -0.11291699393E+04  0.18246116688E+04  0.12699999809E+01 0.  1.
       -4    1    3    3    0  502 -0.12536076196E+04  0.69472966911E+03  0.10726940677E+04  0.17902110358E+04  0.12699999809E+01 0. -1.
</event>
<event>
 5   0  0.9905335E-08  0.3611240E+04  0.7818609E-02  0.8087922E-01
       -2   -1    0    0    0  501  0.00000000000E+00  0.00000000000E+00  0.33953830561E+04  0.33953830561E+04  0.25500000920E-02 0.  1.
        2   -1    0    0  501    0  0.00000000000E+00  0.00000000000E+00 -0.96020512070E+03  0.96020512070E+03  0.25500000920E-02 0. -1.
    10030    2    1    2    0    0  0.00000000000E+00  0.00000000000E+00  0.24351779354E+04  0.43555881768E+04  0.36112403394E+04 0.  0.
        5    1    3    3  502    0  0.28737963856E+03  0.13113414618E+04  0.26739697218E+04  0.29920460641E+04  0.46999998093E+01 0.  1.
       -5    1    3    3    0  502 -0.28737963856E+03 -0.13113414618E+04 -0.23879178639E+03  0.13635421128E+04  0.46999998093E+01 0. -1.
</event>
<event>
 5   0  0.3279988E-08  0.3599553E+04  0.7818609E-02  0.8090594E-01
        1   -1    0    0  501    0  0.00000000000E+00  0.00000000000E+00  0.16810380239E+04  0.16810380240E+04  0.50400001928E-02 0. -1.
       -1   -1    0    0    0  501  0.00000000000E+00  0.00000000000E+00 -0.19269023373E+04  0.19269023373E+04  0.50400001928E-02 0.  1.
    10030    2    1    2    0    0  0.00000000000E+00  0.00000000000E+00 -0.24586431338E+03  0.36079403613E+04  0.35995533598E+04 0.  0.
        5    1    3    3  502    0 -0.57253981846E+03 -0.44094221549E+03  0.15292233718E+04  0.16913834846E+04  0.46999998093E+01 0. -1.
       -5    1    3    3    0  502  0.57253981846E+03  0.44094221549E+03 -0.17750876852E+04  0.19165568766E+04  0.46999998093E+01 0.  1.
</event>
<event>
 5   0  0.3279988E-08  0.3601555E+04  0.7818609E-02  0.8090136E-01
       -1   -1    0    0    0  501  0.00000000000E+00  0.00000000000E+00  0.19419820460E+04  0.19419820460E+04  0.50400001928E-02 0.  1.
        1   -1    0    0  501    0  0.00000000000E+00  0.00000000000E+00 -0.16698400836E+04  0.16698400836E+04  0.50400001928E-02 0. -1.
    10030    2    1    2    0    0  0.00000000000E+00  0.00000000000E+00  0.27214196247E+03  0.36118221296E+04  0.36015549209E+04 0.  0.
        5    1    3    3  502    0 -0.22069034960E+03  0.53786521953E+03  0.18452694620E+04  0.19346949894E+04  0.46999998093E+01 0.  1.
       -5    1    3    3    0  502  0.22069034960E+03 -0.53786521953E+03 -0.15731274995E+04  0.16771271402E+04  0.46999998093E+01 0. -1.
</event>
<event>
 5   0  0.3279988E-08  0.3598630E+04  0.7818609E-02  0.8090806E-01
        1   -1    0    0  501    0  0.00000000000E+00  0.00000000000E+00  0.17493371933E+04  0.17493371933E+04  0.50400001928E-02 0.  1.
       -1   -1    0    0    0  501  0.00000000000E+00  0.00000000000E+00 -0.18507208331E+04  0.18507208331E+04  0.50400001928E-02 0. -1.
    10030    2    1    2    0    0  0.00000000000E+00  0.00000000000E+00 -0.10138363982E+03  0.36000580264E+04  0.35986301771E+04 0.  0.
        5    1    3    3  502    0 -0.10557268343E+04 -0.21389699574E+02  0.14067651003E+04  0.17589845949E+04  0.46999998093E+01 0.  1.
       -5    1    3    3    0  502  0.10557268343E+04  0.21389699574E+02 -0.15081487401E+04  0.18410734315E+04  0.46999998093E+01 0. -1.
</event>
<event>
 5   0  0.3202875E-08  0.3594305E+04  0.7818609E-02  0.8091797E-01
       -1   -1    0    0    0  501  0.00000000000E+00  0.00000000000E+00  0.31610110942E+04  0.31610110942E+04  0.50400001928E-02 0. -1.
        1   -1    0    0  501    0  0.00000000000E+00  0.00000000000E+00 -0.10217479970E+04  0.10217479970E+04  0.50400001928E-02 0.  1.
    10030    2    1    2    0    0  0.00000000000E+00  0.00000000000E+00  0.21392630972E+04  0.41827590912E+04  0.35943048029E+04 0.  0.
        1    1    3    3  502    0  0.95965129405E+03 -0.82470521486E+03  0.25547695963E+04  0.28509501904E+04  0.50400001928E-02 0. -1.
       -1    1    3    3    0  502 -0.95965129405E+03  0.82470521486E+03 -0.41550649911E+03  0.13318089009E+04  0.50400001928E-02 0.  1.
</event>
<event>
 5   0  0.1021087E-07  0.3599440E+04  0.7818609E-02  0.8090620E-01
        2   -1    0    0  501    0  0.00000000000E+00  0.00000000000E+00  0.18421958574E+04  0.18421958574E+04  0.25500000920E-02 0. -1.
       -2   -1    0    0    0  501  0.00000000000E+00  0.00000000000E+00 -0.17582237891E+04  0.17582237891E+04  0.25500000920E-02 0.  1.
    10030    2    1    2    0    0  0.00000000000E+00  0.00000000000E+00  0.83972068300E+02  0.36004196464E+04  0.35994402790E+04 0.  0.
        3    1    3    3  502    0 -0.63806162511E+02  0.17907751777E+04 -0.12552775891E+03  0.17963029232E+04  0.10100000352E+00 0.  1.
       -3    1    3    3    0  502  0.63806162511E+02 -0.17907751777E+04  0.20949982721E+03  0.18041167233E+04  0.10100000352E+00 0. -1.
</event>
<event>
 5   0  0.3202875E-08  0.3606430E+04  0.7818609E-02  0.8089020E-01
        1   -1    0    0  501    0  0.00000000000E+00  0.00000000000E+00  0.27930909008E+04  0.27930909008E+04  0.50400001928E-02 0.  1.
       -1   -1    0    0    0  501  0.00000000000E+00  0.00000000000E+00 -0.11641526452E+04  0.11641526452E+04  0.50400001928E-02 0. -1.
    10030    2    1    2    0    0  0.00000000000E+00  0.00000000000E+00  0.16289382556E+04  0.39572435461E+04  0.36064299026E+04 0.  0.
        2    1    3    3  502    0 -0.39167629725E+03  0.15283176126E+04 -0.14363381015E+03  0.15842334797E+04  0.25500000920E-02 0. -1.
       -2    1    3    3    0  502  0.39167629725E+03 -0.15283176126E+04  0.17725720658E+04  0.23730100664E+04  0.25500000920E-02 0.  1.
</event>
<event>
 5   0  0.3215494E-08  0.3598142E+04  0.7818609E-02  0.8090918E-01
       -1   -1    0    0    0  501  0.00000000000E+00  0.00000000000E+00  0.11718014157E+04  0.11718014157E+04  0.50400001928E-02 0. -1.
        1   -1    0    0  501    0  0.00000000000E+00  0.00000000000E+00 -0.27621195233E+04  0.27621195233E+04  0.50400001928E-02 0.  1.
    10030    2    1    2    0    0  0.00000000000E+00  0.00000000000E+00 -0.15903181076E+04  0.39339209390E+04  0.35981415024E+04 0.  0.
        4    1    3    3  502    0  0.10769946735E+04 -0.14362919801E+04 -0.66671474252E+03  0.19150358586E+04  0.12699999809E+01 0.  1.
       -4    1    3    3    0  502 -0.10769946735E+04  0.14362919801E+04 -0.92360336512E+03  0.20188850804E+04  0.12699999809E+01 0. -1.
</event>
<event>
 5   0  0.1029908E-07  0.3593927E+04  0.7818609E-02  0.8091884E-01
        2   -1    0    0  501    0  0.00000000000E+00  0.00000000000E+00  0.25541350816E+04  0.25541350816E+04  0.25500000920E-02 0. -1.
       -2   -1    0    0    0  501  0.00000000000E+00  0.00000000000E+00 -0.12642549984E+04  0.12642549984E+04  0.25500000920E-02 0.  1.
    10030    2    1    2    0    0  0.00000000000E+00  0.00000000000E+00  0.12898800832E+04  0.38183900799E+04  0.35939271241E+04 0.  0.
        4    1    3    3  502    0 -0.13684891628E+04  0.10831948279E+04  0.19043374734E+03  0.17556594911E+04  0.12699999809E+01 0. -1.
       -4    1    3    3    0  502  0.13684891628E+04 -0.10831948279E+04  0.10994463359E+04  0.20627305888E+04  0.12699999809E+01 0.  1.
</event>
<event>
 5   0  0.1044678E-07  0.3604587E+04  0.7818609E-02  0.8089442E-01
       -2   -1    0    0    0  501  0.00000000000E+00  0.00000000000E+00  0.27857116714E+04  0.27857116714E+04  0.25500000920E-02 0.  1.
        2   -1    0    0  501    0  0.00000000000E+00  0.00000000000E+00 -0.11660436519E+04  0.11660436519E+04  0.25500000920E-02 0. -1.
    10030    2    1    2    0    0  0.00000000000E+00  0.00000000000E+00  0.16196680194E+04  0.39517553233E+04  0.36045867505E+04 0.  0.
        2    1    3    3  502    0 -0.12927070961E+04 -0.11702127666E+04  0.31011263775E+03  0.17710616600E+04  0.25500000920E-02 0.  1.
       -2    1    3    3    0  502  0.12927070961E+04  0.11702127666E+04  0.13095553817E+04  0.21806936633E+04  0.25500000920E-02 0. -1.
</event>
<event>
 5   0  0.3202875E-08  0.3603273E+04  0.7818609E-02  0.8089742E-01
        1   -1    0    0  501    0  0.00000000000E+00  0.00000000000E+00  0.16301002767E+04  0.16301002768E+04  0.50400001928E-02 0.  1.
       -1   -1    0    0    0  501  0.00000000000E+00  0.00000000000E+00 -0.19912239740E+04  0.19912239741E+04  0.50400001928E-02 0. -1.
    10030    2    1    2    0    0  0.00000000000E+00  0.00000000000E+00 -0.36112369730E+03  0.36213242508E+04  0.36032733736E+04 0.  0.
        1    1    3    3  502    0 -0.77813756744E+02  0.52942359728E+03 -0.19095143905E+04  0.19830757761E+04  0.50400001928E-02 0. -1.
       -1    1    3    3    0  502  0.77813756744E+02 -0.52942359728E+03  0.15483906932E+04  0.16382484747E+04  0.50400001928E-02 0.  1.
</event>
<event>
 5   0  0.9905335E-08  0.3599397E+04  0.7818609E-02  0.8090630E-01
        2   -1    0    0  501    0  0.00000000000E+00  0.00000000000E+00  0.16430973252E+04  0.16430973252E+04  0.25500000920E-02 0.  1.
       -2   -1    0    0    0  501  0.00000000000E+00  0.00000000000E+00 -0.19712251484E+04  0.19712251485E+04  0.25500000920E-02 0. -1.
    10030    2    1    2    0    0  0.00000000000E+00  0.00000000000E+00 -0.32812782327E+03  0.36143224736E+04  0.35993970432E+04 0.  0.
        5    1    3    3  502    0 -0.80174913212E+03 -0.56963822102E+03  0.13493697474E+04  0.16697635099E+04  0.46999998093E+01 0.  1.
       -5    1    3    3    0  502  0.80174913212E+03  0.56963822102E+03 -0.16774975707E+04  0.19445589637E+04  0.46999998093E+01 0. -1.
</event>
<event>
 5   0  0.3212523E-08  0.3604587E+04  0.7818609E-02  0.8089442E-01
       -1   -1    0    0    0  501  0.00000000000E+00  0.00000000000E+00  0.11061174814E+04  0.11061174814E+04  0.50400001928E-02 0. -1.
        1   -1    0    0  501    0  0.00000000000E+00  0.00000000000E+00 -0.29366337413E+04  0.29366337413E+04  0.50400001928E-02 0.  1.
    10030    2    1    2    0    0  0.00000000000E+00  0.00000000000E+00 -0.18305162599E+04  0.40427512228E+04  0.36045870320E+04 0.  0.
        3    1    3    3  502    0 -0.38776457933E+03 -0.23377600578E+03  0.10412887931E+04  0.11354712461E+04  0.10100000352E+00 0. -1.
       -3    1    3    3    0  502  0.38776457933E+03  0.23377600578E+03 -0.28718050530E+04  0.29072799766E+04  0.10100000352E+00 0.  1.
</event>
<event>
 5   0  0.1029908E-07  0.3526261E+04  0.7818609E-02  0.8107595E-01
       -2   -1    0    0    0  501  0.00000000000E+00  0.00000000000E+00  0.17688352249E+04  0.17688352249E+04  0.25500000920E-02 0. -1.
        2   -1    0    0  501    0  0.00000000000E+00  0.00000000000E+00 -0.17574440964E+04  0.17574440964E+04  0.25500000920E-02 0.  1.
    10030    2    1    2    0    0  0.00000000000E+00  0.00000000000E+00  0.11391128476E+02  0.35262793213E+04  0.35262609226E+04 0.  0.
        4    1    3    3  502    0 -0.16048231670E+04 -0.56648054854E+03  0.46642543806E+03  0.17646279810E+04  0.12699999809E+01 0. -1.
       -4    1    3    3    0  502  0.16048231670E+04  0.56648054854E+03 -0.45503430959E+03  0.17616513403E+04  0.12699999809E+01 0.  1.
</event>
<event>
 5   0  0.3202875E-08  0.3660165E+04  0.7818609E-02  0.8076848E-01
        1   -1    0    0  501    0  0.00000000000E+00  0.00000000000E+00  0.19295517518E+04  0.19295517518E+04  0.50400001928E-02 0. -1.
       -1   -1    0    0    0  501  0.00000000000E+00  0.00000000000E+00 -0.17357406538E+04  0.17357406538E+04  0.50400001928E-02 0.  1.
    10030    2    1    2    0    0  0.00000000000E+00  0.00000000000E+00  0.19381109805E+03  0.36652924056E+04  0.36601647062E+04 0.  0.
        2    1    3    3  502    0  0.12492708936E+04 -0.50272207011E+03  0.13379133342E+04  0.18982674561E+04  0.25500000920E-02 0. -1.
       -2    1    3    3    0  502 -0.12492708936E+04  0.50272207011E+03 -0.11441022361E+04  0.17670249494E+04  0.25500000920E-02 0.  1.
</event>
<event>
 5   0  0.3212523E-08  0.3603066E+04  0.7818609E-02  0.8089790E-01
       -1   -1    0    0    0  501  0.00000000000E+00  0.00000000000E+00  0.16081771840E+04  0.16081771840E+04  0.50400001928E-02 0.  1.
        1   -1    0    0  501    0  0.00000000000E+00  0.00000000000E+00 -0.20181364584E+04  0.20181364584E+04  0.50400001928E-02 0. -1.
    10030    2    1    2    0    0  0.00000000000E+00  0.00000000000E+00 -0.40995927445E+03  0.36263136424E+04  0.36030659203E+04 0.  0.
        3    1    3    3  502    0  0.14461358311E+04  0.91271111038E+02  0.87238584023E+03  0.16913593119E+04  0.10100000352E+00 0.  1.
       -3    1    3    3    0  502 -0.14461358311E+04 -0.91271111038E+02 -0.12823451147E+04  0.19349543304E+04  0.10100000352E+00 0. -1.
</event>
<event>
 5   0  0.3202875E-08  0.3605767E+04  0.7818609E-02  0.8089172E-01
       -1   -1    0    0    0  501  0.00000000000E+00  0.00000000000E+00  0.17983601099E+04  0.17983601100E+04  0.50400001928E-02 0.  1.
        1   -1    0    0  501    0  0.00000000000E+00  0.00000000000E+00 -0.18074184828E+04  0.18074184828E+04  0.50400001928E-02 0. -1.
    10030    2    1    2    0    0  0.00000000000E+00  0.00000000000E+00 -0.90583728376E+01  0.36057785927E+04  0.36057672146E+04 0.  0.
        1    1    3    3  502    0  0.17762780494E+04  0.28728787463E+03  0.10812670442E+03  0.18026062842E+04  0.50400001928E-02 0.  1.
       -1    1    3    3    0  502 -0.17762780494E+04 -0.28728787463E+03 -0.11718507726E+03  0.18031723085E+04  0.50400001928E-02 0. -1.
</event>
<event>
 5   0  0.3212523E-08  0.3599945E+04  0.7818609E-02  0.8090504E-01
       -1   -1    0    0    0  501  0.00000000000E+00  0.00000000000E+00  0.16901985892E+04  0.16901985892E+04  0.50400001928E-02 0.  1.
        1   -1    0    0  501    0  0.00000000000E+00  0.00000000000E+00 -0.19168760510E+04  0.19168760510E+04  0.50400001928E-02 0. -1.
    10030    2    1    2    0    0  0.00000000000E+00  0.00000000000E+00 -0.22667746173E+03  0.36070746402E+04  0.35999451091E+04 0.  0.
        3    1    3    3  502    0 -0.88593507879E+02 -0.13584633319E+04 -0.12932232629E+04  0.18776841725E+04  0.10100000352E+00 0. -1.
       -3    1    3    3    0  502  0.88593507879E+02  0.13584633319E+04  0.10665458012E+04  0.17293904677E+04  0.10100000352E+00 0.  1.
</event>
<event>
 5   0  0.1029908E-07  0.3617330E+04  0.7818609E-02  0.8086534E-01
        2   -1    0    0  501    0  0.00000000000E+00  0.00000000000E+00  0.25905895979E+04  0.25905895979E+04  0.25500000920E-02 0. -1.
       -2   -1    0    0    0  501  0.00000000000E+00  0.00000000000E+00 -0.12627506863E+04  0.12627506863E+04  0.25500000920E-02 0.  1.
    10030    2    1    2    0    0  0.00000000000E+00  0.00000000000E+00  0.13278389116E+04  0.38533402842E+04  0.36173298398E+04 0.  0.
        4    1    3    3  502    0 -0.80713154051E+03  0.13837800134E+04 -0.23047911889E+03  0.16184655345E+04  0.12699999809E+01 0. -1.
       -4    1    3    3    0  502  0.80713154051E+03 -0.13837800134E+04  0.15583180305E+04  0.22348747496E+04  0.12699999809E+01 0.  1.
</event>
<event>
 5   0  0.1017794E-07  0.3588640E+04  0.7818609E-02  0.8093099E-01
       -2   -1    0    0    0  501  0.00000000000E+00  0.00000000000E+00  0.24374716297E+04  0.24374716297E+04  0.25500000920E-02 0.  1.
        2   -1    0    0  501    0  0.00000000000E+00  0.00000000000E+00 -0.13208706033E+04  0.13208706033E+04  0.25500000920E-02 0. -1.
    10030    2    1    2    0    0  0.00000000000E+00  0.00000000000E+00  0.11166010264E+04  0.37583422330E+04  0.35886402005E+04 0.  0.
        1    1    3    3  502    0  0.67375011102E+03 -0.15568826326E+04  0.11705496977E+04  0.20610699499E+04  0.50400001928E-02 0. -1.
       -1    1    3    3    0  502 -0.67375011102E+03  0.15568826326E+04 -0.53948671242E+02  0.16972722831E+04  0.50400001928E-02 0.  1.
</event>
<event>
 5   0  0.3202875E-08  0.3599205E+04  0.7818609E-02  0.8090674E-01
        1   -1    0    0  501    0  0.00000000000E+00  0.00000000000E+00  0.29494127709E+04  0.29494127709E+04  0.50400001928E-02 0. -1.
       -1   -1    0    0    0  501  0.00000000000E+00  0.00000000000E+00 -0.10980388412E+04  0.10980388412E+04  0.50400001928E-02 0.  1.
    10030    2    1    2    0    0  0.00000000000E+00  0.00000000000E+00  0.18513739298E+04  0.40474516121E+04  0.35992053463E+04 0.  0.
        2    1    3    3  502    0  0.55061731843E+03  0.31638215863E+03  0.28192248051E+04  0.28898625579E+04  0.25500000920E-02 0. -1.
       -2    1    3    3    0  502 -0.55061731843E+03 -0.31638215863E+03 -0.96785087533E+03  0.11575890543E+04  0.25500000920E-02 0.  1.
</event>
<event>
 5   0  0.3202875E-08  0.3597402E+04  0.7818609E-02  0.8091087E-01
       -1   -1    0    0    0  501  0.00000000000E+00  0.00000000000E+00  0.14440336894E+04  0.14440336894E+04  0.50400001928E-02 0. -1.
        1   -1    0    0  501    0  0.00000000000E+00  0.00000000000E+00 -0.22404774833E+04  0.22404774833E+04  0.50400001928E-02 0.  1.
    10030    2    1    2    0    0  0.00000000000E+00  0.00000000000E+00 -0.79644379386E+03  0.36845111727E+04  0.35974018214E+04 0.  0.
        2    1    3    3  502    0 -0.15971016483E+04 -0.76631612103E+03 -0.78655652148E+02  0.17731781591E+04  0.25500000920E-02 0.  1.
       -2    1    3    3    0  502  0.15971016483E+04  0.76631612103E+03 -0.71778814171E+03  0.19113330136E+04  0.25500000920E-02 0. -1.
</event>
<event>
 5   0  0.3202875E-08  0.3597196E+04  0.7818609E-02  0.8091134E-01
        3   -1    0    0  501    0  0.00000000000E+00  0.00000000000E+00  0.13286497013E+04  0.13286497051E+04  0.10100000352E+00 0. -1.
       -3   -1    0    0    0  501  0.00000000000E+00  0.00000000000E+00 -0.24347693192E+04  0.24347693213E+04  0.10100000352E+00 0.  1.
    10030    2    1    2    0    0  0.00000000000E+00  0.00000000000E+00 -0.11061196179E+04  0.37634190264E+04  0.35971964305E+04 0.  0.
        5    1    3    3  502    0 -0.16680924192E+04 -0.24793167816E+03 -0.12071964633E+04  0.20739690998E+04  0.46999998093E+01 0.  1.
       -5    1    3    3    0  502  0.16680924192E+04  0.24793167816E+03  0.10107684544E+03  0.16894499266E+04  0.46999998093E+01 0. -1.
</event>
<event>
 5   0  0.1029908E-07  0.3579612E+04  0.7818609E-02  0.8095178E-01
        2   -1    0    0  501    0  0.00000000000E+00  0.00000000000E+00  0.15087014511E+04  0.15087014511E+04  0.25500000920E-02 0. -1.
       -2   -1    0    0    0  501  0.00000000000E+00  0.00000000000E+00 -0.21232863040E+04  0.21232863040E+04  0.25500000920E-02 0.  1.
    10030    2    1    2    0    0  0.00000000000E+00  0.00000000000E+00 -0.61458485289E+03  0.36319877550E+04  0.35796117822E+04 0.  0.
        4    1    3    3  502    0  0.18472211966E+02  0.10998932477E+04 -0.17397918905E+04  0.20583935032E+04  0.12699999809E+01 0.  1.
       -4    1    3    3    0  502 -0.18472211966E+02 -0.10998932477E+04  0.11252070376E+04  0.15735942518E+04  0.12699999809E+01 0. -1.
</event>
<event>
 5   0  0.3212523E-08  0.3605641E+04  0.7818609E-02  0.8089201E-01
        1   -1    0    0  501    0  0.00000000000E+00  0.00000000000E+00  0.19598661844E+04  0.19598661845E+04  0.50400001928E-02 0. -1.
       -1   -1    0    0    0  501  0.00000000000E+00  0.00000000000E+00 -0.16583589199E+04  0.16583589199E+04  0.50400001928E-02 0.  1.
    10030    2    1    2    0    0  0.00000000000E+00  0.00000000000E+00  0.30150726457E+03  0.36182251043E+04  0.36056408966E+04 0.  0.
        3    1    3    3  502    0 -0.79166322413E+03  0.83060479666E+03 -0.12446125192E+04  0.16928364722E+04  0.10100000352E+00 0.  1.
       -3    1    3    3    0  502  0.79166322413E+03 -0.83060479666E+03  0.15461197838E+04  0.19253886321E+04  0.10100000352E+00 0. -1.
</event>
<event>
 5   0  0.1029908E-07  0.3598541E+04  0.7818609E-02  0.8090826E-01
        2   -1    0    0  501    0  0.00000000000E+00  0.00000000000E+00  0.30731161189E+04  0.30731161189E+04  0.25500000920E-02 0.  1.
       -2   -1    0    0    0  501  0.00000000000E+00  0.00000000000E+00 -0.10534498122E+04  0.10534498122E+04  0.25500000920E-02 0. -1.
    10030    2    1    2    0    0  0.00000000000E+00  0.00000000000E+00  0.20196663066E+04  0.41265659311E+04  0.35985405922E+04 0.  0.
        4    1    3    3  502    0 -0.73137442700E+03  0.13917084513E+04  0.64507734330E+01  0.15721972494E+04  0.12699999809E+01 0. -1.
       -4    1    3    3    0  502  0.73137442700E+03 -0.13917084513E+04  0.20132155332E+04  0.25543686816E+04  0.12699999809E+01 0.  1.
</event>
<event>
 5   0  0.3212523E-08  0.3602333E+04  0.7818609E-02  0.8089957E-01
       -1   -1    0    0    0  501  0.00000000000E+00  0.00000000000E+00  0.26977343279E+04  0.26977343279E+04  0.50400001928E-02 0. -1.
        1   -1    0    0  501    0  0.00000000000E+00  0.00000000000E+00 -0.12025652297E+04  0.12025652297E+04  0.50400001928E-02 0.  1.
    10030    2    1    2    0    0  0.00000000000E+00  0.00000000000E+00  0.14951690982E+04  0.39002995576E+04  0.36023334114E+04 0.  0.
        3    1    3    3  502    0 -0.14111539336E+04 -0.88215501964E+03  0.14935181222E+04  0.22361013606E+04  0.10100000352E+00 0. -1.
       -3    1    3    3    0  502  0.14111539336E+04  0.88215501964E+03  0.16509759489E+01  0.16641981970E+04  0.10100000352E+00 0.  1.
</event>
<event>
 5   0  0.3212523E-08  0.3576447E+04  0.7818609E-02  0.8095908E-01
       -1   -1    0    0    0  501  0.00000000000E+00  0.00000000000E+00  0.20440150943E+04  0.20440150944E+04  0.50400001928E-02 0. -1.
        1   -1    0    0  501    0  0.00000000000E+00  0.00000000000E+00 -0.15644418262E+04  0.15644418262E+04  0.50400001928E-02 0.  1.
    10030    2    1    2    0    0  0.00000000000E+00  0.00000000000E+00  0.47957326812E+03  0.36084569206E+04  0.35764466763E+04 0.  0.
        3    1    3    3  502    0 -0.48308353064E+03 -0.17213098458E+04  0.20116328137E+03  0.17990953167E+04  0.10100000352E+00 0.  1.
       -3    1    3    3    0  502  0.48308353064E+03  0.17213098458E+04  0.27840998675E+03  0.18093616039E+04  0.10100000352E+00 0. -1.
</event>
<event>
 5   0  0.1017794E-07  0.3552770E+04  0.7818609E-02  0.8101397E-01
       -2   -1    0    0    0  501  0.00000000000E+00  0.00000000000E+00  0.12261767649E+04  0.12261767649E+04  0.25500000920E-02 0.  1.
        2   -1    0    0  501    0  0.00000000000E+00  0.00000000000E+00 -0.25734813496E+04  0.25734813496E+04  0.25500000920E-02 0. -1.
    10030    2    1    2    0    0  0.00000000000E+00  0.00000000000E+00 -0.13473045847E+04  0.37996581145E+04  0.35527696440E+04 0.  0.
        1    1    3    3  502    0 -0.11977668825E+04 -0.63553462304E+03 -0.19010046198E+04  0.23350306907E+04  0.50400001928E-02 0. -1.
       -1    1    3    3    0  502  0.11977668825E+04  0.63553462304E+03  0.55370003506E+03  0.14646274239E+04  0.50400001928E-02 0.  1.
</event>
<event>
 5   0  0.1017794E-07  0.3580277E+04  0.7818609E-02  0.8095024E-01
        2   -1    0    0  501    0  0.00000000000E+00  0.00000000000E+00  0.19750223594E+04  0.19750223594E+04  0.25500000920E-02 0. -1.
       -2   -1    0    0    0  501  0.00000000000E+00  0.00000000000E+00 -0.16225617017E+04  0.16225617017E+04  0.25500000920E-02 0.  1.
    10030    2    1    2    0    0  0.00000000000E+00  0.00000000000E+00  0.35246065774E+03  0.35975840611E+04  0.35802768833E+04 0.  0.
        1    1    3    3  502    0 -0.78320792626E+03  0.15647746847E+04  0.55576130530E+03  0.18359752444E+04  0.50400001928E-02 0. -1.
       -1    1    3    3    0  502  0.78320792626E+03 -0.15647746847E+04 -0.20330064756E+03  0.17616088167E+04  0.50400001928E-02 0.  1.
</event>
<event>
 5   0  0.1029908E-07  0.3587244E+04  0.7818609E-02  0.8093420E-01
       -2   -1    0    0    0  501  0.00000000000E+00  0.00000000000E+00  0.25879266151E+04  0.25879266151E+04  0.25500000920E-02 0. -1.
        2   -1    0    0  501    0  0.00000000000E+00  0.00000000000E+00 -0.12431112430E+04  0.12431112430E+04  0.25500000920E-02 0.  1.
    10030    2    1    2    0    0  0.00000000000E+00  0.00000000000E+00  0.13448153721E+04  0.38310378581E+04  0.35872444418E+04 0.  0.
        4    1    3    3  502    0  0.65714931118E+02 -0.95223802183E+03  0.22941634114E+04  0.24848064459E+04  0.12699999809E+01 0. -1.
       -4    1    3    3    0  502 -0.65714931118E+02  0.95223802183E+03 -0.94934803934E+03  0.13462314122E+04  0.12699999809E+01 0.  1.
</event>
<event>
 5   0  0.1029908E-07  0.3600940E+04  0.7818609E-02  0.8090276E-01
       -2   -1    0    0    0  501  0.00000000000E+00  0.00000000000E+00  0.15769310839E+04  0.15769310839E+04  0.25500000920E-02 0.  1.
        2   -1    0    0  501    0  0.00000000000E+00  0.00000000000E+00 -0.20556970380E+04  0.20556970380E+04  0.25500000920E-02 0. -1.
    10030    2    1    2    0    0  0.00000000000E+00  0.00000000000E+00 -0.47876595415E+03  0.36326281220E+04  0.36009401874E+04 0.  0.
        4    1    3    3  502    0  0.16767274108E+04 -0.28313453078E+02  0.42172700731E+03  0.17291823916E+04  0.12699999809E+01 0. -1.
       -4    1    3    3    0  502 -0.16767274108E+04  0.28313453078E+02 -0.90049296146E+03  0.19034457303E+04  0.12699999809E+01 0.  1.
</event>
<event>
 5   0  0.3202875E-08  0.3600405E+04  0.7818609E-02  0.8090399E-01
        1   -1    0    0  501    0  0.00000000000E+00  0.00000000000E+00  0.15535073860E+04  0.15535073861E+04  0.50400001928E-02 0. -1.
       -1   -1    0    0    0  501  0.00000000000E+00  0.00000000000E+00 -0.20860723578E+04  0.20860723578E+04  0.50400001928E-02 0.  1.
    10030    2    1    2    0    0  0.00000000000E+00  0.00000000000E+00 -0.53256497178E+03  0.36395797439E+04  0.36004048749E+04 0.  0.
        1    1    3    3  502    0 -0.87135326770E+03  0.42302233660E+03 -0.18002000450E+04  0.20442418194E+04  0.50400001928E-02 0.  1.
       -1    1    3    3    0  502  0.87135326770E+03 -0.42302233660E+03  0.12676350732E+04  0.15953379245E+04  0.50400001928E-02 0. -1.
</event>
<event>
 5   0  0.3212523E-08  0.3607614E+04  0.7818609E-02  0.8088750E-01
        1   -1    0    0  501    0  0.00000000000E+00  0.00000000000E+00  0.26252029650E+04  0.26252029650E+04  0.50400001928E-02 0. -1.
       -1   -1    0    0    0  501  0.00000000000E+00  0.00000000000E+00 -0.12394166663E+04  0.12394166663E+04  0.50400001928E-02 0.  1.
    10030    2    1    2    0    0  0.00000000000E+00  0.00000000000E+00  0.13857862987E+04  0.38646196313E+04  0.36076143404E+04 0.  0.
        3    1    3    3  502    0  0.62462911012E+03 -0.79568136129E+03  0.22927565066E+04  0.25059933684E+04  0.10100000352E+00 0. -1.
       -3    1    3    3    0  502 -0.62462911012E+03  0.79568136129E+03 -0.90697020793E+03  0.13586262629E+04  0.10100000352E+00 0.  1.
</event>
<event>
 5   0  0.1044678E-07  0.3600334E+04  0.7818609E-02  0.8090415E-01
        2   -1    0    0  501    0  0.00000000000E+00  0.00000000000E+00  0.19213795053E+04  0.19213795053E+04  0.25500000920E-02 0. -1.
       -2   -1    0    0    0  501  0.00000000000E+00  0.00000000000E+00 -0.16866012638E+04  0.16866012638E+04  0.25500000920E-02 0.  1.
    10030    2    1    2    0    0  0.00000000000E+00  0.00000000000E+00  0.23477824149E+03  0.36079807691E+04  0.36003339300E+04 0.  0.
        2    1    3    3  502    0  0.28368617892E+01 -0.17863595704E+04  0.34037585651E+03  0.18185005599E+04  0.25500000920E-02 0. -1.
       -2    1    3    3    0  502 -0.28368617892E+01  0.17863595704E+04 -0.10559761502E+03  0.17894802092E+04  0.25500000920E-02 0.  1.
</event>
<event>
 5   0  0.3202875E-08  0.3600583E+04  0.7818609E-02  0.8090358E-01
       -1   -1    0    0    0  501  0.00000000000E+00  0.00000000000E+00  0.13182047855E+04  0.13182047855E+04  0.50400001928E-02 0.  1.
        1   -1    0    0  501    0  0.00000000000E+00  0.00000000000E+00 -0.24586846075E+04  0.24586846075E+04  0.50400001928E-02 0. -1.
    10030    2    1    2    0    0  0.00000000000E+00  0.00000000000E+00 -0.11404798221E+04  0.37768893930E+04  0.36005831837E+04 0.  0.
        2    1    3    3  502    0  0.17706317943E+04  0.28549881707E+03 -0.73410468750E+03  0.19379257513E+04  0.25500000920E-02 0. -1.
       -2    1    3    3    0  502 -0.17706317943E+04 -0.28549881707E+03 -0.40637513455E+03  0.18389636417E+04  0.25500000920E-02 0.  1.
</event>
<event>
 5   0  0.3215494E-08  0.3598526E+04  0.7818609E-02  0.8090829E-01
        1   -1    0    0  501    0  0.00000000000E+00  0.00000000000E+00  0.26987983835E+04  0.26987983835E+04  0.50400001928E-02 0.  1.
       -1   -1    0    0    0  501  0.00000000000E+00  0.00000000000E+00 -0.11995513488E+04  0.11995513489E+04  0.50400001928E-02 0. -1.
    10030    2    1    2    0    0  0.00000000000E+00  0.00000000000E+00  0.14992470346E+04  0.38983497323E+04  0.35985259433E+04 0.  0.
        4    1    3    3  502    0  0.19946017978E+03  0.16682097825E+04  0.52049349770E+02  0.16808982687E+04  0.12699999809E+01 0. -1.
       -4    1    3    3    0  502 -0.19946017978E+03 -0.16682097825E+04  0.14471976849E+04  0.22174514637E+04  0.12699999809E+01 0.  1.
</event>
<event>
 5   0  0.3215494E-08  0.3597162E+04  0.7818609E-02  0.8091142E-01
        1   -1    0    0  501    0  0.00000000000E+00  0.00000000000E+00  0.20570288225E+04  0.20570288226E+04  0.50400001928E-02 0. -1.
       -1   -1    0    0    0  501  0.00000000000E+00  0.00000000000E+00 -0.15726050999E+04  0.15726050999E+04  0.50400001928E-02 0.  1.
    10030    2    1    2    0    0  0.00000000000E+00  0.00000000000E+00  0.48442372266E+03  0.36296339224E+04  0.35971622243E+04 0.  0.
        4    1    3    3  502    0 -0.95513422701E+03  0.10395985728E+04 -0.88222905679E+03  0.16647451173E+04  0.12699999809E+01 0.  1.
       -4    1    3    3    0  502  0.95513422701E+03 -0.10395985728E+04  0.13666527795E+04  0.19648888051E+04  0.12699999809E+01 0. -1.
</event>
<event>
 5   0  0.1044678E-07  0.3599073E+04  0.7818609E-02  0.8090704E-01
        2   -1    0    0  501    0  0.00000000000E+00  0.00000000000E+00  0.26208977009E+04  0.26208977009E+04  0.25500000920E-02 0.  1.
       -2   -1    0    0    0  501  0.00000000000E+00  0.00000000000E+00 -0.12355809456E+04  0.12355809456E+04  0.25500000920E-02 0. -1.
    10030    2    1    2    0    0  0.00000000000E+00  0.00000000000E+00  0.13853167553E+04  0.38564786465E+04  0.35990728026E+04 0.  0.
        2    1    3    3  502    0 -0.40564906130E+03  0.15041528026E+03 -0.11790253254E+04  0.12558967455E+04  0.25500000920E-02 0. -1.
       -2    1    3    3    0  502  0.40564906130E+03 -0.15041528026E+03  0.25643420807E+04  0.26005819011E+04  0.25500000920E-02 0.  1.
</event>
<event>
 5   0  0.3202875E-08  0.3599258E+04  0.7818609E-02  0.8090662E-01
       -1   -1    0    0    0  501  0.00000000000E+00  0.00000000000E+00  0.18975208706E+04  0.18975208706E+04  0.50400001928E-02 0.  1.
        1   -1    0    0  501    0  0.00000000000E+00  0.00000000000E+00 -0.17067876916E+04  0.17067876916E+04  0.50400001928E-02 0. -1.
    10030    2    1    2    0    0  0.00000000000E+00  0.00000000000E+00  0.19073317895E+03  0.36043085622E+04  0.35992584050E+04 0.  0.
        1    1    3    3  502    0 -0.70717821097E+03  0.64283985292E+03 -0.14316733939E+04  0.17213462189E+04  0.50400001928E-02 0. -1.
       -1    1    3    3    0  502  0.70717821097E+03 -0.64283985292E+03  0.16224065728E+04  0.18829623433E+04  0.50400001928E-02 0.  1.
</event>
<event>
 5   0  0.1044678E-07  0.3601154E+04  0.7818609E-02  0.8090227E-01
        2   -1    0    0  501    0  0.00000000000E+00  0.00000000000E+00  0.30671106754E+04  0.30671106754E+04  0.25500000920E-02 0.  1.
       -2   -1    0    0    0  501  0.00000000000E+00  0.00000000000E+00 -0.10570462001E+04  0.10570462001E+04  0.25500000920E-02 0. -1.
    10030    2    1    2    0    0  0.00000000000E+00  0.00000000000E+00  0.20100644753E+04  0.41241568755E+04  0.36011540843E+04 0.  0.
        2    1    3    3  502    0 -0.18060044785E+03 -0.12576757440E+04 -0.45607594646E+03  0.13499518761E+04  0.25500000920E-02 0. -1.
       -2    1    3    3    0  502  0.18060044785E+03  0.12576757440E+04  0.24661404218E+04  0.27742049994E+04  0.25500000920E-02 0.  1.
</event>
<event>
 5   0  0.1044678E-07  0.3601917E+04  0.7818609E-02  0.8090053E-01
       -2   -1    0    0    0  501  0.00000000000E+00  0.00000000000E+00  0.19717054966E+04  0.19717054966E+04  0.25500000920E-02 0. -1.
        2   -1    0    0  501    0  0.00000000000E+00  0.00000000000E+00 -0.16449977320E+04  0.16449977320E+04  0.25500000920E-02 0.  1.
    10030    2    1    2    0    0  0.00000000000E+00  0.00000000000E+00  0.32670776463E+03  0.36167032287E+04  0.36019167510E+04 0.  0.
        2    1    3    3  502    0  0.73564019498E+03 -0.65585064193E+03  0.16769052939E+04  0.19450753008E+04  0.25500000920E-02 0. -1.
       -2    1    3    3    0  502 -0.73564019498E+03  0.65585064193E+03 -0.13501975293E+04  0.16716279279E+04  0.25500000920E-02 0.  1.
</event>
<event>
 5   0  0.1044678E-07  0.3621315E+04  0.7818609E-02  0.8085627E-01
        2   -1    0    0  501    0  0.00000000000E+00  0.00000000000E+00  0.11050433191E+04  0.11050433191E+04  0.25500000920E-02 0.  1.
       -2   -1    0    0    0  501  0.00000000000E+00  0.00000000000E+00 -0.29668338020E+04  0.29668338020E+04  0.25500000920E-02 0. -1.
    10030    2    1    2    0    0  0.00000000000E+00  0.00000000000E+00 -0.18617904829E+04  0.40718771211E+04  0.36213146076E+04 0.  0.
        2    1    3    3  502    0  0.70987163946E+01 -0.13605447661E+04 -0.22742578449E+04  0.26501662585E+04  0.25500000920E-02 0. -1.
       -2    1    3    3    0  502 -0.70987163946E+01  0.13605447661E+04  0.41246736203E+03  0.14217108627E+04  0.25500000920E-02 0.  1.
</event>
<event>
 5   0  0.1017794E-07  0.3630867E+04  0.7818609E-02  0.8083458E-01
       -2   -1    0    0    0  501  0.00000000000E+00  0.00000000000E+00  0.23770666778E+04  0.23770666778E+04  0.25500000920E-02 0.  1.
        2   -1    0    0  501    0  0.00000000000E+00  0.00000000000E+00 -0.13864981713E+04  0.13864981713E+04  0.25500000920E-02 0. -1.
    10030    2    1    2    0    0  0.00000000000E+00  0.00000000000E+00  0.99056850653E+03  0.37635648490E+04  0.36308668947E+04 0.  0.
        1    1    3    3  502    0 -0.10561122620E+04  0.14660026563E+04  0.67855594810E+03  0.19300194488E+04  0.50400001928E-02 0.  1.
       -1    1    3    3    0  502  0.10561122620E+04 -0.14660026563E+04  0.31201255843E+03  0.18335454002E+04  0.50400001928E-02 0. -1.
</event>
<event>
 5   0  0.3202875E-08  0.3593818E+04  0.7818609E-02  0.8091909E-01
       -1   -1    0    0    0  501  0.00000000000E+00  0.00000000000E+00  0.88733465949E+03  0.88733465950E+03  0.50400001928E-02 0.  1.
        1   -1    0    0  501    0  0.00000000000E+00  0.00000000000E+00 -0.36388545930E+04  0.36388545930E+04  0.50400001928E-02 0. -1.
    10030    2    1    2    0    0  0.00000000000E+00  0.00000000000E+00 -0.27515199335E+04  0.45261892525E+04  0.35938179148E+04 0.  0.
        2    1    3    3  502    0  0.12546495108E+04  0.61075308471E+03  0.50086372427E+02  0.13963070472E+04  0.25500000920E-02 0.  1.
       -2    1    3    3    0  502 -0.12546495108E+04 -0.61075308471E+03 -0.28016063059E+04  0.31298822053E+04  0.25500000920E-02 0. -1.
</event>
<event>
 5   0  0.1029908E-07  0.3615977E+04  0.7818609E-02  0.8086842E-01
       -2   -1    0    0    0  501  0.00000000000E+00  0.00000000000E+00  0.19629234671E+04  0.19629234671E+04  0.25500000920E-02 0.  1.
        2   -1    0    0  501    0  0.00000000000E+00  0.00000000000E+00 -0.16652824930E+04  0.16652824930E+04  0.25500000920E-02 0. -1.
    10030    2    1    2    0    0  0.00000000000E+00  0.00000000000E+00  0.29764097411E+03  0.36282059602E+04  0.36159768169E+04 0.  0.
        4    1    3    3  502    0  0.12303717170E+03  0.12913722450E+04 -0.11148195281E+04  0.17104398890E+04  0.12699999809E+01 0. -1.
       -4    1    3    3    0  502 -0.12303717170E+03 -0.12913722450E+04  0.14124605022E+04  0.19177660712E+04  0.12699999809E+01 0.  1.
</event>
<event>
 5   0  0.9905335E-08  0.3512735E+04  0.7818609E-02  0.8110779E-01
        2   -1    0    0  501    0  0.00000000000E+00  0.00000000000E+00  0.15909117246E+04  0.15909117246E+04  0.25500000920E-02 0. -1.
       -2   -1    0    0    0  501  0.00000000000E+00  0.00000000000E+00 -0.19390304845E+04  0.19390304845E+04  0.25500000920E-02 0.  1.
    10030    2    1    2    0    0  0.00000000000E+00  0.00000000000E+00 -0.34811875986E+03  0.35299422091E+04  0.35127347365E+04 0.  0.
        5    1    3    3  502    0 -0.17409623794E+04  0.23193183260E+03 -0.18196306755E+03  0.17657505570E+04  0.46999998093E+01 0.  1.
       -5    1    3    3    0  502  0.17409623794E+04 -0.23193183260E+03 -0.16615569231E+03  0.17641916522E+04  0.46999998093E+01 0. -1.
</event>
<event>
 5   0  0.3279988E-08  0.3630975E+04  0.7818609E-02  0.8083433E-01
       -1   -1    0    0    0  501  0.00000000000E+00  0.00000000000E+00  0.13383414040E+04  0.13383414040E+04  0.50400001928E-02 0. -1.
        1   -1    0    0  501    0  0.00000000000E+00  0.00000000000E+00 -0.24627459151E+04  0.24627459151E+04  0.50400001928E-02 0.  1.
    10030    2    1    2    0    0  0.00000000000E+00  0.00000000000E+00 -0.11244045110E+04  0.38010873191E+04  0.36309749797E+04 0.  0.
        5    1    3    3  502    0 -0.25154184587E+03  0.14250493829E+03  0.13140829015E+04  0.13455173428E+04  0.46999998093E+01 0. -1.
       -5    1    3    3    0  502  0.25154184587E+03 -0.14250493829E+03 -0.24384874125E+04  0.24555699763E+04  0.46999998093E+01 0.  1.
</event>
<event>
 5   0  0.9905335E-08  0.3585073E+04  0.7818609E-02  0.8093920E-01
        2   -1    0    0  501    0  0.00000000000E+00  0.00000000000E+00  0.20279230524E+04  0.20279230524E+04  0.25500000920E-02 0.  1.
       -2   -1    0    0    0  501  0.00000000000E+00  0.00000000000E+00 -0.15844715841E+04  0.15844715841E+04  0.25500000920E-02 0. -1.
    10030    2    1    2    0    0  0.00000000000E+00  0.00000000000E+00  0.44345146825E+03  0.36123946365E+04  0.35850726359E+04 0.  0.
        5    1    3    3  502    0  0.16935622928E+03  0.10059380280E+04  0.17069234407E+04  0.19885176818E+04  0.46999998093E+01 0.  1.
       -5    1    3    3    0  502 -0.16935622928E+03 -0.10059380280E+04 -0.12634719725E+04  0.16238769546E+04  0.46999998093E+01 0. -1.
</event>
<event>
 5   0  0.3279988E-08  0.3590145E+04  0.7818609E-02  0.8092753E-01
        1   -1    0    0  501    0  0.00000000000E+00  0.00000000000E+00  0.28334688068E+04  0.28334688068E+04  0.50400001928E-02 0. -1.
       -1   -1    0    0    0  501  0.00000000000E+00  0.00000000000E+00 -0.11372226135E+04  0.11372226135E+04  0.50400001928E-02 0.  1.
    10030    2    1    2    0    0  0.00000000000E+00  0.00000000000E+00  0.16962461933E+04  0.39706914202E+04  0.35901447333E+04 0.  0.
        5    1    3    3  502    0  0.79035060747E+03 -0.15232781844E+04  0.26578390749E+03  0.17365752749E+04  0.46999998093E+01 0.  1.
       -5    1    3    3    0  502 -0.79035060747E+03  0.15232781844E+04  0.14304622858E+04  0.22341161454E+04  0.46999998093E+01 0. -1.
</event>
<event>
 5   0  0.9905335E-08  0.3594687E+04  0.7818609E-02  0.8091710E-01
        2   -1    0    0  501    0  0.00000000000E+00  0.00000000000E+00  0.15984178420E+04  0.15984178420E+04  0.25500000920E-02 0.  1.
       -2   -1    0    0    0  501  0.00000000000E+00  0.00000000000E+00 -0.20210255555E+04  0.20210255555E+04  0.25500000920E-02 0. -1.
    10030    2    1    2    0    0  0.00000000000E+00  0.00000000000E+00 -0.42260771347E+03  0.36194433975E+04  0.35946868053E+04 0.  0.
        5    1    3    3  502    0 -0.14435764500E+03  0.36145646546E+03  0.15554690544E+04  0.16034325603E+04  0.46999998093E+01 0.  1.
       -5    1    3    3    0  502  0.14435764500E+03 -0.36145646546E+03 -0.19780767679E+04  0.20160108372E+04  0.46999998093E+01 0. -1.
</event>
<event>
 5   0  0.1044678E-07  0.3527314E+04  0.7818609E-02  0.8107347E-01
        2   -1    0    0  501    0  0.00000000000E+00  0.00000000000E+00  0.20230210462E+04  0.20230210462E+04  0.25500000920E-02 0. -1.
       -2   -1    0    0    0  501  0.00000000000E+00  0.00000000000E+00 -0.15375450667E+04  0.15375450667E+04  0.25500000920E-02 0.  1.
    10030    2    1    2    0    0  0.00000000000E+00  0.00000000000E+00  0.48547597945E+03  0.35605661129E+04  0.35273140089E+04 0.  0.
        2    1    3    3  502    0  0.71484383909E+03 -0.15897469897E+03 -0.13768219740E+04  0.15594593349E+04  0.25500000920E-02 0.  1.
       -2    1    3    3    0  502 -0.71484383909E+03  0.15897469897E+03  0.18622979535E+04  0.20011067779E+04  0.25500000920E-02 0. -1.
</event>
<event>
 5   0  0.3202875E-08  0.3595706E+04  0.7818609E-02  0.8091476E-01
        1   -1    0    0  501    0  0.00000000000E+00  0.00000000000E+00  0.18653586416E+04  0.18653586416E+04  0.50400001928E-02 0.  1.
       -1   -1    0    0    0  501  0.00000000000E+00  0.00000000000E+00 -0.17327904717E+04  0.17327904717E+04  0.50400001928E-02 0. -1.
    10030    2    1    2    0    0  0.00000000000E+00  0.00000000000E+00  0.13256816998E+03  0.35981491133E+04  0.35957061507E+04 0.  0.
        1    1    3    3  502    0  0.11377837465E+04  0.12630790450E+04 -0.51922467701E+03  0.17775024031E+04  0.50400001928E-02 0. -1.
       -1    1    3    3    0  502 -0.11377837465E+04 -0.12630790450E+04  0.65179284698E+03  0.18206467102E+04  0.50400001928E-02 0.  1.
</event>
<event>
 5   0  0.3212523E-08  0.3597575E+04  0.7818609E-02  0.8091047E-01
       -1   -1    0    0    0  501  0.00000000000E+00  0.00000000000E+00  0.20281362397E+04  0.20281362397E+04  0.50400001928E-02 0.  1.
        1   -1    0    0  501    0  0.00000000000E+00  0.00000000000E+00 -0.15953743733E+04  0.15953743733E+04  0.50400001928E-02 0. -1.
    10030    2    1    2    0    0  0.00000000000E+00  0.00000000000E+00  0.43276186639E+03  0.36235106129E+04  0.35975750623E+04 0.  0.
        3    1    3    3  502    0  0.30470280903E+03  0.14373937938E+04  0.12614990754E+04  0.19365754950E+04  0.10100000352E+00 0.  1.
       -3    1    3    3    0  502 -0.30470280903E+03 -0.14373937938E+04 -0.82873720902E+03  0.16869351180E+04  0.10100000352E+00 0. -1.
</event>
<event>
 5   0  0.1029908E-07  0.3599158E+04  0.7818609E-02  0.8090685E-01
        2   -1    0    0  501    0  0.00000000000E+00  0.00000000000E+00  0.19163837302E+04  0.19163837302E+04  0.25500000920E-02 0.  1.
       -2   -1    0    0    0  501  0.00000000000E+00  0.00000000000E+00 -0.16898934649E+04  0.16898934649E+04  0.25500000920E-02 0. -1.
    10030    2    1    2    0    0  0.00000000000E+00  0.00000000000E+00  0.22649026536E+03  0.36062771951E+04  0.35991578692E+04 0.  0.
        4    1    3    3  502    0 -0.20685347357E+03  0.14464966924E+04  0.11657236088E+04  0.18692389322E+04  0.12699999809E+01 0.  1.
       -4    1    3    3    0  502  0.20685347357E+03 -0.14464966924E+04 -0.93923334346E+03  0.17370382629E+04  0.12699999809E+01 0. -1.
</event>
<event>
 5   0  0.1029908E-07  0.3594459E+04  0.7818609E-02  0.8091762E-01
        2   -1    0    0  501    0  0.00000000000E+00  0.00000000000E+00  0.14745223031E+04  0.14745223031E+04  0.25500000920E-02 0.  1.
       -2   -1    0    0    0  501  0.00000000000E+00  0.00000000000E+00 -0.21905631610E+04  0.21905631610E+04  0.25500000920E-02 0. -1.
    10030    2    1    2    0    0  0.00000000000E+00  0.00000000000E+00 -0.71604085783E+03  0.36650854641E+04  0.35944592012E+04 0.  0.
        4    1    3    3  502    0 -0.10828589520E+04  0.77363919898E+03 -0.15896156610E+04  0.20731571775E+04  0.12699999809E+01 0. -1.
       -4    1    3    3    0  502  0.10828589520E+04 -0.77363919898E+03  0.87357480317E+03  0.15919282866E+04  0.12699999809E+01 0.  1.
</event>
<event>
 5   0  0.1017794E-07  0.3610054E+04  0.7818609E-02  0.8088193E-01
       -2   -1    0    0    0  501  0.00000000000E+00  0.00000000000E+00  0.20797373845E+04  0.20797373845E+04  0.25500000920E-02 0. -1.
        2   -1    0    0  501    0  0.00000000000E+00  0.00000000000E+00 -0.15666027782E+04  0.15666027782E+04  0.25500000920E-02 0.  1.
    10030    2    1    2    0    0  0.00000000000E+00  0.00000000000E+00  0.51313460635E+03  0.36463401627E+04  0.36100539411E+04 0.  0.
        1    1    3    3  502    0  0.41076190657E+03  0.44926254612E+03  0.19729297838E+04  0.20647067857E+04  0.50400001928E-02 0. -1.
       -1    1    3    3    0  502 -0.41076190657E+03 -0.44926254612E+03 -0.14597951774E+04  0.15816333770E+04  0.50400001928E-02 0.  1.
</event>
<event>
 5   0  0.3202875E-08  0.3598871E+04  0.7818609E-02  0.8090750E-01
        4   -1    0    0  501    0  0.00000000000E+00  0.00000000000E+00  0.16761138177E+04  0.16761142989E+04  0.12699999809E+01 0. -1.
       -4   -1    0    0    0  501  0.00000000000E+00  0.00000000000E+00 -0.19318294288E+04  0.19318298462E+04  0.12699999809E+01 0.  1.
    10030    2    1    2    0    0  0.00000000000E+00  0.00000000000E+00 -0.25571561103E+03  0.36079441451E+04  0.35988707229E+04 0.  0.
        4    1    3    3  502    0  0.65897165330E+03  0.15514637634E+04 -0.75927312107E+03  0.18487240828E+04  0.12699999809E+01 0.  1.
       -4    1    3    3    0  502 -0.65897165330E+03 -0.15514637634E+04  0.50355751005E+03  0.17592200623E+04  0.12699999809E+01 0. -1.
</event>
<event>
 5   0  0.3212523E-08  0.3617985E+04  0.7818609E-02  0.8086384E-01
       -1   -1    0    0    0  501  0.00000000000E+00  0.00000000000E+00  0.10942269156E+04  0.10942269156E+04  0.50400001928E-02 0. -1.
        1   -1    0    0  501    0  0.00000000000E+00  0.00000000000E+00 -0.29906534933E+04  0.29906534933E+04  0.50400001928E-02 0.  1.
    10030    2    1    2    0    0  0.00000000000E+00  0.00000000000E+00 -0.18964265778E+04  0.40848804089E+04  0.36179848245E+04 0.  0.
        3    1    3    3  502    0  0.88614514129E+03 -0.14869933741E+04 -0.15414216895E+04  0.23178402320E+04  0.10100000352E+00 0.  1.
       -3    1    3    3    0  502 -0.88614514129E+03  0.14869933741E+04 -0.35500488828E+03  0.17670401769E+04  0.10100000352E+00 0. -1.
</event>
<event>
 5   0  0.3202875E-08  0.3599085E+04  0.7818609E-02  0.8090701E-01
        1   -1    0    0  501    0  0.00000000000E+00  0.00000000000E+00  0.23341169233E+04  0.23341169233E+04  0.50400001928E-02 0.  1.
       -1   -1    0    0    0  501  0.00000000000E+00  0.00000000000E+00 -0.13873998944E+04  0.13873998945E+04  0.50400001928E-02 0. -1.
    10030    2    1    2    0    0  0.00000000000E+00  0.00000000000E+00  0.94671702888E+03  0.37215168178E+04  0.35990852021E+04 0.  0.
        1    1    3    3  502    0  0.61342302683E+03 -0.16475839109E+04  0.76192138711E+02  0.17597232156E+04  0.50400001928E-02 0. -1.
       -1    1    3    3    0  502 -0.61342302683E+03  0.16475839109E+04  0.87052489017E+03  0.19617936022E+04  0.50400001928E-02 0.  1.
</event>
<event>
 5   0  0.1044678E-07  0.3600808E+04  0.7818609E-02  0.8090307E-01
        2   -1    0    0  501    0  0.00000000000E+00  0.00000000000E+00  0.19918689178E+04  0.19918689178E+04  0.25500000920E-02 0. -1.
       -2   -1    0    0    0  501  0.00000000000E+00  0.00000000000E+00 -0.16273429884E+04  0.16273429884E+04  0.25500000920E-02 0.  1.
    10030    2    1    2    0    0  0.00000000000E+00  0.00000000000E+00  0.36452592938E+03  0.36192119061E+04  0.36008076411E+04 0.  0.
        2    1    3    3  502    0 -0.14566891028E+04  0.10062558084E+04 -0.14645605567E+03  0.17764974727E+04  0.25500000920E-02 0.  1.
       -2    1    3    3    0  502  0.14566891028E+04 -0.10062558084E+04  0.51098198505E+03  0.18427144335E+04  0.25500000920E-02 0. -1.
</event>
<event>
 5   0  0.3279988E-08  0.3589860E+04  0.7818609E-02  0.8092818E-01
       -1   -1    0    0    0  501  0.00000000000E+00  0.00000000000E+00  0.23521681498E+04  0.23521681498E+04  0.50400001928E-02 0. -1.
        1   -1    0    0  501    0  0.00000000000E+00  0.00000000000E+00 -0.13697036054E+04  0.13697036054E+04  0.50400001928E-02 0.  1.
    10030    2    1    2    0    0  0.00000000000E+00  0.00000000000E+00  0.98246454443E+03  0.37218717552E+04  0.35898597161E+04 0.  0.
        5    1    3    3  502    0  0.74307314111E+02  0.35094174894E+03  0.23146188785E+04  0.23422562479E+04  0.46999998093E+01 0. -1.
       -5    1    3    3    0  502 -0.74307314111E+02 -0.35094174894E+03 -0.13321543341E+04  0.13796155073E+04  0.46999998093E+01 0.  1.
</event>
<event>
 5   0  0.3212523E-08  0.3609060E+04  0.7818609E-02  0.8088419E-01
        1   -1    0    0  501    0  0.00000000000E+00  0.00000000000E+00  0.15694185933E+04  0.15694185933E+04  0.50400001928E-02 0.  1.
       -1   -1    0    0    0  501  0.00000000000E+00  0.00000000000E+00 -0.20748633607E+04  0.20748633607E+04  0.50400001928E-02 0. -1.
    10030    2    1    2    0    0  0.00000000000E+00  0.00000000000E+00 -0.50544476748E+03  0.36442819540E+04  0.36090603413E+04 0.  0.
        3    1    3    3  502    0  0.68314560584E+03  0.16534807296E+04 -0.14533293791E+02  0.17891052705E+04  0.10100000352E+00 0.  1.
       -3    1    3    3    0  502 -0.68314560584E+03 -0.16534807296E+04 -0.49091147369E+03  0.18551766836E+04  0.10100000352E+00 0. -1.
</event>
<event>
 5   0  0.3202875E-08  0.3603941E+04  0.7818609E-02  0.8089590E-01
       -1   -1    0    0    0  501  0.00000000000E+00  0.00000000000E+00  0.13760718418E+04  0.13760718418E+04  0.50400001928E-02 0.  1.
        1   -1    0    0  501    0  0.00000000000E+00  0.00000000000E+00 -0.23596861235E+04  0.23596861235E+04  0.50400001928E-02 0. -1.
    10030    2    1    2    0    0  0.00000000000E+00  0.00000000000E+00 -0.98361428167E+03  0.37357579653E+04  0.36039409707E+04 0.  0.
        2    1    3    3  502    0  0.40726474878E+03 -0.16742571677E+04 -0.10384433877E+04  0.20118067275E+04  0.25500000920E-02 0. -1.
       -2    1    3    3    0  502 -0.40726474878E+03  0.16742571677E+04  0.54829106012E+02  0.17239512378E+04  0.25500000920E-02 0.  1.
</event>
<event>
 5   0  0.1044678E-07  0.3603023E+04  0.7818609E-02  0.8089800E-01
        2   -1    0    0  501    0  0.00000000000E+00  0.00000000000E+00  0.25865160598E+04  0.25865160598E+04  0.25500000920E-02 0. -1.
       -2   -1    0    0    0  501  0.00000000000E+00  0.00000000000E+00 -0.12547550492E+04  0.12547550492E+04  0.25500000920E-02 0.  1.
    10030    2    1    2    0    0  0.00000000000E+00  0.00000000000E+00  0.13317610106E+04  0.38412711089E+04  0.36030232227E+04 0.  0.
        2    1    3    3  502    0 -0.10626337165E+04  0.36179328525E+03  0.21680794572E+04  0.24414449266E+04  0.25500000920E-02 0. -1.
       -2    1    3    3    0  502  0.10626337165E+04 -0.36179328525E+03 -0.83631844659E+03  0.13998261824E+04  0.25500000920E-02 0.  1.
</event>
<event>
 5   0  0.1021087E-07  0.3599119E+04  0.7818609E-02  0.8090694E-01
       -2   -1    0    0    0  501  0.00000000000E+00  0.00000000000E+00  0.19777905026E+04  0.19777905026E+04  0.25500000920E-02 0. -1.
        2   -1    0    0  501    0  0.00000000000E+00  0.00000000000E+00 -0.16373895487E+04  0.16373895487E+04  0.25500000920E-02 0.  1.
    10030    2    1    2    0    0  0.00000000000E+00  0.00000000000E+00  0.34040095391E+03  0.36151800513E+04  0.35991185024E+04 0.  0.
        3    1    3    3  502    0 -0.66262588461E+03 -0.13372866822E+03 -0.15050122594E+04  0.16498540332E+04  0.10100000352E+00 0.  1.
       -3    1    3    3    0  502  0.66262588461E+03  0.13372866822E+03  0.18454132133E+04  0.19653260182E+04  0.10100000352E+00 0. -1.
</event>
<event>
 5   0  0.3279988E-08  0.3595553E+04  0.7818609E-02  0.8091511E-01
        1   -1    0    0  501    0  0.00000000000E+00  0.00000000000E+00  0.12377395634E+04  0.12377395634E+04  0.50400001928E-02 0.  1.
       -1   -1    0    0    0  501  0.00000000000E+00  0.00000000000E+00 -0.26112125207E+04  0.26112125207E+04  0.50400001928E-02 0. -1.
    10030    2    1    2    0    0  0.00000000000E+00  0.00000000000E+00 -0.13734729573E+04  0.38489520841E+04  0.35955533902E+04 0.  0.
        5    1    3    3  502    0  0.67787103343E+03  0.15891729282E+04 -0.12187523089E+04  0.21143223534E+04  0.46999998093E+01 0. -1.
       -5    1    3    3    0  502 -0.67787103343E+03 -0.15891729282E+04 -0.15472064844E+03  0.17346297307E+04  0.46999998093E+01 0.  1.
</event>
<event>
 5   0  0.3202875E-08  0.3590155E+04  0.7818609E-02  0.8092751E-01
       -1   -1    0    0    0  501  0.00000000000E+00  0.00000000000E+00  0.13907986383E+04  0.13907986383E+04  0.50400001928E-02 0. -1.
        1   -1    0    0  501    0  0.00000000000E+00  0.00000000000E+00 -0.23168726464E+04  0.23168726464E+04  0.50400001928E-02 0.  1.
    10030    2    1    2    0    0  0.00000000000E+00  0.00000000000E+00 -0.92607400807E+03  0.37076712847E+04  0.35901550505E+04 0.  0.
        1    1    3    3  502    0 -0.91503670273E+03  0.14022008489E+04  0.20532866354E+03  0.16868963359E+04  0.50400001928E-02 0. -1.
       -1    1    3    3    0  502  0.91503670273E+03 -0.14022008489E+04 -0.11314026716E+04  0.20207749487E+04  0.50400001928E-02 0.  1.
</event>
<event>
 5   0  0.3279988E-08  0.3602285E+04  0.7818609E-02  0.8089969E-01
       -1   -1    0    0    0  501  0.00000000000E+00  0.00000000000E+00  0.29120770059E+04  0.29120770059E+04  0.50400001928E-02 0.  1.
        1   -1    0    0  501    0  0.00000000000E+00  0.00000000000E+00 -0.11140207353E+04  0.11140207353E+04  0.50400001928E-02 0. -1.
    10030    2    1    2    0    0  0.00000000000E+00  0.00000000000E+00  0.17980562706E+04  0.40260977412E+04  0.36022849234E+04 0.  0.
        5    1    3    3  502    0  0.89384058541E+03 -0.28752275498E+03  0.26168952484E+04  0.27802487582E+04  0.46999998093E+01 0.  1.
       -5    1    3    3    0  502 -0.89384058541E+03  0.28752275498E+03 -0.81883897779E+03  0.12458489829E+04  0.46999998093E+01 0. -1.
</event>
<event>
 5   0  0.9905335E-08  0.3603697E+04  0.7818609E-02  0.8089645E-01
        2   -1    0    0  501    0  0.00000000000E+00  0.00000000000E+00  0.21126788649E+04  0.21126788649E+04  0.25500000920E-02 0. -1.
       -2   -1    0    0    0  501  0.00000000000E+00  0.00000000000E+00 -0.15367498394E+04  0.15367498394E+04  0.25500000920E-02 0.  1.
    10030    2    1    2    0    0  0.00000000000E+00  0.00000000000E+00  0.57592902555E+03  0.36494287043E+04  0.36036974936E+04 0.  0.
        5    1    3    3  502    0  0.84501042785E+03  0.13326365612E+04 -0.59294430749E+03  0.16856950701E+04  0.46999998093E+01 0.  1.
       -5    1    3    3    0  502 -0.84501042785E+03 -0.13326365612E+04  0.11688733330E+04  0.19637336342E+04  0.46999998093E+01 0. -1.
</event>
<event>
 5   0  0.1044678E-07  0.3596039E+04  0.7818609E-02  0.8091400E-01
        2   -1    0    0  501    0  0.00000000000E+00  0.00000000000E+00  0.23692139545E+04  0.23692139545E+04  0.25500000920E-02 0. -1.
       -2   -1    0    0    0  501  0.00000000000E+00  0.00000000000E+00 -0.13645345269E+04  0.13645345270E+04  0.25500000920E-02 0.  1.
    10030    2    1    2    0    0  0.00000000000E+00  0.00000000000E+00  0.10046794276E+04  0.37337484815E+04  0.35960390669E+04 0.  0.
        2    1    3    3  502    0 -0.14204117243E+04 -0.45357311818E+03  0.15455940783E+04  0.21475937919E+04  0.25500000920E-02 0.  1.
       -2    1    3    3    0  502  0.14204117243E+04  0.45357311818E+03 -0.54091465073E+03  0.15861546896E+04  0.25500000920E-02 0. -1.
</event>
<event>
 5   0  0.1044678E-07  0.3595444E+04  0.7818609E-02  0.8091536E-01
       -2   -1    0    0    0  501  0.00000000000E+00  0.00000000000E+00  0.18593983354E+04  0.18593983354E+04  0.25500000920E-02 0.  1.
        2   -1    0    0  501    0  0.00000000000E+00  0.00000000000E+00 -0.17380914214E+04  0.17380914214E+04  0.25500000920E-02 0. -1.
    10030    2    1    2    0    0  0.00000000000E+00  0.00000000000E+00  0.12130691398E+03  0.35974897568E+04  0.35954439480E+04 0.  0.
        2    1    3    3  502    0  0.13938062195E+04  0.79883537815E+02 -0.10725664238E+04  0.17605328428E+04  0.25500000920E-02 0. -1.
       -2    1    3    3    0  502 -0.13938062195E+04 -0.79883537815E+02  0.11938733378E+04  0.18369569140E+04  0.25500000920E-02 0.  1.
</event>
<event>
 5   0  0.9905335E-08  0.3601311E+04  0.7818609E-02  0.8090191E-01
        2   -1    0    0  501    0  0.00000000000E+00  0.00000000000E+00  0.14119381238E+04  0.14119381238E+04  0.25500000920E-02 0.  1.
       -2   -1    0    0    0  501  0.00000000000E+00  0.00000000000E+00 -0.22963903009E+04  0.22963903009E+04  0.25500000920E-02 0. -1.
    10030    2    1    2    0    0  0.00000000000E+00  0.00000000000E+00 -0.88445217705E+03  0.37083284247E+04  0.36013114350E+04 0.  0.
        5    1    3    3  502    0 -0.25949174938E+02 -0.18003519532E+04 -0.42167279663E+03  0.18492621644E+04  0.46999998093E+01 0.  1.
       -5    1    3    3    0  502  0.25949174938E+02  0.18003519532E+04 -0.46277938042E+03  0.18590662603E+04  0.46999998093E+01 0. -1.
</event>
<event>
 5   0  0.1017794E-07  0.3600635E+04  0.7818609E-02  0.8090346E-01
        2   -1    0    0  501    0  0.00000000000E+00  0.00000000000E+00  0.16703514250E+04  0.16703514250E+04  0.25500000920E-02 0. -1.
       -2   -1    0    0    0  501  0.00000000000E+00  0.00000000000E+00 -0.19403961429E+04  0.19403961429E+04  0.25500000920E-02 0.  1.
    10030    2    1    2    0    0  0.00000000000E+00  0.00000000000E+00 -0.27004471786E+03  0.36107475679E+04  0.36006352008E+04 0.  0.
        1    1    3    3  502    0  0.60984863495E+03 -0.12463443171E+04  0.10153060578E+04  0.17193417070E+04  0.50400001928E-02 0. -1.
       -1    1    3    3    0  502 -0.60984863495E+03  0.12463443171E+04 -0.12853507757E+04  0.18914058609E+04  0.50400001928E-02 0.  1.
</event>
<event>
 5   0  0.1044678E-07  0.3600600E+04  0.7818609E-02  0.8090354E-01
        2   -1    0    0  501    0  0.00000000000E+00  0.00000000000E+00  0.19008977484E+04  0.19008977484E+04  0.25500000920E-02 0. -1.
       -2   -1    0    0    0  501  0.00000000000E+00  0.00000000000E+00 -0.17050256603E+04  0.17050256603E+04  0.25500000920E-02 0.  1.
    10030    2    1    2    0    0  0.00000000000E+00  0.00000000000E+00  0.19587208810E+03  0.36059234088E+04  0.36005996382E+04 0.  0.
        2    1    3    3  502    0 -0.12159772182E+04 -0.27536338740E+03 -0.12026965856E+04  0.17323119428E+04  0.25500000920E-02 0.  1.
       -2    1    3    3    0  502  0.12159772182E+04  0.27536338740E+03  0.13985686737E+04  0.18736114659E+04  0.25500000920E-02 0. -1.
</event>
<event>
 5   0  0.1017794E-07  0.3600186E+04  0.7818609E-02  0.8090449E-01
        2   -1    0    0  501    0  0.00000000000E+00  0.00000000000E+00  0.17185137998E+04  0.17185137998E+04  0.25500000920E-02 0. -1.
       -2   -1    0    0    0  501  0.00000000000E+00  0.00000000000E+00 -0.18855451818E+04  0.18855451818E+04  0.25500000920E-02 0.  1.
    10030    2    1    2    0    0  0.00000000000E+00  0.00000000000E+00 -0.16703138200E+03  0.36040589816E+04  0.36001863368E+04 0.  0.
        1    1    3    3  502    0  0.10679854622E+04  0.79078312476E+03  0.11320410518E+04  0.17456940857E+04  0.50400001928E-02 0. -1.
       -1    1    3    3    0  502 -0.10679854622E+04 -0.79078312476E+03 -0.12990724338E+04  0.18583648959E+04  0.50400001928E-02 0.  1.
</event>
<event>
 5   0  0.3215494E-08  0.3599807E+04  0.7818609E-02  0.8090536E-01
        1   -1    0    0  501    0  0.00000000000E+00  0.00000000000E+00  0.30120909772E+04  0.30120909772E+04  0.50400001928E-02 0. -1.
       -1   -1    0    0    0  501  0.00000000000E+00  0.00000000000E+00 -0.10755492950E+04  0.10755492950E+04  0.50400001928E-02 0.  1.
    10030    2    1    2    0    0  0.00000000000E+00  0.00000000000E+00  0.19365416822E+04  0.40876402722E+04  0.35998068432E+04 0.  0.
        4    1    3    3  502    0 -0.14509389111E+04 -0.13227260698E+03 -0.23179930843E+03  0.14752804136E+04  0.12699999809E+01 0.  1.
       -4    1    3    3    0  502  0.14509389111E+04  0.13227260698E+03  0.21683409906E+04  0.26123598586E+04  0.12699999809E+01 0. -1.
</event>
<event>
 5   0  0.3202875E-08  0.3593987E+04  0.7818609E-02  0.8091871E-01
       -1   -1    0    0    0  501  0.00000000000E+00  0.00000000000E+00  0.19583169538E+04  0.19583169538E+04  0.50400001928E-02 0. -1.
        1   -1    0    0  501    0  0.00000000000E+00  0.00000000000E+00 -0.16489592540E+04  0.16489592540E+04  0.50400001928E-02 0.  1.
    10030    2    1    2    0    0  0.00000000000E+00  0.00000000000E+00  0.30935769980E+03  0.36072762077E+04  0.35939865682E+04 0.  0.
        1    1    3    3  502    0  0.36260746908E+03  0.11314873824E+04 -0.11984296716E+04  0.16875963827E+04  0.50400001928E-02 0.  1.
       -1    1    3    3    0  502 -0.36260746908E+03 -0.11314873824E+04  0.15077873714E+04  0.19196798250E+04  0.50400001928E-02 0. -1.
</event>
<event>
 5   0  0.3202875E-08  0.3604900E+04  0.7818609E-02  0.8089370E-01
        1   -1    0    0  501    0  0.00000000000E+00  0.00000000000E+00  0.16234194542E+04  0.16234194543E+04  0.50400001928E-02 0. -1.
       -1   -1    0    0    0  501  0.00000000000E+00  0.00000000000E+00 -0.20012241827E+04  0.20012241827E+04  0.50400001928E-02 0.  1.
    10030    2    1    2    0    0  0.00000000000E+00  0.00000000000E+00 -0.37780472846E+03  0.36246436370E+04  0.36049001487E+04 0.  0.
        1    1    3    3  502    0  0.17996276816E+03  0.15629585319E+03 -0.19853074811E+04  0.19995651492E+04  0.50400001928E-02 0.  1.
       -1    1    3    3    0  502 -0.17996276816E+03 -0.15629585319E+03  0.16075027526E+04  0.16250784877E+04  0.50400001928E-02 0. -1.
</event>
<event>
 5   0  0.1029908E-07  0.3606072E+04  0.7818609E-02  0.8089102E-01
        2   -1    0    0  501    0  0.00000000000E+00  0.00000000000E+00  0.22283698423E+04  0.22283698423E+04  0.25500000920E-02 0. -1.
       -2   -1    0    0    0  501  0.00000000000E+00  0.00000000000E+00 -0.14588865422E+04  0.14588865422E+04  0.25500000920E-02 0.  1.
    10030    2    1    2    0    0  0.00000000000E+00  0.00000000000E+00  0.76948330013E+03  0.36872563845E+04  0.36060719760E+04 0.  0.
        4    1    3    3  502    0  0.84295957151E+03 -0.15061930121E+04  0.91776333480E+03  0.19548630081E+04  0.12699999809E+01 0. -1.
       -4    1    3    3    0  502 -0.84295957151E+03  0.15061930121E+04 -0.14828003467E+03  0.17323933764E+04  0.12699999809E+01 0.  1.
</event>
<event>
 5   0  0.3279988E-08  0.3596950E+04  0.7818609E-02  0.8091191E-01
       -1   -1    0    0    0  501  0.00000000000E+00  0.00000000000E+00  0.27286280622E+04  0.27286280622E+04  0.50400001928E-02 0. -1.
        1   -1    0    0  501    0  0.00000000000E+00  0.00000000000E+00 -0.11853986023E+04  0.11853986023E+04  0.50400001928E-02 0.  1.
    10030    2    1    2    0    0  0.00000000000E+00  0.00000000000E+00  0.15432294599E+04  0.39140266645E+04  0.35969497585E+04 0.  0.
        5    1    3    3  502    0  0.17145110157E+04 -0.10913676972E+03  0.19271097314E+03  0.17287621198E+04  0.46999998093E+01 0.  1.
       -5    1    3    3    0  502 -0.17145110157E+04  0.10913676972E+03  0.13505184867E+04  0.21852645448E+04  0.46999998093E+01 0. -1.
</event>
<event>
 5   0  0.3202875E-08  0.3598410E+04  0.7818609E-02  0.8090856E-01
        1   -1    0    0  501    0  0.00000000000E+00  0.00000000000E+00  0.19103456388E+04  0.19103456388E+04  0.50400001928E-02 0. -1.
       -1   -1    0    0    0  501  0.00000000000E+00  0.00000000000E+00 -0.16945302138E+04  0.16945302138E+04  0.50400001928E-02 0.  1.
    10030    2    1    2    0    0  0.00000000000E+00  0.00000000000E+00  0.21581542498E+03  0.36048758526E+04  0.35984098732E+04 0.  0.
        2    1    3    3  502    0 -0.12500943472E+04  0.11152979427E+04  0.76522163515E+03  0.18417897624E+04  0.25500000920E-02 0. -1.
       -2    1    3    3    0  502  0.12500943472E+04 -0.11152979427E+04 -0.54940621016E+03  0.17630860903E+04  0.25500000920E-02 0.  1.
</event>
<event>
 5   0  0.3215494E-08  0.3600930E+04  0.7818609E-02  0.8090279E-01
        1   -1    0    0  501    0  0.00000000000E+00  0.00000000000E+00  0.21475624884E+04  0.21475624884E+04  0.50400001928E-02 0. -1.
       -1   -1    0    0    0  501  0.00000000000E+00  0.00000000000E+00 -0.15094671216E+04  0.15094671216E+04  0.50400001928E-02 0.  1.
    10030    2    1    2    0    0  0.00000000000E+00  0.00000000000E+00  0.63809536679E+03  0.36570296099E+04  0.36009304174E+04 0.  0.
        4    1    3    3  502    0 -0.77899316919E+03 -0.15936855293E+04  0.63208571617E+03  0.18831351224E+04  0.12699999809E+01 0. -1.
       -4    1    3    3    0  502  0.77899316919E+03  0.15936855293E+04  0.60096506213E+01  0.17738944875E+04  0.12699999809E+01 0.  1.
</event>
<event>
 5   0  0.3202875E-08  0.3601881E+04  0.7818609E-02  0.8090061E-01
       -1   -1    0    0    0  501  0.00000000000E+00  0.00000000000E+00  0.14959187735E+04  0.14959187735E+04  0.50400001928E-02 0. -1.
        1   -1    0    0  501    0  0.00000000000E+00  0.00000000000E+00 -0.21681567356E+04  0.21681567356E+04  0.50400001928E-02 0.  1.
    10030    2    1    2    0    0  0.00000000000E+00  0.00000000000E+00 -0.67223796207E+03  0.36640755091E+04  0.36018808224E+04 0.  0.
        1    1    3    3  502    0  0.16607652833E+04 -0.56643190216E+03  0.76344878719E+02  0.17563641327E+04  0.50400001928E-02 0. -1.
       -1    1    3    3    0  502 -0.16607652833E+04  0.56643190216E+03 -0.74858284079E+03  0.19077113764E+04  0.50400001928E-02 0.  1.
</event>
<event>
 5   0  0.1021087E-07  0.3599581E+04  0.7818609E-02  0.8090588E-01
       -2   -1    0    0    0  501  0.00000000000E+00  0.00000000000E+00  0.18090733873E+04  0.18090733873E+04  0.25500000920E-02 0.  1.
        2   -1    0    0  501    0  0.00000000000E+00  0.00000000000E+00 -0.17905552158E+04  0.17905552158E+04  0.25500000920E-02 0. -1.
    10030    2    1    2    0    0  0.00000000000E+00  0.00000000000E+00  0.18518171516E+02  0.35996286031E+04  0.35995809697E+04 0.  0.
        3    1    3    3  502    0 -0.37802808090E+03 -0.67884273829E+02 -0.17490964247E+04  0.17907684992E+04  0.10100000352E+00 0. -1.
       -3    1    3    3    0  502  0.37802808090E+03  0.67884273829E+02  0.17676145962E+04  0.18088601039E+04  0.10100000352E+00 0.  1.
</event>
<event>
 5   0  0.3202875E-08  0.3592924E+04  0.7818609E-02  0.8092114E-01
       -1   -1    0    0    0  501  0.00000000000E+00  0.00000000000E+00  0.13253576572E+04  0.13253576572E+04  0.50400001928E-02 0. -1.
        1   -1    0    0  501    0  0.00000000000E+00  0.00000000000E+00 -0.24350230079E+04  0.24350230079E+04  0.50400001928E-02 0.  1.
    10030    2    1    2    0    0  0.00000000000E+00  0.00000000000E+00 -0.11096653507E+04  0.37603806652E+04  0.35929243739E+04 0.  0.
        2    1    3    3  502    0 -0.27107230766E+03  0.12104193193E+04  0.80522578860E+03  0.14788453926E+04  0.25500000920E-02 0. -1.
       -2    1    3    3    0  502  0.27107230766E+03 -0.12104193193E+04 -0.19148911393E+04  0.22815352726E+04  0.25500000920E-02 0.  1.
</event>
<event>
 5   0  0.1021087E-07  0.3599700E+04  0.7818609E-02  0.8090560E-01
       -2   -1    0    0    0  501  0.00000000000E+00  0.00000000000E+00  0.14851963226E+04  0.14851963226E+04  0.25500000920E-02 0. -1.
        2   -1    0    0  501    0  0.00000000000E+00  0.00000000000E+00 -0.21811661750E+04  0.21811661750E+04  0.25500000920E-02 0.  1.
    10030    2    1    2    0    0  0.00000000000E+00  0.00000000000E+00 -0.69596985237E+03  0.36663624976E+04  0.35996999776E+04 0.  0.
        3    1    3    3  502    0  0.10859399487E+04 -0.27460044029E+03 -0.17829002335E+04  0.21055650612E+04  0.10100000352E+00 0.  1.
       -3    1    3    3    0  502 -0.10859399487E+04  0.27460044029E+03  0.10869303811E+04  0.15607974364E+04  0.10100000352E+00 0. -1.
</event>
<event>
 5   0  0.3202875E-08  0.3603421E+04  0.7818609E-02  0.8089708E-01
       -3   -1    0    0    0  501  0.00000000000E+00  0.00000000000E+00  0.16248632509E+04  0.16248632540E+04  0.10100000352E+00 0. -1.
        3   -1    0    0  501    0  0.00000000000E+00  0.00000000000E+00 -0.19978059582E+04  0.19978059607E+04  0.10100000352E+00 0.  1.
    10030    2    1    2    0    0  0.00000000000E+00  0.00000000000E+00 -0.37294270730E+03  0.36226692148E+04  0.36034214265E+04 0.  0.
        2    1    3    3  502    0  0.51268140758E+03 -0.33714402835E+03 -0.18895250034E+04  0.19866587679E+04  0.25500000920E-02 0.  1.
       -2    1    3    3    0  502 -0.51268140758E+03  0.33714402835E+03  0.15165822961E+04  0.16360104469E+04  0.25500000920E-02 0. -1.
</event>
<event>
 5   0  0.1021087E-07  0.3600119E+04  0.7818609E-02  0.8090464E-01
       -2   -1    0    0    0  501  0.00000000000E+00  0.00000000000E+00  0.10985193748E+04  0.10985193748E+04  0.25500000920E-02 0.  1.
        2   -1    0    0  501    0  0.00000000000E+00  0.00000000000E+00 -0.29496193550E+04  0.29496193550E+04  0.25500000920E-02 0. -1.
    10030    2    1    2    0    0  0.00000000000E+00  0.00000000000E+00 -0.18510999802E+04  0.40481387298E+04  0.36001188923E+04 0.  0.
        3    1    3    3  502    0 -0.24435478495E+03 -0.14580930068E+04 -0.20802138150E+04  0.25520646551E+04  0.10100000352E+00 0. -1.
       -3    1    3    3    0  502  0.24435478495E+03  0.14580930068E+04  0.22911383480E+03  0.14960740746E+04  0.10100000352E+00 0.  1.
</event>
<event>
 5   0  0.3212523E-08  0.3591908E+04  0.7818609E-02  0.8092348E-01
       -1   -1    0    0    0  501  0.00000000000E+00  0.00000000000E+00  0.13690289669E+04  0.13690289669E+04  0.50400001928E-02 0. -1.
        1   -1    0    0  501    0  0.00000000000E+00  0.00000000000E+00 -0.23560141433E+04  0.23560141433E+04  0.50400001928E-02 0.  1.
    10030    2    1    2    0    0  0.00000000000E+00  0.00000000000E+00 -0.98698517643E+03  0.37250431102E+04  0.35919084669E+04 0.  0.
        3    1    3    3  502    0 -0.15325824610E+04 -0.93465479859E+03 -0.55088837038E+03  0.18777291069E+04  0.10100000352E+00 0. -1.
       -3    1    3    3    0  502  0.15325824610E+04  0.93465479859E+03 -0.43609680605E+03  0.18473140033E+04  0.10100000352E+00 0.  1.
</event>
<event>
 5   0  0.3279988E-08  0.3608289E+04  0.7818609E-02  0.8088596E-01
        1   -1    0    0  501    0  0.00000000000E+00  0.00000000000E+00  0.24806504886E+04  0.24806504886E+04  0.50400001928E-02 0.  1.
       -1   -1    0    0    0  501  0.00000000000E+00  0.00000000000E+00 -0.13121309363E+04  0.13121309363E+04  0.50400001928E-02 0. -1.
    10030    2    1    2    0    0  0.00000000000E+00  0.00000000000E+00  0.11685195523E+04  0.37927814249E+04  0.36082894830E+04 0.  0.
        5    1    3    3  502    0  0.14635490354E+04  0.10505170510E+04  0.48259694515E+03  0.18650693700E+04  0.46999998093E+01 0. -1.
       -5    1    3    3    0  502 -0.14635490354E+04 -0.10505170510E+04  0.68592260710E+03  0.19277120549E+04  0.46999998093E+01 0.  1.
</event>
<event>
 5   0  0.9905335E-08  0.3592229E+04  0.7818609E-02  0.8092274E-01
        2   -1    0    0  501    0  0.00000000000E+00  0.00000000000E+00  0.25722737787E+04  0.25722737787E+04  0.25500000920E-02 0.  1.
       -2   -1    0    0    0  501  0.00000000000E+00  0.00000000000E+00 -0.12541541777E+04  0.12541541777E+04  0.25500000920E-02 0. -1.
    10030    2    1    2    0    0  0.00000000000E+00  0.00000000000E+00  0.13181196009E+04  0.38264279564E+04  0.35922293389E+04 0.  0.
        5    1    3    3  502    0  0.17188389949E+03  0.44717270822E+03 -0.11848365463E+04  0.12780325650E+04  0.46999998093E+01 0. -1.
       -5    1    3    3    0  502 -0.17188389949E+03 -0.44717270822E+03  0.25029561472E+04  0.25483953914E+04  0.46999998093E+01 0.  1.
</event>
<event>
 5   0  0.3212523E-08  0.3580224E+04  0.7818609E-02  0.8095037E-01
       -1   -1    0    0    0  501  0.00000000000E+00  0.00000000000E+00  0.21716354272E+04  0.21716354273E+04  0.50400001928E-02 0.  1.
        1   -1    0    0  501    0  0.00000000000E+00  0.00000000000E+00 -0.14756164430E+04  0.14756164430E+04  0.50400001928E-02 0. -1.
    10030    2    1    2    0    0  0.00000000000E+00  0.00000000000E+00  0.69601898421E+03  0.36472518703E+04  0.35802239845E+04 0.  0.
        3    1    3    3  502    0 -0.47088205270E+03  0.16476404280E+04 -0.17942086421E+03  0.17229743888E+04  0.10100000352E+00 0. -1.
       -3    1    3    3    0  502  0.47088205270E+03 -0.16476404280E+04  0.87543984842E+03  0.19242774815E+04  0.10100000352E+00 0.  1.
</event>
<event>
 5   0  0.3202875E-08  0.3592542E+04  0.7818609E-02  0.8092202E-01
        1   -1    0    0  501    0  0.00000000000E+00  0.00000000000E+00  0.17701851533E+04  0.17701851533E+04  0.50400001928E-02 0. -1.
       -1   -1    0    0    0  501  0.00000000000E+00  0.00000000000E+00 -0.18227408796E+04  0.18227408796E+04  0.50400001928E-02 0.  1.
    10030    2    1    2    0    0  0.00000000000E+00  0.00000000000E+00 -0.52555726331E+02  0.35929260329E+04  0.35925416314E+04 0.  0.
        2    1    3    3  502    0 -0.39070984461E+03 -0.14351721594E+04 -0.10334683054E+04  0.18111957509E+04  0.25500000920E-02 0. -1.
       -2    1    3    3    0  502  0.39070984461E+03  0.14351721594E+04  0.98091257902E+03  0.17817302819E+04  0.25500000920E-02 0.  1.
</event>
<event>
 5   0  0.1044678E-07  0.3597357E+04  0.7818609E-02  0.8091097E-01
        2   -1    0    0  501    0  0.00000000000E+00  0.00000000000E+00  0.25706513854E+04  0.25706513854E+04  0.25500000920E-02 0. -1.
       -2   -1    0    0    0  501  0.00000000000E+00  0.00000000000E+00 -0.12585307077E+04  0.12585307077E+04  0.25500000920E-02 0.  1.
    10030    2    1    2    0    0  0.00000000000E+00  0.00000000000E+00  0.13121206777E+04  0.38291820931E+04  0.35973566448E+04 0.  0.
        2    1    3    3  502    0 -0.14040537432E+04 -0.79251056200E+03 -0.19269805760E+03  0.16237525815E+04  0.25500000920E-02 0.  1.
       -2    1    3    3    0  502  0.14040537432E+04  0.79251056200E+03  0.15048187353E+04  0.22054295116E+04  0.25500000920E-02 0. -1.
</event>
<event>
 5   0  0.1044678E-07  0.3606215E+04  0.7818609E-02  0.8089070E-01
       -2   -1    0    0    0  501  0.00000000000E+00  0.00000000000E+00  0.12455351682E+04  0.12455351682E+04  0.25500000920E-02 0. -1.
        2   -1    0    0  501    0  0.00000000000E+00  0.00000000000E+00 -0.26102804515E+04  0.26102804515E+04  0.25500000920E-02 0.  1.
    10030    2    1    2    0    0  0.00000000000E+00  0.00000000000E+00 -0.13647452833E+04  0.38558156196E+04  0.36062146919E+04 0.  0.
        2    1    3    3  502    0 -0.24678748470E+03  0.86407163550E+03  0.98904952749E+03  0.13363168867E+04  0.25500000920E-02 0. -1.
       -2    1    3    3    0  502  0.24678748470E+03 -0.86407163550E+03 -0.23537948108E+04  0.25194987329E+04  0.25500000920E-02 0.  1.
</event>
<event>
 5   0  0.1029908E-07  0.3654465E+04  0.7818609E-02  0.8078129E-01
        2   -1    0    0  501    0  0.00000000000E+00  0.00000000000E+00  0.22149232558E+04  0.22149232558E+04  0.25500000920E-02 0.  1.
       -2   -1    0    0    0  501  0.00000000000E+00  0.00000000000E+00 -0.15074012132E+04  0.15074012132E+04  0.25500000920E-02 0. -1.
    10030    2    1    2    0    0  0.00000000000E+00  0.00000000000E+00  0.70752204267E+03  0.37223244690E+04  0.36544646683E+04 0.  0.
        4    1    3    3  502    0 -0.11581811492E+04 -0.89218849723E+03  0.14701946719E+04  0.20733687263E+04  0.12699999809E+01 0.  1.
       -4    1    3    3    0  502  0.11581811492E+04  0.89218849723E+03 -0.76267262928E+03  0.16489557427E+04  0.12699999809E+01 0. -1.
</event>
<event>
 5   0  0.1017794E-07  0.3604600E+04  0.7818609E-02  0.8089439E-01
       -2   -1    0    0    0  501  0.00000000000E+00  0.00000000000E+00  0.26124862807E+04  0.26124862807E+04  0.25500000920E-02 0. -1.
        2   -1    0    0  501    0  0.00000000000E+00  0.00000000000E+00 -0.12433689816E+04  0.12433689816E+04  0.25500000920E-02 0.  1.
    10030    2    1    2    0    0  0.00000000000E+00  0.00000000000E+00  0.13691172991E+04  0.38558552623E+04  0.36045995096E+04 0.  0.
        1    1    3    3  502    0  0.83779881372E+03 -0.70124369466E+03  0.22178723901E+04  0.24723688055E+04  0.50400001928E-02 0. -1.
       -1    1    3    3    0  502 -0.83779881372E+03  0.70124369466E+03 -0.84875509101E+03  0.13834864568E+04  0.50400001928E-02 0.  1.
</event>
<event>
 5   0  0.3202875E-08  0.3601152E+04  0.7818609E-02  0.8090228E-01
        1   -1    0    0  501    0  0.00000000000E+00  0.00000000000E+00  0.11086001870E+04  0.11086001870E+04  0.50400001928E-02 0.  1.
       -1   -1    0    0    0  501  0.00000000000E+00  0.00000000000E+00 -0.29244745941E+04  0.29244745941E+04  0.50400001928E-02 0. -1.
    10030    2    1    2    0    0  0.00000000000E+00  0.00000000000E+00 -0.18158744071E+04  0.40330747811E+04  0.36011515280E+04 0.  0.
        2    1    3    3  502    0 -0.21004627781E+03 -0.40909569968E+02 -0.29101825408E+04  0.29180396591E+04  0.25500000920E-02 0. -1.
       -2    1    3    3    0  502  0.21004627781E+03  0.40909569968E+02  0.10943081337E+04  0.11150351219E+04  0.25500000920E-02 0.  1.
</event>
<event>
 5   0  0.1029908E-07  0.3589529E+04  0.7818609E-02  0.8092894E-01
        2   -1    0    0  501    0  0.00000000000E+00  0.00000000000E+00  0.19636756376E+04  0.19636756376E+04  0.25500000920E-02 0. -1.
       -2   -1    0    0    0  501  0.00000000000E+00  0.00000000000E+00 -0.16403825904E+04  0.16403825904E+04  0.25500000920E-02 0.  1.
    10030    2    1    2    0    0  0.00000000000E+00  0.00000000000E+00  0.32329304724E+03  0.36040582280E+04  0.35895288433E+04 0.  0.
        4    1    3    3  502    0  0.95118036826E+03  0.34119256093E+03 -0.13276040989E+04  0.16684396043E+04  0.12699999809E+01 0.  1.
       -4    1    3    3    0  502 -0.95118036826E+03 -0.34119256093E+03  0.16508971462E+04  0.19356186238E+04  0.12699999809E+01 0. -1.
</event>
<event>
 5   0  0.1021087E-07  0.3590701E+04  0.7818609E-02  0.8092625E-01
        2   -1    0    0  501    0  0.00000000000E+00  0.00000000000E+00  0.26258680163E+04  0.26258680163E+04  0.25500000920E-02 0.  1.
       -2   -1    0    0    0  501  0.00000000000E+00  0.00000000000E+00 -0.12275115932E+04  0.12275115932E+04  0.25500000920E-02 0. -1.
    10030    2    1    2    0    0  0.00000000000E+00  0.00000000000E+00  0.13983564232E+04  0.38533796095E+04  0.35907010080E+04 0.  0.
        3    1    3    3  502    0 -0.21484805811E+03 -0.98088133643E+03  0.22963402496E+04  0.25062853860E+04  0.10100000352E+00 0.  1.
       -3    1    3    3    0  502  0.21484805811E+03  0.98088133643E+03 -0.89798382641E+03  0.13470942235E+04  0.10100000352E+00 0. -1.
</event>
<event>
 5   0  0.3212523E-08  0.3587858E+04  0.7818609E-02  0.8093279E-01
        1   -1    0    0  501    0  0.00000000000E+00  0.00000000000E+00  0.11667157305E+04  0.11667157305E+04  0.50400001928E-02 0.  1.
       -1   -1    0    0    0  501  0.00000000000E+00  0.00000000000E+00 -0.27583246863E+04  0.27583246863E+04  0.50400001928E-02 0. -1.
    10030    2    1    2    0    0  0.00000000000E+00  0.00000000000E+00 -0.15916089558E+04  0.39250404168E+04  0.35878577459E+04 0.  0.
        3    1    3    3  502    0  0.76796454985E+02 -0.70312777325E+03  0.10077331576E+04  0.12311833690E+04  0.10100000352E+00 0.  1.
       -3    1    3    3    0  502 -0.76796454985E+02  0.70312777325E+03 -0.25993421134E+04  0.26938570478E+04  0.10100000352E+00 0. -1.
</event>
<event>
 5   0  0.9905335E-08  0.3600299E+04  0.7818609E-02  0.8090423E-01
        2   -1    0    0  501    0  0.00000000000E+00  0.00000000000E+00  0.25226439723E+04  0.25226439723E+04  0.25500000920E-02 0. -1.
       -2   -1    0    0    0  501  0.00000000000E+00  0.00000000000E+00 -0.12845799450E+04  0.12845799450E+04  0.25500000920E-02 0.  1.
    10030    2    1    2    0    0  0.00000000000E+00  0.00000000000E+00  0.12380640274E+04  0.38072239173E+04  0.36002987960E+04 0.  0.
        5    1    3    3  502    0  0.11638208997E+03 -0.17749071851E+04  0.91185021283E+03  0.19988329613E+04  0.46999998093E+01 0. -1.
       -5    1    3    3    0  502 -0.11638208997E+03  0.17749071851E+04  0.32621381453E+03  0.18083909559E+04  0.46999998093E+01 0.  1.
</event>
<event>
 5   0  0.3215494E-08  0.3604121E+04  0.7818609E-02  0.8089548E-01
        1   -1    0    0  501    0  0.00000000000E+00  0.00000000000E+00  0.21242662377E+04  0.21242662377E+04  0.50400001928E-02 0. -1.
       -1   -1    0    0    0  501  0.00000000000E+00  0.00000000000E+00 -0.15287264509E+04  0.15287264510E+04  0.50400001928E-02 0.  1.
    10030    2    1    2    0    0  0.00000000000E+00  0.00000000000E+00  0.59553978678E+03  0.36529926887E+04  0.36041209672E+04 0.  0.
        4    1    3    3  502    0  0.39418840274E+03 -0.16568285917E+04  0.89478586976E+03  0.19238266150E+04  0.12699999809E+01 0. -1.
       -4    1    3    3    0  502 -0.39418840274E+03  0.16568285917E+04 -0.29924608297E+03  0.17291660736E+04  0.12699999809E+01 0.  1.
</event>
<event>
 5   0  0.1017794E-07  0.3594052E+04  0.7818609E-02  0.8091856E-01
        2   -1    0    0  501    0  0.00000000000E+00  0.00000000000E+00  0.13219227661E+04  0.13219227661E+04  0.25500000920E-02 0. -1.
       -2   -1    0    0    0  501  0.00000000000E+00  0.00000000000E+00 -0.24428827260E+04  0.24428827260E+04  0.25500000920E-02 0.  1.
    10030    2    1    2    0    0  0.00000000000E+00  0.00000000000E+00 -0.11209599599E+04  0.37648054922E+04  0.35940519142E+04 0.  0.
        1    1    3    3  502    0  0.16820345758E+04  0.18516586478E+03  0.73047635527E+02  0.16937717286E+04  0.50400001928E-02 0. -1.
       -1    1    3    3    0  502 -0.16820345758E+04 -0.18516586478E+03 -0.11940075955E+04  0.20710337635E+04  0.50400001928E-02 0.  1.
</event>
<event>
 5   0  0.1044678E-07  0.3600802E+04  0.7818609E-02  0.8090308E-01
       -2   -1    0    0    0  501  0.00000000000E+00  0.00000000000E+00  0.21789576200E+04  0.21789576200E+04  0.25500000920E-02 0. -1.
        2   -1    0    0  501    0  0.00000000000E+00  0.00000000000E+00 -0.14876121536E+04  0.14876121536E+04  0.25500000920E-02 0.  1.
    10030    2    1    2    0    0  0.00000000000E+00  0.00000000000E+00  0.69134546641E+03  0.36665697736E+04  0.36008020427E+04 0.  0.
        2    1    3    3  502    0  0.93697386043E+03 -0.15355305863E+04  0.42234503300E+03  0.18477417362E+04  0.25500000920E-02 0. -1.
       -2    1    3    3    0  502 -0.93697386043E+03  0.15355305863E+04  0.26900043341E+03  0.18188280375E+04  0.25500000920E-02 0.  1.
</event>
<event>
 5   0  0.3279988E-08  0.3566853E+04  0.7818609E-02  0.8098127E-01
       -1   -1    0    0    0  501  0.00000000000E+00  0.00000000000E+00  0.16967808216E+04  0.16967808216E+04  0.50400001928E-02 0.  1.
        1   -1    0    0  501    0  0.00000000000E+00  0.00000000000E+00 -0.18744971431E+04  0.18744971431E+04  0.50400001928E-02 0. -1.
    10030    2    1    2    0    0  0.00000000000E+00  0.00000000000E+00 -0.17771632151E+03  0.35712779647E+04  0.35668534046E+04 0.  0.
        5    1    3    3  502    0  0.98541708171E+03 -0.61338475194E+03 -0.14445322180E+04  0.18531009411E+04  0.46999998093E+01 0. -1.
       -5    1    3    3    0  502 -0.98541708171E+03  0.61338475194E+03  0.12668158965E+04  0.17181770236E+04  0.46999998093E+01 0.  1.
</event>
<event>
 5   0  0.1029908E-07  0.3594490E+04  0.7818609E-02  0.8091755E-01
        2   -1    0    0  501    0  0.00000000000E+00  0.00000000000E+00  0.30623691975E+04  0.30623691975E+04  0.25500000920E-02 0. -1.
       -2   -1    0    0    0  501  0.00000000000E+00  0.00000000000E+00 -0.10547681474E+04  0.10547681474E+04  0.25500000920E-02 0.  1.
    10030    2    1    2    0    0  0.00000000000E+00  0.00000000000E+00  0.20076010501E+04  0.41171373448E+04  0.35944899416E+04 0.  0.
        4    1    3    3  502    0  0.10794381563E+04 -0.83318027264E+03 -0.33720681093E+03  0.14046658486E+04  0.12699999809E+01 0.  1.
       -4    1    3    3    0  502 -0.10794381563E+04  0.83318027264E+03  0.23448078610E+04  0.27124714962E+04  0.12699999809E+01 0. -1.
</event>
<event>
 5   0  0.9905335E-08  0.3601232E+04  0.7818609E-02  0.8090209E-01
       -2   -1    0    0    0  501  0.00000000000E+00  0.00000000000E+00  0.13838684059E+04  0.13838684059E+04  0.25500000920E-02 0. -1.
        2   -1    0    0  501    0  0.00000000000E+00  0.00000000000E+00 -0.23428663551E+04  0.23428663551E+04  0.25500000920E-02 0.  1.
    10030    2    1    2    0    0  0.00000000000E+00  0.00000000000E+00 -0.95899794912E+03  0.37267347610E+04  0.36012324158E+04 0.  0.
        5    1    3    3  502    0  0.50158630591E+03  0.10298902740E+04  0.95813571674E+03  0.14934218896E+04  0.46999998093E+01 0. -1.
       -5    1    3    3    0  502 -0.50158630591E+03 -0.10298902740E+04 -0.19171336659E+04  0.22333128714E+04  0.46999998093E+01 0.  1.
</event>
<event>
 5   0  0.3215494E-08  0.3596394E+04  0.7818609E-02  0.8091318E-01
        1   -1    0    0  501    0  0.00000000000E+00  0.00000000000E+00  0.12399995731E+04  0.12399995731E+04  0.50400001928E-02 0.  1.
       -1   -1    0    0    0  501  0.00000000000E+00  0.00000000000E+00 -0.26076727064E+04  0.26076727064E+04  0.50400001928E-02 0. -1.
    10030    2    1    2    0    0  0.00000000000E+00  0.00000000000E+00 -0.13676731333E+04  0.38476722795E+04  0.35963943292E+04 0.  0.
        4    1    3    3  502    0 -0.77459305253E+03 -0.38280490604E+03  0.10033639233E+04  0.13241128232E+04  0.12699999809E+01 0.  1.
       -4    1    3    3    0  502  0.77459305253E+03  0.38280490604E+03 -0.23710370566E+04  0.25235594563E+04  0.12699999809E+01 0. -1.
</event>
<event>
 5   0  0.1021087E-07  0.3595092E+04  0.7818609E-02  0.8091617E-01
       -2   -1    0    0    0  501  0.00000000000E+00  0.00000000000E+00  0.15644523887E+04  0.15644523887E+04  0.25500000920E-02 0. -1.
        2   -1    0    0  501    0  0.00000000000E+00  0.00000000000E+00 -0.20653692023E+04  0.20653692023E+04  0.25500000920E-02 0.  1.
    10030    2    1    2    0    0  0.00000000000E+00  0.00000000000E+00 -0.50091681357E+03  0.36298215911E+04  0.35950920891E+04 0.  0.
        3    1    3    3  502    0 -0.93925427794E+02  0.16964649863E+04 -0.84294605318E+03  0.18966743248E+04  0.10100000352E+00 0.  1.
       -3    1    3    3    0  502  0.93925427794E+02 -0.16964649863E+04  0.34202923961E+03  0.17331472663E+04  0.10100000352E+00 0. -1.
</event>
<event>
 5   0  0.3202875E-08  0.3598744E+04  0.7818609E-02  0.8090779E-01
        3   -1    0    0  501    0  0.00000000000E+00  0.00000000000E+00  0.24984628109E+04  0.24984628130E+04  0.10100000352E+00 0. -1.
       -3   -1    0    0    0  501  0.00000000000E+00  0.00000000000E+00 -0.12958928468E+04  0.12958928507E+04  0.10100000352E+00 0.  1.
    10030    2    1    2    0    0  0.00000000000E+00  0.00000000000E+00  0.12025699642E+04  0.37943556637E+04  0.35987442787E+04 0.  0.
        3    1    3    3  502    0  0.17964640709E+04 -0.47735370627E+02  0.50593567081E+03  0.18669581508E+04  0.10100000352E+00 0.  1.
       -3    1    3    3    0  502 -0.17964640709E+04  0.47735370627E+02  0.69663429335E+03  0.19273975129E+04  0.10100000352E+00 0. -1.
</event>
<event>
 5   0  0.3212523E-08  0.3585987E+04  0.7818609E-02  0.8093709E-01
       -1   -1    0    0    0  501  0.00000000000E+00  0.00000000000E+00  0.11497623881E+04  0.11497623881E+04  0.50400001928E-02 0. -1.
        1   -1    0    0  501    0  0.00000000000E+00  0.00000000000E+00 -0.27960776133E+04  0.27960776133E+04  0.50400001928E-02 0.  1.
    10030    2    1    2    0    0  0.00000000000E+00  0.00000000000E+00 -0.16463152252E+04  0.39458400014E+04  0.35859865444E+04 0.  0.
        3    1    3    3  502    0  0.88845857999E+03  0.64904560895E+03 -0.23809228067E+04  0.26228633728E+04  0.10100000352E+00 0.  1.
       -3    1    3    3    0  502 -0.88845857999E+03 -0.64904560895E+03  0.73460758150E+03  0.13229766286E+04  0.10100000352E+00 0. -1.
</event>
<event>
 5   0  0.3212523E-08  0.3604688E+04  0.7818609E-02  0.8089419E-01
        1   -1    0    0  501    0  0.00000000000E+00  0.00000000000E+00  0.24552365431E+04  0.24552365431E+04  0.50400001928E-02 0.  1.
       -1   -1    0    0    0  501  0.00000000000E+00  0.00000000000E+00 -0.13230678999E+04  0.13230678999E+04  0.50400001928E-02 0. -1.
    10030    2    1    2    0    0  0.00000000000E+00  0.00000000000E+00  0.11321686432E+04  0.37783044430E+04  0.36046884231E+04 0.  0.
        3    1    3    3  502    0 -0.15312156823E+04  0.67926069147E+03  0.12632733845E+04  0.20980648720E+04  0.10100000352E+00 0.  1.
       -3    1    3    3    0  502  0.15312156823E+04 -0.67926069147E+03 -0.13110474130E+03  0.16802395711E+04  0.10100000352E+00 0. -1.
</event>
<event>
 5   0  0.3202875E-08  0.3596469E+04  0.7818609E-02  0.8091301E-01
        1   -1    0    0  501    0  0.00000000000E+00  0.00000000000E+00  0.21616879155E+04  0.21616879156E+04  0.50400001928E-02 0. -1.
       -1   -1    0    0    0  501  0.00000000000E+00  0.00000000000E+00 -0.14958899154E+04  0.14958899154E+04  0.50400001928E-02 0.  1.
    10030    2    1    2    0    0  0.00000000000E+00  0.00000000000E+00  0.66579800018E+03  0.36575778309E+04  0.35964689088E+04 0.  0.
        1    1    3    3  502    0  0.12389582080E+04 -0.12653609205E+04  0.65044053350E+03  0.18865917915E+04  0.50400001928E-02 0. -1.
       -1    1    3    3    0  502 -0.12389582080E+04  0.12653609205E+04  0.15357466677E+02  0.17709860394E+04  0.50400001928E-02 0.  1.
</event>
<event>
 5   0  0.1021087E-07  0.3600799E+04  0.7818609E-02  0.8090309E-01
       -2   -1    0    0    0  501  0.00000000000E+00  0.00000000000E+00  0.12068932123E+04  0.12068932123E+04  0.25500000920E-02 0.  1.
        2   -1    0    0  501    0  0.00000000000E+00  0.00000000000E+00 -0.26857709562E+04  0.26857709562E+04  0.25500000920E-02 0. -1.
    10030    2    1    2    0    0  0.00000000000E+00  0.00000000000E+00 -0.14788777440E+04  0.38926641685E+04  0.36007992095E+04 0.  0.
        3    1    3    3  502    0  0.81330885810E+03  0.12191539165E+04  0.39109471662E+03  0.15168265090E+04  0.10100000352E+00 0.  1.
       -3    1    3    3    0  502 -0.81330885810E+03 -0.12191539165E+04 -0.18699724606E+04  0.23758376595E+04  0.10100000352E+00 0. -1.
</event>
<event>
 5   0  0.1021087E-07  0.3611844E+04  0.7818609E-02  0.8087784E-01
        2   -1    0    0  501    0  0.00000000000E+00  0.00000000000E+00  0.21068507386E+04  0.21068507386E+04  0.25500000920E-02 0. -1.
       -2   -1    0    0    0  501  0.00000000000E+00  0.00000000000E+00 -0.15479755593E+04  0.15479755593E+04  0.25500000920E-02 0.  1.
    10030    2    1    2    0    0  0.00000000000E+00  0.00000000000E+00  0.55887517933E+03  0.36548262979E+04  0.36118435461E+04 0.  0.
        3    1    3    3  502    0  0.37525235640E+03  0.82591304423E+02  0.20650098695E+04  0.21004526717E+04  0.10100000352E+00 0. -1.
       -3    1    3    3    0  502 -0.37525235640E+03 -0.82591304423E+02 -0.15061346902E+04  0.15543736262E+04  0.10100000352E+00 0.  1.
</event>
<event>
 5   0  0.9905335E-08  0.3609049E+04  0.7818609E-02  0.8088422E-01
        2   -1    0    0  501    0  0.00000000000E+00  0.00000000000E+00  0.19355381109E+04  0.19355381109E+04  0.25500000920E-02 0. -1.
       -2   -1    0    0    0  501  0.00000000000E+00  0.00000000000E+00 -0.16823792993E+04  0.16823792993E+04  0.25500000920E-02 0.  1.
    10030    2    1    2    0    0  0.00000000000E+00  0.00000000000E+00  0.25315881161E+03  0.36179174103E+04  0.36090493213E+04 0.  0.
        5    1    3    3  502    0  0.10376832796E+04 -0.12866224847E+03 -0.13477303180E+04  0.17057959031E+04  0.46999998093E+01 0.  1.
       -5    1    3    3    0  502 -0.10376832796E+04  0.12866224847E+03  0.16008891296E+04  0.19121215072E+04  0.46999998093E+01 0. -1.
</event>
<event>
 5   0  0.3215494E-08  0.3599061E+04  0.7818609E-02  0.8090707E-01
        1   -1    0    0  501    0  0.00000000000E+00  0.00000000000E+00  0.10622179825E+04  0.10622179825E+04  0.50400001928E-02 0. -1.
       -1   -1    0    0    0  501  0.00000000000E+00  0.00000000000E+00 -0.30486299363E+04  0.30486299363E+04  0.50400001928E-02 0.  1.
    10030    2    1    2    0    0  0.00000000000E+00  0.00000000000E+00 -0.19864119538E+04  0.41108479188E+04  0.35990607332E+04 0.  0.
        4    1    3    3  502    0 -0.51910148859E+03 -0.11878108411E+04 -0.24188745344E+04  0.27443244298E+04  0.12699999809E+01 0.  1.
       -4    1    3    3    0  502  0.51910148859E+03  0.11878108411E+04  0.43246258054E+03  0.13665234891E+04  0.12699999809E+01 0. -1.
</event>
<event>
 5   0  0.3202875E-08  0.3597904E+04  0.7818609E-02  0.8090972E-01
       -1   -1    0    0    0  501  0.00000000000E+00  0.00000000000E+00  0.13007526245E+04  0.13007526245E+04  0.50400001928E-02 0.  1.
        1   -1    0    0  501    0  0.00000000000E+00  0.00000000000E+00 -0.24879662026E+04  0.24879662026E+04  0.50400001928E-02 0. -1.
    10030    2    1    2    0    0  0.00000000000E+00  0.00000000000E+00 -0.11872135781E+04  0.37887188272E+04  0.35979041498E+04 0.  0.
        1    1    3    3  502    0 -0.29075451536E+03 -0.18924171404E+03 -0.24524082534E+04  0.24768239453E+04  0.50400001928E-02 0. -1.
       -1    1    3    3    0  502  0.29075451536E+03  0.18924171404E+03  0.12651946753E+04  0.13118948818E+04  0.50400001928E-02 0.  1.
</event>
<event>
 5   0  0.1044678E-07  0.3583373E+04  0.7818609E-02  0.8094311E-01
        2   -1    0    0  501    0  0.00000000000E+00  0.00000000000E+00  0.16080022705E+04  0.16080022705E+04  0.25500000920E-02 0.  1.
       -2   -1    0    0    0  501  0.00000000000E+00  0.00000000000E+00 -0.19963535328E+04  0.19963535328E+04  0.25500000920E-02 0. -1.
    10030    2    1    2    0    0  0.00000000000E+00  0.00000000000E+00 -0.38835126229E+03  0.36043558034E+04  0.35833732787E+04 0.  0.
        2    1    3    3  502    0  0.39306821638E+03  0.17088664272E+04  0.17596543167E+03  0.17622970584E+04  0.25500000920E-02 0.  1.
       -2    1    3    3    0  502 -0.39306821638E+03 -0.17088664272E+04 -0.56431669396E+03  0.18420587450E+04  0.25500000920E-02 0. -1.
</event>
<event>
 5   0  0.1021087E-07  0.3601474E+04  0.7818609E-02  0.8090154E-01
       -2   -1    0    0    0  501  0.00000000000E+00  0.00000000000E+00  0.13170756880E+04  0.13170756880E+04  0.25500000920E-02 0. -1.
        2   -1    0    0  501    0  0.00000000000E+00  0.00000000000E+00 -0.24620100636E+04  0.24620100636E+04  0.25500000920E-02 0.  1.
    10030    2    1    2    0    0  0.00000000000E+00  0.00000000000E+00 -0.11449343756E+04  0.37790857515E+04  0.36014739195E+04 0.  0.
        3    1    3    3  502    0  0.15337173368E+04 -0.28920592936E+03  0.37000628662E+03  0.16040054866E+04  0.10100000352E+00 0. -1.
       -3    1    3    3    0  502 -0.15337173368E+04  0.28920592936E+03 -0.15149406622E+04  0.21750802649E+04  0.10100000352E+00 0.  1.
</event>
<event>
 5   0  0.3202875E-08  0.3595197E+04  0.7818609E-02  0.8091593E-01
       -1   -1    0    0    0  501  0.00000000000E+00  0.00000000000E+00  0.14116381872E+04  0.14116381872E+04  0.50400001928E-02 0.  1.
        1   -1    0    0  501    0  0.00000000000E+00  0.00000000000E+00 -0.22890852541E+04  0.22890852541E+04  0.50400001928E-02 0. -1.
    10030    2    1    2    0    0  0.00000000000E+00  0.00000000000E+00 -0.87744706693E+03  0.37007234413E+04  0.35951968838E+04 0.  0.
        1    1    3    3  502    0  0.15455336280E+04  0.23727770406E+03  0.47408908087E+03  0.16339324835E+04  0.50400001928E-02 0.  1.
       -1    1    3    3    0  502 -0.15455336280E+04 -0.23727770406E+03 -0.13515361478E+04  0.20667909577E+04  0.50400001928E-02 0. -1.
</event>
<event>
 5   0  0.9905335E-08  0.3611313E+04  0.7818609E-02  0.8087905E-01
        2   -1    0    0  501    0  0.00000000000E+00  0.00000000000E+00  0.24026555407E+04  0.24026555407E+04  0.25500000920E-02 0.  1.
       -2   -1    0    0    0  501  0.00000000000E+00  0.00000000000E+00 -0.13569968925E+04  0.13569968925E+04  0.25500000920E-02 0. -1.
    10030    2    1    2    0    0  0.00000000000E+00  0.00000000000E+00  0.10456586481E+04  0.37596524332E+04  0.36113133913E+04 0.  0.
        5    1    3    3  502    0  0.57695424398E+03  0.17107468620E+04  0.49260247109E+03  0.18714193304E+04  0.46999998093E+01 0.  1.
       -5    1    3    3    0  502 -0.57695424398E+03 -0.17107468620E+04  0.55305617704E+03  0.18882331028E+04  0.46999998093E+01 0. -1.
</event>
<event>
 5   0  0.3202875E-08  0.3603639E+04  0.7818609E-02  0.8089659E-01
        1   -1    0    0  501    0  0.00000000000E+00  0.00000000000E+00  0.14148434228E+04  0.14148434228E+04  0.50400001928E-02 0. -1.
       -1   -1    0    0    0  501  0.00000000000E+00  0.00000000000E+00 -0.22946375145E+04  0.22946375145E+04  0.50400001928E-02 0.  1.
    10030    2    1    2    0    0  0.00000000000E+00  0.00000000000E+00 -0.87979409174E+03  0.37094809373E+04  0.36036386029E+04 0.  0.
        1    1    3    3  502    0 -0.82748709897E+03  0.22542969962E+03  0.11912578837E+04  0.14678721995E+04  0.50400001928E-02 0. -1.
       -1    1    3    3    0  502  0.82748709897E+03 -0.22542969962E+03 -0.20710519755E+04  0.22416087378E+04  0.50400001928E-02 0.  1.
</event>
<event>
 5   0  0.3279988E-08  0.3599965E+04  0.7818609E-02  0.8090500E-01
        1   -1    0    0  501    0  0.00000000000E+00  0.00000000000E+00  0.21368701201E+04  0.21368701201E+04  0.50400001928E-02 0.  1.
       -1   -1    0    0    0  501  0.00000000000E+00  0.00000000000E+00 -0.15162066283E+04  0.15162066283E+04  0.50400001928E-02 0. -1.
    10030    2    1    2    0    0  0.00000000000E+00  0.00000000000E+00  0.62066349177E+03  0.36530767484E+04  0.35999647998E+04 0.  0.
        5    1    3    3  502    0  0.10011770752E+04  0.14932961888E+04  0.22171926615E+03  0.18114829744E+04  0.46999998093E+01 0. -1.
       -5    1    3    3    0  502 -0.10011770752E+04 -0.14932961888E+04  0.39894422563E+03  0.18415937740E+04  0.46999998093E+01 0.  1.
</event>
<event>
 5   0  0.1044678E-07  0.3598226E+04  0.7818609E-02  0.8090898E-01
       -2   -1    0    0    0  501  0.00000000000E+00  0.00000000000E+00  0.16437974475E+04  0.16437974475E+04  0.25500000920E-02 0. -1.
        2   -1    0    0  501    0  0.00000000000E+00  0.00000000000E+00 -0.19691042156E+04  0.19691042156E+04  0.25500000920E-02 0.  1.
    10030    2    1    2    0    0  0.00000000000E+00  0.00000000000E+00 -0.32530676810E+03  0.36129016630E+04  0.35982264983E+04 0.  0.
        2    1    3    3  502    0 -0.35995669582E+03  0.17728741404E+02 -0.19324894988E+04  0.19658074153E+04  0.25500000920E-02 0.  1.
       -2    1    3    3    0  502  0.35995669582E+03 -0.17728741404E+02  0.16071827307E+04  0.16470942477E+04  0.25500000920E-02 0. -1.
</event>
<event>
 5   0  0.3202875E-08  0.3601149E+04  0.7818609E-02  0.8090229E-01
       -1   -1    0    0    0  501  0.00000000000E+00  0.00000000000E+00  0.22705127114E+04  0.22705127114E+04  0.50400001928E-02 0.  1.
        1   -1    0    0  501    0  0.00000000000E+00  0.00000000000E+00 -0.14279014528E+04  0.14279014528E+04  0.50400001928E-02 0. -1.
    10030    2    1    2    0    0  0.00000000000E+00  0.00000000000E+00  0.84261125861E+03  0.36984141643E+04  0.36011489274E+04 0.  0.
        1    1    3    3  502    0  0.11716828882E+04  0.11240762084E+04 -0.37796928167E+03  0.16671079421E+04  0.50400001928E-02 0.  1.
       -1    1    3    3    0  502 -0.11716828882E+04 -0.11240762084E+04  0.12205805403E+04  0.20313062222E+04  0.50400001928E-02 0. -1.
</event>
<event>
 5   0  0.3202875E-08  0.3710020E+04  0.7818609E-02  0.8065745E-01
        1   -1    0    0  501    0  0.00000000000E+00  0.00000000000E+00  0.28528089147E+04  0.28528089147E+04  0.50400001928E-02 0. -1.
       -1   -1    0    0    0  501  0.00000000000E+00  0.00000000000E+00 -0.12062013967E+04  0.12062013967E+04  0.50400001928E-02 0.  1.
    10030    2    1    2    0    0  0.00000000000E+00  0.00000000000E+00  0.16466075180E+04  0.40590103114E+04  0.37100199985E+04 0.  0.
        2    1    3    3  502    0 -0.13927928656E+04  0.49533035947E+03 -0.40275337336E+03  0.15321339403E+04  0.25500000920E-02 0. -1.
       -2    1    3    3    0  502  0.13927928656E+04 -0.49533035947E+03  0.20493608914E+04  0.25268763711E+04  0.25500000920E-02 0.  1.
</event>
<event>
 5   0  0.9905335E-08  0.3603903E+04  0.7818609E-02  0.8089598E-01
       -2   -1    0    0    0  501  0.00000000000E+00  0.00000000000E+00  0.20324440635E+04  0.20324440636E+04  0.25500000920E-02 0.  1.
        2   -1    0    0  501    0  0.00000000000E+00  0.00000000000E+00 -0.15975987419E+04  0.15975987419E+04  0.25500000920E-02 0. -1.
    10030    2    1    2    0    0  0.00000000000E+00  0.00000000000E+00  0.43484532161E+03  0.36300428055E+04  0.36039034832E+04 0.  0.
        5    1    3    3  502    0 -0.91745083052E+03 -0.14386489506E+04 -0.36607266293E+03  0.17451240970E+04  0.46999998093E+01 0. -1.
       -5    1    3    3    0  502  0.91745083052E+03  0.14386489506E+04  0.80091798454E+03  0.18849187085E+04  0.46999998093E+01 0.  1.
</event>
<event>
 5   0  0.1029908E-07  0.3597492E+04  0.7818609E-02  0.8091066E-01
       -2   -1    0    0    0  501  0.00000000000E+00  0.00000000000E+00  0.14209180259E+04  0.14209180259E+04  0.25500000920E-02 0. -1.
        2   -1    0    0  501    0  0.00000000000E+00  0.00000000000E+00 -0.22770404825E+04  0.22770404825E+04  0.25500000920E-02 0.  1.
    10030    2    1    2    0    0  0.00000000000E+00  0.00000000000E+00 -0.85612245660E+03  0.36979585083E+04  0.35974923862E+04 0.  0.
        4    1    3    3  502    0 -0.11536294283E+04 -0.44041386545E+03  0.91638714719E+03  0.15377230723E+04  0.12699999809E+01 0. -1.
       -4    1    3    3    0  502  0.11536294283E+04  0.44041386545E+03 -0.17725096038E+04  0.21602354360E+04  0.12699999809E+01 0.  1.
</event>
<event>
 5   0  0.3202875E-08  0.3601454E+04  0.7818609E-02  0.8090159E-01
        1   -1    0    0  501    0  0.00000000000E+00  0.00000000000E+00  0.17228657152E+04  0.17228657152E+04  0.50400001928E-02 0. -1.
       -1   -1    0    0    0  501  0.00000000000E+00  0.00000000000E+00 -0.18821065814E+04  0.18821065814E+04  0.50400001928E-02 0.  1.
    10030    2    1    2    0    0  0.00000000000E+00  0.00000000000E+00 -0.15924086620E+03  0.36049722965E+04  0.36014535406E+04 0.  0.
        2    1    3    3  502    0 -0.79806534247E+03  0.64824633953E+03 -0.15594035196E+04  0.18678519600E+04  0.25500000920E-02 0.  1.
       -2    1    3    3    0  502  0.79806534247E+03 -0.64824633953E+03  0.14001626534E+04  0.17371203365E+04  0.25500000920E-02 0. -1.
</event>
<event>
 5   0  0.3212523E-08  0.3610551E+04  0.7818609E-02  0.8088079E-01
       -1   -1    0    0    0  501  0.00000000000E+00  0.00000000000E+00  0.19102997930E+04  0.19102997930E+04  0.50400001928E-02 0.  1.
        1   -1    0    0  501    0  0.00000000000E+00  0.00000000000E+00 -0.17060253968E+04  0.17060253968E+04  0.50400001928E-02 0. -1.
    10030    2    1    2    0    0  0.00000000000E+00  0.00000000000E+00  0.20427439621E+03  0.36163251897E+04  0.36105511835E+04 0.  0.
        3    1    3    3  502    0  0.17542684918E+04  0.21322790253E+03  0.47163890374E+03  0.18290345391E+04  0.10100000352E+00 0.  1.
       -3    1    3    3    0  502 -0.17542684918E+04 -0.21322790253E+03 -0.26736450754E+03  0.17872906506E+04  0.10100000352E+00 0. -1.
</event>
<event>
 5   0  0.3202875E-08  0.3603979E+04  0.7818609E-02  0.8089581E-01
        1   -1    0    0  501    0  0.00000000000E+00  0.00000000000E+00  0.20133700325E+04  0.20133700325E+04  0.50400001928E-02 0. -1.
       -1   -1    0    0    0  501  0.00000000000E+00  0.00000000000E+00 -0.16128015577E+04  0.16128015577E+04  0.50400001928E-02 0.  1.
    10030    2    1    2    0    0  0.00000000000E+00  0.00000000000E+00  0.40056847480E+03  0.36261715903E+04  0.36039790925E+04 0.  0.
        2    1    3    3  502    0  0.12294733976E+04  0.60738569372E+03 -0.97594996845E+03  0.16831519710E+04  0.25500000920E-02 0.  1.
       -2    1    3    3    0  502 -0.12294733976E+04 -0.60738569372E+03  0.13765184432E+04  0.19430196193E+04  0.25500000920E-02 0. -1.
</event>
<event>
 5   0  0.1021087E-07  0.3594414E+04  0.7818609E-02  0.8091773E-01
       -2   -1    0    0    0  501  0.00000000000E+00  0.00000000000E+00  0.90553752720E+03  0.90553752720E+03  0.25500000920E-02 0.  1.
        2   -1    0    0  501    0  0.00000000000E+00  0.00000000000E+00 -0.35668893006E+04  0.35668893006E+04  0.25500000920E-02 0. -1.
    10030    2    1    2    0    0  0.00000000000E+00  0.00000000000E+00 -0.26613517734E+04  0.44724268278E+04  0.35944135082E+04 0.  0.
        3    1    3    3  502    0  0.11927698526E+04 -0.62388762158E+03  0.15100894965E+03  0.13545255253E+04  0.10100000352E+00 0.  1.
       -3    1    3    3    0  502 -0.11927698526E+04  0.62388762158E+03 -0.28123607230E+04  0.31179013025E+04  0.10100000352E+00 0. -1.
</event>
<event>
 5   0  0.3202875E-08  0.3585248E+04  0.7818609E-02  0.8093879E-01
       -3   -1    0    0    0  501  0.00000000000E+00  0.00000000000E+00  0.10728261937E+04  0.10728261985E+04  0.10100000352E+00 0. -1.
        3   -1    0    0  501    0  0.00000000000E+00  0.00000000000E+00 -0.29953597143E+04  0.29953597160E+04  0.10100000352E+00 0.  1.
    10030    2    1    2    0    0  0.00000000000E+00  0.00000000000E+00 -0.19225335206E+04  0.40681859145E+04  0.35852477595E+04 0.  0.
        5    1    3    3  502    0  0.88846465115E+02 -0.78977184043E+03  0.86198526326E+03  0.11724648986E+04  0.46999998093E+01 0. -1.
       -5    1    3    3    0  502 -0.88846465115E+02  0.78977184043E+03 -0.27845187839E+04  0.28957210159E+04  0.46999998093E+01 0.  1.
</event>
<event>
 5   0  0.3215494E-08  0.3613147E+04  0.7818609E-02  0.8087487E-01
        1   -1    0    0  501    0  0.00000000000E+00  0.00000000000E+00  0.17692469477E+04  0.17692469477E+04  0.50400001928E-02 0.  1.
       -1   -1    0    0    0  501  0.00000000000E+00  0.00000000000E+00 -0.18446876584E+04  0.18446876584E+04  0.50400001928E-02 0. -1.
    10030    2    1    2    0    0  0.00000000000E+00  0.00000000000E+00 -0.75440710690E+02  0.36139346060E+04  0.36131471096E+04 0.  0.
        4    1    3    3  502    0  0.10424905620E+04  0.10839154401E+04 -0.10389615796E+04  0.18278681653E+04  0.12699999809E+01 0. -1.
       -4    1    3    3    0  502 -0.10424905620E+04 -0.10839154401E+04  0.96352086887E+03  0.17860664407E+04  0.12699999809E+01 0.  1.
</event>
<event>
 5   0  0.3212523E-08  0.3600907E+04  0.7818609E-02  0.8090284E-01
        1   -1    0    0  501    0  0.00000000000E+00  0.00000000000E+00  0.18162716637E+04  0.18162716637E+04  0.50400001928E-02 0. -1.
       -1   -1    0    0    0  501  0.00000000000E+00  0.00000000000E+00 -0.17847734409E+04  0.17847734409E+04  0.50400001928E-02 0.  1.
    10030    2    1    2    0    0  0.00000000000E+00  0.00000000000E+00  0.31498222842E+02  0.36010451046E+04  0.36009073450E+04 0.  0.
        3    1    3    3  502    0 -0.58420474186E+03 -0.37225597348E+03 -0.16461699731E+04  0.17859858008E+04  0.10100000352E+00 0.  1.
       -3    1    3    3    0  502  0.58420474186E+03  0.37225597348E+03  0.16776681960E+04  0.18150593037E+04  0.10100000352E+00 0. -1.
</event>
<event>
 5   0  0.1017794E-07  0.3564530E+04  0.7818609E-02  0.8098665E-01
       -2   -1    0    0    0  501  0.00000000000E+00  0.00000000000E+00  0.10626596607E+04  0.10626596607E+04  0.25500000920E-02 0.  1.
        2   -1    0    0  501    0  0.00000000000E+00  0.00000000000E+00 -0.29891680738E+04  0.29891680738E+04  0.25500000920E-02 0. -1.
    10030    2    1    2    0    0  0.00000000000E+00  0.00000000000E+00 -0.19265084131E+04  0.40518277345E+04  0.35645298882E+04 0.  0.
        1    1    3    3  502    0  0.13583377439E+04 -0.80945959641E+03 -0.28550180149E+02  0.15814934011E+04  0.50400001928E-02 0.  1.
       -1    1    3    3    0  502 -0.13583377439E+04  0.80945959641E+03 -0.18979582330E+04  0.24703343334E+04  0.50400001928E-02 0. -1.
</event>
<event>
 5   0  0.3202875E-08  0.3625483E+04  0.7818609E-02  0.8084679E-01
       -1   -1    0    0    0  501  0.00000000000E+00  0.00000000000E+00  0.12966189360E+04  0.12966189360E+04  0.50400001928E-02 0.  1.
        1   -1    0    0  501    0  0.00000000000E+00  0.00000000000E+00 -0.25343077498E+04  0.25343077498E+04  0.50400001928E-02 0. -1.
    10030    2    1    2    0    0  0.00000000000E+00  0.00000000000E+00 -0.12376888138E+04  0.38309266859E+04  0.36254828193E+04 0.  0.
        1    1    3    3  502    0 -0.13258205519E+04  0.78336192582E+03  0.39168217333E+03  0.15889842566E+04  0.50400001928E-02 0.  1.
       -1    1    3    3    0  502  0.13258205519E+04 -0.78336192582E+03 -0.16293709871E+04  0.22419424293E+04  0.50400001928E-02 0. -1.
</event>
<event>
 5   0  0.1021087E-07  0.3600848E+04  0.7818609E-02  0.8090297E-01
       -2   -1    0    0    0  501  0.00000000000E+00  0.00000000000E+00  0.18689487654E+04  0.18689487654E+04  0.25500000920E-02 0.  1.
        2   -1    0    0  501    0  0.00000000000E+00  0.00000000000E+00 -0.17344117374E+04  0.17344117374E+04  0.25500000920E-02 0. -1.
    10030    2    1    2    0    0  0.00000000000E+00  0.00000000000E+00  0.13453702804E+03  0.36033605028E+04  0.36008480531E+04 0.  0.
        3    1    3    3  502    0  0.27189933395E+02  0.10763156912E+04  0.15113040970E+04  0.18555955495E+04  0.10100000352E+00 0.  1.
       -3    1    3    3    0  502 -0.27189933395E+02 -0.10763156912E+04 -0.13767670690E+04  0.17477649533E+04  0.10100000352E+00 0. -1.
</event>
<event>
 5   0  0.1021087E-07  0.3601774E+04  0.7818609E-02  0.8090085E-01
        2   -1    0    0  501    0  0.00000000000E+00  0.00000000000E+00  0.92252929293E+03  0.92252929293E+03  0.25500000920E-02 0. -1.
       -2   -1    0    0    0  501  0.00000000000E+00  0.00000000000E+00 -0.35155464928E+04  0.35155464928E+04  0.25500000920E-02 0.  1.
    10030    2    1    2    0    0  0.00000000000E+00  0.00000000000E+00 -0.25930171999E+04  0.44380757857E+04  0.36017743518E+04 0.  0.
        3    1    3    3  502    0  0.59372612381E+03  0.15517617486E+04 -0.21526107317E+04  0.27192293406E+04  0.10100000352E+00 0. -1.
       -3    1    3    3    0  502 -0.59372612381E+03 -0.15517617486E+04 -0.44040646812E+03  0.17188464451E+04  0.10100000352E+00 0.  1.
</event>
<event>
 5   0  0.1029908E-07  0.3601008E+04  0.7818609E-02  0.8090261E-01
        2   -1    0    0  501    0  0.00000000000E+00  0.00000000000E+00  0.22341929171E+04  0.22341929171E+04  0.25500000920E-02 0.  1.
       -2   -1    0    0    0  501  0.00000000000E+00  0.00000000000E+00 -0.14510003577E+04  0.14510003577E+04  0.25500000920E-02 0. -1.
    10030    2    1    2    0    0  0.00000000000E+00  0.00000000000E+00  0.78319255940E+03  0.36851932748E+04  0.36010080377E+04 0.  0.
        4    1    3    3  502    0  0.69695846850E+02  0.74935837894E+03 -0.12823132063E+04  0.14868504508E+04  0.12699999809E+01 0. -1.
       -4    1    3    3    0  502 -0.69695846850E+02 -0.74935837894E+03  0.20655057657E+04  0.21983428240E+04  0.12699999809E+01 0.  1.
</event>
<event>
 5   0  0.3279988E-08  0.3597358E+04  0.7818609E-02  0.8091097E-01
       -1   -1    0    0    0  501  0.00000000000E+00  0.00000000000E+00  0.13810665101E+04  0.13810665101E+04  0.50400001928E-02 0. -1.
        1   -1    0    0  501    0  0.00000000000E+00  0.00000000000E+00 -0.23425707009E+04  0.23425707009E+04  0.50400001928E-02 0.  1.
    10030    2    1    2    0    0  0.00000000000E+00  0.00000000000E+00 -0.96150419085E+03  0.37236372110E+04  0.35973578874E+04 0.  0.
        5    1    3    3  502    0  0.44499774999E+03 -0.11991703505E+04  0.82823066866E+03  0.15238177901E+04  0.46999998093E+01 0. -1.
       -5    1    3    3    0  502 -0.44499774999E+03  0.11991703505E+04 -0.17897348595E+04  0.21998194208E+04  0.46999998093E+01 0.  1.
</event>
<event>
 5   0  0.1029908E-07  0.3603980E+04  0.7818609E-02  0.8089581E-01
       -2   -1    0    0    0  501  0.00000000000E+00  0.00000000000E+00  0.11258994146E+04  0.11258994146E+04  0.25500000920E-02 0.  1.
        2   -1    0    0  501    0  0.00000000000E+00  0.00000000000E+00 -0.28840651466E+04  0.28840651466E+04  0.25500000920E-02 0. -1.
    10030    2    1    2    0    0  0.00000000000E+00  0.00000000000E+00 -0.17581657320E+04  0.40099645612E+04  0.36039796116E+04 0.  0.
        4    1    3    3  502    0 -0.85613615252E+03  0.15525921929E+04 -0.12373040625E+04  0.21620440757E+04  0.12699999809E+01 0.  1.
       -4    1    3    3    0  502  0.85613615252E+03 -0.15525921929E+04 -0.52086166957E+03  0.18479204856E+04  0.12699999809E+01 0. -1.
</event>
<event>
 5   0  0.3279988E-08  0.3592229E+04  0.7818609E-02  0.8092274E-01
        1   -1    0    0  501    0  0.00000000000E+00  0.00000000000E+00  0.96689852764E+03  0.96689852766E+03  0.50400001928E-02 0.  1.
       -1   -1    0    0    0  501  0.00000000000E+00  0.00000000000E+00 -0.33364699321E+04  0.33364699321E+04  0.50400001928E-02 0. -1.
    10030    2    1    2    0    0  0.00000000000E+00  0.00000000000E+00 -0.23695714044E+04  0.43033684597E+04  0.35922293161E+04 0.  0.
        5    1    3    3  502    0 -0.14663379537E+04 -0.59467457499E+03 -0.16671130741E+03  0.15911001209E+04  0.46999998093E+01 0.  1.
       -5    1    3    3    0  502  0.14663379537E+04  0.59467457499E+03 -0.22028600970E+04  0.27122683388E+04  0.46999998093E+01 0. -1.
</event>
<event>
 5   0  0.1017794E-07  0.3598155E+04  0.7818609E-02  0.8090914E-01
       -2   -1    0    0    0  501  0.00000000000E+00  0.00000000000E+00  0.14798642762E+04  0.14798642762E+04  0.25500000920E-02 0.  1.
        2   -1    0    0  501    0  0.00000000000E+00  0.00000000000E+00 -0.21871465650E+04  0.21871465650E+04  0.25500000920E-02 0. -1.
    10030    2    1    2    0    0  0.00000000000E+00  0.00000000000E+00 -0.70728228881E+03  0.36670108412E+04  0.35981551208E+04 0.  0.
        1    1    3    3  502    0  0.16768952412E+04  0.27042418836E+03  0.25064157926E+03  0.17169531423E+04  0.50400001928E-02 0.  1.
       -1    1    3    3    0  502 -0.16768952412E+04 -0.27042418836E+03 -0.95792386807E+03  0.19500576988E+04  0.50400001928E-02 0. -1.
</event>
<event>
 5   0  0.3202875E-08  0.3612172E+04  0.7818609E-02  0.8087709E-01
       -1   -1    0    0    0  501  0.00000000000E+00  0.00000000000E+00  0.12957566997E+04  0.12957566997E+04  0.50400001928E-02 0.  1.
        1   -1    0    0  501    0  0.00000000000E+00  0.00000000000E+00 -0.25174067699E+04  0.25174067699E+04  0.50400001928E-02 0. -1.
    10030    2    1    2    0    0  0.00000000000E+00  0.00000000000E+00 -0.12216500702E+04  0.38131634696E+04  0.36121720269E+04 0.  0.
        2    1    3    3  502    0 -0.48002023297E+03  0.16382281888E+04  0.11678205796E+02  0.17071459818E+04  0.25500000920E-02 0.  1.
       -2    1    3    3    0  502  0.48002023297E+03 -0.16382281888E+04 -0.12333282760E+04  0.21060174878E+04  0.25500000920E-02 0. -1.
</event>
<event>
 5   0  0.9905335E-08  0.3623962E+04  0.7818609E-02  0.8085025E-01
       -2   -1    0    0    0  501  0.00000000000E+00  0.00000000000E+00  0.16140270276E+04  0.16140270276E+04  0.25500000920E-02 0.  1.
        2   -1    0    0  501    0  0.00000000000E+00  0.00000000000E+00 -0.20342129563E+04  0.20342129563E+04  0.25500000920E-02 0. -1.
    10030    2    1    2    0    0  0.00000000000E+00  0.00000000000E+00 -0.42018592870E+03  0.36482399839E+04  0.36239617500E+04 0.  0.
        5    1    3    3  502    0 -0.14132911164E+04 -0.99937202116E+03  0.32932919390E+03  0.17619920614E+04  0.46999998093E+01 0.  1.
       -5    1    3    3    0  502  0.14132911164E+04  0.99937202116E+03 -0.74951512261E+03  0.18862479226E+04  0.46999998093E+01 0. -1.
</event>
<event>
 5   0  0.3212523E-08  0.3589977E+04  0.7818609E-02  0.8092792E-01
        1   -1    0    0  501    0  0.00000000000E+00  0.00000000000E+00  0.17874269651E+04  0.17874269651E+04  0.50400001928E-02 0. -1.
       -1   -1    0    0    0  501  0.00000000000E+00  0.00000000000E+00 -0.18025817321E+04  0.18025817321E+04  0.50400001928E-02 0.  1.
    10030    2    1    2    0    0  0.00000000000E+00  0.00000000000E+00 -0.15154766963E+02  0.35900086972E+04  0.35899767101E+04 0.  0.
        3    1    3    3  502    0  0.16280980870E+04 -0.33187753461E+03 -0.68665420058E+03  0.17978709854E+04  0.10100000352E+00 0. -1.
       -3    1    3    3    0  502 -0.16280980870E+04  0.33187753461E+03  0.67149943362E+03  0.17921377119E+04  0.10100000352E+00 0.  1.
</event>
<event>
 5   0  0.3212523E-08  0.3601652E+04  0.7818609E-02  0.8090113E-01
        1   -1    0    0  501    0  0.00000000000E+00  0.00000000000E+00  0.16621106927E+04  0.16621106927E+04  0.50400001928E-02 0.  1.
       -1   -1    0    0    0  501  0.00000000000E+00  0.00000000000E+00 -0.19511178466E+04  0.19511178466E+04  0.50400001928E-02 0. -1.
    10030    2    1    2    0    0  0.00000000000E+00  0.00000000000E+00 -0.28900715389E+03  0.36132285393E+04  0.36016517519E+04 0.  0.
        3    1    3    3  502    0 -0.16467040110E+03  0.62906502431E+03 -0.18292270947E+04  0.19413683113E+04  0.10100000352E+00 0. -1.
       -3    1    3    3    0  502  0.16467040110E+03 -0.62906502431E+03  0.15402199408E+04  0.16718602280E+04  0.10100000352E+00 0.  1.
</event>
<event>
 5   0  0.3212523E-08  0.3598049E+04  0.7818609E-02  0.8090939E-01
        1   -1    0    0  501    0  0.00000000000E+00  0.00000000000E+00  0.25211241667E+04  0.25211241667E+04  0.50400001928E-02 0. -1.
       -1   -1    0    0    0  501  0.00000000000E+00  0.00000000000E+00 -0.12837481249E+04  0.12837481249E+04  0.50400001928E-02 0.  1.
    10030    2    1    2    0    0  0.00000000000E+00  0.00000000000E+00  0.12373760418E+04  0.38048722916E+04  0.35980485942E+04 0.  0.
        3    1    3    3  502    0 -0.15902467093E+04 -0.90940864579E+02  0.15030198354E+04  0.21900281900E+04  0.10100000352E+00 0. -1.
       -3    1    3    3    0  502  0.15902467093E+04  0.90940864579E+02 -0.26564379356E+03  0.16148441016E+04  0.10100000352E+00 0.  1.
</event>
<event>
 5   0  0.3215494E-08  0.3596812E+04  0.7818609E-02  0.8091222E-01
       -1   -1    0    0    0  501  0.00000000000E+00  0.00000000000E+00  0.15038224135E+04  0.15038224135E+04  0.50400001928E-02 0. -1.
        1   -1    0    0  501    0  0.00000000000E+00  0.00000000000E+00 -0.21506950792E+04  0.21506950792E+04  0.50400001928E-02 0.  1.
    10030    2    1    2    0    0  0.00000000000E+00  0.00000000000E+00 -0.64687266568E+03  0.36545174927E+04  0.35968116240E+04 0.  0.
        4    1    3    3  502    0 -0.17365843673E+01 -0.17894846734E+04 -0.14167115713E+03  0.17950851628E+04  0.12699999809E+01 0. -1.
       -4    1    3    3    0  502  0.17365843673E+01  0.17894846734E+04 -0.50520150856E+03  0.18594323299E+04  0.12699999809E+01 0.  1.
</event>
<event>
 5   0  0.3279988E-08  0.3601507E+04  0.7818609E-02  0.8090147E-01
       -1   -1    0    0    0  501  0.00000000000E+00  0.00000000000E+00  0.27733888741E+04  0.27733888741E+04  0.50400001928E-02 0. -1.
        1   -1    0    0  501    0  0.00000000000E+00  0.00000000000E+00 -0.11692239150E+04  0.11692239150E+04  0.50400001928E-02 0.  1.
    10030    2    1    2    0    0  0.00000000000E+00  0.00000000000E+00  0.16041649591E+04  0.39426127891E+04  0.36015066832E+04 0.  0.
        5    1    3    3  502    0  0.30652899645E+03 -0.32657737426E+03 -0.11072653533E+04  0.11944335308E+04  0.46999998093E+01 0.  1.
       -5    1    3    3    0  502 -0.30652899645E+03  0.32657737426E+03  0.27114303123E+04  0.27481792583E+04  0.46999998093E+01 0. -1.
</event>
<event>
 5   0  0.9905335E-08  0.3595735E+04  0.7818609E-02  0.8091469E-01
       -2   -1    0    0    0  501  0.00000000000E+00  0.00000000000E+00  0.23024795159E+04  0.23024795159E+04  0.25500000920E-02 0.  1.
        2   -1    0    0  501    0  0.00000000000E+00  0.00000000000E+00 -0.14038467527E+04  0.14038467527E+04  0.25500000920E-02 0. -1.
    10030    2    1    2    0    0  0.00000000000E+00  0.00000000000E+00  0.89863276325E+03  0.37063262686E+04  0.35957354695E+04 0.  0.
        5    1    3    3  502    0 -0.43877181042E+03 -0.19758160559E+03  0.22348606080E+04  0.22860846921E+04  0.46999998093E+01 0.  1.
       -5    1    3    3    0  502  0.43877181042E+03  0.19758160559E+03 -0.13362278448E+04  0.14202415765E+04  0.46999998093E+01 0. -1.
</event>
<event>
 5   0  0.3202875E-08  0.3600022E+04  0.7818609E-02  0.8090487E-01
       -3   -1    0    0    0  501  0.00000000000E+00  0.00000000000E+00  0.23301600089E+04  0.23301600111E+04  0.10100000352E+00 0.  1.
        3   -1    0    0  501    0  0.00000000000E+00  0.00000000000E+00 -0.13904791282E+04  0.13904791319E+04  0.10100000352E+00 0. -1.
    10030    2    1    2    0    0  0.00000000000E+00  0.00000000000E+00  0.93968088073E+03  0.37206391430E+04  0.36000215937E+04 0.  0.
        3    1    3    3  502    0 -0.55095044090E+03 -0.15787954343E+04  0.11584194322E+04  0.20342263893E+04  0.10100000352E+00 0.  1.
       -3    1    3    3    0  502  0.55095044090E+03  0.15787954343E+04 -0.21873855144E+03  0.16864127537E+04  0.10100000352E+00 0. -1.
</event>
<event>
 5   0  0.1017794E-07  0.3602133E+04  0.7818609E-02  0.8090003E-01
        2   -1    0    0  501    0  0.00000000000E+00  0.00000000000E+00  0.12662343759E+04  0.12662343759E+04  0.25500000920E-02 0.  1.
       -2   -1    0    0    0  501  0.00000000000E+00  0.00000000000E+00 -0.25618016845E+04  0.25618016845E+04  0.25500000920E-02 0. -1.
    10030    2    1    2    0    0  0.00000000000E+00  0.00000000000E+00 -0.12955673086E+04  0.38280360604E+04  0.36021334551E+04 0.  0.
        1    1    3    3  502    0 -0.13145627351E+04 -0.98887795876E+03  0.13161843531E+03  0.16502358057E+04  0.50400001928E-02 0.  1.
       -1    1    3    3    0  502  0.13145627351E+04  0.98887795876E+03 -0.14271857439E+04  0.21778002547E+04  0.50400001928E-02 0. -1.
</event>
<event>
 5   0  0.3202875E-08  0.3602427E+04  0.7818609E-02  0.8089936E-01
        1   -1    0    0  501    0  0.00000000000E+00  0.00000000000E+00  0.17372559306E+04  0.17372559306E+04  0.50400001928E-02 0. -1.
       -1   -1    0    0    0  501  0.00000000000E+00  0.00000000000E+00 -0.18675256908E+04  0.18675256908E+04  0.50400001928E-02 0.  1.
    10030    2    1    2    0    0  0.00000000000E+00  0.00000000000E+00 -0.13026976021E+03  0.36047816214E+04  0.36024270052E+04 0.  0.
        1    1    3    3  502    0  0.12815243906E+04 -0.24656729246E+03 -0.13074252467E+04  0.18472847558E+04  0.50400001928E-02 0.  1.
       -1    1    3    3    0  502 -0.12815243906E+04  0.24656729246E+03  0.11771554865E+04  0.17574968656E+04  0.50400001928E-02 0. -1.
</event>
<event>
 5   0  0.1029908E-07  0.3598179E+04  0.7818609E-02  0.8090909E-01
       -2   -1    0    0    0  501  0.00000000000E+00  0.00000000000E+00  0.10900608765E+04  0.10900608765E+04  0.25500000920E-02 0.  1.
        2   -1    0    0  501    0  0.00000000000E+00  0.00000000000E+00 -0.29693047830E+04  0.29693047830E+04  0.25500000920E-02 0. -1.
    10030    2    1    2    0    0  0.00000000000E+00  0.00000000000E+00 -0.18792439065E+04  0.40593656595E+04  0.35981789696E+04 0.  0.
        4    1    3    3  502    0  0.16301622835E+04 -0.76096717965E+03 -0.92284127389E+03  0.20219143772E+04  0.12699999809E+01 0. -1.
       -4    1    3    3    0  502 -0.16301622835E+04  0.76096717965E+03 -0.95640263258E+03  0.20374512823E+04  0.12699999809E+01 0.  1.
</event>
<event>
 5   0  0.1021087E-07  0.3596819E+04  0.7818609E-02  0.8091221E-01
       -2   -1    0    0    0  501  0.00000000000E+00  0.00000000000E+00  0.14161393347E+04  0.14161393347E+04  0.25500000920E-02 0.  1.
        2   -1    0    0  501    0  0.00000000000E+00  0.00000000000E+00 -0.22838685962E+04  0.22838685962E+04  0.25500000920E-02 0. -1.
    10030    2    1    2    0    0  0.00000000000E+00  0.00000000000E+00 -0.86772926149E+03  0.37000079309E+04  0.35968186801E+04 0.  0.
        3    1    3    3  502    0  0.15871587510E+04 -0.83128005725E+03 -0.27391519607E+03  0.18124924770E+04  0.10100000352E+00 0.  1.
       -3    1    3    3    0  502 -0.15871587510E+04  0.83128005725E+03 -0.59381406541E+03  0.18875154539E+04  0.10100000352E+00 0. -1.
</event>
<event>
 5   0  0.3212523E-08  0.3594356E+04  0.7818609E-02  0.8091786E-01
       -1   -1    0    0    0  501  0.00000000000E+00  0.00000000000E+00  0.18065721291E+04  0.18065721291E+04  0.50400001928E-02 0. -1.
        1   -1    0    0  501    0  0.00000000000E+00  0.00000000000E+00 -0.17878329009E+04  0.17878329009E+04  0.50400001928E-02 0.  1.
    10030    2    1    2    0    0  0.00000000000E+00  0.00000000000E+00  0.18739228158E+02  0.35944050300E+04  0.35943561817E+04 0.  0.
        3    1    3    3  502    0 -0.70924106936E+03 -0.90635568265E+03  0.13897309257E+04  0.18043989509E+04  0.10100000352E+00 0. -1.
       -3    1    3    3    0  502  0.70924106936E+03  0.90635568265E+03 -0.13709916976E+04  0.17900060790E+04  0.10100000352E+00 0.  1.
</event>
<event>
 5   0  0.3279988E-08  0.3604072E+04  0.7818609E-02  0.8089560E-01
       -1   -1    0    0    0  501  0.00000000000E+00  0.00000000000E+00  0.21032630508E+04  0.21032630508E+04  0.50400001928E-02 0.  1.
        1   -1    0    0  501    0  0.00000000000E+00  0.00000000000E+00 -0.15439504449E+04  0.15439504449E+04  0.50400001928E-02 0. -1.
    10030    2    1    2    0    0  0.00000000000E+00  0.00000000000E+00  0.55931260584E+03  0.36472134957E+04  0.36040720986E+04 0.  0.
        5    1    3    3  502    0  0.13883408438E+04 -0.19021337975E+03 -0.86688421040E+03  0.16477808569E+04  0.46999998093E+01 0. -1.
       -5    1    3    3    0  502 -0.13883408438E+04  0.19021337975E+03  0.14261968162E+04  0.19994326388E+04  0.46999998093E+01 0.  1.
</event>
<event>
 5   0  0.3215494E-08  0.3605196E+04  0.7818609E-02  0.8089302E-01
        1   -1    0    0  501    0  0.00000000000E+00  0.00000000000E+00  0.13342460862E+04  0.13342460862E+04  0.50400001928E-02 0.  1.
       -1   -1    0    0    0  501  0.00000000000E+00  0.00000000000E+00 -0.24353529374E+04  0.24353529374E+04  0.50400001928E-02 0. -1.
    10030    2    1    2    0    0  0.00000000000E+00  0.00000000000E+00 -0.11011068511E+04  0.37695990236E+04  0.36051963194E+04 0.  0.
        4    1    3    3  502    0 -0.19146267834E+03 -0.17480110291E+04 -0.96506291766E+03  0.20058785016E+04  0.12699999809E+01 0.  1.
       -4    1    3    3    0  502  0.19146267834E+03  0.17480110291E+04 -0.13604393348E+03  0.17637205221E+04  0.12699999809E+01 0. -1.
</event>
<event>
 5   0  0.9905335E-08  0.3593959E+04  0.7818609E-02  0.8091877E-01
        2   -1    0    0  501    0  0.00000000000E+00  0.00000000000E+00  0.25075503764E+04  0.25075503764E+04  0.25500000920E-02 0.  1.
       -2   -1    0    0    0  501  0.00000000000E+00  0.00000000000E+00 -0.12877645853E+04  0.12877645853E+04  0.25500000920E-02 0. -1.
    10030    2    1    2    0    0  0.00000000000E+00  0.00000000000E+00  0.12197857911E+04  0.37953149618E+04  0.35939585811E+04 0.  0.
        5    1    3    3  502    0  0.64768478454E+02 -0.17814735836E+04  0.84900626265E+03  0.19745067254E+04  0.46999998093E+01 0.  1.
       -5    1    3    3    0  502 -0.64768478454E+02  0.17814735836E+04  0.37077952846E+03  0.18208082363E+04  0.46999998093E+01 0. -1.
</event>
<event>
 5   0  0.1044678E-07  0.3590470E+04  0.7818609E-02  0.8092678E-01
       -2   -1    0    0    0  501  0.00000000000E+00  0.00000000000E+00  0.17901578046E+04  0.17901578046E+04  0.25500000920E-02 0.  1.
        2   -1    0    0  501    0  0.00000000000E+00  0.00000000000E+00 -0.18003269724E+04  0.18003269724E+04  0.25500000920E-02 0. -1.
    10030    2    1    2    0    0  0.00000000000E+00  0.00000000000E+00 -0.10169167732E+02  0.35904847770E+04  0.35904703762E+04 0.  0.
        2    1    3    3  502    0 -0.82680814338E+03 -0.16834895294E+03  0.15795088802E+04  0.17907544161E+04  0.25500000920E-02 0.  1.
       -2    1    3    3    0  502  0.82680814338E+03  0.16834895294E+03 -0.15896780480E+04  0.17997303610E+04  0.25500000920E-02 0. -1.
</event>
<event>
 5   0  0.1021087E-07  0.3605427E+04  0.7818609E-02  0.8089250E-01
       -2   -1    0    0    0  501  0.00000000000E+00  0.00000000000E+00  0.16847418103E+04  0.16847418103E+04  0.25500000920E-02 0. -1.
        2   -1    0    0  501    0  0.00000000000E+00  0.00000000000E+00 -0.19289463158E+04  0.19289463158E+04  0.25500000920E-02 0.  1.
    10030    2    1    2    0    0  0.00000000000E+00  0.00000000000E+00 -0.24420450553E+03  0.36136881260E+04  0.36054273022E+04 0.  0.
        3    1    3    3  502    0 -0.19182088877E+03  0.17063183158E+04 -0.67241311902E+03  0.18440327711E+04  0.10100000352E+00 0.  1.
       -3    1    3    3    0  502  0.19182088877E+03 -0.17063183158E+04  0.42820861349E+03  0.17696553549E+04  0.10100000352E+00 0. -1.
</event>
<event>
 5   0  0.1044678E-07  0.3596987E+04  0.7818609E-02  0.8091182E-01
        2   -1    0    0  501    0  0.00000000000E+00  0.00000000000E+00  0.19125122417E+04  0.19125122417E+04  0.25500000920E-02 0. -1.
       -2   -1    0    0    0  501  0.00000000000E+00  0.00000000000E+00 -0.16912718970E+04  0.16912718970E+04  0.25500000920E-02 0.  1.
    10030    2    1    2    0    0  0.00000000000E+00  0.00000000000E+00  0.22124034467E+03  0.36037841388E+04  0.35969866317E+04 0.  0.
        2    1    3    3  502    0 -0.51328285996E+03  0.13442592190E+04  0.11915873093E+04  0.18682538526E+04  0.25500000920E-02 0. -1.
       -2    1    3    3    0  502  0.51328285996E+03 -0.13442592190E+04 -0.97034696468E+03  0.17355302861E+04  0.25500000920E-02 0.  1.
</event>
<event>
 5   0  0.1021087E-07  0.3598758E+04  0.7818609E-02  0.8090776E-01
        2   -1    0    0  501    0  0.00000000000E+00  0.00000000000E+00  0.18059527472E+04  0.18059527472E+04  0.25500000920E-02 0.  1.
       -2   -1    0    0    0  501  0.00000000000E+00  0.00000000000E+00 -0.17928291071E+04  0.17928291071E+04  0.25500000920E-02 0. -1.
    10030    2    1    2    0    0  0.00000000000E+00  0.00000000000E+00  0.13123640072E+02  0.35987818543E+04  0.35987579253E+04 0.  0.
        3    1    3    3  502    0 -0.54353929924E+03  0.82547904486E+03 -0.14970817829E+04  0.17939076058E+04  0.10100000352E+00 0. -1.
       -3    1    3    3    0  502  0.54353929924E+03 -0.82547904486E+03  0.15102054229E+04  0.18048742485E+04  0.10100000352E+00 0.  1.
</event>
<event>
 5   0  0.9905335E-08  0.3612318E+04  0.7818609E-02  0.8087676E-01
       -2   -1    0    0    0  501  0.00000000000E+00  0.00000000000E+00  0.13545113295E+04  0.13545113295E+04  0.25500000920E-02 0. -1.
        2   -1    0    0  501    0  0.00000000000E+00  0.00000000000E+00 -0.24084041179E+04  0.24084041179E+04  0.25500000920E-02 0.  1.
    10030    2    1    2    0    0  0.00000000000E+00  0.00000000000E+00 -0.10538927884E+04  0.37629154474E+04  0.36123181830E+04 0.  0.
        5    1    3    3  502    0  0.93924183298E+03  0.65726371619E+03  0.92695488517E+03  0.14742585467E+04  0.46999998093E+01 0. -1.
       -5    1    3    3    0  502 -0.93924183298E+03 -0.65726371619E+03 -0.19808476735E+04  0.22886569007E+04  0.46999998093E+01 0.  1.
</event>
<event>
 5   0  0.1029908E-07  0.3627590E+04  0.7818609E-02  0.8084201E-01
        2   -1    0    0  501    0  0.00000000000E+00  0.00000000000E+00  0.18257599656E+04  0.18257599656E+04  0.25500000920E-02 0. -1.
       -2   -1    0    0    0  501  0.00000000000E+00  0.00000000000E+00 -0.18019081259E+04  0.18019081259E+04  0.25500000920E-02 0.  1.
    10030    2    1    2    0    0  0.00000000000E+00  0.00000000000E+00  0.23851839644E+02  0.36276680915E+04  0.36275896780E+04 0.  0.
        4    1    3    3  502    0 -0.82949178307E+03 -0.23267713634E+03 -0.15842460565E+04  0.18033392494E+04  0.12699999809E+01 0.  1.
       -4    1    3    3    0  502  0.82949178307E+03  0.23267713634E+03  0.16080978961E+04  0.18243288422E+04  0.12699999809E+01 0. -1.
</event>
<event>
 5   0  0.1029908E-07  0.3602925E+04  0.7818609E-02  0.8089822E-01
        2   -1    0    0  501    0  0.00000000000E+00  0.00000000000E+00  0.17767481054E+04  0.17767481054E+04  0.25500000920E-02 0.  1.
       -2   -1    0    0    0  501  0.00000000000E+00  0.00000000000E+00 -0.18265207280E+04  0.18265207280E+04  0.25500000920E-02 0. -1.
    10030    2    1    2    0    0  0.00000000000E+00  0.00000000000E+00 -0.49772622628E+02  0.36032688334E+04  0.36029250578E+04 0.  0.
        4    1    3    3  502    0 -0.29168563204E+03 -0.16163305386E+04 -0.76499794349E+03  0.18118577163E+04  0.12699999809E+01 0. -1.
       -4    1    3    3    0  502  0.29168563204E+03  0.16163305386E+04  0.71522532086E+03  0.17914111171E+04  0.12699999809E+01 0.  1.
</event>
<event>
 5   0  0.3202875E-08  0.3609509E+04  0.7818609E-02  0.8088317E-01
       -1   -1    0    0    0  501  0.00000000000E+00  0.00000000000E+00  0.15935116613E+04  0.15935116613E+04  0.50400001928E-02 0.  1.
        1   -1    0    0  501    0  0.00000000000E+00  0.00000000000E+00 -0.20440009454E+04  0.20440009454E+04  0.50400001928E-02 0. -1.
    10030    2    1    2    0    0  0.00000000000E+00  0.00000000000E+00 -0.45048928412E+03  0.36375126067E+04  0.36095092975E+04 0.  0.
        1    1    3    3  502    0 -0.79448688176E+03 -0.15220558056E+04  0.33519583667E+03  0.17493483157E+04  0.50400001928E-02 0.  1.
       -1    1    3    3    0  502  0.79448688176E+03  0.15220558056E+04 -0.78568512078E+03  0.18881642910E+04  0.50400001928E-02 0. -1.
</event>
<event>
 5   0  0.1044678E-07  0.3605984E+04  0.7818609E-02  0.8089122E-01
       -2   -1    0    0    0  501  0.00000000000E+00  0.00000000000E+00  0.10588328979E+04  0.10588328979E+04  0.25500000920E-02 0.  1.
        2   -1    0    0  501    0  0.00000000000E+00  0.00000000000E+00 -0.30701538577E+04  0.30701538577E+04  0.25500000920E-02 0. -1.
    10030    2    1    2    0    0  0.00000000000E+00  0.00000000000E+00 -0.20113209598E+04  0.41289867556E+04  0.36059838636E+04 0.  0.
        2    1    3    3  502    0  0.24298657781E+03  0.17848971168E+04 -0.10934611266E+04  0.21072630187E+04  0.25500000920E-02 0.  1.
       -2    1    3    3    0  502 -0.24298657781E+03 -0.17848971168E+04 -0.91785983318E+03  0.20217237368E+04  0.25500000920E-02 0. -1.
</event>
<event>
 5   0  0.3279988E-08  0.3605562E+04  0.7818609E-02  0.8089219E-01
        1   -1    0    0  501    0  0.00000000000E+00  0.00000000000E+00  0.20668602888E+04  0.20668602888E+04  0.50400001928E-02 0. -1.
       -1   -1    0    0    0  501  0.00000000000E+00  0.00000000000E+00 -0.15724430916E+04  0.15724430916E+04  0.50400001928E-02 0.  1.
    10030    2    1    2    0    0  0.00000000000E+00  0.00000000000E+00  0.49441719719E+03  0.36393033804E+04  0.36055624706E+04 0.  0.
        5    1    3    3  502    0 -0.12496339992E+03  0.11881118988E+04 -0.11155265356E+04  0.16345174447E+04  0.46999998093E+01 0.  1.
       -5    1    3    3    0  502  0.12496339992E+03 -0.11881118988E+04  0.16099437327E+04  0.20047859357E+04  0.46999998093E+01 0. -1.
</event>
<event>
 5   0  0.3202875E-08  0.3599806E+04  0.7818609E-02  0.8090536E-01
       -1   -1    0    0    0  501  0.00000000000E+00  0.00000000000E+00  0.15120447150E+04  0.15120447150E+04  0.50400001928E-02 0.  1.
        1   -1    0    0  501    0  0.00000000000E+00  0.00000000000E+00 -0.21425629703E+04  0.21425629703E+04  0.50400001928E-02 0. -1.
    10030    2    1    2    0    0  0.00000000000E+00  0.00000000000E+00 -0.63051825528E+03  0.36546076852E+04  0.35998061146E+04 0.  0.
        1    1    3    3  502    0 -0.51744318596E+03  0.56226808400E+03  0.13391995162E+04  0.15418651670E+04  0.50400001928E-02 0.  1.
       -1    1    3    3    0  502  0.51744318596E+03 -0.56226808400E+03 -0.19697177715E+04  0.21127425182E+04  0.50400001928E-02 0. -1.
</event>
<event>
 5   0  0.3279988E-08  0.3600342E+04  0.7818609E-02  0.8090413E-01
       -1   -1    0    0    0  501  0.00000000000E+00  0.00000000000E+00  0.15052117167E+04  0.15052117167E+04  0.50400001928E-02 0.  1.
        1   -1    0    0  501    0  0.00000000000E+00  0.00000000000E+00 -0.21529305556E+04  0.21529305556E+04  0.50400001928E-02 0. -1.
    10030    2    1    2    0    0  0.00000000000E+00  0.00000000000E+00 -0.64771883890E+03  0.36581422723E+04  0.36003423712E+04 0.  0.
        5    1    3    3  502    0 -0.14088424064E+04 -0.98763655810E+03  0.21410381263E+03  0.17338181651E+04  0.46999998093E+01 0.  1.
       -5    1    3    3    0  502  0.14088424064E+04  0.98763655810E+03 -0.86182265152E+03  0.19243241072E+04  0.46999998093E+01 0. -1.
</event>
<event>
 5   0  0.1017794E-07  0.3604257E+04  0.7818609E-02  0.8089517E-01
        2   -1    0    0  501    0  0.00000000000E+00  0.00000000000E+00  0.26539537631E+04  0.26539537631E+04  0.25500000920E-02 0.  1.
       -2   -1    0    0    0  501  0.00000000000E+00  0.00000000000E+00 -0.12237088310E+04  0.12237088310E+04  0.25500000920E-02 0. -1.
    10030    2    1    2    0    0  0.00000000000E+00  0.00000000000E+00  0.14302449320E+04  0.38776625941E+04  0.36042567373E+04 0.  0.
        1    1    3    3  502    0  0.15708914118E+04  0.79931003735E+03  0.31103806687E+03  0.17897879881E+04  0.50400001928E-02 0.  1.
       -1    1    3    3    0  502 -0.15708914118E+04 -0.79931003735E+03  0.11192068652E+04  0.20878746060E+04  0.50400001928E-02 0. -1.
</event>
<event>
 5   0  0.1021087E-07  0.3602142E+04  0.7818609E-02  0.8090001E-01
        2   -1    0    0  501    0  0.00000000000E+00  0.00000000000E+00  0.27219684404E+04  0.27219684404E+04  0.25500000920E-02 0. -1.
       -2   -1    0    0    0  501  0.00000000000E+00  0.00000000000E+00 -0.11917319603E+04  0.11917319603E+04  0.25500000920E-02 0.  1.
    10030    2    1    2    0    0  0.00000000000E+00  0.00000000000E+00  0.15302364801E+04  0.39137004007E+04  0.36021420213E+04 0.  0.
        3    1    3    3  502    0 -0.44870201211E+03  0.12762986954E+04 -0.52665920324E+03  0.14517719457E+04  0.10100000352E+00 0.  1.
       -3    1    3    3    0  502  0.44870201211E+03 -0.12762986954E+04  0.20568956833E+04  0.24619284551E+04  0.10100000352E+00 0. -1.
</event>
<event>
 5   0  0.9905335E-08  0.3595942E+04  0.7818609E-02  0.8091422E-01
       -2   -1    0    0    0  501  0.00000000000E+00  0.00000000000E+00  0.15474908686E+04  0.15474908687E+04  0.25500000920E-02 0. -1.
        2   -1    0    0  501    0  0.00000000000E+00  0.00000000000E+00 -0.20889946873E+04  0.20889946873E+04  0.25500000920E-02 0.  1.
    10030    2    1    2    0    0  0.00000000000E+00  0.00000000000E+00 -0.54150381866E+03  0.36364855560E+04  0.35959422705E+04 0.  0.
        5    1    3    3  502    0 -0.59295013571E+03  0.60021299064E+03  0.13348621437E+04  0.15791531054E+04  0.46999998093E+01 0. -1.
       -5    1    3    3    0  502  0.59295013571E+03 -0.60021299064E+03 -0.18763659623E+04  0.20573324506E+04  0.46999998093E+01 0.  1.
</event>
<event>
 5   0  0.3279988E-08  0.3597256E+04  0.7818609E-02  0.8091120E-01
       -1   -1    0    0    0  501  0.00000000000E+00  0.00000000000E+00  0.14265984287E+04  0.14265984287E+04  0.50400001928E-02 0. -1.
        1   -1    0    0  501    0  0.00000000000E+00  0.00000000000E+00 -0.22676760311E+04  0.22676760311E+04  0.50400001928E-02 0.  1.
    10030    2    1    2    0    0  0.00000000000E+00  0.00000000000E+00 -0.84107760245E+03  0.36942744598E+04  0.35972562115E+04 0.  0.
        5    1    3    3  502    0  0.66684917669E+02  0.57287508772E+03  0.13290542075E+04  0.14488063779E+04  0.46999998093E+01 0. -1.
       -5    1    3    3    0  502 -0.66684917669E+02 -0.57287508772E+03 -0.21701318099E+04  0.22454680819E+04  0.46999998093E+01 0.  1.
</event>
<event>
 5   0  0.1021087E-07  0.3597653E+04  0.7818609E-02  0.8091030E-01
       -2   -1    0    0    0  501  0.00000000000E+00  0.00000000000E+00  0.23847782862E+04  0.23847782862E+04  0.25500000920E-02 0.  1.
        2   -1    0    0  501    0  0.00000000000E+00  0.00000000000E+00 -0.13568457106E+04  0.13568457106E+04  0.25500000920E-02 0. -1.
    10030    2    1    2    0    0  0.00000000000E+00  0.00000000000E+00  0.10279325756E+04  0.37416239968E+04  0.35976526727E+04 0.  0.
        3    1    3    3  502    0  0.11633609271E+04  0.51828094955E+03  0.18351382795E+04  0.22337762432E+04  0.10100000352E+00 0.  1.
       -3    1    3    3    0  502 -0.11633609271E+04 -0.51828094955E+03 -0.80720570390E+03  0.15078477536E+04  0.10100000352E+00 0. -1.
</event>
<event>
 5   0  0.1029908E-07  0.3587546E+04  0.7818609E-02  0.8093350E-01
        2   -1    0    0  501    0  0.00000000000E+00  0.00000000000E+00  0.18525251461E+04  0.18525251461E+04  0.25500000920E-02 0.  1.
       -2   -1    0    0    0  501  0.00000000000E+00  0.00000000000E+00 -0.17368845815E+04  0.17368845815E+04  0.25500000920E-02 0. -1.
    10030    2    1    2    0    0  0.00000000000E+00  0.00000000000E+00  0.11564056456E+03  0.35894097276E+04  0.35875464391E+04 0.  0.
        4    1    3    3  502    0 -0.33169432222E+02 -0.11135642827E+03  0.18487556359E+04  0.18524037032E+04  0.12699999809E+01 0.  1.
       -4    1    3    3    0  502  0.33169432222E+02  0.11135642827E+03 -0.17331150714E+04  0.17370060244E+04  0.12699999809E+01 0. -1.
</event>
<event>
 5   0  0.9905335E-08  0.3598312E+04  0.7818609E-02  0.8090878E-01
       -2   -1    0    0    0  501  0.00000000000E+00  0.00000000000E+00  0.13966230806E+04  0.13966230806E+04  0.25500000920E-02 0.  1.
        2   -1    0    0  501    0  0.00000000000E+00  0.00000000000E+00 -0.23177070667E+04  0.23177070667E+04  0.25500000920E-02 0. -1.
    10030    2    1    2    0    0  0.00000000000E+00  0.00000000000E+00 -0.92108398612E+03  0.37143301474E+04  0.35983124842E+04 0.  0.
        5    1    3    3  502    0 -0.10710606013E+04  0.13544188580E+04 -0.98212557044E+03  0.19865079865E+04  0.46999998093E+01 0. -1.
       -5    1    3    3    0  502  0.10710606013E+04 -0.13544188580E+04  0.61041584324E+02  0.17278221608E+04  0.46999998093E+01 0.  1.
</event>
<event>
 5   0  0.3279988E-08  0.3597185E+04  0.7818609E-02  0.8091137E-01
       -1   -1    0    0    0  501  0.00000000000E+00  0.00000000000E+00  0.12243602413E+04  0.12243602413E+04  0.50400001928E-02 0. -1.
        1   -1    0    0  501    0  0.00000000000E+00  0.00000000000E+00 -0.26421427646E+04  0.26421427646E+04  0.50400001928E-02 0.  1.
    10030    2    1    2    0    0  0.00000000000E+00  0.00000000000E+00 -0.14177825233E+04  0.38665030058E+04  0.35971847619E+04 0.  0.
        5    1    3    3  502    0 -0.16944764972E+04 -0.17159742988E+03 -0.13302885388E+04  0.21611075781E+04  0.46999998093E+01 0. -1.
       -5    1    3    3    0  502  0.16944764972E+04  0.17159742988E+03 -0.87493984462E+02  0.17053954277E+04  0.46999998093E+01 0.  1.
</event>
<event>
 5   0  0.1021087E-07  0.3614470E+04  0.7818609E-02  0.8087185E-01
        2   -1    0    0  501    0  0.00000000000E+00  0.00000000000E+00  0.27060962254E+04  0.27060962254E+04  0.25500000920E-02 0. -1.
       -2   -1    0    0    0  501  0.00000000000E+00  0.00000000000E+00 -0.12069408914E+04  0.12069408914E+04  0.25500000920E-02 0.  1.
    10030    2    1    2    0    0  0.00000000000E+00  0.00000000000E+00  0.14991553340E+04  0.39130371168E+04  0.36144699144E+04 0.  0.
        3    1    3    3  502    0 -0.16809533512E+04  0.71961861152E+02  0.14638624855E+04  0.22301739988E+04  0.10100000352E+00 0. -1.
       -3    1    3    3    0  502  0.16809533512E+04 -0.71961861152E+02  0.35292848437E+02  0.16828631179E+04  0.10100000352E+00 0.  1.
</event>
<event>
 5   0  0.1017794E-07  0.3581039E+04  0.7818609E-02  0.8094849E-01
       -2   -1    0    0    0  501  0.00000000000E+00  0.00000000000E+00  0.27424086785E+04  0.27424086785E+04  0.25500000920E-02 0. -1.
        2   -1    0    0  501    0  0.00000000000E+00  0.00000000000E+00 -0.11690307837E+04  0.11690307837E+04  0.25500000920E-02 0.  1.
    10030    2    1    2    0    0  0.00000000000E+00  0.00000000000E+00  0.15733778948E+04  0.39114394622E+04  0.35810390485E+04 0.  0.
        1    1    3    3  502    0 -0.54854620479E+03  0.40619491797E+03 -0.10213501764E+04  0.12284353597E+04  0.50400001928E-02 0.  1.
       -1    1    3    3    0  502  0.54854620479E+03 -0.40619491797E+03  0.25947280713E+04  0.26830041025E+04  0.50400001928E-02 0. -1.
</event>
<event>
 5   0  0.1029908E-07  0.3600094E+04  0.7818609E-02  0.8090470E-01
       -2   -1    0    0    0  501  0.00000000000E+00  0.00000000000E+00  0.12850952900E+04  0.12850952900E+04  0.25500000920E-02 0.  1.
        2   -1    0    0  501    0  0.00000000000E+00  0.00000000000E+00 -0.25213454773E+04  0.25213454773E+04  0.25500000920E-02 0. -1.
    10030    2    1    2    0    0  0.00000000000E+00  0.00000000000E+00 -0.12362501874E+04  0.38064407673E+04  0.36000939973E+04 0.  0.
        4    1    3    3  502    0  0.14445759252E+04 -0.76587383431E+03 -0.14141417737E+04  0.21617495005E+04  0.12699999809E+01 0. -1.
       -4    1    3    3    0  502 -0.14445759252E+04  0.76587383431E+03  0.17789158634E+03  0.16446912668E+04  0.12699999809E+01 0.  1.
</event>
<event>
 5   0  0.1017794E-07  0.3600933E+04  0.7818609E-02  0.8090278E-01
        2   -1    0    0  501    0  0.00000000000E+00  0.00000000000E+00  0.17503821292E+04  0.17503821292E+04  0.25500000920E-02 0. -1.
       -2   -1    0    0    0  501  0.00000000000E+00  0.00000000000E+00 -0.18519840103E+04  0.18519840103E+04  0.25500000920E-02 0.  1.
    10030    2    1    2    0    0  0.00000000000E+00  0.00000000000E+00 -0.10160188119E+03  0.36023661395E+04  0.36009330542E+04 0.  0.
        1    1    3    3  502    0  0.33557520362E+03 -0.64029367675E+03 -0.17004244443E+04  0.18477093929E+04  0.50400001928E-02 0.  1.
       -1    1    3    3    0  502 -0.33557520362E+03  0.64029367675E+03  0.15988225632E+04  0.17546567466E+04  0.50400001928E-02 0. -1.
</event>
<event>
 5   0  0.1021087E-07  0.3607586E+04  0.7818609E-02  0.8088756E-01
       -2   -1    0    0    0  501  0.00000000000E+00  0.00000000000E+00  0.21810175126E+04  0.21810175126E+04  0.25500000920E-02 0. -1.
        2   -1    0    0  501    0  0.00000000000E+00  0.00000000000E+00 -0.14918124859E+04  0.14918124859E+04  0.25500000920E-02 0.  1.
    10030    2    1    2    0    0  0.00000000000E+00  0.00000000000E+00  0.68920502667E+03  0.36728299985E+04  0.36075859836E+04 0.  0.
        3    1    3    3  502    0 -0.17260814215E+04 -0.47693854552E+03  0.12425890958E+03  0.17950676134E+04  0.10100000352E+00 0. -1.
       -3    1    3    3    0  502  0.17260814215E+04  0.47693854552E+03  0.56494611709E+03  0.18777623852E+04  0.10100000352E+00 0.  1.
</event>
<event>
 5   0  0.1044678E-07  0.3599494E+04  0.7818609E-02  0.8090608E-01
       -2   -1    0    0    0  501  0.00000000000E+00  0.00000000000E+00  0.17147109601E+04  0.17147109601E+04  0.25500000920E-02 0. -1.
        2   -1    0    0  501    0  0.00000000000E+00  0.00000000000E+00 -0.18890002892E+04  0.18890002892E+04  0.25500000920E-02 0.  1.
    10030    2    1    2    0    0  0.00000000000E+00  0.00000000000E+00 -0.17428932908E+03  0.36037112492E+04  0.35994941308E+04 0.  0.
        2    1    3    3  502    0  0.12157674434E+04 -0.95130528480E+03  0.83915131917E+03  0.17570563901E+04  0.25500000920E-02 0. -1.
       -2    1    3    3    0  502 -0.12157674434E+04  0.95130528480E+03 -0.10134406483E+04  0.18466548592E+04  0.25500000920E-02 0.  1.
</event>
<event>
 5   0  0.1017794E-07  0.3578309E+04  0.7818609E-02  0.8095478E-01
       -2   -1    0    0    0  501  0.00000000000E+00  0.00000000000E+00  0.31717358806E+04  0.31717358806E+04  0.25500000920E-02 0. -1.
        2   -1    0    0  501    0  0.00000000000E+00  0.00000000000E+00 -0.10092496093E+04  0.10092496093E+04  0.25500000920E-02 0.  1.
    10030    2    1    2    0    0  0.00000000000E+00  0.00000000000E+00  0.21624862713E+04  0.41809854899E+04  0.35783086498E+04 0.  0.
        1    1    3    3  502    0  0.60407394288E+03  0.13210110263E+04  0.23017288203E+04  0.27217514622E+04  0.50400001928E-02 0. -1.
       -1    1    3    3    0  502 -0.60407394288E+03 -0.13210110263E+04 -0.13924254900E+03  0.14592340277E+04  0.50400001928E-02 0.  1.
</event>
<event>
 5   0  0.1044678E-07  0.3598007E+04  0.7818609E-02  0.8090948E-01
       -2   -1    0    0    0  501  0.00000000000E+00  0.00000000000E+00  0.17304279842E+04  0.17304279842E+04  0.25500000920E-02 0.  1.
        2   -1    0    0  501    0  0.00000000000E+00  0.00000000000E+00 -0.18702962190E+04  0.18702962190E+04  0.25500000920E-02 0. -1.
    10030    2    1    2    0    0  0.00000000000E+00  0.00000000000E+00 -0.13986823475E+03  0.36007242032E+04  0.35980066237E+04 0.  0.
        2    1    3    3  502    0  0.66250175436E+03  0.15988445081E+04  0.42155858484E+03  0.17812703265E+04  0.25500000920E-02 0.  1.
       -2    1    3    3    0  502 -0.66250175436E+03 -0.15988445081E+04 -0.56142681959E+03  0.18194538767E+04  0.25500000920E-02 0. -1.
</event>
<event>
 5   0  0.3202875E-08  0.3659019E+04  0.7818609E-02  0.8077105E-01
        1   -1    0    0  501    0  0.00000000000E+00  0.00000000000E+00  0.25161076916E+04  0.25161076916E+04  0.50400001928E-02 0.  1.
       -1   -1    0    0    0  501  0.00000000000E+00  0.00000000000E+00 -0.13302709381E+04  0.13302709382E+04  0.50400001928E-02 0. -1.
    10030    2    1    2    0    0  0.00000000000E+00  0.00000000000E+00  0.11858367535E+04  0.38463786298E+04  0.36590189611E+04 0.  0.
        1    1    3    3  502    0  0.16629282578E+04 -0.65036625488E+03  0.10118182940E+04  0.20523359657E+04  0.50400001928E-02 0.  1.
       -1    1    3    3    0  502 -0.16629282578E+04  0.65036625488E+03  0.17401845947E+03  0.17940426640E+04  0.50400001928E-02 0. -1.
</event>
<event>
 5   0  0.3202875E-08  0.3607898E+04  0.7818609E-02  0.8088685E-01
       -1   -1    0    0    0  501  0.00000000000E+00  0.00000000000E+00  0.20939527066E+04  0.20939527066E+04  0.50400001928E-02 0.  1.
        1   -1    0    0  501    0  0.00000000000E+00  0.00000000000E+00 -0.15541092564E+04  0.15541092564E+04  0.50400001928E-02 0. -1.
    10030    2    1    2    0    0  0.00000000000E+00  0.00000000000E+00  0.53984345014E+03  0.36480619630E+04  0.36078976060E+04 0.  0.
        2    1    3    3  502    0 -0.88454100918E+03  0.14920351700E+04 -0.23122624904E+03  0.17498706591E+04  0.25500000920E-02 0.  1.
       -2    1    3    3    0  502  0.88454100918E+03 -0.14920351700E+04  0.77106969919E+03  0.18981913039E+04  0.25500000920E-02 0. -1.
</event>
<event>
 5   0  0.3215494E-08  0.3605259E+04  0.7818609E-02  0.8089288E-01
       -1   -1    0    0    0  501  0.00000000000E+00  0.00000000000E+00  0.15924928414E+04  0.15924928414E+04  0.50400001928E-02 0. -1.
        1   -1    0    0  501    0  0.00000000000E+00  0.00000000000E+00 -0.20404950606E+04  0.20404950606E+04  0.50400001928E-02 0.  1.
    10030    2    1    2    0    0  0.00000000000E+00  0.00000000000E+00 -0.44800221923E+03  0.36329879021E+04  0.36052593676E+04 0.  0.
        4    1    3    3  502    0  0.47344546270E+03 -0.13072852670E+04 -0.13801381026E+04  0.19590630849E+04  0.12699999809E+01 0.  1.
       -4    1    3    3    0  502 -0.47344546270E+03  0.13072852670E+04  0.93213588336E+03  0.16739248171E+04  0.12699999809E+01 0. -1.
</event>
<event>
 5   0  0.3202875E-08  0.3589011E+04  0.7818609E-02  0.8093014E-01
        3   -1    0    0  501    0  0.00000000000E+00  0.00000000000E+00  0.19806027569E+04  0.19806027595E+04  0.10100000352E+00 0.  1.
       -3   -1    0    0    0  501  0.00000000000E+00  0.00000000000E+00 -0.16258937313E+04  0.16258937344E+04  0.10100000352E+00 0. -1.
    10030    2    1    2    0    0  0.00000000000E+00  0.00000000000E+00  0.35470902559E+03  0.36064964939E+04  0.35890107924E+04 0.  0.
        4    1    3    3  502    0  0.73223974496E+03  0.16225311470E+04 -0.50611144185E+02  0.17808271865E+04  0.12699999809E+01 0. -1.
       -4    1    3    3    0  502 -0.73223974496E+03 -0.16225311470E+04  0.40532016978E+03  0.18256693074E+04  0.12699999809E+01 0.  1.
</event>
<event>
 5   0  0.1021087E-07  0.3597526E+04  0.7818609E-02  0.8091059E-01
       -2   -1    0    0    0  501  0.00000000000E+00  0.00000000000E+00  0.18926765015E+04  0.18926765015E+04  0.25500000920E-02 0. -1.
        2   -1    0    0  501    0  0.00000000000E+00  0.00000000000E+00 -0.17095091414E+04  0.17095091414E+04  0.25500000920E-02 0.  1.
    10030    2    1    2    0    0  0.00000000000E+00  0.00000000000E+00  0.18316736009E+03  0.36021856428E+04  0.35975256947E+04 0.  0.
        3    1    3    3  502    0 -0.16883306902E+04 -0.61877288361E+03  0.13862719084E+03  0.18034849346E+04  0.10100000352E+00 0. -1.
       -3    1    3    3    0  502  0.16883306902E+04  0.61877288361E+03  0.44540169252E+02  0.17987007083E+04  0.10100000352E+00 0.  1.
</event>
<event>
 5   0  0.1021087E-07  0.3595539E+04  0.7818609E-02  0.8091514E-01
        2   -1    0    0  501    0  0.00000000000E+00  0.00000000000E+00  0.10338479825E+04  0.10338479825E+04  0.25500000920E-02 0.  1.
       -2   -1    0    0    0  501  0.00000000000E+00  0.00000000000E+00 -0.31261613770E+04  0.31261613770E+04  0.25500000920E-02 0. -1.
    10030    2    1    2    0    0  0.00000000000E+00  0.00000000000E+00 -0.20923133945E+04  0.41600093595E+04  0.35955392544E+04 0.  0.
        3    1    3    3  502    0  0.36053621465E+03 -0.35612659058E+03  0.94949921716E+03  0.10762719378E+04  0.10100000352E+00 0.  1.
       -3    1    3    3    0  502 -0.36053621465E+03  0.35612659058E+03 -0.30418126117E+04  0.30837374216E+04  0.10100000352E+00 0. -1.
</event>
<event>
 5   0  0.3212523E-08  0.3599878E+04  0.7818609E-02  0.8090520E-01
       -1   -1    0    0    0  501  0.00000000000E+00  0.00000000000E+00  0.11646385522E+04  0.11646385523E+04  0.50400001928E-02 0.  1.
        1   -1    0    0  501    0  0.00000000000E+00  0.00000000000E+00 -0.27817909202E+04  0.27817909202E+04  0.50400001928E-02 0. -1.
    10030    2    1    2    0    0  0.00000000000E+00  0.00000000000E+00 -0.16171523679E+04  0.39464294724E+04  0.35998783035E+04 0.  0.
        3    1    3    3  502    0  0.88515446807E+02 -0.12494189906E+04 -0.22256468708E+04  0.25538963961E+04  0.10100000352E+00 0. -1.
       -3    1    3    3    0  502 -0.88515446807E+02  0.12494189906E+04  0.60849450288E+03  0.13925330763E+04  0.10100000352E+00 0.  1.
</event>
<event>
 5   0  0.3215494E-08  0.3604149E+04  0.7818609E-02  0.8089542E-01
       -1   -1    0    0    0  501  0.00000000000E+00  0.00000000000E+00  0.16262915837E+04  0.16262915837E+04  0.50400001928E-02 0.  1.
        1   -1    0    0  501    0  0.00000000000E+00  0.00000000000E+00 -0.19968570695E+04  0.19968570695E+04  0.50400001928E-02 0. -1.
    10030    2    1    2    0    0  0.00000000000E+00  0.00000000000E+00 -0.37056548578E+03  0.36231486532E+04  0.36041486351E+04 0.  0.
        4    1    3    3  502    0  0.25532521453E+03  0.58541826543E+03 -0.18792669066E+04  0.19848302773E+04  0.12699999809E+01 0. -1.
       -4    1    3    3    0  502 -0.25532521453E+03 -0.58541826543E+03  0.15087014208E+04  0.16383183759E+04  0.12699999809E+01 0.  1.
</event>
<event>
 5   0  0.3202875E-08  0.3600545E+04  0.7818609E-02  0.8090367E-01
        3   -1    0    0  501    0  0.00000000000E+00  0.00000000000E+00  0.17164877192E+04  0.17164877222E+04  0.10100000352E+00 0.  1.
       -3   -1    0    0    0  501  0.00000000000E+00  0.00000000000E+00 -0.18881465251E+04  0.18881465278E+04  0.10100000352E+00 0. -1.
    10030    2    1    2    0    0  0.00000000000E+00  0.00000000000E+00 -0.17165880589E+03  0.36046342500E+04  0.36005445881E+04 0.  0.
        2    1    3    3  502    0 -0.54420382117E+03 -0.64529047696E+03  0.15060781920E+04  0.17265077813E+04  0.25500000920E-02 0.  1.
       -2    1    3    3    0  502  0.54420382117E+03  0.64529047696E+03 -0.16777369978E+04  0.18781264687E+04  0.25500000920E-02 0. -1.
</event>
<event>
 5   0  0.1029908E-07  0.3604876E+04  0.7818609E-02  0.8089376E-01
        2   -1    0    0  501    0  0.00000000000E+00  0.00000000000E+00  0.29622197699E+04  0.29622197699E+04  0.25500000920E-02 0. -1.
       -2   -1    0    0    0  501  0.00000000000E+00  0.00000000000E+00 -0.10967395235E+04  0.10967395235E+04  0.25500000920E-02 0.  1.
    10030    2    1    2    0    0  0.00000000000E+00  0.00000000000E+00  0.18654802464E+04  0.40589592934E+04  0.36048764189E+04 0.  0.
        4    1    3    3  502    0 -0.30586978086E+03  0.10737813345E+04  0.25259761809E+04  0.27617240913E+04  0.12699999809E+01 0. -1.
       -4    1    3    3    0  502  0.30586978086E+03 -0.10737813345E+04 -0.66049593450E+03  0.12972352021E+04  0.12699999809E+01 0.  1.
</event>
<event>
 5   0  0.1029908E-07  0.3589676E+04  0.7818609E-02  0.8092861E-01
        2   -1    0    0  501    0  0.00000000000E+00  0.00000000000E+00  0.13560172813E+04  0.13560172813E+04  0.25500000920E-02 0.  1.
       -2   -1    0    0    0  501  0.00000000000E+00  0.00000000000E+00 -0.23756657866E+04  0.23756657866E+04  0.25500000920E-02 0. -1.
    10030    2    1    2    0    0  0.00000000000E+00  0.00000000000E+00 -0.10196485052E+04  0.37316830679E+04  0.35896762312E+04 0.  0.
        4    1    3    3  502    0 -0.95260979092E+03 -0.14961822095E+04 -0.79530718924E+03  0.19438471535E+04  0.12699999809E+01 0.  1.
       -4    1    3    3    0  502  0.95260979092E+03  0.14961822095E+04 -0.22434131600E+03  0.17878359144E+04  0.12699999809E+01 0. -1.
</event>
<event>
 5   0  0.1021087E-07  0.3591966E+04  0.7818609E-02  0.8092335E-01
        2   -1    0    0  501    0  0.00000000000E+00  0.00000000000E+00  0.29842532870E+04  0.29842532870E+04  0.25500000920E-02 0. -1.
       -2   -1    0    0    0  501  0.00000000000E+00  0.00000000000E+00 -0.10808580311E+04  0.10808580311E+04  0.25500000920E-02 0.  1.
    10030    2    1    2    0    0  0.00000000000E+00  0.00000000000E+00  0.19033952559E+04  0.40651113180E+04  0.35919655521E+04 0.  0.
        3    1    3    3  502    0  0.85693779247E+02  0.14519345122E+04  0.21440941999E+04  0.25908680398E+04  0.10100000352E+00 0. -1.
       -3    1    3    3    0  502 -0.85693779247E+02 -0.14519345122E+04 -0.24069894394E+03  0.14742432782E+04  0.10100000352E+00 0.  1.
</event>
<event>
 5   0  0.3202875E-08  0.3597224E+04  0.7818609E-02  0.8091128E-01
       -1   -1    0    0    0  501  0.00000000000E+00  0.00000000000E+00  0.28528467626E+04  0.28528467626E+04  0.50400001928E-02 0.  1.
        1   -1    0    0  501    0  0.00000000000E+00  0.00000000000E+00 -0.11339565918E+04  0.11339565918E+04  0.50400001928E-02 0. -1.
    10030    2    1    2    0    0  0.00000000000E+00  0.00000000000E+00  0.17188901708E+04  0.39868033543E+04  0.35972235915E+04 0.  0.
        1    1    3    3  502    0  0.71542179135E+03 -0.47526965020E+03 -0.89198291867E+03  0.12382823213E+04  0.50400001928E-02 0. -1.
       -1    1    3    3    0  502 -0.71542179135E+03  0.47526965020E+03  0.26108730895E+04  0.27485210331E+04  0.50400001928E-02 0.  1.
</event>
<event>
 5   0  0.1029908E-07  0.3605389E+04  0.7818609E-02  0.8089259E-01
       -2   -1    0    0    0  501  0.00000000000E+00  0.00000000000E+00  0.17802458381E+04  0.17802458381E+04  0.25500000920E-02 0.  1.
        2   -1    0    0  501    0  0.00000000000E+00  0.00000000000E+00 -0.18254257657E+04  0.18254257657E+04  0.25500000920E-02 0. -1.
    10030    2    1    2    0    0  0.00000000000E+00  0.00000000000E+00 -0.45179927659E+02  0.36056716038E+04  0.36053885350E+04 0.  0.
        4    1    3    3  502    0  0.10674480502E+04 -0.45969970771E+03  0.13555370408E+04  0.17855675409E+04  0.12699999809E+01 0.  1.
       -4    1    3    3    0  502 -0.10674480502E+04  0.45969970771E+03 -0.14007169685E+04  0.18201040629E+04  0.12699999809E+01 0. -1.
</event>
<event>
 5   0  0.3215494E-08  0.3595321E+04  0.7818609E-02  0.8091564E-01
       -1   -1    0    0    0  501  0.00000000000E+00  0.00000000000E+00  0.19419887483E+04  0.19419887483E+04  0.50400001928E-02 0.  1.
        1   -1    0    0  501    0  0.00000000000E+00  0.00000000000E+00 -0.16640589109E+04  0.16640589109E+04  0.50400001928E-02 0. -1.
    10030    2    1    2    0    0  0.00000000000E+00  0.00000000000E+00  0.27792983741E+03  0.36060476592E+04  0.35953212271E+04 0.  0.
        4    1    3    3  502    0  0.16496463193E+04 -0.71300080186E+03  0.18244105624E+03  0.18063746771E+04  0.12699999809E+01 0.  1.
       -4    1    3    3    0  502 -0.16496463193E+04  0.71300080186E+03  0.95488781175E+02  0.17996729821E+04  0.12699999809E+01 0. -1.
</event>
<event>
 5   0  0.1017794E-07  0.3610965E+04  0.7818609E-02  0.8087985E-01
       -2   -1    0    0    0  501  0.00000000000E+00  0.00000000000E+00  0.23181241826E+04  0.23181241826E+04  0.25500000920E-02 0. -1.
        2   -1    0    0  501    0  0.00000000000E+00  0.00000000000E+00 -0.14062089575E+04  0.14062089575E+04  0.25500000920E-02 0.  1.
    10030    2    1    2    0    0  0.00000000000E+00  0.00000000000E+00  0.91191522513E+03  0.37243331401E+04  0.36109649625E+04 0.  0.
        1    1    3    3  502    0 -0.13623901849E+04 -0.14564642285E+03  0.16686468045E+04  0.21590975093E+04  0.50400001928E-02 0. -1.
       -1    1    3    3    0  502  0.13623901849E+04  0.14564642285E+03 -0.75673157939E+03  0.15652356308E+04  0.50400001928E-02 0.  1.
</event>
<event>
 5   0  0.9905335E-08  0.3598701E+04  0.7818609E-02  0.8090789E-01
       -2   -1    0    0    0  501  0.00000000000E+00  0.00000000000E+00  0.12538788288E+04  0.12538788288E+04  0.25500000920E-02 0. -1.
        2   -1    0    0  501    0  0.00000000000E+00  0.00000000000E+00 -0.25821169753E+04  0.25821169753E+04  0.25500000920E-02 0.  1.
    10030    2    1    2    0    0  0.00000000000E+00  0.00000000000E+00 -0.13282381465E+04  0.38359958041E+04  0.35987007705E+04 0.  0.
        5    1    3    3  502    0 -0.13529020025E+04  0.18032649170E+03 -0.19139426485E+04  0.23507573298E+04  0.46999998093E+01 0.  1.
       -5    1    3    3    0  502  0.13529020025E+04 -0.18032649170E+03  0.58570450195E+03  0.14852384743E+04  0.46999998093E+01 0. -1.
</event>
<event>
 5   0  0.3202875E-08  0.3580448E+04  0.7818609E-02  0.8094985E-01
       -1   -1    0    0    0  501  0.00000000000E+00  0.00000000000E+00  0.17045571190E+04  0.17045571190E+04  0.50400001928E-02 0. -1.
        1   -1    0    0  501    0  0.00000000000E+00  0.00000000000E+00 -0.18801962795E+04  0.18801962795E+04  0.50400001928E-02 0.  1.
    10030    2    1    2    0    0  0.00000000000E+00  0.00000000000E+00 -0.17563916053E+03  0.35847533985E+04  0.35804479906E+04 0.  0.
        1    1    3    3  502    0  0.43429726265E+03  0.37040979464E+03  0.16110072667E+04  0.17091407028E+04  0.50400001928E-02 0. -1.
       -1    1    3    3    0  502 -0.43429726265E+03 -0.37040979464E+03 -0.17866464273E+04  0.18756126957E+04  0.50400001928E-02 0.  1.
</event>
<event>
 5   0  0.3202875E-08  0.3597172E+04  0.7818609E-02  0.8091140E-01
        1   -1    0    0  501    0  0.00000000000E+00  0.00000000000E+00  0.20710404801E+04  0.20710404801E+04  0.50400001928E-02 0. -1.
       -1   -1    0    0    0  501  0.00000000000E+00  0.00000000000E+00 -0.15619737572E+04  0.15619737573E+04  0.50400001928E-02 0.  1.
    10030    2    1    2    0    0  0.00000000000E+00  0.00000000000E+00  0.50906672285E+03  0.36330142374E+04  0.35971716001E+04 0.  0.
        1    1    3    3  502    0 -0.32745789363E+03  0.94322235956E+03  0.17654389333E+04  0.20282188538E+04  0.50400001928E-02 0. -1.
       -1    1    3    3    0  502  0.32745789363E+03 -0.94322235956E+03 -0.12563722105E+04  0.16047953835E+04  0.50400001928E-02 0.  1.
</event>
<event>
 5   0  0.3215494E-08  0.3592034E+04  0.7818609E-02  0.8092319E-01
        1   -1    0    0  501    0  0.00000000000E+00  0.00000000000E+00  0.24240388348E+04  0.24240388348E+04  0.50400001928E-02 0. -1.
       -1   -1    0    0    0  501  0.00000000000E+00  0.00000000000E+00 -0.13307033021E+04  0.13307033021E+04  0.50400001928E-02 0.  1.
    10030    2    1    2    0    0  0.00000000000E+00  0.00000000000E+00  0.10933355327E+04  0.37547421369E+04  0.35920336757E+04 0.  0.
        4    1    3    3  502    0  0.12158740854E+04  0.13091679575E+04  0.73771517146E+03  0.19330017639E+04  0.12699999809E+01 0.  1.
       -4    1    3    3    0  502 -0.12158740854E+04 -0.13091679575E+04  0.35562036127E+03  0.18217403730E+04  0.12699999809E+01 0. -1.
</event>
<event>
 5   0  0.1029908E-07  0.3581262E+04  0.7818609E-02  0.8094797E-01
        2   -1    0    0  501    0  0.00000000000E+00  0.00000000000E+00  0.15236645941E+04  0.15236645941E+04  0.25500000920E-02 0. -1.
       -2   -1    0    0    0  501  0.00000000000E+00  0.00000000000E+00 -0.21043740289E+04  0.21043740289E+04  0.25500000920E-02 0.  1.
    10030    2    1    2    0    0  0.00000000000E+00  0.00000000000E+00 -0.58070943481E+03  0.36280386231E+04  0.35812624594E+04 0.  0.
        4    1    3    3  502    0 -0.11168391004E+04  0.96941398037E+03 -0.13131281154E+04  0.19777259926E+04  0.12699999809E+01 0.  1.
       -4    1    3    3    0  502  0.11168391004E+04 -0.96941398037E+03  0.73241868059E+03  0.16503126304E+04  0.12699999809E+01 0. -1.
</event>
<event>
 5   0  0.3202875E-08  0.3601735E+04  0.7818609E-02  0.8090094E-01
        1   -1    0    0  501    0  0.00000000000E+00  0.00000000000E+00  0.25454678939E+04  0.25454678939E+04  0.50400001928E-02 0.  1.
       -1   -1    0    0    0  501  0.00000000000E+00  0.00000000000E+00 -0.12740779542E+04  0.12740779542E+04  0.50400001928E-02 0. -1.
    10030    2    1    2    0    0  0.00000000000E+00  0.00000000000E+00  0.12713899397E+04  0.38195458481E+04  0.36017354299E+04 0.  0.
        1    1    3    3  502    0  0.14414358699E+04 -0.60853263992E+03 -0.30989753082E+03  0.15950190658E+04  0.50400001928E-02 0. -1.
       -1    1    3    3    0  502 -0.14414358699E+04  0.60853263992E+03  0.15812874705E+04  0.22245267823E+04  0.50400001928E-02 0.  1.
</event>
<event>
 5   0  0.1017794E-07  0.3602437E+04  0.7818609E-02  0.8089934E-01
       -2   -1    0    0    0  501  0.00000000000E+00  0.00000000000E+00  0.13504459874E+04  0.13504459874E+04  0.25500000920E-02 0.  1.
        2   -1    0    0  501    0  0.00000000000E+00  0.00000000000E+00 -0.24024569577E+04  0.24024569577E+04  0.25500000920E-02 0. -1.
    10030    2    1    2    0    0  0.00000000000E+00  0.00000000000E+00 -0.10520109703E+04  0.37529029451E+04  0.36024371519E+04 0.  0.
        1    1    3    3  502    0  0.95492279801E+03 -0.13191749417E+04 -0.13277527561E+04  0.21011966729E+04  0.50400001928E-02 0.  1.
       -1    1    3    3    0  502 -0.95492279801E+03  0.13191749417E+04  0.27574178578E+03  0.16517062722E+04  0.50400001928E-02 0. -1.
</event>
<event>
 5   0  0.3202875E-08  0.3558496E+04  0.7818609E-02  0.8100065E-01
       -3   -1    0    0    0  501  0.00000000000E+00  0.00000000000E+00  0.12514375507E+04  0.12514375548E+04  0.10100000352E+00 0. -1.
        3   -1    0    0  501    0  0.00000000000E+00  0.00000000000E+00 -0.25296694061E+04  0.25296694081E+04  0.10100000352E+00 0.  1.
    10030    2    1    2    0    0  0.00000000000E+00  0.00000000000E+00 -0.12782318554E+04  0.37811069629E+04  0.35584959166E+04 0.  0.
        1    1    3    3  502    0  0.71111183967E+03 -0.13818648516E+04 -0.15596200777E+04  0.22017368833E+04  0.50400001928E-02 0.  1.
       -1    1    3    3    0  502 -0.71111183967E+03  0.13818648516E+04  0.28138822225E+03  0.15793700796E+04  0.50400001928E-02 0. -1.
</event>
<event>
 5   0  0.1021087E-07  0.3588057E+04  0.7818609E-02  0.8093233E-01
        2   -1    0    0  501    0  0.00000000000E+00  0.00000000000E+00  0.13788532249E+04  0.13788532249E+04  0.25500000920E-02 0. -1.
       -2   -1    0    0    0  501  0.00000000000E+00  0.00000000000E+00 -0.23342139528E+04  0.23342139528E+04  0.25500000920E-02 0.  1.
    10030    2    1    2    0    0  0.00000000000E+00  0.00000000000E+00 -0.95536072791E+03  0.37130671778E+04  0.35880570991E+04 0.  0.
        3    1    3    3  502    0  0.15159115244E+04  0.61753215784E+03 -0.12375696124E+04  0.20520507478E+04  0.10100000352E+00 0.  1.
       -3    1    3    3    0  502 -0.15159115244E+04 -0.61753215784E+03  0.28220888448E+03  0.16610164299E+04  0.10100000352E+00 0. -1.
</event>
<event>
 5   0  0.3202875E-08  0.3589458E+04  0.7818609E-02  0.8092911E-01
       -1   -1    0    0    0  501  0.00000000000E+00  0.00000000000E+00  0.27428080692E+04  0.27428080692E+04  0.50400001928E-02 0. -1.
        1   -1    0    0  501    0  0.00000000000E+00  0.00000000000E+00 -0.11743631951E+04  0.11743631951E+04  0.50400001928E-02 0.  1.
    10030    2    1    2    0    0  0.00000000000E+00  0.00000000000E+00  0.15684448741E+04  0.39171712644E+04  0.35894583702E+04 0.  0.
        1    1    3    3  502    0  0.13660190999E+03 -0.17796119858E+04  0.57897138458E+03  0.18764026130E+04  0.50400001928E-02 0.  1.
       -1    1    3    3    0  502 -0.13660190999E+03  0.17796119858E+04  0.98947348956E+03  0.20407686514E+04  0.50400001928E-02 0. -1.
</event>
<event>
 5   0  0.3202875E-08  0.3606641E+04  0.7818609E-02  0.8088972E-01
        3   -1    0    0  501    0  0.00000000000E+00  0.00000000000E+00  0.21587576164E+04  0.21587576187E+04  0.10100000352E+00 0. -1.
       -3   -1    0    0    0  501  0.00000000000E+00  0.00000000000E+00 -0.15064058809E+04  0.15064058843E+04  0.10100000352E+00 0.  1.
    10030    2    1    2    0    0  0.00000000000E+00  0.00000000000E+00  0.65235173548E+03  0.36651635030E+04  0.36066411960E+04 0.  0.
        1    1    3    3  502    0 -0.43495223337E+03 -0.16206460630E+04  0.99741471711E+03  0.19520535917E+04  0.50400001928E-02 0. -1.
       -1    1    3    3    0  502  0.43495223337E+03  0.16206460630E+04 -0.34506298163E+03  0.17131099113E+04  0.50400001928E-02 0.  1.
</event>
<event>
 5   0  0.9905335E-08  0.3601655E+04  0.7818609E-02  0.8090113E-01
        2   -1    0    0  501    0  0.00000000000E+00  0.00000000000E+00  0.21068777418E+04  0.21068777418E+04  0.25500000920E-02 0.  1.
       -2   -1    0    0    0  501  0.00000000000E+00  0.00000000000E+00 -0.15392345942E+04  0.15392345942E+04  0.25500000920E-02 0. -1.
    10030    2    1    2    0    0  0.00000000000E+00  0.00000000000E+00  0.56764314760E+03  0.36461123360E+04  0.36016546786E+04 0.  0.
        5    1    3    3  502    0 -0.15523296403E+04 -0.89585753402E+03  0.10653426105E+03  0.17954552827E+04  0.46999998093E+01 0. -1.
       -5    1    3    3    0  502  0.15523296403E+04  0.89585753402E+03  0.46110888654E+03  0.18506570533E+04  0.46999998093E+01 0.  1.
</event>
<event>
 5   0  0.3202875E-08  0.3602393E+04  0.7818609E-02  0.8089944E-01
       -1   -1    0    0    0  501  0.00000000000E+00  0.00000000000E+00  0.25259535246E+04  0.25259535246E+04  0.50400001928E-02 0.  1.
        1   -1    0    0  501    0  0.00000000000E+00  0.00000000000E+00 -0.12843899825E+04  0.12843899825E+04  0.50400001928E-02 0. -1.
    10030    2    1    2    0    0  0.00000000000E+00  0.00000000000E+00  0.12415635422E+04  0.38103435071E+04  0.36023933174E+04 0.  0.
        1    1    3    3  502    0  0.11422418206E+04  0.43188640513E+02  0.20931599848E+04  0.23849319397E+04  0.50400001928E-02 0.  1.
       -1    1    3    3    0  502 -0.11422418206E+04 -0.43188640513E+02 -0.85159644260E+03  0.14254115674E+04  0.50400001928E-02 0. -1.
</event>
<event>
 5   0  0.3279988E-08  0.3680180E+04  0.7818609E-02  0.8072368E-01
        1   -1    0    0  501    0  0.00000000000E+00  0.00000000000E+00  0.22092526982E+04  0.22092526982E+04  0.50400001928E-02 0. -1.
       -1   -1    0    0    0  501  0.00000000000E+00  0.00000000000E+00 -0.15326135333E+04  0.15326135333E+04  0.50400001928E-02 0.  1.
    10030    2    1    2    0    0  0.00000000000E+00  0.00000000000E+00  0.67663916488E+03  0.37418662315E+04  0.36801796607E+04 0.  0.
        5    1    3    3  502    0 -0.33294457137E+03  0.18084535358E+04  0.26971855381E+03  0.18585280377E+04  0.46999998093E+01 0.  1.
       -5    1    3    3    0  502  0.33294457137E+03 -0.18084535358E+04  0.40692061107E+03  0.18833381938E+04  0.46999998093E+01 0. -1.
</event>
<event>
 5   0  0.3212523E-08  0.3560293E+04  0.7818609E-02  0.8099648E-01
        1   -1    0    0  501    0  0.00000000000E+00  0.00000000000E+00  0.27489843102E+04  0.27489843102E+04  0.50400001928E-02 0. -1.
       -1   -1    0    0    0  501  0.00000000000E+00  0.00000000000E+00 -0.11527607875E+04  0.11527607876E+04  0.50400001928E-02 0.  1.
    10030    2    1    2    0    0  0.00000000000E+00  0.00000000000E+00  0.15962235226E+04  0.39017450978E+04  0.35602928635E+04 0.  0.
        3    1    3    3  502    0  0.13280134141E+04 -0.86071770359E+03 -0.95213849617E+02  0.15854085532E+04  0.10100000352E+00 0.  1.
       -3    1    3    3    0  502 -0.13280134141E+04  0.86071770359E+03  0.16914373723E+04  0.23163365446E+04  0.10100000352E+00 0. -1.
</event>
<event>
 5   0  0.1029908E-07  0.3593026E+04  0.7818609E-02  0.8092091E-01
        2   -1    0    0  501    0  0.00000000000E+00  0.00000000000E+00  0.18804438437E+04  0.18804438437E+04  0.25500000920E-02 0.  1.
       -2   -1    0    0    0  501  0.00000000000E+00  0.00000000000E+00 -0.17163284255E+04  0.17163284256E+04  0.25500000920E-02 0. -1.
    10030    2    1    2    0    0  0.00000000000E+00  0.00000000000E+00  0.16411541819E+03  0.35967722693E+04  0.35930261461E+04 0.  0.
        4    1    3    3  502    0  0.12297816887E+04 -0.30660351910E+03  0.13566050705E+04  0.18565418525E+04  0.12699999809E+01 0.  1.
       -4    1    3    3    0  502 -0.12297816887E+04  0.30660351910E+03 -0.11924896524E+04  0.17402304168E+04  0.12699999809E+01 0. -1.
</event>
<event>
 5   0  0.3202875E-08  0.3594033E+04  0.7818609E-02  0.8091860E-01
       -1   -1    0    0    0  501  0.00000000000E+00  0.00000000000E+00  0.14580130217E+04  0.14580130217E+04  0.50400001928E-02 0. -1.
        1   -1    0    0  501    0  0.00000000000E+00  0.00000000000E+00 -0.22148416697E+04  0.22148416697E+04  0.50400001928E-02 0.  1.
    10030    2    1    2    0    0  0.00000000000E+00  0.00000000000E+00 -0.75682864798E+03  0.36728546914E+04  0.35940328298E+04 0.  0.
        2    1    3    3  502    0  0.11844123879E+04  0.20552760622E+03  0.98661728123E+03  0.15551488550E+04  0.25500000920E-02 0. -1.
       -2    1    3    3    0  502 -0.11844123879E+04 -0.20552760622E+03 -0.17434459292E+04  0.21177058364E+04  0.25500000920E-02 0.  1.
</event>
<event>
 5   0  0.1017794E-07  0.3598337E+04  0.7818609E-02  0.8090873E-01
       -2   -1    0    0    0  501  0.00000000000E+00  0.00000000000E+00  0.12627817761E+04  0.12627817761E+04  0.25500000920E-02 0. -1.
        2   -1    0    0  501    0  0.00000000000E+00  0.00000000000E+00 -0.25633934565E+04  0.25633934565E+04  0.25500000920E-02 0.  1.
    10030    2    1    2    0    0  0.00000000000E+00  0.00000000000E+00 -0.13006116803E+04  0.38261752326E+04  0.35983365834E+04 0.  0.
        1    1    3    3  502    0  0.57092555775E+03  0.17025400967E+04 -0.53186270059E+03  0.18728258611E+04  0.50400001928E-02 0.  1.
       -1    1    3    3    0  502 -0.57092555775E+03 -0.17025400967E+04 -0.76874897973E+03  0.19533493716E+04  0.50400001928E-02 0. -1.
</event>
<event>
 5   0  0.1029908E-07  0.3602741E+04  0.7818609E-02  0.8089864E-01
       -2   -1    0    0    0  501  0.00000000000E+00  0.00000000000E+00  0.19044070664E+04  0.19044070664E+04  0.25500000920E-02 0. -1.
        2   -1    0    0  501    0  0.00000000000E+00  0.00000000000E+00 -0.17039086230E+04  0.17039086230E+04  0.25500000920E-02 0.  1.
    10030    2    1    2    0    0  0.00000000000E+00  0.00000000000E+00  0.20049844339E+03  0.36083156894E+04  0.36027409688E+04 0.  0.
        4    1    3    3  502    0 -0.62384022997E+03  0.15066495857E+04  0.86678596352E+03  0.18467509648E+04  0.12699999809E+01 0. -1.
       -4    1    3    3    0  502  0.62384022997E+03 -0.15066495857E+04 -0.66628752013E+03  0.17615647246E+04  0.12699999809E+01 0.  1.
</event>
<event>
 5   0  0.1029908E-07  0.3593418E+04  0.7818609E-02  0.8092001E-01
        2   -1    0    0  501    0  0.00000000000E+00  0.00000000000E+00  0.21286267526E+04  0.21286267526E+04  0.25500000920E-02 0. -1.
       -2   -1    0    0    0  501  0.00000000000E+00  0.00000000000E+00 -0.15165474334E+04  0.15165474334E+04  0.25500000920E-02 0.  1.
    10030    2    1    2    0    0  0.00000000000E+00  0.00000000000E+00  0.61207931920E+03  0.36451741861E+04  0.35934181157E+04 0.  0.
        4    1    3    3  502    0  0.13938068744E+04  0.11219339388E+04  0.47188279435E+03  0.18504346383E+04  0.12699999809E+01 0.  1.
       -4    1    3    3    0  502 -0.13938068744E+04 -0.11219339388E+04  0.14019652485E+03  0.17947395478E+04  0.12699999809E+01 0. -1.
</event>
<event>
 5   0  0.1029908E-07  0.3592279E+04  0.7818609E-02  0.8092263E-01
       -2   -1    0    0    0  501  0.00000000000E+00  0.00000000000E+00  0.13915218166E+04  0.13915218166E+04  0.25500000920E-02 0.  1.
        2   -1    0    0  501    0  0.00000000000E+00  0.00000000000E+00 -0.23184087400E+04  0.23184087400E+04  0.25500000920E-02 0. -1.
    10030    2    1    2    0    0  0.00000000000E+00  0.00000000000E+00 -0.92688692344E+03  0.37099305567E+04  0.35922785758E+04 0.  0.
        4    1    3    3  502    0  0.14128672750E+04  0.10982727280E+04 -0.30439369527E+03  0.18152283759E+04  0.12699999809E+01 0. -1.
       -4    1    3    3    0  502 -0.14128672750E+04 -0.10982727280E+04 -0.62249322817E+03  0.18947021808E+04  0.12699999809E+01 0.  1.
</event>
<event>
 5   0  0.1021087E-07  0.3599174E+04  0.7818609E-02  0.8090681E-01
        2   -1    0    0  501    0  0.00000000000E+00  0.00000000000E+00  0.20771799435E+04  0.20771799435E+04  0.25500000920E-02 0. -1.
       -2   -1    0    0    0  501  0.00000000000E+00  0.00000000000E+00 -0.15590911915E+04  0.15590911915E+04  0.25500000920E-02 0.  1.
    10030    2    1    2    0    0  0.00000000000E+00  0.00000000000E+00  0.51808875200E+03  0.36362711351E+04  0.35991737681E+04 0.  0.
        3    1    3    3  502    0 -0.74838451718E+03 -0.16283252857E+04  0.42502502967E+03  0.18417841643E+04  0.10100000352E+00 0.  1.
       -3    1    3    3    0  502  0.74838451718E+03  0.16283252857E+04  0.93063722336E+02  0.17944869708E+04  0.10100000352E+00 0. -1.
</event>
<event>
 5   0  0.3212523E-08  0.3599945E+04  0.7818609E-02  0.8090504E-01
       -1   -1    0    0    0  501  0.00000000000E+00  0.00000000000E+00  0.19743979768E+04  0.19743979768E+04  0.50400001928E-02 0.  1.
        1   -1    0    0  501    0  0.00000000000E+00  0.00000000000E+00 -0.16409567453E+04  0.16409567453E+04  0.50400001928E-02 0. -1.
    10030    2    1    2    0    0  0.00000000000E+00  0.00000000000E+00  0.33344123152E+03  0.36153547221E+04  0.35999453763E+04 0.  0.
        3    1    3    3  502    0 -0.16696923130E+04  0.67145890216E+03  0.13233680026E+03  0.18045061697E+04  0.10100000352E+00 0. -1.
       -3    1    3    3    0  502  0.16696923130E+04 -0.67145890216E+03  0.20110443126E+03  0.18108485525E+04  0.10100000352E+00 0.  1.
</event>
<event>
 5   0  0.3215494E-08  0.3603260E+04  0.7818609E-02  0.8089745E-01
        1   -1    0    0  501    0  0.00000000000E+00  0.00000000000E+00  0.14397192879E+04  0.14397192879E+04  0.50400001928E-02 0. -1.
       -1   -1    0    0    0  501  0.00000000000E+00  0.00000000000E+00 -0.22545160202E+04  0.22545160202E+04  0.50400001928E-02 0.  1.
    10030    2    1    2    0    0  0.00000000000E+00  0.00000000000E+00 -0.81479673234E+03  0.36942353081E+04  0.36032597459E+04 0.  0.
        4    1    3    3  502    0 -0.21282054501E+03  0.39159417790E+03  0.13823072570E+04  0.14523820262E+04  0.12699999809E+01 0. -1.
       -4    1    3    3    0  502  0.21282054501E+03 -0.39159417790E+03 -0.21971039893E+04  0.22418532818E+04  0.12699999809E+01 0.  1.
</event>
<event>
 5   0  0.1021087E-07  0.3596406E+04  0.7818609E-02  0.8091315E-01
       -2   -1    0    0    0  501  0.00000000000E+00  0.00000000000E+00  0.15776548182E+04  0.15776548182E+04  0.25500000920E-02 0. -1.
        2   -1    0    0  501    0  0.00000000000E+00  0.00000000000E+00 -0.20495832563E+04  0.20495832563E+04  0.25500000920E-02 0.  1.
    10030    2    1    2    0    0  0.00000000000E+00  0.00000000000E+00 -0.47192843812E+03  0.36272380745E+04  0.35964064841E+04 0.  0.
        3    1    3    3  502    0  0.12351827909E+04  0.61289180262E+03 -0.14000784283E+04  0.19650782438E+04  0.10100000352E+00 0.  1.
       -3    1    3    3    0  502 -0.12351827909E+04 -0.61289180262E+03  0.92814999016E+03  0.16621598308E+04  0.10100000352E+00 0. -1.
</event>
<event>
 5   0  0.1044678E-07  0.3608660E+04  0.7818609E-02  0.8088511E-01
       -2   -1    0    0    0  501  0.00000000000E+00  0.00000000000E+00  0.27577436892E+04  0.27577436892E+04  0.25500000920E-02 0. -1.
        2   -1    0    0  501    0  0.00000000000E+00  0.00000000000E+00 -0.11805329895E+04  0.11805329895E+04  0.25500000920E-02 0.  1.
    10030    2    1    2    0    0  0.00000000000E+00  0.00000000000E+00  0.15772106997E+04  0.39382766787E+04  0.36086603618E+04 0.  0.
        2    1    3    3  502    0 -0.12574788106E+04 -0.31045365289E+03 -0.58230796515E+03  0.14201116139E+04  0.25500000920E-02 0.  1.
       -2    1    3    3    0  502  0.12574788106E+04  0.31045365289E+03  0.21595186648E+04  0.25181650648E+04  0.25500000920E-02 0. -1.
</event>
<event>
 5   0  0.3202875E-08  0.3601123E+04  0.7818609E-02  0.8090234E-01
       -1   -1    0    0    0  501  0.00000000000E+00  0.00000000000E+00  0.18801970170E+04  0.18801970170E+04  0.50400001928E-02 0. -1.
        1   -1    0    0  501    0  0.00000000000E+00  0.00000000000E+00 -0.17242991648E+04  0.17242991648E+04  0.50400001928E-02 0.  1.
    10030    2    1    2    0    0  0.00000000000E+00  0.00000000000E+00  0.15589785225E+03  0.36044961818E+04  0.36011232393E+04 0.  0.
        1    1    3    3  502    0  0.21816753245E+03 -0.43107030966E+03  0.18141061873E+04  0.18773385264E+04  0.50400001928E-02 0. -1.
       -1    1    3    3    0  502 -0.21816753245E+03  0.43107030966E+03 -0.16582083350E+04  0.17271576554E+04  0.50400001928E-02 0.  1.
</event>
<event>
 5   0  0.1017794E-07  0.3596645E+04  0.7818609E-02  0.8091261E-01
       -2   -1    0    0    0  501  0.00000000000E+00  0.00000000000E+00  0.14833307446E+04  0.14833307446E+04  0.25500000920E-02 0.  1.
        2   -1    0    0  501    0  0.00000000000E+00  0.00000000000E+00 -0.21802043321E+04  0.21802043321E+04  0.25500000920E-02 0. -1.
    10030    2    1    2    0    0  0.00000000000E+00  0.00000000000E+00 -0.69687358744E+03  0.36635350767E+04  0.35966451676E+04 0.  0.
        1    1    3    3  502    0 -0.52685798450E+02 -0.51487392751E+03  0.14058280251E+04  0.14980732261E+04  0.50400001928E-02 0.  1.
       -1    1    3    3    0  502  0.52685798450E+02  0.51487392751E+03 -0.21027016126E+04  0.21654618506E+04  0.50400001928E-02 0. -1.
</event>
<event>
 5   0  0.3202875E-08  0.3600417E+04  0.7818609E-02  0.8090396E-01
       -1   -1    0    0    0  501  0.00000000000E+00  0.00000000000E+00  0.19876969574E+04  0.19876969574E+04  0.50400001928E-02 0.  1.
        1   -1    0    0  501    0  0.00000000000E+00  0.00000000000E+00 -0.16304048078E+04  0.16304048078E+04  0.50400001928E-02 0. -1.
    10030    2    1    2    0    0  0.00000000000E+00  0.00000000000E+00  0.35729214956E+03  0.36181017652E+04  0.36004170180E+04 0.  0.
        2    1    3    3  502    0  0.26032915827E+02 -0.14493379445E+04 -0.89406732340E+03  0.17031190706E+04  0.25500000920E-02 0. -1.
       -2    1    3    3    0  502 -0.26032915827E+02  0.14493379445E+04  0.12513594730E+04  0.19149826946E+04  0.25500000920E-02 0.  1.
</event>
<event>
 5   0  0.9905335E-08  0.3601056E+04  0.7818609E-02  0.8090250E-01
       -2   -1    0    0    0  501  0.00000000000E+00  0.00000000000E+00  0.25680878176E+04  0.25680878176E+04  0.25500000920E-02 0.  1.
        2   -1    0    0  501    0  0.00000000000E+00  0.00000000000E+00 -0.12623792681E+04  0.12623792681E+04  0.25500000920E-02 0. -1.
    10030    2    1    2    0    0  0.00000000000E+00  0.00000000000E+00  0.13057085495E+04  0.38304670857E+04  0.36010558560E+04 0.  0.
        5    1    3    3  502    0  0.11434786396E+04  0.13878564803E+04  0.55659193482E+03  0.18824201659E+04  0.46999998093E+01 0.  1.
       -5    1    3    3    0  502 -0.11434786396E+04 -0.13878564803E+04  0.74911661464E+03  0.19480469197E+04  0.46999998093E+01 0. -1.
</event>
<event>
 5   0  0.3202875E-08  0.3593922E+04  0.7818609E-02  0.8091885E-01
       -1   -1    0    0    0  501  0.00000000000E+00  0.00000000000E+00  0.15819952894E+04  0.15819952894E+04  0.50400001928E-02 0.  1.
        1   -1    0    0  501    0  0.00000000000E+00  0.00000000000E+00 -0.20411363345E+04  0.20411363345E+04  0.50400001928E-02 0. -1.
    10030    2    1    2    0    0  0.00000000000E+00  0.00000000000E+00 -0.45914104512E+03  0.36231316239E+04  0.35939215718E+04 0.  0.
        2    1    3    3  502    0 -0.12310560936E+04 -0.13089942488E+04 -0.21933829738E+03  0.18102691341E+04  0.25500000920E-02 0. -1.
       -2    1    3    3    0  502  0.12310560936E+04  0.13089942488E+04 -0.23980274774E+03  0.18128624898E+04  0.25500000920E-02 0.  1.
</event>
<event>
 5   0  0.3212523E-08  0.3597508E+04  0.7818609E-02  0.8091063E-01
       -1   -1    0    0    0  501  0.00000000000E+00  0.00000000000E+00  0.16149472136E+04  0.16149472136E+04  0.50400001928E-02 0. -1.
        1   -1    0    0  501    0  0.00000000000E+00  0.00000000000E+00 -0.20034812054E+04  0.20034812054E+04  0.50400001928E-02 0.  1.
    10030    2    1    2    0    0  0.00000000000E+00  0.00000000000E+00 -0.38853399177E+03  0.36184284190E+04  0.35975082433E+04 0.  0.
        3    1    3    3  502    0  0.70072108958E+03  0.16514451858E+04 -0.62220917440E+02  0.17950355706E+04  0.10100000352E+00 0. -1.
       -3    1    3    3    0  502 -0.70072108958E+03 -0.16514451858E+04 -0.32631307433E+03  0.18233928484E+04  0.10100000352E+00 0.  1.
</event>
<event>
 5   0  0.3202875E-08  0.3600128E+04  0.7818609E-02  0.8090462E-01
        3   -1    0    0  501    0  0.00000000000E+00  0.00000000000E+00  0.32667467458E+04  0.32667467474E+04  0.10100000352E+00 0. -1.
       -3   -1    0    0    0  501  0.00000000000E+00  0.00000000000E+00 -0.99188313471E+03  0.99188313986E+03  0.10100000352E+00 0.  1.
    10030    2    1    2    0    0  0.00000000000E+00  0.00000000000E+00  0.22748636111E+04  0.42586298873E+04  0.36001283404E+04 0.  0.
        2    1    3    3  502    0  0.36615855231E+03  0.12691805544E+04 -0.30907952329E+03  0.13566213609E+04  0.25500000920E-02 0.  1.
       -2    1    3    3    0  502 -0.36615855231E+03 -0.12691805544E+04  0.25839431344E+04  0.29020085263E+04  0.25500000920E-02 0. -1.
</event>
<event>
 5   0  0.1017794E-07  0.3600153E+04  0.7818609E-02  0.8090457E-01
       -2   -1    0    0    0  501  0.00000000000E+00  0.00000000000E+00  0.19960698081E+04  0.19960698081E+04  0.25500000920E-02 0. -1.
        2   -1    0    0  501    0  0.00000000000E+00  0.00000000000E+00 -0.16233272570E+04  0.16233272570E+04  0.25500000920E-02 0.  1.
    10030    2    1    2    0    0  0.00000000000E+00  0.00000000000E+00  0.37274255113E+03  0.36193970651E+04  0.36001525115E+04 0.  0.
        1    1    3    3  502    0  0.13201822663E+04  0.99999615672E+03 -0.52266532897E+03  0.17366786047E+04  0.50400001928E-02 0.  1.
       -1    1    3    3    0  502 -0.13201822663E+04 -0.99999615672E+03  0.89540788010E+03  0.18827184605E+04  0.50400001928E-02 0. -1.
</event>
<event>
 5   0  0.3212523E-08  0.3599951E+04  0.7818609E-02  0.8090503E-01
       -1   -1    0    0    0  501  0.00000000000E+00  0.00000000000E+00  0.20253332180E+04  0.20253332180E+04  0.50400001928E-02 0.  1.
        1   -1    0    0  501    0  0.00000000000E+00  0.00000000000E+00 -0.15996928755E+04  0.15996928755E+04  0.50400001928E-02 0. -1.
    10030    2    1    2    0    0  0.00000000000E+00  0.00000000000E+00  0.42564034246E+03  0.36250260936E+04  0.35999506216E+04 0.  0.
        3    1    3    3  502    0  0.16882576914E+04  0.13609687175E+03 -0.40066460046E+03  0.17404793947E+04  0.10100000352E+00 0. -1.
       -3    1    3    3    0  502 -0.16882576914E+04 -0.13609687175E+03  0.82630494292E+03  0.18845466988E+04  0.10100000352E+00 0.  1.
</event>
<event>
 5   0  0.1044678E-07  0.3588382E+04  0.7818609E-02  0.8093158E-01
       -2   -1    0    0    0  501  0.00000000000E+00  0.00000000000E+00  0.15358349912E+04  0.15358349912E+04  0.25500000920E-02 0.  1.
        2   -1    0    0  501    0  0.00000000000E+00  0.00000000000E+00 -0.20960070552E+04  0.20960070552E+04  0.25500000920E-02 0. -1.
    10030    2    1    2    0    0  0.00000000000E+00  0.00000000000E+00 -0.56017206400E+03  0.36318420464E+04  0.35883817953E+04 0.  0.
        2    1    3    3  502    0 -0.12872341639E+04  0.12384522845E+04 -0.10956666947E+03  0.17896202695E+04  0.25500000920E-02 0.  1.
       -2    1    3    3    0  502  0.12872341639E+04 -0.12384522845E+04 -0.45060539453E+03  0.18422217769E+04  0.25500000920E-02 0. -1.
</event>
<event>
 5   0  0.3215494E-08  0.3595325E+04  0.7818609E-02  0.8091563E-01
        1   -1    0    0  501    0  0.00000000000E+00  0.00000000000E+00  0.16381521240E+04  0.16381521240E+04  0.50400001928E-02 0.  1.
       -1   -1    0    0    0  501  0.00000000000E+00  0.00000000000E+00 -0.19727045263E+04  0.19727045263E+04  0.50400001928E-02 0. -1.
    10030    2    1    2    0    0  0.00000000000E+00  0.00000000000E+00 -0.33455240236E+03  0.36108566503E+04  0.35953248030E+04 0.  0.
        4    1    3    3  502    0  0.94063961600E+03 -0.26939040530E+03 -0.16818408681E+04  0.19457554821E+04  0.12699999809E+01 0. -1.
       -4    1    3    3    0  502 -0.94063961600E+03  0.26939040530E+03  0.13472884657E+04  0.16651011682E+04  0.12699999809E+01 0.  1.
</event>
<event>
 5   0  0.3279988E-08  0.3674280E+04  0.7818609E-02  0.8073686E-01
        1   -1    0    0  501    0  0.00000000000E+00  0.00000000000E+00  0.16449750497E+04  0.16449750497E+04  0.50400001928E-02 0.  1.
       -1   -1    0    0    0  501  0.00000000000E+00  0.00000000000E+00 -0.20517534565E+04  0.20517534565E+04  0.50400001928E-02 0. -1.
    10030    2    1    2    0    0  0.00000000000E+00  0.00000000000E+00 -0.40677840677E+03  0.36967285062E+04  0.36742799262E+04 0.  0.
        5    1    3    3  502    0 -0.23831295931E+02  0.50390323975E+03  0.15739184510E+04  0.16527939333E+04  0.46999998093E+01 0.  1.
       -5    1    3    3    0  502  0.23831295931E+02 -0.50390323975E+03 -0.19806968578E+04  0.20439345728E+04  0.46999998093E+01 0. -1.
</event>
<event>
 5   0  0.9905335E-08  0.3584639E+04  0.7818609E-02  0.8094019E-01
       -2   -1    0    0    0  501  0.00000000000E+00  0.00000000000E+00  0.19439158091E+04  0.19439158091E+04  0.25500000920E-02 0. -1.
        2   -1    0    0  501    0  0.00000000000E+00  0.00000000000E+00 -0.16525458327E+04  0.16525458327E+04  0.25500000920E-02 0.  1.
    10030    2    1    2    0    0  0.00000000000E+00  0.00000000000E+00  0.29136997633E+03  0.35964616418E+04  0.35846394349E+04 0.  0.
        5    1    3    3  502    0 -0.13337215075E+04 -0.11774732815E+04  0.36349886456E+03  0.18158771718E+04  0.46999998093E+01 0. -1.
       -5    1    3    3    0  502  0.13337215075E+04  0.11774732815E+04 -0.72128888228E+02  0.17805844700E+04  0.46999998093E+01 0.  1.
</event>
<event>
 5   0  0.3279988E-08  0.3623076E+04  0.7818609E-02  0.8085226E-01
       -1   -1    0    0    0  501  0.00000000000E+00  0.00000000000E+00  0.14299919851E+04  0.14299919851E+04  0.50400001928E-02 0. -1.
        1   -1    0    0  501    0  0.00000000000E+00  0.00000000000E+00 -0.22948868966E+04  0.22948868966E+04  0.50400001928E-02 0.  1.
    10030    2    1    2    0    0  0.00000000000E+00  0.00000000000E+00 -0.86489491154E+03  0.37248788818E+04  0.36230759688E+04 0.  0.
        5    1    3    3  502    0  0.94215532815E+03  0.11324666332E+04  0.65145821566E+03  0.16107629355E+04  0.46999998093E+01 0. -1.
       -5    1    3    3    0  502 -0.94215532815E+03 -0.11324666332E+04 -0.15163531272E+04  0.21141159462E+04  0.46999998093E+01 0.  1.
</event>
<event>
 5   0  0.3202875E-08  0.3609787E+04  0.7818609E-02  0.8088253E-01
       -1   -1    0    0    0  501  0.00000000000E+00  0.00000000000E+00  0.10910709784E+04  0.10910709784E+04  0.50400001928E-02 0.  1.
        1   -1    0    0  501    0  0.00000000000E+00  0.00000000000E+00 -0.29857278501E+04  0.29857278501E+04  0.50400001928E-02 0. -1.
    10030    2    1    2    0    0  0.00000000000E+00  0.00000000000E+00 -0.18946568717E+04  0.40767988285E+04  0.36097872550E+04 0.  0.
        2    1    3    3  502    0  0.89196092485E+03 -0.93933830501E+03  0.47213315350E+03  0.13787169606E+04  0.25500000920E-02 0.  1.
       -2    1    3    3    0  502 -0.89196092485E+03  0.93933830501E+03 -0.23667900252E+04  0.26980818679E+04  0.25500000920E-02 0. -1.
</event>
<event>
 5   0  0.1017794E-07  0.3607829E+04  0.7818609E-02  0.8088701E-01
       -2   -1    0    0    0  501  0.00000000000E+00  0.00000000000E+00  0.19784401340E+04  0.19784401340E+04  0.25500000920E-02 0. -1.
        2   -1    0    0  501    0  0.00000000000E+00  0.00000000000E+00 -0.16447841808E+04  0.16447841808E+04  0.25500000920E-02 0.  1.
    10030    2    1    2    0    0  0.00000000000E+00  0.00000000000E+00  0.33365595314E+03  0.36232243148E+04  0.36078287293E+04 0.  0.
        1    1    3    3  502    0  0.85939469542E+03  0.14653095820E+03  0.17528316622E+04  0.19576642716E+04  0.50400001928E-02 0. -1.
       -1    1    3    3    0  502 -0.85939469542E+03 -0.14653095820E+03 -0.14191757091E+04  0.16655600432E+04  0.50400001928E-02 0.  1.
</event>
<event>
 5   0  0.3202875E-08  0.3603126E+04  0.7818609E-02  0.8089776E-01
       -1   -1    0    0    0  501  0.00000000000E+00  0.00000000000E+00  0.25358965035E+04  0.25358965035E+04  0.50400001928E-02 0.  1.
        1   -1    0    0  501    0  0.00000000000E+00  0.00000000000E+00 -0.12798745659E+04  0.12798745659E+04  0.50400001928E-02 0. -1.
    10030    2    1    2    0    0  0.00000000000E+00  0.00000000000E+00  0.12560219376E+04  0.38157710694E+04  0.36031261075E+04 0.  0.
        1    1    3    3  502    0 -0.18243501324E+03  0.22039840023E+03 -0.12556615405E+04  0.12878446696E+04  0.50400001928E-02 0. -1.
       -1    1    3    3    0  502  0.18243501324E+03 -0.22039840023E+03  0.25116834780E+04  0.25279263998E+04  0.50400001928E-02 0.  1.
</event>
<event>
 5   0  0.1017794E-07  0.3603214E+04  0.7818609E-02  0.8089756E-01
       -2   -1    0    0    0  501  0.00000000000E+00  0.00000000000E+00  0.19959810056E+04  0.19959810056E+04  0.25500000920E-02 0. -1.
        2   -1    0    0  501    0  0.00000000000E+00  0.00000000000E+00 -0.16261615783E+04  0.16261615783E+04  0.25500000920E-02 0.  1.
    10030    2    1    2    0    0  0.00000000000E+00  0.00000000000E+00  0.36981942730E+03  0.36221425839E+04  0.36032139111E+04 0.  0.
        1    1    3    3  502    0  0.59482983880E+03 -0.95771855929E+03 -0.12277269875E+04  0.16668416037E+04  0.50400001928E-02 0.  1.
       -1    1    3    3    0  502 -0.59482983880E+03  0.95771855929E+03  0.15975464148E+04  0.19553009802E+04  0.50400001928E-02 0. -1.
</event>
<event>
 5   0  0.1017794E-07  0.3595028E+04  0.7818609E-02  0.8091632E-01
       -2   -1    0    0    0  501  0.00000000000E+00  0.00000000000E+00  0.28873088636E+04  0.28873088636E+04  0.25500000920E-02 0. -1.
        2   -1    0    0  501    0  0.00000000000E+00  0.00000000000E+00 -0.11190544820E+04  0.11190544820E+04  0.25500000920E-02 0.  1.
    10030    2    1    2    0    0  0.00000000000E+00  0.00000000000E+00  0.17682543816E+04  0.40063633456E+04  0.35950276353E+04 0.  0.
        1    1    3    3  502    0 -0.64973170359E+03 -0.15493784114E+04  0.15962491377E+04  0.23174848560E+04  0.50400001928E-02 0. -1.
       -1    1    3    3    0  502  0.64973170359E+03  0.15493784114E+04  0.17200524389E+03  0.16888784895E+04  0.50400001928E-02 0.  1.
</event>
<event>
 5   0  0.3215494E-08  0.3598215E+04  0.7818609E-02  0.8090901E-01
        1   -1    0    0  501    0  0.00000000000E+00  0.00000000000E+00  0.26038750153E+04  0.26038750153E+04  0.50400001928E-02 0.  1.
       -1   -1    0    0    0  501  0.00000000000E+00  0.00000000000E+00 -0.12430655053E+04  0.12430655054E+04  0.50400001928E-02 0. -1.
    10030    2    1    2    0    0  0.00000000000E+00  0.00000000000E+00  0.13608095100E+04  0.38469405207E+04  0.35982146750E+04 0.  0.
        4    1    3    3  502    0  0.96113900206E+03  0.12754071801E+04 -0.20531460950E+03  0.16101575569E+04  0.12699999809E+01 0.  1.
       -4    1    3    3    0  502 -0.96113900206E+03 -0.12754071801E+04  0.15661241195E+04  0.22367829637E+04  0.12699999809E+01 0. -1.
</event>
<event>
 5   0  0.3279988E-08  0.3601831E+04  0.7818609E-02  0.8090072E-01
       -1   -1    0    0    0  501  0.00000000000E+00  0.00000000000E+00  0.31302683215E+04  0.31302683215E+04  0.50400001928E-02 0. -1.
        1   -1    0    0  501    0  0.00000000000E+00  0.00000000000E+00 -0.10361084046E+04  0.10361084046E+04  0.50400001928E-02 0.  1.
    10030    2    1    2    0    0  0.00000000000E+00  0.00000000000E+00  0.20941599170E+04  0.41663767261E+04  0.36018313767E+04 0.  0.
        5    1    3    3  502    0 -0.53403834519E+03 -0.16588797536E+04  0.52181851166E+03  0.18191744392E+04  0.46999998093E+01 0.  1.
       -5    1    3    3    0  502  0.53403834519E+03  0.16588797536E+04  0.15723414053E+04  0.23472022869E+04  0.46999998093E+01 0. -1.
</event>
<event>
 5   0  0.1029908E-07  0.3595095E+04  0.7818609E-02  0.8091616E-01
       -2   -1    0    0    0  501  0.00000000000E+00  0.00000000000E+00  0.14147103258E+04  0.14147103258E+04  0.25500000920E-02 0.  1.
        2   -1    0    0  501    0  0.00000000000E+00  0.00000000000E+00 -0.22839855249E+04  0.22839855249E+04  0.25500000920E-02 0. -1.
    10030    2    1    2    0    0  0.00000000000E+00  0.00000000000E+00 -0.86927519906E+03  0.36986958507E+04  0.35950954959E+04 0.  0.
        4    1    3    3  502    0  0.13251844603E+04 -0.89284681104E+03 -0.12817028103E+04  0.20484269547E+04  0.12699999809E+01 0. -1.
       -4    1    3    3    0  502 -0.13251844603E+04  0.89284681104E+03  0.41242761125E+03  0.16502688960E+04  0.12699999809E+01 0.  1.
</event>
<event>
 5   0  0.3215494E-08  0.3602571E+04  0.7818609E-02  0.8089903E-01
       -1   -1    0    0    0  501  0.00000000000E+00  0.00000000000E+00  0.12273801179E+04  0.12273801179E+04  0.50400001928E-02 0. -1.
        1   -1    0    0  501    0  0.00000000000E+00  0.00000000000E+00 -0.26435404446E+04  0.26435404446E+04  0.50400001928E-02 0.  1.
    10030    2    1    2    0    0  0.00000000000E+00  0.00000000000E+00 -0.14161603267E+04  0.38709205626E+04  0.36025707392E+04 0.  0.
        4    1    3    3  502    0 -0.10873025705E+04  0.12183796020E+04  0.10877957355E+03  0.16366155147E+04  0.12699999809E+01 0. -1.
       -4    1    3    3    0  502  0.10873025705E+04 -0.12183796020E+04 -0.15249399003E+04  0.22343050479E+04  0.12699999809E+01 0.  1.
</event>
<event>
 5   0  0.3202875E-08  0.3596828E+04  0.7818609E-02  0.8091219E-01
       -1   -1    0    0    0  501  0.00000000000E+00  0.00000000000E+00  0.31620081198E+04  0.31620081198E+04  0.50400001928E-02 0. -1.
        1   -1    0    0  501    0  0.00000000000E+00  0.00000000000E+00 -0.10228604030E+04  0.10228604030E+04  0.50400001928E-02 0.  1.
    10030    2    1    2    0    0  0.00000000000E+00  0.00000000000E+00  0.21391477168E+04  0.41848685229E+04  0.35968279914E+04 0.  0.
        1    1    3    3  502    0 -0.19891875750E+03 -0.12869775306E+04 -0.37353345756E+03  0.13547719662E+04  0.50400001928E-02 0.  1.
       -1    1    3    3    0  502  0.19891875750E+03  0.12869775306E+04  0.25126811743E+04  0.28300965567E+04  0.50400001928E-02 0. -1.
</event>
<event>
 5   0  0.3279988E-08  0.3592424E+04  0.7818609E-02  0.8092229E-01
        1   -1    0    0  501    0  0.00000000000E+00  0.00000000000E+00  0.16028140580E+04  0.16028140580E+04  0.50400001928E-02 0. -1.
       -1   -1    0    0    0  501  0.00000000000E+00  0.00000000000E+00 -0.20129460747E+04  0.20129460747E+04  0.50400001928E-02 0.  1.
    10030    2    1    2    0    0  0.00000000000E+00  0.00000000000E+00 -0.41013201667E+03  0.36157601327E+04  0.35924243995E+04 0.  0.
        5    1    3    3  502    0  0.17242951909E+04  0.70410646407E+02  0.29637159373E+03  0.17510025060E+04  0.46999998093E+01 0. -1.
       -5    1    3    3    0  502 -0.17242951909E+04 -0.70410646407E+02 -0.70650361041E+03  0.18647576266E+04  0.46999998093E+01 0.  1.
</event>
<event>
 5   0  0.1029908E-07  0.3600463E+04  0.7818609E-02  0.8090386E-01
        2   -1    0    0  501    0  0.00000000000E+00  0.00000000000E+00  0.27075949260E+04  0.27075949260E+04  0.25500000920E-02 0.  1.
       -2   -1    0    0    0  501  0.00000000000E+00  0.00000000000E+00 -0.11969419690E+04  0.11969419690E+04  0.25500000920E-02 0. -1.
    10030    2    1    2    0    0  0.00000000000E+00  0.00000000000E+00  0.15106529569E+04  0.39045368950E+04  0.36004633046E+04 0.  0.
        4    1    3    3  502    0 -0.12905142774E+04 -0.38776239181E+03 -0.53924348162E+03  0.14514034305E+04  0.12699999809E+01 0. -1.
       -4    1    3    3    0  502  0.12905142774E+04  0.38776239181E+03  0.20498964386E+04  0.24531334645E+04  0.12699999809E+01 0.  1.
</event>
<event>
 5   0  0.1044678E-07  0.3599730E+04  0.7818609E-02  0.8090554E-01
        2   -1    0    0  501    0  0.00000000000E+00  0.00000000000E+00  0.23311045163E+04  0.23311045163E+04  0.25500000920E-02 0. -1.
       -2   -1    0    0    0  501  0.00000000000E+00  0.00000000000E+00 -0.13896902352E+04  0.13896902352E+04  0.25500000920E-02 0.  1.
    10030    2    1    2    0    0  0.00000000000E+00  0.00000000000E+00  0.94141428111E+03  0.37207947516E+04  0.35997295363E+04 0.  0.
        2    1    3    3  502    0 -0.10841200549E+04 -0.14362026426E+04  0.43042387801E+03  0.18502051343E+04  0.25500000920E-02 0. -1.
       -2    1    3    3    0  502  0.10841200549E+04  0.14362026426E+04  0.51099040309E+03  0.18705896173E+04  0.25500000920E-02 0.  1.
</event>
<event>
 5   0  0.3279988E-08  0.3600939E+04  0.7818609E-02  0.8090277E-01
        1   -1    0    0  501    0  0.00000000000E+00  0.00000000000E+00  0.21407000041E+04  0.21407000041E+04  0.50400001928E-02 0. -1.
       -1   -1    0    0    0  501  0.00000000000E+00  0.00000000000E+00 -0.15143132966E+04  0.15143132966E+04  0.50400001928E-02 0.  1.
    10030    2    1    2    0    0  0.00000000000E+00  0.00000000000E+00  0.62638670753E+03  0.36550133008E+04  0.36009390333E+04 0.  0.
        5    1    3    3  502    0 -0.89785267611E+03 -0.70848881974E+02  0.18956136537E+04  0.20986977406E+04  0.46999998093E+01 0. -1.
       -5    1    3    3    0  502  0.89785267611E+03  0.70848881974E+02 -0.12692269462E+04  0.15563155602E+04  0.46999998093E+01 0.  1.
</event>
<event>
 5   0  0.3202875E-08  0.3591921E+04  0.7818609E-02  0.8092345E-01
        1   -1    0    0  501    0  0.00000000000E+00  0.00000000000E+00  0.20779992762E+04  0.20779992762E+04  0.50400001928E-02 0. -1.
       -1   -1    0    0    0  501  0.00000000000E+00  0.00000000000E+00 -0.15522017805E+04  0.15522017805E+04  0.50400001928E-02 0.  1.
    10030    2    1    2    0    0  0.00000000000E+00  0.00000000000E+00  0.52579749572E+03  0.36302010567E+04  0.35919210328E+04 0.  0.
        1    1    3    3  502    0 -0.42474167132E+03 -0.10737814968E+04 -0.11272829889E+04  0.16137469217E+04  0.50400001928E-02 0.  1.
       -1    1    3    3    0  502  0.42474167132E+03  0.10737814968E+04  0.16530804846E+04  0.20164541351E+04  0.50400001928E-02 0. -1.
</event>
<event>
 5   0  0.1021087E-07  0.3605495E+04  0.7818609E-02  0.8089234E-01
        2   -1    0    0  501    0  0.00000000000E+00  0.00000000000E+00  0.24863867506E+04  0.24863867506E+04  0.25500000920E-02 0.  1.
       -2   -1    0    0    0  501  0.00000000000E+00  0.00000000000E+00 -0.13070770471E+04  0.13070770471E+04  0.25500000920E-02 0. -1.
    10030    2    1    2    0    0  0.00000000000E+00  0.00000000000E+00  0.11793097036E+04  0.37934637977E+04  0.36054952791E+04 0.  0.
        3    1    3    3  502    0  0.50364844132E+03 -0.90607070256E+03 -0.96211715917E+03  0.14143179659E+04  0.10100000352E+00 0. -1.
       -3    1    3    3    0  502 -0.50364844132E+03  0.90607070256E+03  0.21414268627E+04  0.23791458318E+04  0.10100000352E+00 0.  1.
</event>
<event>
 5   0  0.1029908E-07  0.3601268E+04  0.7818609E-02  0.8090201E-01
        2   -1    0    0  501    0  0.00000000000E+00  0.00000000000E+00  0.15052710952E+04  0.15052710952E+04  0.25500000920E-02 0. -1.
       -2   -1    0    0    0  501  0.00000000000E+00  0.00000000000E+00 -0.21539528366E+04  0.21539528366E+04  0.25500000920E-02 0.  1.
    10030    2    1    2    0    0  0.00000000000E+00  0.00000000000E+00 -0.64868174134E+03  0.36592239318E+04  0.36012680796E+04 0.  0.
        4    1    3    3  502    0 -0.16390791554E+03 -0.14568482511E+04 -0.13866363800E+04  0.20179283176E+04  0.12699999809E+01 0.  1.
       -4    1    3    3    0  502  0.16390791554E+03  0.14568482511E+04  0.73795463868E+03  0.16412956142E+04  0.12699999809E+01 0. -1.
</event>
<event>
 5   0  0.1029908E-07  0.3597470E+04  0.7818609E-02  0.8091072E-01
        2   -1    0    0  501    0  0.00000000000E+00  0.00000000000E+00  0.19845231418E+04  0.19845231418E+04  0.25500000920E-02 0.  1.
       -2   -1    0    0    0  501  0.00000000000E+00  0.00000000000E+00 -0.16303396687E+04  0.16303396687E+04  0.25500000920E-02 0. -1.
    10030    2    1    2    0    0  0.00000000000E+00  0.00000000000E+00  0.35418347307E+03  0.36148628104E+04  0.35974695559E+04 0.  0.
        4    1    3    3  502    0  0.43636667504E+03 -0.21951100596E+03 -0.15624176536E+04  0.16369946530E+04  0.12699999809E+01 0. -1.
       -4    1    3    3    0  502 -0.43636667504E+03  0.21951100596E+03  0.19166011266E+04  0.19778681575E+04  0.12699999809E+01 0.  1.
</event>
<event>
 5   0  0.3212523E-08  0.3615489E+04  0.7818609E-02  0.8086953E-01
       -1   -1    0    0    0  501  0.00000000000E+00  0.00000000000E+00  0.25625661002E+04  0.25625661002E+04  0.50400001928E-02 0.  1.
        1   -1    0    0  501    0  0.00000000000E+00  0.00000000000E+00 -0.12752604924E+04  0.12752604924E+04  0.50400001928E-02 0. -1.
    10030    2    1    2    0    0  0.00000000000E+00  0.00000000000E+00  0.12873056078E+04  0.38378265925E+04  0.36154885184E+04 0.  0.
        3    1    3    3  502    0  0.11712409851E+04  0.12045595731E+04  0.13518942661E+04  0.21564756728E+04  0.10100000352E+00 0.  1.
       -3    1    3    3    0  502 -0.11712409851E+04 -0.12045595731E+04 -0.64588658306E+02  0.16813509198E+04  0.10100000352E+00 0. -1.
</event>
<event>
 5   0  0.3279988E-08  0.3596669E+04  0.7818609E-02  0.8091255E-01
        1   -1    0    0  501    0  0.00000000000E+00  0.00000000000E+00  0.28484710559E+04  0.28484710559E+04  0.50400001928E-02 0. -1.
       -1   -1    0    0    0  501  0.00000000000E+00  0.00000000000E+00 -0.11353483477E+04  0.11353483477E+04  0.50400001928E-02 0.  1.
    10030    2    1    2    0    0  0.00000000000E+00  0.00000000000E+00  0.17131227082E+04  0.39838194036E+04  0.35966689627E+04 0.  0.
        5    1    3    3  502    0 -0.15556731035E+04  0.67060134214E+03  0.18814786292E+03  0.17044784168E+04  0.46999998093E+01 0.  1.
       -5    1    3    3    0  502  0.15556731035E+04 -0.67060134214E+03  0.15249748453E+04  0.22793409867E+04  0.46999998093E+01 0. -1.
</event>
<event>
 5   0  0.3212523E-08  0.3586644E+04  0.7818609E-02  0.8093558E-01
       -1   -1    0    0    0  501  0.00000000000E+00  0.00000000000E+00  0.16427623523E+04  0.16427623523E+04  0.50400001928E-02 0. -1.
        1   -1    0    0  501    0  0.00000000000E+00  0.00000000000E+00 -0.19576807414E+04  0.19576807414E+04  0.50400001928E-02 0.  1.
    10030    2    1    2    0    0  0.00000000000E+00  0.00000000000E+00 -0.31491838916E+03  0.36004430937E+04  0.35866442365E+04 0.  0.
        3    1    3    3  502    0  0.70227217156E+03 -0.16429716738E+04 -0.31122188117E+03  0.18136706409E+04  0.10100000352E+00 0.  1.
       -3    1    3    3    0  502 -0.70227217156E+03  0.16429716738E+04 -0.36965079905E+01  0.17867724529E+04  0.10100000352E+00 0. -1.
</event>
<event>
 5   0  0.3202875E-08  0.3601927E+04  0.7818609E-02  0.8090051E-01
       -1   -1    0    0    0  501  0.00000000000E+00  0.00000000000E+00  0.30804403099E+04  0.30804403099E+04  0.50400001928E-02 0.  1.
        1   -1    0    0  501    0  0.00000000000E+00  0.00000000000E+00 -0.10529237966E+04  0.10529237966E+04  0.50400001928E-02 0. -1.
    10030    2    1    2    0    0  0.00000000000E+00  0.00000000000E+00  0.20275165133E+04  0.41333641065E+04  0.36019266547E+04 0.  0.
        2    1    3    3  502    0  0.10398671453E+04 -0.14237898709E+04  0.14353417611E+04  0.22734791065E+04  0.25500000920E-02 0.  1.
       -2    1    3    3    0  502 -0.10398671453E+04  0.14237898709E+04  0.59217475214E+03  0.18598850001E+04  0.25500000920E-02 0. -1.
</event>
<event>
 5   0  0.1021087E-07  0.3597573E+04  0.7818609E-02  0.8091048E-01
        2   -1    0    0  501    0  0.00000000000E+00  0.00000000000E+00  0.30103084710E+04  0.30103084710E+04  0.25500000920E-02 0. -1.
       -2   -1    0    0    0  501  0.00000000000E+00  0.00000000000E+00 -0.10748506658E+04  0.10748506658E+04  0.25500000920E-02 0.  1.
    10030    2    1    2    0    0  0.00000000000E+00  0.00000000000E+00  0.19354578052E+04  0.40851591368E+04  0.35975725507E+04 0.  0.
        3    1    3    3  502    0 -0.82956563304E+02 -0.58881672458E+03 -0.96001707920E+03  0.11292562726E+04  0.10100000352E+00 0.  1.
       -3    1    3    3    0  502  0.82956563304E+02  0.58881672458E+03  0.28954748844E+04  0.29559028642E+04  0.10100000352E+00 0. -1.
</event>
<event>
 5   0  0.1021087E-07  0.3588530E+04  0.7818609E-02  0.8093124E-01
        2   -1    0    0  501    0  0.00000000000E+00  0.00000000000E+00  0.15218218476E+04  0.15218218476E+04  0.25500000920E-02 0. -1.
       -2   -1    0    0    0  501  0.00000000000E+00  0.00000000000E+00 -0.21154817548E+04  0.21154817549E+04  0.25500000920E-02 0.  1.
    10030    2    1    2    0    0  0.00000000000E+00  0.00000000000E+00 -0.59365990723E+03  0.36373036025E+04  0.35885297005E+04 0.  0.
        3    1    3    3  502    0  0.23836681677E+03  0.11046340468E+04  0.11157950522E+04  0.15880912208E+04  0.10100000352E+00 0. -1.
       -3    1    3    3    0  502 -0.23836681677E+03 -0.11046340468E+04 -0.17094549594E+04  0.20492123817E+04  0.10100000352E+00 0.  1.
</event>
<event>
 5   0  0.3212523E-08  0.3600341E+04  0.7818609E-02  0.8090414E-01
        1   -1    0    0  501    0  0.00000000000E+00  0.00000000000E+00  0.23620928290E+04  0.23620928290E+04  0.50400001928E-02 0.  1.
       -1   -1    0    0    0  501  0.00000000000E+00  0.00000000000E+00 -0.13719244607E+04  0.13719244607E+04  0.50400001928E-02 0. -1.
    10030    2    1    2    0    0  0.00000000000E+00  0.00000000000E+00  0.99016836831E+03  0.37340172896E+04  0.36003405008E+04 0.  0.
        3    1    3    3  502    0 -0.91025959418E+03 -0.14457667169E+04  0.10834197299E+04  0.20230205757E+04  0.10100000352E+00 0.  1.
       -3    1    3    3    0  502  0.91025959418E+03  0.14457667169E+04 -0.93251361576E+02  0.17109967139E+04  0.10100000352E+00 0. -1.
</event>
<event>
 5   0  0.1044678E-07  0.3596595E+04  0.7818609E-02  0.8091272E-01
        2   -1    0    0  501    0  0.00000000000E+00  0.00000000000E+00  0.24040703119E+04  0.24040703119E+04  0.25500000920E-02 0. -1.
       -2   -1    0    0    0  501  0.00000000000E+00  0.00000000000E+00 -0.13451660107E+04  0.13451660107E+04  0.25500000920E-02 0.  1.
    10030    2    1    2    0    0  0.00000000000E+00  0.00000000000E+00  0.10589043012E+04  0.37492363226E+04  0.35965948735E+04 0.  0.
        2    1    3    3  502    0 -0.24202164501E+03 -0.17727894269E+04  0.34147482045E+03  0.18215273486E+04  0.25500000920E-02 0.  1.
       -2    1    3    3    0  502  0.24202164501E+03  0.17727894269E+04  0.71742948079E+03  0.19277089740E+04  0.25500000920E-02 0. -1.
</event>
<event>
 5   0  0.1017794E-07  0.3598675E+04  0.7818609E-02  0.8090795E-01
        2   -1    0    0  501    0  0.00000000000E+00  0.00000000000E+00  0.14383469674E+04  0.14383469674E+04  0.25500000920E-02 0. -1.
       -2   -1    0    0    0  501  0.00000000000E+00  0.00000000000E+00 -0.22509275155E+04  0.22509275155E+04  0.25500000920E-02 0.  1.
    10030    2    1    2    0    0  0.00000000000E+00  0.00000000000E+00 -0.81258054813E+03  0.36892744829E+04  0.35986746259E+04 0.  0.
        1    1    3    3  502    0 -0.10207824107E+04 -0.14610340250E+04 -0.15309545870E+03  0.17888698588E+04  0.50400001928E-02 0.  1.
       -1    1    3    3    0  502  0.10207824107E+04  0.14610340250E+04 -0.65948508943E+03  0.19004046241E+04  0.50400001928E-02 0. -1.
</event>
<event>
 5   0  0.1029908E-07  0.3594431E+04  0.7818609E-02  0.8091769E-01
       -2   -1    0    0    0  501  0.00000000000E+00  0.00000000000E+00  0.15847728268E+04  0.15847728268E+04  0.25500000920E-02 0. -1.
        2   -1    0    0  501    0  0.00000000000E+00  0.00000000000E+00 -0.20381366330E+04  0.20381366330E+04  0.25500000920E-02 0.  1.
    10030    2    1    2    0    0  0.00000000000E+00  0.00000000000E+00 -0.45336380623E+03  0.36229094598E+04  0.35944309999E+04 0.  0.
        4    1    3    3  502    0  0.57479409684E+03 -0.14955233517E+04  0.59401967760E+03  0.17087537387E+04  0.12699999809E+01 0. -1.
       -4    1    3    3    0  502 -0.57479409684E+03  0.14955233517E+04 -0.10473834838E+04  0.19141557211E+04  0.12699999809E+01 0.  1.
</event>
<event>
 5   0  0.3279988E-08  0.3598162E+04  0.7818609E-02  0.8090913E-01
        1   -1    0    0  501    0  0.00000000000E+00  0.00000000000E+00  0.24164947997E+04  0.24164947997E+04  0.50400001928E-02 0.  1.
       -1   -1    0    0    0  501  0.00000000000E+00  0.00000000000E+00 -0.13394160689E+04  0.13394160689E+04  0.50400001928E-02 0. -1.
    10030    2    1    2    0    0  0.00000000000E+00  0.00000000000E+00  0.10770787308E+04  0.37559108686E+04  0.35981617335E+04 0.  0.
        5    1    3    3  502    0  0.45467453062E+03 -0.17390011739E+04  0.45893411695E+03  0.18551271183E+04  0.46999998093E+01 0. -1.
       -5    1    3    3    0  502 -0.45467453062E+03  0.17390011739E+04  0.61814461381E+03  0.19007837502E+04  0.46999998093E+01 0.  1.
</event>
<event>
 5   0  0.1017794E-07  0.3600234E+04  0.7818609E-02  0.8090438E-01
        2   -1    0    0  501    0  0.00000000000E+00  0.00000000000E+00  0.19911841272E+04  0.19911841272E+04  0.25500000920E-02 0. -1.
       -2   -1    0    0    0  501  0.00000000000E+00  0.00000000000E+00 -0.16273837870E+04  0.16273837870E+04  0.25500000920E-02 0.  1.
    10030    2    1    2    0    0  0.00000000000E+00  0.00000000000E+00  0.36380034019E+03  0.36185679142E+04  0.36002337511E+04 0.  0.
        1    1    3    3  502    0  0.22715911294E+03 -0.13016880966E+04  0.14105934111E+04  0.19328132178E+04  0.50400001928E-02 0.  1.
       -1    1    3    3    0  502 -0.22715911294E+03  0.13016880966E+04 -0.10467930709E+04  0.16857546965E+04  0.50400001928E-02 0. -1.
</event>
<event>
 5   0  0.1021087E-07  0.3593148E+04  0.7818609E-02  0.8092063E-01
        2   -1    0    0  501    0  0.00000000000E+00  0.00000000000E+00  0.18297318657E+04  0.18297318657E+04  0.25500000920E-02 0.  1.
       -2   -1    0    0    0  501  0.00000000000E+00  0.00000000000E+00 -0.17640168716E+04  0.17640168716E+04  0.25500000920E-02 0. -1.
    10030    2    1    2    0    0  0.00000000000E+00  0.00000000000E+00  0.65714994117E+02  0.35937487374E+04  0.35931478576E+04 0.  0.
        3    1    3    3  502    0  0.12115777220E+04  0.27834974024E+03 -0.12643862799E+04  0.17731530756E+04  0.10100000352E+00 0.  1.
       -3    1    3    3    0  502 -0.12115777220E+04 -0.27834974024E+03  0.13301012740E+04  0.18205956618E+04  0.10100000352E+00 0. -1.
</event>
<event>
 5   0  0.3215494E-08  0.3593839E+04  0.7818609E-02  0.8091904E-01
        1   -1    0    0  501    0  0.00000000000E+00  0.00000000000E+00  0.14665671544E+04  0.14665671544E+04  0.50400001928E-02 0.  1.
       -1   -1    0    0    0  501  0.00000000000E+00  0.00000000000E+00 -0.22016854058E+04  0.22016854058E+04  0.50400001928E-02 0. -1.
    10030    2    1    2    0    0  0.00000000000E+00  0.00000000000E+00 -0.73511825139E+03  0.36682525601E+04  0.35938388948E+04 0.  0.
        4    1    3    3  502    0 -0.84159038902E+02 -0.14440074104E+04  0.72066738756E+03  0.16160455568E+04  0.12699999809E+01 0.  1.
       -4    1    3    3    0  502  0.84159038902E+02  0.14440074104E+04 -0.14557856390E+04  0.20522070034E+04  0.12699999809E+01 0. -1.
</event>
<event>
 5   0  0.9905335E-08  0.3599737E+04  0.7818609E-02  0.8090552E-01
        2   -1    0    0  501    0  0.00000000000E+00  0.00000000000E+00  0.23294715829E+04  0.23294715829E+04  0.25500000920E-02 0.  1.
       -2   -1    0    0    0  501  0.00000000000E+00  0.00000000000E+00 -0.13906704542E+04  0.13906704542E+04  0.25500000920E-02 0. -1.
    10030    2    1    2    0    0  0.00000000000E+00  0.00000000000E+00  0.93880112875E+03  0.37201420371E+04  0.35997373816E+04 0.  0.
        5    1    3    3  502    0 -0.36791152029E+03  0.70008781534E+03 -0.12014724211E+04  0.14384157621E+04  0.46999998093E+01 0. -1.
       -5    1    3    3    0  502  0.36791152029E+03 -0.70008781534E+03  0.21402735498E+04  0.22817262750E+04  0.46999998093E+01 0.  1.
</event>
<event>
 5   0  0.1044678E-07  0.3596429E+04  0.7818609E-02  0.8091310E-01
        2   -1    0    0  501    0  0.00000000000E+00  0.00000000000E+00  0.23029776665E+04  0.23029776665E+04  0.25500000920E-02 0. -1.
       -2   -1    0    0    0  501  0.00000000000E+00  0.00000000000E+00 -0.14040848028E+04  0.14040848029E+04  0.25500000920E-02 0.  1.
    10030    2    1    2    0    0  0.00000000000E+00  0.00000000000E+00  0.89889286367E+03  0.37070624694E+04  0.35964293086E+04 0.  0.
        2    1    3    3  502    0 -0.87851704907E+03 -0.15633938484E+04  0.58612800044E+03  0.18866739421E+04  0.25500000920E-02 0. -1.
       -2    1    3    3    0  502  0.87851704907E+03  0.15633938484E+04  0.31276486322E+03  0.18203885273E+04  0.25500000920E-02 0.  1.
</event>
<event>
 5   0  0.1044678E-07  0.3603976E+04  0.7818609E-02  0.8089582E-01
        2   -1    0    0  501    0  0.00000000000E+00  0.00000000000E+00  0.20460454747E+04  0.20460454747E+04  0.25500000920E-02 0.  1.
       -2   -1    0    0    0  501  0.00000000000E+00  0.00000000000E+00 -0.15870420145E+04  0.15870420145E+04  0.25500000920E-02 0. -1.
    10030    2    1    2    0    0  0.00000000000E+00  0.00000000000E+00  0.45900346016E+03  0.36330874892E+04  0.36039756558E+04 0.  0.
        2    1    3    3  502    0 -0.82226012449E+03  0.15011218264E+04 -0.33868370162E+03  0.17447593243E+04  0.25500000920E-02 0. -1.
       -2    1    3    3    0  502  0.82226012449E+03 -0.15011218264E+04  0.79768716178E+03  0.18883281649E+04  0.25500000920E-02 0.  1.
</event>
<event>
 5   0  0.3212523E-08  0.3606461E+04  0.7818609E-02  0.8089013E-01
       -1   -1    0    0    0  501  0.00000000000E+00  0.00000000000E+00  0.11623240962E+04  0.11623240962E+04  0.50400001928E-02 0. -1.
        1   -1    0    0  501    0  0.00000000000E+00  0.00000000000E+00 -0.27975335199E+04  0.27975335199E+04  0.50400001928E-02 0.  1.
    10030    2    1    2    0    0  0.00000000000E+00  0.00000000000E+00 -0.16352094236E+04  0.39598576161E+04  0.36064612130E+04 0.  0.
        3    1    3    3  502    0 -0.13912809818E+04 -0.10735118567E+04 -0.12616464108E+04  0.21632942826E+04  0.10100000352E+00 0. -1.
       -3    1    3    3    0  502  0.13912809818E+04  0.10735118567E+04 -0.37356301279E+03  0.17965633336E+04  0.10100000352E+00 0.  1.
</event>
<event>
 5   0  0.3202875E-08  0.3566971E+04  0.7818609E-02  0.8098100E-01
       -1   -1    0    0    0  501  0.00000000000E+00  0.00000000000E+00  0.18969772215E+04  0.18969772215E+04  0.50400001928E-02 0.  1.
        1   -1    0    0  501    0  0.00000000000E+00  0.00000000000E+00 -0.16767835733E+04  0.16767835733E+04  0.50400001928E-02 0. -1.
    10030    2    1    2    0    0  0.00000000000E+00  0.00000000000E+00  0.22019364819E+03  0.35737607947E+04  0.35669708403E+04 0.  0.
        2    1    3    3  502    0 -0.60408029987E+02 -0.21536015548E+03  0.18828691669E+04  0.18961079680E+04  0.25500000920E-02 0.  1.
       -2    1    3    3    0  502  0.60408029987E+02  0.21536015548E+03 -0.16626755187E+04  0.16776528268E+04  0.25500000920E-02 0. -1.
</event>
<event>
 5   0  0.1017794E-07  0.3595297E+04  0.7818609E-02  0.8091570E-01
        2   -1    0    0  501    0  0.00000000000E+00  0.00000000000E+00  0.17147983827E+04  0.17147983827E+04  0.25500000920E-02 0.  1.
       -2   -1    0    0    0  501  0.00000000000E+00  0.00000000000E+00 -0.18845012653E+04  0.18845012653E+04  0.25500000920E-02 0. -1.
    10030    2    1    2    0    0  0.00000000000E+00  0.00000000000E+00 -0.16970288260E+03  0.35992996480E+04  0.35952967733E+04 0.  0.
        1    1    3    3  502    0 -0.16948801259E+04 -0.19199810120E+03 -0.65298465131E+03  0.18264366584E+04  0.50400001928E-02 0.  1.
       -1    1    3    3    0  502  0.16948801259E+04  0.19199810120E+03  0.48328176871E+03  0.17728629897E+04  0.50400001928E-02 0. -1.
</event>
<event>
 5   0  0.3202875E-08  0.3599928E+04  0.7818609E-02  0.8090508E-01
       -1   -1    0    0    0  501  0.00000000000E+00  0.00000000000E+00  0.17358552454E+04  0.17358552454E+04  0.50400001928E-02 0. -1.
        1   -1    0    0  501    0  0.00000000000E+00  0.00000000000E+00 -0.18664408523E+04  0.18664408523E+04  0.50400001928E-02 0.  1.
    10030    2    1    2    0    0  0.00000000000E+00  0.00000000000E+00 -0.13058560696E+03  0.36022960977E+04  0.35999284125E+04 0.  0.
        2    1    3    3  502    0 -0.62268540225E+03  0.15612727634E+04  0.57899508860E+03  0.17777921883E+04  0.25500000920E-02 0. -1.
       -2    1    3    3    0  502  0.62268540225E+03 -0.15612727634E+04 -0.70958069555E+03  0.18245039094E+04  0.25500000920E-02 0.  1.
</event>
<event>
 5   0  0.3279988E-08  0.3596970E+04  0.7818609E-02  0.8091186E-01
       -1   -1    0    0    0  501  0.00000000000E+00  0.00000000000E+00  0.11923664635E+04  0.11923664635E+04  0.50400001928E-02 0.  1.
        1   -1    0    0  501    0  0.00000000000E+00  0.00000000000E+00 -0.27127139413E+04  0.27127139413E+04  0.50400001928E-02 0. -1.
    10030    2    1    2    0    0  0.00000000000E+00  0.00000000000E+00 -0.15203474779E+04  0.39050804048E+04  0.35969704634E+04 0.  0.
        5    1    3    3  502    0  0.12404614595E+04 -0.11809138827E+04 -0.13560258422E+04  0.21845206352E+04  0.46999998093E+01 0. -1.
       -5    1    3    3    0  502 -0.12404614595E+04  0.11809138827E+04 -0.16432163568E+03  0.17205597696E+04  0.46999998093E+01 0.  1.
</event>
<event>
 5   0  0.9905335E-08  0.3540115E+04  0.7818609E-02  0.8104349E-01
        2   -1    0    0  501    0  0.00000000000E+00  0.00000000000E+00  0.16768219005E+04  0.16768219005E+04  0.25500000920E-02 0. -1.
       -2   -1    0    0    0  501  0.00000000000E+00  0.00000000000E+00 -0.18684768728E+04  0.18684768728E+04  0.25500000920E-02 0.  1.
    10030    2    1    2    0    0  0.00000000000E+00  0.00000000000E+00 -0.19165497227E+03  0.35452987733E+04  0.35401146540E+04 0.  0.
        5    1    3    3  502    0  0.33066112205E+02 -0.39945300480E+03  0.16307693836E+04  0.16793114492E+04  0.46999998093E+01 0. -1.
       -5    1    3    3    0  502 -0.33066112205E+02  0.39945300480E+03 -0.18224243559E+04  0.18659873241E+04  0.46999998093E+01 0.  1.
</event>
<event>
 5   0  0.3202875E-08  0.3601416E+04  0.7818609E-02  0.8090167E-01
        1   -1    0    0  501    0  0.00000000000E+00  0.00000000000E+00  0.23841327255E+04  0.23841327255E+04  0.50400001928E-02 0.  1.
       -1   -1    0    0    0  501  0.00000000000E+00  0.00000000000E+00 -0.13600543408E+04  0.13600543408E+04  0.50400001928E-02 0. -1.
    10030    2    1    2    0    0  0.00000000000E+00  0.00000000000E+00  0.10240783847E+04  0.37441870662E+04  0.36014164226E+04 0.  0.
        2    1    3    3  502    0 -0.11577088969E+04 -0.14182924626E+03  0.19383385788E+04  0.22622028802E+04  0.25500000920E-02 0.  1.
       -2    1    3    3    0  502  0.11577088969E+04  0.14182924626E+03 -0.91426019409E+03  0.14819841860E+04  0.25500000920E-02 0. -1.
</event>
<event>
 5   0  0.3212523E-08  0.3599290E+04  0.7818609E-02  0.8090654E-01
        1   -1    0    0  501    0  0.00000000000E+00  0.00000000000E+00  0.13111917282E+04  0.13111917282E+04  0.50400001928E-02 0.  1.
       -1   -1    0    0    0  501  0.00000000000E+00  0.00000000000E+00 -0.24700592311E+04  0.24700592311E+04  0.50400001928E-02 0. -1.
    10030    2    1    2    0    0  0.00000000000E+00  0.00000000000E+00 -0.11588675029E+04  0.37812509592E+04  0.35992895031E+04 0.  0.
        3    1    3    3  502    0  0.52760709266E+03  0.65743352102E+03  0.10909593717E+04  0.13786879414E+04  0.10100000352E+00 0.  1.
       -3    1    3    3    0  502 -0.52760709266E+03 -0.65743352102E+03 -0.22498268746E+04  0.24025630178E+04  0.10100000352E+00 0. -1.
</event>
<event>
 5   0  0.3279988E-08  0.3599488E+04  0.7818609E-02  0.8090609E-01
       -1   -1    0    0    0  501  0.00000000000E+00  0.00000000000E+00  0.14284135322E+04  0.14284135322E+04  0.50400001928E-02 0.  1.
        1   -1    0    0  501    0  0.00000000000E+00  0.00000000000E+00 -0.22676051312E+04  0.22676051312E+04  0.50400001928E-02 0. -1.
    10030    2    1    2    0    0  0.00000000000E+00  0.00000000000E+00 -0.83919159894E+03  0.36960186634E+04  0.35994876609E+04 0.  0.
        5    1    3    3  502    0 -0.10191993680E+04 -0.18721454935E+03 -0.19305329496E+04  0.21910719292E+04  0.46999998093E+01 0. -1.
       -5    1    3    3    0  502  0.10191993680E+04  0.18721454935E+03  0.10913413507E+04  0.15049467343E+04  0.46999998093E+01 0.  1.
</event>
<event>
 5   0  0.1044678E-07  0.3626286E+04  0.7818609E-02  0.8084497E-01
       -2   -1    0    0    0  501  0.00000000000E+00  0.00000000000E+00  0.30157109214E+04  0.30157109214E+04  0.25500000920E-02 0. -1.
        2   -1    0    0  501    0  0.00000000000E+00  0.00000000000E+00 -0.10901202607E+04  0.10901202607E+04  0.25500000920E-02 0.  1.
    10030    2    1    2    0    0  0.00000000000E+00  0.00000000000E+00  0.19255906606E+04  0.41058311821E+04  0.36262860206E+04 0.  0.
        2    1    3    3  502    0 -0.17248925231E+04 -0.33216019310E+03  0.45403834865E+03  0.18143140390E+04  0.25500000920E-02 0.  1.
       -2    1    3    3    0  502  0.17248925231E+04  0.33216019310E+03  0.14715523120E+04  0.22915171431E+04  0.25500000920E-02 0. -1.
</event>
<event>
 5   0  0.1021087E-07  0.3599387E+04  0.7818609E-02  0.8090632E-01
       -2   -1    0    0    0  501  0.00000000000E+00  0.00000000000E+00  0.12143703721E+04  0.12143703721E+04  0.25500000920E-02 0.  1.
        2   -1    0    0  501    0  0.00000000000E+00  0.00000000000E+00 -0.26671407851E+04  0.26671407851E+04  0.25500000920E-02 0. -1.
    10030    2    1    2    0    0  0.00000000000E+00  0.00000000000E+00 -0.14527704130E+04  0.38815111572E+04  0.35993870298E+04 0.  0.
        3    1    3    3  502    0 -0.83572587010E+03  0.15107768451E+04 -0.17862242109E+03  0.17357391467E+04  0.10100000352E+00 0.  1.
       -3    1    3    3    0  502  0.83572587010E+03 -0.15107768451E+04 -0.12741479919E+04  0.21457720105E+04  0.10100000352E+00 0. -1.
</event>
<event>
 5   0  0.3212523E-08  0.3594084E+04  0.7818609E-02  0.8091848E-01
        1   -1    0    0  501    0  0.00000000000E+00  0.00000000000E+00  0.13510612149E+04  0.13510612149E+04  0.50400001928E-02 0. -1.
       -1   -1    0    0    0  501  0.00000000000E+00  0.00000000000E+00 -0.23902396751E+04  0.23902396751E+04  0.50400001928E-02 0.  1.
    10030    2    1    2    0    0  0.00000000000E+00  0.00000000000E+00 -0.10391784602E+04  0.37413008900E+04  0.35940840943E+04 0.  0.
        3    1    3    3  502    0 -0.57908549412E+03 -0.10516663614E+04  0.87235021335E+03  0.14840273077E+04  0.10100000352E+00 0. -1.
       -3    1    3    3    0  502  0.57908549412E+03  0.10516663614E+04 -0.19115286736E+04  0.22572735823E+04  0.10100000352E+00 0.  1.
</event>
<event>
 5   0  0.1017794E-07  0.3590672E+04  0.7818609E-02  0.8092632E-01
        2   -1    0    0  501    0  0.00000000000E+00  0.00000000000E+00  0.18559922031E+04  0.18559922031E+04  0.25500000920E-02 0.  1.
       -2   -1    0    0    0  501  0.00000000000E+00  0.00000000000E+00 -0.17366625601E+04  0.17366625601E+04  0.25500000920E-02 0. -1.
    10030    2    1    2    0    0  0.00000000000E+00  0.00000000000E+00  0.11932964301E+03  0.35926547631E+04  0.35906724556E+04 0.  0.
        1    1    3    3  502    0  0.51601556440E+03 -0.59579829590E+03 -0.15542925057E+04  0.17427199619E+04  0.50400001928E-02 0. -1.
       -1    1    3    3    0  502 -0.51601556440E+03  0.59579829590E+03  0.16736221487E+04  0.18499348013E+04  0.50400001928E-02 0.  1.
</event>
<event>
 5   0  0.1017794E-07  0.3601300E+04  0.7818609E-02  0.8090194E-01
       -2   -1    0    0    0  501  0.00000000000E+00  0.00000000000E+00  0.16067650754E+04  0.16067650754E+04  0.25500000920E-02 0.  1.
        2   -1    0    0  501    0  0.00000000000E+00  0.00000000000E+00 -0.20179308979E+04  0.20179308979E+04  0.25500000920E-02 0. -1.
    10030    2    1    2    0    0  0.00000000000E+00  0.00000000000E+00 -0.41116582245E+03  0.36246959733E+04  0.36013002604E+04 0.  0.
        1    1    3    3  502    0  0.17384693477E+04 -0.46295022273E+03 -0.28185323102E+03  0.18209996775E+04  0.50400001928E-02 0.  1.
       -1    1    3    3    0  502 -0.17384693477E+04  0.46295022273E+03 -0.12931259143E+03  0.18036962959E+04  0.50400001928E-02 0. -1.
</event>
<event>
 5   0  0.9905335E-08  0.3599340E+04  0.7818609E-02  0.8090643E-01
       -2   -1    0    0    0  501  0.00000000000E+00  0.00000000000E+00  0.12322561560E+04  0.12322561561E+04  0.25500000920E-02 0. -1.
        2   -1    0    0  501    0  0.00000000000E+00  0.00000000000E+00 -0.26283601332E+04  0.26283601332E+04  0.25500000920E-02 0.  1.
    10030    2    1    2    0    0  0.00000000000E+00  0.00000000000E+00 -0.13961039772E+04  0.38606162893E+04  0.35993404699E+04 0.  0.
        5    1    3    3  502    0  0.99050004082E+02  0.10475599152E+04 -0.22640325981E+04  0.24966093757E+04  0.46999998093E+01 0.  1.
       -5    1    3    3    0  502 -0.99050004082E+02 -0.10475599152E+04  0.86792862095E+03  0.13640069136E+04  0.46999998093E+01 0. -1.
</event>
<event>
 5   0  0.1021087E-07  0.3595483E+04  0.7818609E-02  0.8091527E-01
       -2   -1    0    0    0  501  0.00000000000E+00  0.00000000000E+00  0.15906335796E+04  0.15906335796E+04  0.25500000920E-02 0.  1.
        2   -1    0    0  501    0  0.00000000000E+00  0.00000000000E+00 -0.20318153042E+04  0.20318153042E+04  0.25500000920E-02 0. -1.
    10030    2    1    2    0    0  0.00000000000E+00  0.00000000000E+00 -0.44118172464E+03  0.36224488838E+04  0.35954825269E+04 0.  0.
        3    1    3    3  502    0 -0.16141277602E+04 -0.46592334856E+02  0.57545812086E+03  0.17142728286E+04  0.10100000352E+00 0.  1.
       -3    1    3    3    0  502  0.16141277602E+04  0.46592334856E+02 -0.10166398455E+04  0.19081760552E+04  0.10100000352E+00 0. -1.
</event>
<event>
 5   0  0.3202875E-08  0.3584196E+04  0.7818609E-02  0.8094121E-01
        1   -1    0    0  501    0  0.00000000000E+00  0.00000000000E+00  0.15775944877E+04  0.15775944877E+04  0.50400001928E-02 0.  1.
       -1   -1    0    0    0  501  0.00000000000E+00  0.00000000000E+00 -0.20357677846E+04  0.20357677846E+04  0.50400001928E-02 0. -1.
    10030    2    1    2    0    0  0.00000000000E+00  0.00000000000E+00 -0.45817329686E+03  0.36133622723E+04  0.35841964428E+04 0.  0.
        1    1    3    3  502    0 -0.16646278790E+04  0.44961517827E+03 -0.72140074277E+03  0.18691064217E+04  0.50400001928E-02 0. -1.
       -1    1    3    3    0  502  0.16646278790E+04 -0.44961517827E+03  0.26322744592E+03  0.17442558506E+04  0.50400001928E-02 0.  1.
</event>
<event>
 5   0  0.3202875E-08  0.3608942E+04  0.7818609E-02  0.8088447E-01
       -1   -1    0    0    0  501  0.00000000000E+00  0.00000000000E+00  0.16016762128E+04  0.16016762128E+04  0.50400001928E-02 0. -1.
        1   -1    0    0  501    0  0.00000000000E+00  0.00000000000E+00 -0.20329419816E+04  0.20329419816E+04  0.50400001928E-02 0.  1.
    10030    2    1    2    0    0  0.00000000000E+00  0.00000000000E+00 -0.43126576886E+03  0.36346181944E+04  0.36089415700E+04 0.  0.
        1    1    3    3  502    0  0.15689717557E+04  0.63823865071E+03  0.41096235592E+03  0.17429604136E+04  0.50400001928E-02 0. -1.
       -1    1    3    3    0  502 -0.15689717557E+04 -0.63823865071E+03 -0.84222812478E+03  0.18916577808E+04  0.50400001928E-02 0.  1.
</event>
<event>
 5   0  0.3212523E-08  0.3589996E+04  0.7818609E-02  0.8092787E-01
        1   -1    0    0  501    0  0.00000000000E+00  0.00000000000E+00  0.24880912699E+04  0.24880912699E+04  0.50400001928E-02 0.  1.
       -1   -1    0    0    0  501  0.00000000000E+00  0.00000000000E+00 -0.12949755086E+04  0.12949755086E+04  0.50400001928E-02 0. -1.
    10030    2    1    2    0    0  0.00000000000E+00  0.00000000000E+00  0.11931157613E+04  0.37830667785E+04  0.35899956868E+04 0.  0.
        3    1    3    3  502    0 -0.16749531049E+04  0.61887462051E+03  0.78955666782E+03  0.19524019672E+04  0.10100000352E+00 0. -1.
       -3    1    3    3    0  502  0.16749531049E+04 -0.61887462051E+03  0.40355909344E+03  0.18306648114E+04  0.10100000352E+00 0.  1.
</event>
<event>
 5   0  0.9905335E-08  0.3637776E+04  0.7818609E-02  0.8081893E-01
        2   -1    0    0  501    0  0.00000000000E+00  0.00000000000E+00  0.25318783564E+04  0.25318783564E+04  0.25500000920E-02 0.  1.
       -2   -1    0    0    0  501  0.00000000000E+00  0.00000000000E+00 -0.13066794071E+04  0.13066794071E+04  0.25500000920E-02 0. -1.
    10030    2    1    2    0    0  0.00000000000E+00  0.00000000000E+00  0.12251989494E+04  0.38385577635E+04  0.36377758642E+04 0.  0.
        5    1    3    3  502    0 -0.17803798357E+04 -0.17730151211E+03  0.95799293751E+03  0.20295222945E+04  0.46999998093E+01 0.  1.
       -5    1    3    3    0  502  0.17803798357E+04  0.17730151211E+03  0.26720601185E+03  0.18090354690E+04  0.46999998093E+01 0. -1.
</event>
<event>
 5   0  0.1017794E-07  0.3607736E+04  0.7818609E-02  0.8088722E-01
        2   -1    0    0  501    0  0.00000000000E+00  0.00000000000E+00  0.17916189504E+04  0.17916189505E+04  0.25500000920E-02 0. -1.
       -2   -1    0    0    0  501  0.00000000000E+00  0.00000000000E+00 -0.18162003456E+04  0.18162003456E+04  0.25500000920E-02 0.  1.
    10030    2    1    2    0    0  0.00000000000E+00  0.00000000000E+00 -0.24581395181E+02  0.36078192961E+04  0.36077355541E+04 0.  0.
        1    1    3    3  502    0  0.10681593212E+04 -0.18943631219E+03  0.14289535330E+04  0.17940899229E+04  0.50400001928E-02 0. -1.
       -1    1    3    3    0  502 -0.10681593212E+04  0.18943631219E+03 -0.14535349282E+04  0.18137293732E+04  0.50400001928E-02 0.  1.
</event>
<event>
 5   0  0.3279988E-08  0.3595213E+04  0.7818609E-02  0.8091589E-01
        1   -1    0    0  501    0  0.00000000000E+00  0.00000000000E+00  0.17644886116E+04  0.17644886116E+04  0.50400001928E-02 0.  1.
       -1   -1    0    0    0  501  0.00000000000E+00  0.00000000000E+00 -0.18313457469E+04  0.18313457469E+04  0.50400001928E-02 0. -1.
    10030    2    1    2    0    0  0.00000000000E+00  0.00000000000E+00 -0.66857135326E+02  0.35958343585E+04  0.35952127694E+04 0.  0.
        5    1    3    3  502    0 -0.48739722360E+03  0.28667638338E+03  0.16732155406E+04  0.17661856464E+04  0.46999998093E+01 0.  1.
       -5    1    3    3    0  502  0.48739722360E+03 -0.28667638338E+03 -0.17400726759E+04  0.18296487121E+04  0.46999998093E+01 0. -1.
</event>
<event>
 5   0  0.3279988E-08  0.3599580E+04  0.7818609E-02  0.8090588E-01
       -1   -1    0    0    0  501  0.00000000000E+00  0.00000000000E+00  0.15068204483E+04  0.15068204483E+04  0.50400001928E-02 0. -1.
        1   -1    0    0  501    0  0.00000000000E+00  0.00000000000E+00 -0.21497210657E+04  0.21497210657E+04  0.50400001928E-02 0.  1.
    10030    2    1    2    0    0  0.00000000000E+00  0.00000000000E+00 -0.64290061738E+03  0.36565415141E+04  0.35995797866E+04 0.  0.
        5    1    3    3  502    0  0.12651787173E+04 -0.58886336104E+03 -0.14760028707E+04  0.20312665529E+04  0.46999998093E+01 0.  1.
       -5    1    3    3    0  502 -0.12651787173E+04  0.58886336104E+03  0.83310225331E+03  0.16252749611E+04  0.46999998093E+01 0. -1.
</event>
<event>
 5   0  0.1017794E-07  0.3613361E+04  0.7818609E-02  0.8087438E-01
       -2   -1    0    0    0  501  0.00000000000E+00  0.00000000000E+00  0.18395790532E+04  0.18395790532E+04  0.25500000920E-02 0. -1.
        2   -1    0    0  501    0  0.00000000000E+00  0.00000000000E+00 -0.17743700009E+04  0.17743700009E+04  0.25500000920E-02 0.  1.
    10030    2    1    2    0    0  0.00000000000E+00  0.00000000000E+00  0.65209052221E+02  0.36139490541E+04  0.36133606996E+04 0.  0.
        1    1    3    3  502    0 -0.27401647756E+03 -0.14416747350E+04 -0.10214089989E+04  0.17879562116E+04  0.50400001928E-02 0.  1.
       -1    1    3    3    0  502  0.27401647756E+03  0.14416747350E+04  0.10866180512E+04  0.18259928425E+04  0.50400001928E-02 0. -1.
</event>
<event>
 5   0  0.3212523E-08  0.3600881E+04  0.7818609E-02  0.8090290E-01
        1   -1    0    0  501    0  0.00000000000E+00  0.00000000000E+00  0.26484186163E+04  0.26484186163E+04  0.50400001928E-02 0.  1.
       -1   -1    0    0    0  501  0.00000000000E+00  0.00000000000E+00 -0.12239705665E+04  0.12239705665E+04  0.50400001928E-02 0. -1.
    10030    2    1    2    0    0  0.00000000000E+00  0.00000000000E+00  0.14244480498E+04  0.38723891828E+04  0.36008812444E+04 0.  0.
        3    1    3    3  502    0 -0.45036101296E+03 -0.15142596291E+04  0.16409237574E+04  0.22778143151E+04  0.10100000352E+00 0.  1.
       -3    1    3    3    0  502  0.45036101296E+03  0.15142596291E+04 -0.21647570759E+03  0.15945748677E+04  0.10100000352E+00 0. -1.
</event>
<event>
 5   0  0.3202875E-08  0.3603738E+04  0.7818609E-02  0.8089636E-01
        1   -1    0    0  501    0  0.00000000000E+00  0.00000000000E+00  0.11641251752E+04  0.11641251752E+04  0.50400001928E-02 0. -1.
       -1   -1    0    0    0  501  0.00000000000E+00  0.00000000000E+00 -0.27889885588E+04  0.27889885588E+04  0.50400001928E-02 0.  1.
    10030    2    1    2    0    0  0.00000000000E+00  0.00000000000E+00 -0.16248633836E+04  0.39531137340E+04  0.36037379453E+04 0.  0.
        2    1    3    3  502    0  0.10682289010E+03  0.17859652635E+04 -0.57806250359E+03  0.18802232075E+04  0.25500000920E-02 0. -1.
       -2    1    3    3    0  502 -0.10682289010E+03 -0.17859652635E+04 -0.10468008800E+04  0.20728905264E+04  0.25500000920E-02 0.  1.
</event>
<event>
 5   0  0.3215494E-08  0.3602594E+04  0.7818609E-02  0.8089898E-01
        1   -1    0    0  501    0  0.00000000000E+00  0.00000000000E+00  0.10831099888E+04  0.10831099889E+04  0.50400001928E-02 0. -1.
       -1   -1    0    0    0  501  0.00000000000E+00  0.00000000000E+00 -0.29956979664E+04  0.29956979664E+04  0.50400001928E-02 0.  1.
    10030    2    1    2    0    0  0.00000000000E+00  0.00000000000E+00 -0.19125879776E+04  0.40788079553E+04  0.36025937273E+04 0.  0.
        4    1    3    3  502    0 -0.16971550814E+04 -0.60342361521E+03 -0.97283121989E+03  0.20471584269E+04  0.12699999809E+01 0.  1.
       -4    1    3    3    0  502  0.16971550814E+04  0.60342361521E+03 -0.93975675767E+03  0.20316495284E+04  0.12699999809E+01 0. -1.
</event>
<event>
 5   0  0.3215494E-08  0.3603098E+04  0.7818609E-02  0.8089782E-01
        1   -1    0    0  501    0  0.00000000000E+00  0.00000000000E+00  0.18489248982E+04  0.18489248982E+04  0.50400001928E-02 0.  1.
       -1   -1    0    0    0  501  0.00000000000E+00  0.00000000000E+00 -0.17553873539E+04  0.17553873539E+04  0.50400001928E-02 0. -1.
    10030    2    1    2    0    0  0.00000000000E+00  0.00000000000E+00  0.93537544273E+02  0.36043122521E+04  0.36030983248E+04 0.  0.
        4    1    3    3  502    0 -0.92452912818E+03 -0.14004784202E+04 -0.60880220244E+03  0.17851430332E+04  0.12699999809E+01 0.  1.
       -4    1    3    3    0  502  0.92452912818E+03  0.14004784202E+04  0.70233974672E+03  0.18191692189E+04  0.12699999809E+01 0. -1.
</event>
<event>
 5   0  0.3202875E-08  0.3615868E+04  0.7818609E-02  0.8086867E-01
       -1   -1    0    0    0  501  0.00000000000E+00  0.00000000000E+00  0.26650031207E+04  0.26650031207E+04  0.50400001928E-02 0.  1.
        1   -1    0    0  501    0  0.00000000000E+00  0.00000000000E+00 -0.12264996012E+04  0.12264996012E+04  0.50400001928E-02 0. -1.
    10030    2    1    2    0    0  0.00000000000E+00  0.00000000000E+00  0.14385035194E+04  0.38915027219E+04  0.36158679538E+04 0.  0.
        1    1    3    3  502    0 -0.48486810163E+03  0.20571181313E+03 -0.11420992927E+04  0.12576983822E+04  0.50400001928E-02 0. -1.
       -1    1    3    3    0  502  0.48486810163E+03 -0.20571181313E+03  0.25806028122E+04  0.26338043398E+04  0.50400001928E-02 0.  1.
</event>
<event>
 5   0  0.3212523E-08  0.3603678E+04  0.7818609E-02  0.8089650E-01
        1   -1    0    0  501    0  0.00000000000E+00  0.00000000000E+00  0.11940834294E+04  0.11940834294E+04  0.50400001928E-02 0.  1.
       -1   -1    0    0    0  501  0.00000000000E+00  0.00000000000E+00 -0.27189247050E+04  0.27189247050E+04  0.50400001928E-02 0. -1.
    10030    2    1    2    0    0  0.00000000000E+00  0.00000000000E+00 -0.15248412756E+04  0.39130081344E+04  0.36036775306E+04 0.  0.
        3    1    3    3  502    0  0.71885870266E+03 -0.10771648933E+03  0.10278162674E+04  0.12588752782E+04  0.10100000352E+00 0.  1.
       -3    1    3    3    0  502 -0.71885870266E+03  0.10771648933E+03 -0.25526575430E+04  0.26541328562E+04  0.10100000352E+00 0. -1.
</event>
<event>
 5   0  0.3215494E-08  0.3599638E+04  0.7818609E-02  0.8090575E-01
        1   -1    0    0  501    0  0.00000000000E+00  0.00000000000E+00  0.17107954726E+04  0.17107954726E+04  0.50400001928E-02 0.  1.
       -1   -1    0    0    0  501  0.00000000000E+00  0.00000000000E+00 -0.18934752013E+04  0.18934752013E+04  0.50400001928E-02 0. -1.
    10030    2    1    2    0    0  0.00000000000E+00  0.00000000000E+00 -0.18267972873E+03  0.36042706739E+04  0.35996382051E+04 0.  0.
        4    1    3    3  502    0  0.11179396245E+04 -0.51500967457E+03  0.12234849261E+04  0.17354944385E+04  0.12699999809E+01 0.  1.
       -4    1    3    3    0  502 -0.11179396245E+04  0.51500967457E+03 -0.14061646548E+04  0.18687762354E+04  0.12699999809E+01 0. -1.
</event>
<event>
 5   0  0.9905335E-08  0.3622558E+04  0.7818609E-02  0.8085344E-01
        2   -1    0    0  501    0  0.00000000000E+00  0.00000000000E+00  0.16870165330E+04  0.16870165330E+04  0.25500000920E-02 0. -1.
       -2   -1    0    0    0  501  0.00000000000E+00  0.00000000000E+00 -0.19446945309E+04  0.19446945309E+04  0.25500000920E-02 0.  1.
    10030    2    1    2    0    0  0.00000000000E+00  0.00000000000E+00 -0.25767799794E+03  0.36317110639E+04  0.36225581156E+04 0.  0.
        5    1    3    3  502    0  0.19195671111E+03  0.81678557296E+03 -0.17381124712E+04  0.19300370731E+04  0.46999998093E+01 0.  1.
       -5    1    3    3    0  502 -0.19195671111E+03 -0.81678557296E+03  0.14804344733E+04  0.17016739907E+04  0.46999998093E+01 0. -1.
</event>
<event>
 5   0  0.3202875E-08  0.3601521E+04  0.7818609E-02  0.8090143E-01
        1   -1    0    0  501    0  0.00000000000E+00  0.00000000000E+00  0.23683582325E+04  0.23683582325E+04  0.50400001928E-02 0.  1.
       -1   -1    0    0    0  501  0.00000000000E+00  0.00000000000E+00 -0.13691925618E+04  0.13691925618E+04  0.50400001928E-02 0. -1.
    10030    2    1    2    0    0  0.00000000000E+00  0.00000000000E+00  0.99916567072E+03  0.37375507942E+04  0.36015210539E+04 0.  0.
        2    1    3    3  502    0  0.15144028064E+04 -0.89285761868E+03  0.90435026969E+03  0.19769825486E+04  0.25500000920E-02 0. -1.
       -2    1    3    3    0  502 -0.15144028064E+04  0.89285761868E+03  0.94815401029E+02  0.17605682456E+04  0.25500000920E-02 0.  1.
</event>
<event>
 5   0  0.3212523E-08  0.3597349E+04  0.7818609E-02  0.8091099E-01
        1   -1    0    0  501    0  0.00000000000E+00  0.00000000000E+00  0.13386531044E+04  0.13386531044E+04  0.50400001928E-02 0.  1.
       -1   -1    0    0    0  501  0.00000000000E+00  0.00000000000E+00 -0.24167800021E+04  0.24167800021E+04  0.50400001928E-02 0. -1.
    10030    2    1    2    0    0  0.00000000000E+00  0.00000000000E+00 -0.10781268977E+04  0.37554331066E+04  0.35973490532E+04 0.  0.
        3    1    3    3  502    0  0.93017836398E+03  0.15111509100E+04 -0.84595684885E+03  0.19658209130E+04  0.10100000352E+00 0.  1.
       -3    1    3    3    0  502 -0.93017836398E+03 -0.15111509100E+04 -0.23217004886E+03  0.17896121936E+04  0.10100000352E+00 0. -1.
</event>
<event>
 5   0  0.3202875E-08  0.3656643E+04  0.7818609E-02  0.8077639E-01
        1   -1    0    0  501    0  0.00000000000E+00  0.00000000000E+00  0.14307512497E+04  0.14307512497E+04  0.50400001928E-02 0.  1.
       -1   -1    0    0    0  501  0.00000000000E+00  0.00000000000E+00 -0.23363660400E+04  0.23363660400E+04  0.50400001928E-02 0. -1.
    10030    2    1    2    0    0  0.00000000000E+00  0.00000000000E+00 -0.90561479031E+03  0.37671172898E+04  0.36566425210E+04 0.  0.
        2    1    3    3  502    0 -0.38766551604E+03 -0.11079989957E+03  0.13843809447E+04  0.14418986685E+04  0.25500000920E-02 0.  1.
       -2    1    3    3    0  502  0.38766551604E+03  0.11079989957E+03 -0.22899957350E+04  0.23252186213E+04  0.25500000920E-02 0. -1.
</event>
<event>
 5   0  0.1017794E-07  0.3619983E+04  0.7818609E-02  0.8085930E-01
       -2   -1    0    0    0  501  0.00000000000E+00  0.00000000000E+00  0.20054846122E+04  0.20054846122E+04  0.25500000920E-02 0. -1.
        2   -1    0    0  501    0  0.00000000000E+00  0.00000000000E+00 -0.16335546141E+04  0.16335546141E+04  0.25500000920E-02 0.  1.
    10030    2    1    2    0    0  0.00000000000E+00  0.00000000000E+00  0.37192999815E+03  0.36390392263E+04  0.36199826749E+04 0.  0.
        1    1    3    3  502    0  0.80083223921E+03  0.64393439477E+03  0.16838036485E+04  0.19726070330E+04  0.50400001928E-02 0. -1.
       -1    1    3    3    0  502 -0.80083223921E+03 -0.64393439477E+03 -0.13118736503E+04  0.16664321932E+04  0.50400001928E-02 0.  1.
</event>
<event>
 5   0  0.3202875E-08  0.3599260E+04  0.7818609E-02  0.8090661E-01
       -1   -1    0    0    0  501  0.00000000000E+00  0.00000000000E+00  0.30425431893E+04  0.30425431893E+04  0.50400001928E-02 0. -1.
        1   -1    0    0  501    0  0.00000000000E+00  0.00000000000E+00 -0.10644606659E+04  0.10644606659E+04  0.50400001928E-02 0.  1.
    10030    2    1    2    0    0  0.00000000000E+00  0.00000000000E+00  0.19780825234E+04  0.41070038552E+04  0.35992596735E+04 0.  0.
        1    1    3    3  502    0  0.68545064499E+03  0.85545982905E+03 -0.63953791511E+03  0.12691189269E+04  0.50400001928E-02 0.  1.
       -1    1    3    3    0  502 -0.68545064499E+03 -0.85545982905E+03  0.26176204385E+04  0.28378849283E+04  0.50400001928E-02 0. -1.
</event>
<event>
 5   0  0.1044678E-07  0.3601183E+04  0.7818609E-02  0.8090221E-01
       -2   -1    0    0    0  501  0.00000000000E+00  0.00000000000E+00  0.24227828639E+04  0.24227828639E+04  0.25500000920E-02 0. -1.
        2   -1    0    0  501    0  0.00000000000E+00  0.00000000000E+00 -0.13381838918E+04  0.13381838918E+04  0.25500000920E-02 0.  1.
    10030    2    1    2    0    0  0.00000000000E+00  0.00000000000E+00  0.10845989720E+04  0.37609667557E+04  0.36011825846E+04 0.  0.
        2    1    3    3  502    0 -0.33837880190E+03 -0.39031585768E+03 -0.12591348824E+04  0.13609802843E+04  0.25500000920E-02 0.  1.
       -2    1    3    3    0  502  0.33837880190E+03  0.39031585768E+03  0.23437338544E+04  0.23999864714E+04  0.25500000920E-02 0. -1.
</event>
<event>
 5   0  0.3202875E-08  0.3597183E+04  0.7818609E-02  0.8091137E-01
       -3   -1    0    0    0  501  0.00000000000E+00  0.00000000000E+00  0.17516638892E+04  0.17516638921E+04  0.10100000352E+00 0.  1.
        3   -1    0    0  501    0  0.00000000000E+00  0.00000000000E+00 -0.18467762885E+04  0.18467762912E+04  0.10100000352E+00 0. -1.
    10030    2    1    2    0    0  0.00000000000E+00  0.00000000000E+00 -0.95112399308E+02  0.35984401833E+04  0.35971829790E+04 0.  0.
        5    1    3    3  502    0  0.89968481924E+03 -0.30573518580E+03  0.14800670584E+04  0.17588426209E+04  0.46999998093E+01 0.  1.
       -5    1    3    3    0  502 -0.89968481924E+03  0.30573518580E+03 -0.15751794577E+04  0.18395975624E+04  0.46999998093E+01 0. -1.
</event>
<event>
 5   0  0.3202875E-08  0.3600881E+04  0.7818609E-02  0.8090290E-01
       -1   -1    0    0    0  501  0.00000000000E+00  0.00000000000E+00  0.13163387396E+04  0.13163387397E+04  0.50400001928E-02 0. -1.
        1   -1    0    0  501    0  0.00000000000E+00  0.00000000000E+00 -0.24625778446E+04  0.24625778446E+04  0.50400001928E-02 0.  1.
    10030    2    1    2    0    0  0.00000000000E+00  0.00000000000E+00 -0.11462391050E+04  0.37789165843E+04  0.36008813456E+04 0.  0.
        1    1    3    3  502    0 -0.16525285130E+04  0.56263187628E+03 -0.11067206713E+03  0.17491865026E+04  0.50400001928E-02 0. -1.
       -1    1    3    3    0  502  0.16525285130E+04 -0.56263187628E+03 -0.10355670378E+04  0.20297300817E+04  0.50400001928E-02 0.  1.
</event>
<event>
 5   0  0.3212523E-08  0.3610718E+04  0.7818609E-02  0.8088041E-01
        1   -1    0    0  501    0  0.00000000000E+00  0.00000000000E+00  0.14010274487E+04  0.14010274487E+04  0.50400001928E-02 0.  1.
       -1   -1    0    0    0  501  0.00000000000E+00  0.00000000000E+00 -0.23263791603E+04  0.23263791603E+04  0.50400001928E-02 0. -1.
    10030    2    1    2    0    0  0.00000000000E+00  0.00000000000E+00 -0.92535171159E+03  0.37274066091E+04  0.36107179673E+04 0.  0.
        3    1    3    3  502    0 -0.65419899949E+03 -0.16652314993E+04 -0.71203716316E+03  0.19256087892E+04  0.10100000352E+00 0.  1.
       -3    1    3    3    0  502  0.65419899949E+03  0.16652314993E+04 -0.21331454844E+03  0.18017978199E+04  0.10100000352E+00 0. -1.
</event>
<event>
 5   0  0.1021087E-07  0.3600071E+04  0.7818609E-02  0.8090475E-01
        2   -1    0    0  501    0  0.00000000000E+00  0.00000000000E+00  0.23470178177E+04  0.23470178177E+04  0.25500000920E-02 0. -1.
       -2   -1    0    0    0  501  0.00000000000E+00  0.00000000000E+00 -0.13805297131E+04  0.13805297131E+04  0.25500000920E-02 0.  1.
    10030    2    1    2    0    0  0.00000000000E+00  0.00000000000E+00  0.96648810461E+03  0.37275475308E+04  0.36000710185E+04 0.  0.
        3    1    3    3  502    0 -0.25229416070E+03  0.15418975008E+04  0.14087793924E+04  0.21037489472E+04  0.10100000352E+00 0. -1.
       -3    1    3    3    0  502  0.25229416070E+03 -0.15418975008E+04 -0.44229128774E+03  0.16237985836E+04  0.10100000352E+00 0.  1.
</event>
<event>
 5   0  0.1029908E-07  0.3548554E+04  0.7818609E-02  0.8102379E-01
        2   -1    0    0  501    0  0.00000000000E+00  0.00000000000E+00  0.14502729775E+04  0.14502729775E+04  0.25500000920E-02 0. -1.
       -2   -1    0    0    0  501  0.00000000000E+00  0.00000000000E+00 -0.21706668192E+04  0.21706668192E+04  0.25500000920E-02 0.  1.
    10030    2    1    2    0    0  0.00000000000E+00  0.00000000000E+00 -0.72039384163E+03  0.36209397967E+04  0.35485543147E+04 0.  0.
        4    1    3    3  502    0  0.15188294838E+04  0.41400672648E+03 -0.11953127460E+04  0.19766180067E+04  0.12699999809E+01 0. -1.
       -4    1    3    3    0  502 -0.15188294838E+04 -0.41400672648E+03  0.47491890441E+03  0.16443217900E+04  0.12699999809E+01 0.  1.
</event>
<event>
 5   0  0.3202875E-08  0.3596950E+04  0.7818609E-02  0.8091191E-01
        1   -1    0    0  501    0  0.00000000000E+00  0.00000000000E+00  0.18093101911E+04  0.18093101911E+04  0.50400001928E-02 0. -1.
       -1   -1    0    0    0  501  0.00000000000E+00  0.00000000000E+00 -0.17877050697E+04  0.17877050697E+04  0.50400001928E-02 0.  1.
    10030    2    1    2    0    0  0.00000000000E+00  0.00000000000E+00  0.21605121442E+02  0.35970152608E+04  0.35969503756E+04 0.  0.
        1    1    3    3  502    0 -0.10700617238E+04  0.73032337760E+03  0.12582659125E+04  0.18060003974E+04  0.50400001928E-02 0. -1.
       -1    1    3    3    0  502  0.10700617238E+04 -0.73032337760E+03 -0.12366607911E+04  0.17910148634E+04  0.50400001928E-02 0.  1.
</event>
<event>
 5   0  0.3279988E-08  0.3586786E+04  0.7818609E-02  0.8093525E-01
       -1   -1    0    0    0  501  0.00000000000E+00  0.00000000000E+00  0.12235875451E+04  0.12235875451E+04  0.50400001928E-02 0.  1.
        1   -1    0    0  501    0  0.00000000000E+00  0.00000000000E+00 -0.26285476393E+04  0.26285476393E+04  0.50400001928E-02 0. -1.
    10030    2    1    2    0    0  0.00000000000E+00  0.00000000000E+00 -0.14049600942E+04  0.38521351844E+04  0.35867858332E+04 0.  0.
        5    1    3    3  502    0 -0.79397103269E+03  0.15972387509E+04 -0.50249350491E+03  0.18531280152E+04  0.46999998093E+01 0.  1.
       -5    1    3    3    0  502  0.79397103269E+03 -0.15972387509E+04 -0.90246658928E+03  0.19990071693E+04  0.46999998093E+01 0. -1.
</event>
<event>
 5   0  0.1021087E-07  0.3596398E+04  0.7818609E-02  0.8091317E-01
        2   -1    0    0  501    0  0.00000000000E+00  0.00000000000E+00  0.28852899907E+04  0.28852899907E+04  0.25500000920E-02 0.  1.
       -2   -1    0    0    0  501  0.00000000000E+00  0.00000000000E+00 -0.11206912016E+04  0.11206912016E+04  0.25500000920E-02 0. -1.
    10030    2    1    2    0    0  0.00000000000E+00  0.00000000000E+00  0.17645987891E+04  0.40059811923E+04  0.35963977014E+04 0.  0.
        3    1    3    3  502    0 -0.90179287413E+03 -0.14067636505E+03 -0.84350649764E+03  0.12427885779E+04  0.10100000352E+00 0. -1.
       -3    1    3    3    0  502  0.90179287413E+03  0.14067636505E+03  0.26081052867E+04  0.27631926144E+04  0.10100000352E+00 0.  1.
</event>
<event>
 5   0  0.3215494E-08  0.3600396E+04  0.7818609E-02  0.8090401E-01
       -1   -1    0    0    0  501  0.00000000000E+00  0.00000000000E+00  0.16578940755E+04  0.16578940755E+04  0.50400001928E-02 0. -1.
        1   -1    0    0  501    0  0.00000000000E+00  0.00000000000E+00 -0.19547164538E+04  0.19547164538E+04  0.50400001928E-02 0.  1.
    10030    2    1    2    0    0  0.00000000000E+00  0.00000000000E+00 -0.29682237831E+03  0.36126105293E+04  0.36003959938E+04 0.  0.
        4    1    3    3  502    0  0.15284298930E+03  0.17860019162E+04 -0.31494833256E+03  0.18199884310E+04  0.12699999809E+01 0.  1.
       -4    1    3    3    0  502 -0.15284298930E+03 -0.17860019162E+04  0.18125954244E+02  0.17926220982E+04  0.12699999809E+01 0. -1.
</event>
<event>
 5   0  0.1021087E-07  0.3603170E+04  0.7818609E-02  0.8089766E-01
       -2   -1    0    0    0  501  0.00000000000E+00  0.00000000000E+00  0.96310839733E+03  0.96310839733E+03  0.25500000920E-02 0. -1.
        2   -1    0    0  501    0  0.00000000000E+00  0.00000000000E+00 -0.33700350710E+04  0.33700350710E+04  0.25500000920E-02 0.  1.
    10030    2    1    2    0    0  0.00000000000E+00  0.00000000000E+00 -0.24069266737E+04  0.43331434683E+04  0.36031703130E+04 0.  0.
        3    1    3    3  502    0 -0.19826914130E+03  0.12709044414E+04  0.31351963510E+03  0.13239347882E+04  0.10100000352E+00 0. -1.
       -3    1    3    3    0  502  0.19826914130E+03 -0.12709044414E+04 -0.27204463088E+04  0.30092086801E+04  0.10100000352E+00 0.  1.
</event>
<event>
 5   0  0.3202875E-08  0.3603202E+04  0.7818609E-02  0.8089759E-01
       -3   -1    0    0    0  501  0.00000000000E+00  0.00000000000E+00  0.12260861380E+04  0.12260861422E+04  0.10100000352E+00 0. -1.
        3   -1    0    0  501    0  0.00000000000E+00  0.00000000000E+00 -0.26472585148E+04  0.26472585167E+04  0.10100000352E+00 0.  1.
    10030    2    1    2    0    0  0.00000000000E+00  0.00000000000E+00 -0.14211723768E+04  0.38733446589E+04  0.36032024537E+04 0.  0.
        3    1    3    3  502    0  0.65866044368E+03  0.10182757235E+04 -0.21427824053E+04  0.24621607331E+04  0.10100000352E+00 0.  1.
       -3    1    3    3    0  502 -0.65866044368E+03 -0.10182757235E+04  0.72161002847E+03  0.14111839258E+04  0.10100000352E+00 0. -1.
</event>
<event>
 5   0  0.3202875E-08  0.3594684E+04  0.7818609E-02  0.8091711E-01
        1   -1    0    0  501    0  0.00000000000E+00  0.00000000000E+00  0.11971417069E+04  0.11971417069E+04  0.50400001928E-02 0.  1.
       -1   -1    0    0    0  501  0.00000000000E+00  0.00000000000E+00 -0.26984588400E+04  0.26984588400E+04  0.50400001928E-02 0. -1.
    10030    2    1    2    0    0  0.00000000000E+00  0.00000000000E+00 -0.15013171331E+04  0.38956005469E+04  0.35946836421E+04 0.  0.
        2    1    3    3  502    0  0.83131101011E+03  0.15611841023E+04 -0.10968765818E+04  0.20812284912E+04  0.25500000920E-02 0.  1.
       -2    1    3    3    0  502 -0.83131101011E+03 -0.15611841023E+04 -0.40444055124E+03  0.18143720556E+04  0.25500000920E-02 0. -1.
</event>
<event>
 5   0  0.9905335E-08  0.3596216E+04  0.7818609E-02  0.8091359E-01
       -2   -1    0    0    0  501  0.00000000000E+00  0.00000000000E+00  0.16762197805E+04  0.16762197805E+04  0.25500000920E-02 0. -1.
        2   -1    0    0  501    0  0.00000000000E+00  0.00000000000E+00 -0.19288595117E+04  0.19288595117E+04  0.25500000920E-02 0.  1.
    10030    2    1    2    0    0  0.00000000000E+00  0.00000000000E+00 -0.25263973120E+03  0.36050792922E+04  0.35962160488E+04 0.  0.
        5    1    3    3  502    0 -0.23346923762E+03 -0.17284116328E+04  0.31208590586E+03  0.17718166835E+04  0.46999998093E+01 0. -1.
       -5    1    3    3    0  502  0.23346923762E+03  0.17284116328E+04 -0.56472563707E+03  0.18332626087E+04  0.46999998093E+01 0.  1.
</event>
<event>
 5   0  0.3202875E-08  0.3603278E+04  0.7818609E-02  0.8089741E-01
        1   -1    0    0  501    0  0.00000000000E+00  0.00000000000E+00  0.18340220964E+04  0.18340220964E+04  0.50400001928E-02 0.  1.
       -1   -1    0    0    0  501  0.00000000000E+00  0.00000000000E+00 -0.17698279973E+04  0.17698279973E+04  0.50400001928E-02 0. -1.
    10030    2    1    2    0    0  0.00000000000E+00  0.00000000000E+00  0.64194099068E+02  0.36038500937E+04  0.36032783150E+04 0.  0.
        1    1    3    3  502    0 -0.37606423047E+03 -0.69647190303E+03  0.16508118523E+04  0.18307586375E+04  0.50400001928E-02 0.  1.
       -1    1    3    3    0  502  0.37606423047E+03  0.69647190303E+03 -0.15866177532E+04  0.17730914562E+04  0.50400001928E-02 0. -1.
</event>
<event>
 5   0  0.3202875E-08  0.3608570E+04  0.7818609E-02  0.8088531E-01
        1   -1    0    0  501    0  0.00000000000E+00  0.00000000000E+00  0.27295277210E+04  0.27295277210E+04  0.50400001928E-02 0. -1.
       -1   -1    0    0    0  501  0.00000000000E+00  0.00000000000E+00 -0.11926768930E+04  0.11926768930E+04  0.50400001928E-02 0.  1.
    10030    2    1    2    0    0  0.00000000000E+00  0.00000000000E+00  0.15368508280E+04  0.39222046141E+04  0.36085701555E+04 0.  0.
        1    1    3    3  502    0 -0.60365068482E+03  0.16999934173E+04  0.73282382488E+03  0.19471524148E+04  0.50400001928E-02 0. -1.
       -1    1    3    3    0  502  0.60365068482E+03 -0.16999934173E+04  0.80402700311E+03  0.19750521993E+04  0.50400001928E-02 0.  1.
</event>
<event>
 5   0  0.9905335E-08  0.3597005E+04  0.7818609E-02  0.8091178E-01
        2   -1    0    0  501    0  0.00000000000E+00  0.00000000000E+00  0.19208197473E+04  0.19208197473E+04  0.25500000920E-02 0. -1.
       -2   -1    0    0    0  501  0.00000000000E+00  0.00000000000E+00 -0.16839745155E+04  0.16839745155E+04  0.25500000920E-02 0.  1.
    10030    2    1    2    0    0  0.00000000000E+00  0.00000000000E+00  0.23684523182E+03  0.36047942628E+04  0.35970051450E+04 0.  0.
        5    1    3    3  502    0  0.12427775396E+04 -0.15654508933E+02 -0.11843340033E+04  0.17168023177E+04  0.46999998093E+01 0.  1.
       -5    1    3    3    0  502 -0.12427775396E+04  0.15654508933E+02  0.14211792352E+04  0.18879919452E+04  0.46999998093E+01 0. -1.
</event>
<event>
 5   0  0.3215494E-08  0.3596515E+04  0.7818609E-02  0.8091290E-01
       -1   -1    0    0    0  501  0.00000000000E+00  0.00000000000E+00  0.18366789105E+04  0.18366789105E+04  0.50400001928E-02 0.  1.
        1   -1    0    0  501    0  0.00000000000E+00  0.00000000000E+00 -0.17606396565E+04  0.17606396565E+04  0.50400001928E-02 0. -1.
    10030    2    1    2    0    0  0.00000000000E+00  0.00000000000E+00  0.76039253976E+02  0.35973185670E+04  0.35965148275E+04 0.  0.
        4    1    3    3  502    0 -0.33772751524E+03 -0.93509859962E+03  0.15367732721E+04  0.18303395773E+04  0.12699999809E+01 0.  1.
       -4    1    3    3    0  502  0.33772751524E+03  0.93509859962E+03 -0.14607340181E+04  0.17669789897E+04  0.12699999809E+01 0. -1.
</event>
<event>
 5   0  0.3202875E-08  0.3603687E+04  0.7818609E-02  0.8089648E-01
        1   -1    0    0  501    0  0.00000000000E+00  0.00000000000E+00  0.20536452975E+04  0.20536452975E+04  0.50400001928E-02 0.  1.
       -1   -1    0    0    0  501  0.00000000000E+00  0.00000000000E+00 -0.15809159357E+04  0.15809159357E+04  0.50400001928E-02 0. -1.
    10030    2    1    2    0    0  0.00000000000E+00  0.00000000000E+00  0.47272936176E+03  0.36345612332E+04  0.36036873211E+04 0.  0.
        1    1    3    3  502    0  0.78141423021E+03 -0.14173622595E+04 -0.56232677365E+03  0.17133987785E+04  0.50400001928E-02 0. -1.
       -1    1    3    3    0  502 -0.78141423021E+03  0.14173622595E+04  0.10350561354E+04  0.19211624547E+04  0.50400001928E-02 0.  1.
</event>
<event>
 5   0  0.9905335E-08  0.3601937E+04  0.7818609E-02  0.8090048E-01
        2   -1    0    0  501    0  0.00000000000E+00  0.00000000000E+00  0.16717354492E+04  0.16717354492E+04  0.25500000920E-02 0.  1.
       -2   -1    0    0    0  501  0.00000000000E+00  0.00000000000E+00 -0.19401923646E+04  0.19401923646E+04  0.25500000920E-02 0. -1.
    10030    2    1    2    0    0  0.00000000000E+00  0.00000000000E+00 -0.26845691548E+03  0.36119278138E+04  0.36019374532E+04 0.  0.
        5    1    3    3  502    0 -0.17882837386E+04  0.67247458578E+02 -0.33723826866E+03  0.18210526325E+04  0.46999998093E+01 0.  1.
       -5    1    3    3    0  502  0.17882837386E+04 -0.67247458578E+02  0.68781353173E+02  0.17908751813E+04  0.46999998093E+01 0. -1.
</event>
<event>
 5   0  0.3279988E-08  0.3605133E+04  0.7818609E-02  0.8089317E-01
        1   -1    0    0  501    0  0.00000000000E+00  0.00000000000E+00  0.13982291548E+04  0.13982291548E+04  0.50400001928E-02 0. -1.
       -1   -1    0    0    0  501  0.00000000000E+00  0.00000000000E+00 -0.23238292740E+04  0.23238292740E+04  0.50400001928E-02 0.  1.
    10030    2    1    2    0    0  0.00000000000E+00  0.00000000000E+00 -0.92560011923E+03  0.37220584288E+04  0.36051329194E+04 0.  0.
        5    1    3    3  502    0  0.33554653557E+03  0.17548258294E+04 -0.21583787866E+03  0.17996147502E+04  0.46999998093E+01 0. -1.
       -5    1    3    3    0  502 -0.33554653557E+03 -0.17548258294E+04 -0.70976224057E+03  0.19224436786E+04  0.46999998093E+01 0.  1.
</event>
<event>
 5   0  0.1021087E-07  0.3598367E+04  0.7818609E-02  0.8090866E-01
        2   -1    0    0  501    0  0.00000000000E+00  0.00000000000E+00  0.26572735760E+04  0.26572735760E+04  0.25500000920E-02 0. -1.
       -2   -1    0    0    0  501  0.00000000000E+00  0.00000000000E+00 -0.12181889718E+04  0.12181889718E+04  0.25500000920E-02 0.  1.
    10030    2    1    2    0    0  0.00000000000E+00  0.00000000000E+00  0.14390846042E+04  0.38754625478E+04  0.35983670548E+04 0.  0.
        3    1    3    3  502    0 -0.10032782965E+04  0.51310813810E+03  0.22301228626E+04  0.24986586990E+04  0.10100000352E+00 0. -1.
       -3    1    3    3    0  502  0.10032782965E+04 -0.51310813810E+03 -0.79103825839E+03  0.13768038488E+04  0.10100000352E+00 0.  1.
</event>
<event>
 5   0  0.3202875E-08  0.3600076E+04  0.7818609E-02  0.8090474E-01
       -1   -1    0    0    0  501  0.00000000000E+00  0.00000000000E+00  0.11752347910E+04  0.11752347910E+04  0.50400001928E-02 0.  1.
        1   -1    0    0  501    0  0.00000000000E+00  0.00000000000E+00 -0.27570126410E+04  0.27570126410E+04  0.50400001928E-02 0. -1.
    10030    2    1    2    0    0  0.00000000000E+00  0.00000000000E+00 -0.15817778500E+04  0.39322474320E+04  0.36000762075E+04 0.  0.
        2    1    3    3  502    0 -0.24879014611E+03 -0.15257541343E+04 -0.17980966620E+04  0.23712810507E+04  0.25500000920E-02 0. -1.
       -2    1    3    3    0  502  0.24879014611E+03  0.15257541343E+04  0.21631881203E+03  0.15609663814E+04  0.25500000920E-02 0.  1.
</event>
<event>
 5   0  0.3215494E-08  0.3595830E+04  0.7818609E-02  0.8091448E-01
       -1   -1    0    0    0  501  0.00000000000E+00  0.00000000000E+00  0.11372794152E+04  0.11372794152E+04  0.50400001928E-02 0.  1.
        1   -1    0    0  501    0  0.00000000000E+00  0.00000000000E+00 -0.28423072000E+04  0.28423072000E+04  0.50400001928E-02 0. -1.
    10030    2    1    2    0    0  0.00000000000E+00  0.00000000000E+00 -0.17050277848E+04  0.39795866153E+04  0.35958295123E+04 0.  0.
        4    1    3    3  502    0 -0.14398954178E+04  0.39610684398E+02  0.33824377668E+03  0.14796209940E+04  0.12699999809E+01 0.  1.
       -4    1    3    3    0  502  0.14398954178E+04 -0.39610684398E+02 -0.20432715614E+04  0.24999656212E+04  0.12699999809E+01 0. -1.
</event>
<event>
 5   0  0.3202875E-08  0.3608274E+04  0.7818609E-02  0.8088599E-01
        1   -1    0    0  501    0  0.00000000000E+00  0.00000000000E+00  0.14554799427E+04  0.14554799427E+04  0.50400001928E-02 0. -1.
       -1   -1    0    0    0  501  0.00000000000E+00  0.00000000000E+00 -0.22363140843E+04  0.22363140843E+04  0.50400001928E-02 0.  1.
    10030    2    1    2    0    0  0.00000000000E+00  0.00000000000E+00 -0.78083414160E+03  0.36917940270E+04  0.36082739892E+04 0.  0.
        1    1    3    3  502    0 -0.10940713767E+04 -0.14165676511E+04 -0.15878285120E+03  0.17969051397E+04  0.50400001928E-02 0. -1.
       -1    1    3    3    0  502  0.10940713767E+04  0.14165676511E+04 -0.62205129040E+03  0.18948888873E+04  0.50400001928E-02 0.  1.
</event>
<event>
 5   0  0.3215494E-08  0.3601389E+04  0.7818609E-02  0.8090174E-01
        1   -1    0    0  501    0  0.00000000000E+00  0.00000000000E+00  0.14615315149E+04  0.14615315149E+04  0.50400001928E-02 0. -1.
       -1   -1    0    0    0  501  0.00000000000E+00  0.00000000000E+00 -0.22185633320E+04  0.22185633320E+04  0.50400001928E-02 0.  1.
    10030    2    1    2    0    0  0.00000000000E+00  0.00000000000E+00 -0.75703181712E+03  0.36800948469E+04  0.36013887474E+04 0.  0.
        4    1    3    3  502    0 -0.58999499295E+03  0.31144462782E+03  0.13305815136E+04  0.14884692221E+04  0.12699999809E+01 0. -1.
       -4    1    3    3    0  502  0.58999499295E+03 -0.31144462782E+03 -0.20876133307E+04  0.21916256248E+04  0.12699999809E+01 0.  1.
</event>
<event>
 5   0  0.1044678E-07  0.3599442E+04  0.7818609E-02  0.8090620E-01
        2   -1    0    0  501    0  0.00000000000E+00  0.00000000000E+00  0.17500313370E+04  0.17500313370E+04  0.25500000920E-02 0.  1.
       -2   -1    0    0    0  501  0.00000000000E+00  0.00000000000E+00 -0.18508211470E+04  0.18508211470E+04  0.25500000920E-02 0. -1.
    10030    2    1    2    0    0  0.00000000000E+00  0.00000000000E+00 -0.10078981002E+03  0.36008524840E+04  0.35994416270E+04 0.  0.
        2    1    3    3  502    0  0.35712923657E+02 -0.98794336554E+03  0.14540853556E+04  0.17583150252E+04  0.25500000920E-02 0.  1.
       -2    1    3    3    0  502 -0.35712923657E+02  0.98794336554E+03 -0.15548751656E+04  0.18425374588E+04  0.25500000920E-02 0. -1.
</event>
<event>
 5   0  0.1017794E-07  0.3604662E+04  0.7818609E-02  0.8089425E-01
       -2   -1    0    0    0  501  0.00000000000E+00  0.00000000000E+00  0.22928577451E+04  0.22928577451E+04  0.25500000920E-02 0.  1.
        2   -1    0    0  501    0  0.00000000000E+00  0.00000000000E+00 -0.14167460129E+04  0.14167460129E+04  0.25500000920E-02 0. -1.
    10030    2    1    2    0    0  0.00000000000E+00  0.00000000000E+00  0.87611173220E+03  0.37096037580E+04  0.36046620194E+04 0.  0.
        1    1    3    3  502    0  0.16262032450E+03  0.12935142717E+04 -0.84267179776E+03  0.15523273817E+04  0.50400001928E-02 0. -1.
       -1    1    3    3    0  502 -0.16262032450E+03 -0.12935142717E+04  0.17187835300E+04  0.21572763764E+04  0.50400001928E-02 0.  1.
</event>
<event>
 5   0  0.1021087E-07  0.3601142E+04  0.7818609E-02  0.8090230E-01
       -2   -1    0    0    0  501  0.00000000000E+00  0.00000000000E+00  0.14730643466E+04  0.14730643466E+04  0.25500000920E-02 0. -1.
        2   -1    0    0  501    0  0.00000000000E+00  0.00000000000E+00 -0.22008928014E+04  0.22008928014E+04  0.25500000920E-02 0.  1.
    10030    2    1    2    0    0  0.00000000000E+00  0.00000000000E+00 -0.72782845484E+03  0.36739571480E+04  0.36011424389E+04 0.  0.
        3    1    3    3  502    0  0.15786203869E+04 -0.58539596922E+03 -0.10150399026E+04  0.19659696795E+04  0.10100000352E+00 0.  1.
       -3    1    3    3    0  502 -0.15786203869E+04  0.58539596922E+03  0.28721144772E+03  0.17079874685E+04  0.10100000352E+00 0. -1.
</event>
<event>
 5   0  0.1017794E-07  0.3595814E+04  0.7818609E-02  0.8091451E-01
        2   -1    0    0  501    0  0.00000000000E+00  0.00000000000E+00  0.19811715353E+04  0.19811715353E+04  0.25500000920E-02 0. -1.
       -2   -1    0    0    0  501  0.00000000000E+00  0.00000000000E+00 -0.16315946474E+04  0.16315946474E+04  0.25500000920E-02 0.  1.
    10030    2    1    2    0    0  0.00000000000E+00  0.00000000000E+00  0.34957688786E+03  0.36127661827E+04  0.35958136062E+04 0.  0.
        1    1    3    3  502    0  0.65209898683E+03 -0.22425886991E+03 -0.14934442789E+04  0.16449622925E+04  0.50400001928E-02 0.  1.
       -1    1    3    3    0  502 -0.65209898683E+03  0.22425886991E+03  0.18430211668E+04  0.19678038903E+04  0.50400001928E-02 0. -1.
</event>
<event>
 5   0  0.1029908E-07  0.3571486E+04  0.7818609E-02  0.8097055E-01
       -2   -1    0    0    0  501  0.00000000000E+00  0.00000000000E+00  0.20165218363E+04  0.20165218363E+04  0.25500000920E-02 0. -1.
        2   -1    0    0  501    0  0.00000000000E+00  0.00000000000E+00 -0.15813753187E+04  0.15813753187E+04  0.25500000920E-02 0.  1.
    10030    2    1    2    0    0  0.00000000000E+00  0.00000000000E+00  0.43514651768E+03  0.35978971550E+04  0.35714858877E+04 0.  0.
        4    1    3    3  502    0  0.78939669350E+03 -0.16643491609E+03 -0.13873270338E+04  0.16048444263E+04  0.12699999809E+01 0.  1.
       -4    1    3    3    0  502 -0.78939669350E+03  0.16643491609E+03  0.18224735514E+04  0.19930527288E+04  0.12699999809E+01 0. -1.
</event>
<event>
 5   0  0.3212523E-08  0.3592614E+04  0.7818609E-02  0.8092186E-01
        1   -1    0    0  501    0  0.00000000000E+00  0.00000000000E+00  0.20130953041E+04  0.20130953041E+04  0.50400001928E-02 0. -1.
       -1   -1    0    0    0  501  0.00000000000E+00  0.00000000000E+00 -0.16028644605E+04  0.16028644605E+04  0.50400001928E-02 0.  1.
    10030    2    1    2    0    0  0.00000000000E+00  0.00000000000E+00  0.41023084355E+03  0.36159597646E+04  0.35926140447E+04 0.  0.
        3    1    3    3  502    0  0.10323426266E+04 -0.99596320187E+03 -0.88313444755E+03  0.16845178719E+04  0.10100000352E+00 0.  1.
       -3    1    3    3    0  502 -0.10323426266E+04  0.99596320187E+03  0.12933652911E+04  0.19314418926E+04  0.10100000352E+00 0. -1.
</event>
<event>
 5   0  0.3202875E-08  0.3596715E+04  0.7818609E-02  0.8091245E-01
        1   -1    0    0  501    0  0.00000000000E+00  0.00000000000E+00  0.11515912660E+04  0.11515912660E+04  0.50400001928E-02 0. -1.
       -1   -1    0    0    0  501  0.00000000000E+00  0.00000000000E+00 -0.28083655183E+04  0.28083655183E+04  0.50400001928E-02 0.  1.
    10030    2    1    2    0    0  0.00000000000E+00  0.00000000000E+00 -0.16567742523E+04  0.39599567843E+04  0.35967147247E+04 0.  0.
        1    1    3    3  502    0  0.10990455903E+04 -0.57006183851E+03 -0.22644199719E+04  0.25807885459E+04  0.50400001928E-02 0.  1.
       -1    1    3    3    0  502 -0.10990455903E+04  0.57006183851E+03  0.60764571962E+03  0.13791682384E+04  0.50400001928E-02 0. -1.
</event>
<event>
 5   0  0.3202875E-08  0.3600112E+04  0.7818609E-02  0.8090466E-01
       -3   -1    0    0    0  501  0.00000000000E+00  0.00000000000E+00  0.17252724431E+04  0.17252724460E+04  0.10100000352E+00 0.  1.
        3   -1    0    0  501    0  0.00000000000E+00  0.00000000000E+00 -0.18780815674E+04  0.18780815701E+04  0.10100000352E+00 0. -1.
    10030    2    1    2    0    0  0.00000000000E+00  0.00000000000E+00 -0.15280912436E+03  0.36033540162E+04  0.36001124340E+04 0.  0.
        5    1    3    3  502    0  0.53557137113E+02 -0.10873991307E+04 -0.15111788265E+04  0.18625221535E+04  0.46999998093E+01 0. -1.
       -5    1    3    3    0  502 -0.53557137113E+02  0.10873991307E+04  0.13583697021E+04  0.17408318627E+04  0.46999998093E+01 0.  1.
</event>
<event>
 5   0  0.3202875E-08  0.3566329E+04  0.7818609E-02  0.8098248E-01
       -1   -1    0    0    0  501  0.00000000000E+00  0.00000000000E+00  0.24988133085E+04  0.24988133085E+04  0.50400001928E-02 0. -1.
        1   -1    0    0  501    0  0.00000000000E+00  0.00000000000E+00 -0.12724740665E+04  0.12724740665E+04  0.50400001928E-02 0.  1.
    10030    2    1    2    0    0  0.00000000000E+00  0.00000000000E+00  0.12263392420E+04  0.37712873751E+04  0.35663287186E+04 0.  0.
        1    1    3    3  502    0  0.13321927029E+04 -0.48215693209E+03 -0.53186264147E+03  0.15133045213E+04  0.50400001928E-02 0.  1.
       -1    1    3    3    0  502 -0.13321927029E+04  0.48215693209E+03  0.17582018835E+04  0.22579828538E+04  0.50400001928E-02 0. -1.
</event>
<event>
 5   0  0.3215494E-08  0.3591694E+04  0.7818609E-02  0.8092397E-01
       -1   -1    0    0    0  501  0.00000000000E+00  0.00000000000E+00  0.13298079881E+04  0.13298079881E+04  0.50400001928E-02 0.  1.
        1   -1    0    0  501    0  0.00000000000E+00  0.00000000000E+00 -0.24252127559E+04  0.24252127559E+04  0.50400001928E-02 0. -1.
    10030    2    1    2    0    0  0.00000000000E+00  0.00000000000E+00 -0.10954047678E+04  0.37550207440E+04  0.35916944724E+04 0.  0.
        4    1    3    3  502    0  0.73768693744E+03  0.10787768885E+03  0.11603738902E+04  0.13792348572E+04  0.12699999809E+01 0.  1.
       -4    1    3    3    0  502 -0.73768693744E+03 -0.10787768885E+03 -0.22557786580E+04  0.23757858868E+04  0.12699999809E+01 0. -1.
</event>
<event>
 5   0  0.3212523E-08  0.3599224E+04  0.7818609E-02  0.8090669E-01
       -1   -1    0    0    0  501  0.00000000000E+00  0.00000000000E+00  0.16656020734E+04  0.16656020734E+04  0.50400001928E-02 0.  1.
        1   -1    0    0  501    0  0.00000000000E+00  0.00000000000E+00 -0.19444042672E+04  0.19444042672E+04  0.50400001928E-02 0. -1.
    10030    2    1    2    0    0  0.00000000000E+00  0.00000000000E+00 -0.27880219378E+03  0.36100063405E+04  0.35992242380E+04 0.  0.
        3    1    3    3  502    0  0.95489179812E+03  0.13123888191E+04 -0.91917525060E+03  0.18652254314E+04  0.10100000352E+00 0. -1.
       -3    1    3    3    0  502 -0.95489179812E+03 -0.13123888191E+04  0.64037305681E+03  0.17447809091E+04  0.10100000352E+00 0.  1.
</event>
<event>
 5   0  0.1029908E-07  0.3603874E+04  0.7818609E-02  0.8089605E-01
        2   -1    0    0  501    0  0.00000000000E+00  0.00000000000E+00  0.18556057577E+04  0.18556057577E+04  0.25500000920E-02 0. -1.
       -2   -1    0    0    0  501  0.00000000000E+00  0.00000000000E+00 -0.17498201412E+04  0.17498201412E+04  0.25500000920E-02 0.  1.
    10030    2    1    2    0    0  0.00000000000E+00  0.00000000000E+00  0.10578561659E+03  0.36054258989E+04  0.36038736543E+04 0.  0.
        4    1    3    3  502    0  0.58856090112E+03  0.15865156632E+04  0.67246467301E+03  0.18208916040E+04  0.12699999809E+01 0.  1.
       -4    1    3    3    0  502 -0.58856090112E+03 -0.15865156632E+04 -0.56667905643E+03  0.17845342950E+04  0.12699999809E+01 0. -1.
</event>
<event>
 5   0  0.3202875E-08  0.3599207E+04  0.7818609E-02  0.8090673E-01
       -1   -1    0    0    0  501  0.00000000000E+00  0.00000000000E+00  0.15483287684E+04  0.15483287684E+04  0.50400001928E-02 0.  1.
        1   -1    0    0  501    0  0.00000000000E+00  0.00000000000E+00 -0.20916570787E+04  0.20916570787E+04  0.50400001928E-02 0. -1.
    10030    2    1    2    0    0  0.00000000000E+00  0.00000000000E+00 -0.54332831028E+03  0.36399858471E+04  0.35992070396E+04 0.  0.
        2    1    3    3  502    0 -0.14977911768E+04 -0.69627992232E+03  0.45084505242E+03  0.17121464309E+04  0.25500000920E-02 0.  1.
       -2    1    3    3    0  502  0.14977911768E+04  0.69627992232E+03 -0.99417336270E+03  0.19278394162E+04  0.25500000920E-02 0. -1.
</event>
<event>
 5   0  0.3212523E-08  0.3598422E+04  0.7818609E-02  0.8090853E-01
       -1   -1    0    0    0  501  0.00000000000E+00  0.00000000000E+00  0.18017332826E+04  0.18017332826E+04  0.50400001928E-02 0.  1.
        1   -1    0    0  501    0  0.00000000000E+00  0.00000000000E+00 -0.17966924930E+04  0.17966924930E+04  0.50400001928E-02 0. -1.
    10030    2    1    2    0    0  0.00000000000E+00  0.00000000000E+00  0.50407896402E+01  0.35984257756E+04  0.35984222450E+04 0.  0.
        3    1    3    3  502    0  0.17450930132E+04 -0.23629241752E+03  0.37127124388E+03  0.17997294458E+04  0.10100000352E+00 0.  1.
       -3    1    3    3    0  502 -0.17450930132E+04  0.23629241752E+03 -0.36623045424E+03  0.17986963299E+04  0.10100000352E+00 0. -1.
</event>
<event>
 5   0  0.9905335E-08  0.3600557E+04  0.7818609E-02  0.8090364E-01
        2   -1    0    0  501    0  0.00000000000E+00  0.00000000000E+00  0.26670695674E+04  0.26670695674E+04  0.25500000920E-02 0. -1.
       -2   -1    0    0    0  501  0.00000000000E+00  0.00000000000E+00 -0.12151920835E+04  0.12151920835E+04  0.25500000920E-02 0.  1.
    10030    2    1    2    0    0  0.00000000000E+00  0.00000000000E+00  0.14518774839E+04  0.38822616509E+04  0.36005565261E+04 0.  0.
        5    1    3    3  502    0 -0.40061265726E+03  0.35333628812E+03 -0.11277684491E+04  0.12478865327E+04  0.46999998093E+01 0.  1.
       -5    1    3    3    0  502  0.40061265726E+03 -0.35333628812E+03  0.25796459330E+04  0.26343751182E+04  0.46999998093E+01 0. -1.
</event>
<event>
 5   0  0.3202875E-08  0.3585478E+04  0.7818609E-02  0.8093826E-01
        1   -1    0    0  501    0  0.00000000000E+00  0.00000000000E+00  0.21507949101E+04  0.21507949101E+04  0.50400001928E-02 0. -1.
       -1   -1    0    0    0  501  0.00000000000E+00  0.00000000000E+00 -0.14942906354E+04  0.14942906354E+04  0.50400001928E-02 0.  1.
    10030    2    1    2    0    0  0.00000000000E+00  0.00000000000E+00  0.65650427471E+03  0.36450855454E+04  0.35854777605E+04 0.  0.
        2    1    3    3  502    0 -0.89070260792E+03 -0.22584108500E+02 -0.12532617049E+04  0.15377015571E+04  0.25500000920E-02 0.  1.
       -2    1    3    3    0  502  0.89070260792E+03  0.22584108500E+02  0.19097659796E+04  0.21073839884E+04  0.25500000920E-02 0. -1.
</event>
<event>
 5   0  0.3279988E-08  0.3593828E+04  0.7818609E-02  0.8091907E-01
       -1   -1    0    0    0  501  0.00000000000E+00  0.00000000000E+00  0.18131546324E+04  0.18131546324E+04  0.50400001928E-02 0. -1.
        1   -1    0    0  501    0  0.00000000000E+00  0.00000000000E+00 -0.17808184826E+04  0.17808184826E+04  0.50400001928E-02 0.  1.
    10030    2    1    2    0    0  0.00000000000E+00  0.00000000000E+00  0.32336149831E+02  0.35939731150E+04  0.35938276426E+04 0.  0.
        5    1    3    3  502    0  0.94229518205E+03  0.42407974769E+02  0.15456607749E+04  0.18107479028E+04  0.46999998093E+01 0. -1.
       -5    1    3    3    0  502 -0.94229518205E+03 -0.42407974769E+02 -0.15133246251E+04  0.17832252122E+04  0.46999998093E+01 0.  1.
</event>
<event>
 5   0  0.3279988E-08  0.3599937E+04  0.7818609E-02  0.8090506E-01
        1   -1    0    0  501    0  0.00000000000E+00  0.00000000000E+00  0.15619363061E+04  0.15619363061E+04  0.50400001928E-02 0. -1.
       -1   -1    0    0    0  501  0.00000000000E+00  0.00000000000E+00 -0.20742752157E+04  0.20742752157E+04  0.50400001928E-02 0.  1.
    10030    2    1    2    0    0  0.00000000000E+00  0.00000000000E+00 -0.51233890957E+03  0.36362115218E+04  0.35999365374E+04 0.  0.
        5    1    3    3  502    0  0.65645472051E+03 -0.14117894074E+04  0.65613801881E+03  0.16895624643E+04  0.46999998093E+01 0. -1.
       -5    1    3    3    0  502 -0.65645472051E+03  0.14117894074E+04 -0.11684769284E+04  0.19466490575E+04  0.46999998093E+01 0.  1.
</event>
<event>
 5   0  0.1044678E-07  0.3598032E+04  0.7818609E-02  0.8090943E-01
       -2   -1    0    0    0  501  0.00000000000E+00  0.00000000000E+00  0.16433122530E+04  0.16433122530E+04  0.25500000920E-02 0.  1.
        2   -1    0    0  501    0  0.00000000000E+00  0.00000000000E+00 -0.19694727334E+04  0.19694727334E+04  0.25500000920E-02 0. -1.
    10030    2    1    2    0    0  0.00000000000E+00  0.00000000000E+00 -0.32616048039E+03  0.36127849865E+04  0.35980320593E+04 0.  0.
        2    1    3    3  502    0 -0.17264611087E+03 -0.98735622558E+03  0.13369594356E+04  0.16709696372E+04  0.25500000920E-02 0.  1.
       -2    1    3    3    0  502  0.17264611087E+03  0.98735622558E+03 -0.16631199160E+04  0.19418153493E+04  0.25500000920E-02 0. -1.
</event>
<event>
 5   0  0.1044678E-07  0.3600393E+04  0.7818609E-02  0.8090402E-01
       -2   -1    0    0    0  501  0.00000000000E+00  0.00000000000E+00  0.10955477705E+04  0.10955477705E+04  0.25500000920E-02 0.  1.
        2   -1    0    0  501    0  0.00000000000E+00  0.00000000000E+00 -0.29580704828E+04  0.29580704828E+04  0.25500000920E-02 0. -1.
    10030    2    1    2    0    0  0.00000000000E+00  0.00000000000E+00 -0.18625227124E+04  0.40536182533E+04  0.36003930465E+04 0.  0.
        2    1    3    3  502    0 -0.38447879509E+02 -0.10487071118E+04 -0.25780704629E+04  0.27834712424E+04  0.25500000920E-02 0. -1.
       -2    1    3    3    0  502  0.38447879509E+02  0.10487071118E+04  0.71554775054E+03  0.12701470108E+04  0.25500000920E-02 0.  1.
</event>
<event>
 5   0  0.9905335E-08  0.3600173E+04  0.7818609E-02  0.8090452E-01
        2   -1    0    0  501    0  0.00000000000E+00  0.00000000000E+00  0.22238085953E+04  0.22238085953E+04  0.25500000920E-02 0. -1.
       -2   -1    0    0    0  501  0.00000000000E+00  0.00000000000E+00 -0.14571000355E+04  0.14571000355E+04  0.25500000920E-02 0.  1.
    10030    2    1    2    0    0  0.00000000000E+00  0.00000000000E+00  0.76670855973E+03  0.36809086308E+04  0.36001730976E+04 0.  0.
        5    1    3    3  502    0 -0.15204532257E+04 -0.18218698327E+03 -0.58407816622E+03  0.16389446308E+04  0.46999998093E+01 0.  1.
       -5    1    3    3    0  502  0.15204532257E+04  0.18218698327E+03  0.13507867259E+04  0.20419640000E+04  0.46999998093E+01 0. -1.
</event>
<event>
 5   0  0.1029908E-07  0.3596568E+04  0.7818609E-02  0.8091278E-01
       -2   -1    0    0    0  501  0.00000000000E+00  0.00000000000E+00  0.30052880772E+04  0.30052880772E+04  0.25500000920E-02 0. -1.
        2   -1    0    0  501    0  0.00000000000E+00  0.00000000000E+00 -0.10760449078E+04  0.10760449078E+04  0.25500000920E-02 0.  1.
    10030    2    1    2    0    0  0.00000000000E+00  0.00000000000E+00  0.19292431694E+04  0.40813329850E+04  0.35965677705E+04 0.  0.
        4    1    3    3  502    0  0.38181748454E+03 -0.15600096023E+04  0.46630769771E+02  0.16067328939E+04  0.12699999809E+01 0.  1.
       -4    1    3    3    0  502 -0.38181748454E+03  0.15600096023E+04  0.18826123996E+04  0.24746000911E+04  0.12699999809E+01 0. -1.
</event>
<event>
 5   0  0.3202875E-08  0.3602847E+04  0.7818609E-02  0.8089840E-01
       -1   -1    0    0    0  501  0.00000000000E+00  0.00000000000E+00  0.17883621166E+04  0.17883621166E+04  0.50400001928E-02 0.  1.
        1   -1    0    0  501    0  0.00000000000E+00  0.00000000000E+00 -0.18145804917E+04  0.18145804917E+04  0.50400001928E-02 0. -1.
    10030    2    1    2    0    0  0.00000000000E+00  0.00000000000E+00 -0.26218375055E+02  0.36029426083E+04  0.36028472123E+04 0.  0.
        1    1    3    3  502    0 -0.95851656913E+02 -0.14605636553E+04 -0.10632290247E+04  0.18091129567E+04  0.50400001928E-02 0. -1.
       -1    1    3    3    0  502  0.95851656913E+02  0.14605636553E+04  0.10370106496E+04  0.17938296515E+04  0.50400001928E-02 0.  1.
</event>
<event>
 5   0  0.1029908E-07  0.3599292E+04  0.7818609E-02  0.8090654E-01
        2   -1    0    0  501    0  0.00000000000E+00  0.00000000000E+00  0.18535305512E+04  0.18535305512E+04  0.25500000920E-02 0.  1.
       -2   -1    0    0    0  501  0.00000000000E+00  0.00000000000E+00 -0.17473277754E+04  0.17473277754E+04  0.25500000920E-02 0. -1.
    10030    2    1    2    0    0  0.00000000000E+00  0.00000000000E+00  0.10620277582E+03  0.36008583266E+04  0.35992918273E+04 0.  0.
        4    1    3    3  502    0 -0.14231460516E+04  0.95619537352E+03 -0.49400911862E+03  0.17842928288E+04  0.12699999809E+01 0. -1.
       -4    1    3    3    0  502  0.14231460516E+04 -0.95619537352E+03  0.60021189444E+03  0.18165654978E+04  0.12699999809E+01 0.  1.
</event>
<event>
 5   0  0.3215494E-08  0.3595035E+04  0.7818609E-02  0.8091630E-01
       -1   -1    0    0    0  501  0.00000000000E+00  0.00000000000E+00  0.16830724339E+04  0.16830724339E+04  0.50400001928E-02 0. -1.
        1   -1    0    0  501    0  0.00000000000E+00  0.00000000000E+00 -0.19197447212E+04  0.19197447212E+04  0.50400001928E-02 0.  1.
    10030    2    1    2    0    0  0.00000000000E+00  0.00000000000E+00 -0.23667228734E+03  0.36028171551E+04  0.35950351433E+04 0.  0.
        4    1    3    3  502    0 -0.73905735363E+03 -0.15162466790E+04 -0.74085550177E+03  0.18423024320E+04  0.12699999809E+01 0.  1.
       -4    1    3    3    0  502  0.73905735363E+03  0.15162466790E+04  0.50418321444E+03  0.17605147231E+04  0.12699999809E+01 0. -1.
</event>
<event>
 5   0  0.1017794E-07  0.3596277E+04  0.7818609E-02  0.8091345E-01
       -2   -1    0    0    0  501  0.00000000000E+00  0.00000000000E+00  0.22981994677E+04  0.22981994677E+04  0.25500000920E-02 0. -1.
        2   -1    0    0  501    0  0.00000000000E+00  0.00000000000E+00 -0.14068845385E+04  0.14068845385E+04  0.25500000920E-02 0.  1.
    10030    2    1    2    0    0  0.00000000000E+00  0.00000000000E+00  0.89131492928E+03  0.37050840062E+04  0.35962765731E+04 0.  0.
        1    1    3    3  502    0 -0.15022853915E+03 -0.13264811180E+03  0.22866573541E+04  0.22954228348E+04  0.50400001928E-02 0. -1.
       -1    1    3    3    0  502  0.15022853915E+03  0.13264811180E+03 -0.13953424248E+04  0.14096611714E+04  0.50400001928E-02 0.  1.
</event>
<event>
 5   0  0.3212523E-08  0.3595721E+04  0.7818609E-02  0.8091473E-01
       -1   -1    0    0    0  501  0.00000000000E+00  0.00000000000E+00  0.19377142323E+04  0.19377142323E+04  0.50400001928E-02 0.  1.
        1   -1    0    0  501    0  0.00000000000E+00  0.00000000000E+00 -0.16681008443E+04  0.16681008443E+04  0.50400001928E-02 0. -1.
    10030    2    1    2    0    0  0.00000000000E+00  0.00000000000E+00  0.26961338807E+03  0.36058150766E+04  0.35957212055E+04 0.  0.
        3    1    3    3  502    0 -0.10903051826E+04  0.14276158714E+04  0.60773511935E+02  0.17973719419E+04  0.10100000352E+00 0.  1.
       -3    1    3    3    0  502  0.10903051826E+04 -0.14276158714E+04  0.20883987614E+03  0.18084431347E+04  0.10100000352E+00 0. -1.
</event>
<event>
 5   0  0.1021087E-07  0.3598444E+04  0.7818609E-02  0.8090848E-01
       -2   -1    0    0    0  501  0.00000000000E+00  0.00000000000E+00  0.28038844290E+04  0.28038844290E+04  0.25500000920E-02 0. -1.
        2   -1    0    0  501    0  0.00000000000E+00  0.00000000000E+00 -0.11545412012E+04  0.11545412012E+04  0.25500000920E-02 0.  1.
    10030    2    1    2    0    0  0.00000000000E+00  0.00000000000E+00  0.16493432279E+04  0.39584256302E+04  0.35984441619E+04 0.  0.
        3    1    3    3  502    0  0.11233261723E+04 -0.25087780271E+03 -0.69656561298E+03  0.13453642721E+04  0.10100000352E+00 0.  1.
       -3    1    3    3    0  502 -0.11233261723E+04  0.25087780271E+03  0.23459088408E+04  0.26130613581E+04  0.10100000352E+00 0. -1.
</event>
<event>
 5   0  0.3279988E-08  0.3600968E+04  0.7818609E-02  0.8090270E-01
        1   -1    0    0  501    0  0.00000000000E+00  0.00000000000E+00  0.16477868805E+04  0.16477868805E+04  0.50400001928E-02 0.  1.
       -1   -1    0    0    0  501  0.00000000000E+00  0.00000000000E+00 -0.19673308461E+04  0.19673308461E+04  0.50400001928E-02 0. -1.
    10030    2    1    2    0    0  0.00000000000E+00  0.00000000000E+00 -0.31954396559E+03  0.36151177266E+04  0.36009676243E+04 0.  0.
        5    1    3    3  502    0  0.17098828959E+04  0.16456449897E+03  0.38173505591E+03  0.17596945005E+04  0.46999998093E+01 0.  1.
       -5    1    3    3    0  502 -0.17098828959E+04 -0.16456449897E+03 -0.70127902150E+03  0.18554232261E+04  0.46999998093E+01 0. -1.
</event>
<event>
 5   0  0.1017794E-07  0.3598134E+04  0.7818609E-02  0.8090919E-01
        2   -1    0    0  501    0  0.00000000000E+00  0.00000000000E+00  0.28622228308E+04  0.28622228308E+04  0.25500000920E-02 0.  1.
       -2   -1    0    0    0  501  0.00000000000E+00  0.00000000000E+00 -0.11308143112E+04  0.11308143112E+04  0.25500000920E-02 0. -1.
    10030    2    1    2    0    0  0.00000000000E+00  0.00000000000E+00  0.17314085196E+04  0.39930371419E+04  0.35981342603E+04 0.  0.
        1    1    3    3  502    0 -0.48255110134E+03 -0.17315525377E+04  0.94810126381E+03  0.20322464817E+04  0.50400001928E-02 0.  1.
       -1    1    3    3    0  502  0.48255110134E+03  0.17315525377E+04  0.78330725582E+03  0.19607906602E+04  0.50400001928E-02 0. -1.
</event>
<event>
 5   0  0.1021087E-07  0.3589212E+04  0.7818609E-02  0.8092967E-01
       -2   -1    0    0    0  501  0.00000000000E+00  0.00000000000E+00  0.15344011394E+04  0.15344011394E+04  0.25500000920E-02 0. -1.
        2   -1    0    0  501    0  0.00000000000E+00  0.00000000000E+00 -0.20989365418E+04  0.20989365418E+04  0.25500000920E-02 0.  1.
    10030    2    1    2    0    0  0.00000000000E+00  0.00000000000E+00 -0.56453540237E+03  0.36333376812E+04  0.35892119587E+04 0.  0.
        3    1    3    3  502    0 -0.46270157510E+03 -0.16543249901E+04  0.24346939106E+03  0.17349816353E+04  0.10100000352E+00 0. -1.
       -3    1    3    3    0  502  0.46270157510E+03  0.16543249901E+04 -0.80800479343E+03  0.18983560458E+04  0.10100000352E+00 0.  1.
</event>
<event>
 5   0  0.3202875E-08  0.3595320E+04  0.7818609E-02  0.8091565E-01
        3   -1    0    0  501    0  0.00000000000E+00  0.00000000000E+00  0.22862122686E+04  0.22862122708E+04  0.10100000352E+00 0.  1.
       -3   -1    0    0    0  501  0.00000000000E+00  0.00000000000E+00 -0.14135090725E+04  0.14135090761E+04  0.10100000352E+00 0. -1.
    10030    2    1    2    0    0  0.00000000000E+00  0.00000000000E+00  0.87270319604E+03  0.36997213470E+04  0.35953201772E+04 0.  0.
        5    1    3    3  502    0 -0.13620118754E+04  0.90216830133E+03  0.12081820910E+04  0.20319227465E+04  0.46999998093E+01 0. -1.
       -5    1    3    3    0  502  0.13620118754E+04 -0.90216830133E+03 -0.33547889491E+03  0.16677986005E+04  0.46999998093E+01 0.  1.
</event>
<event>
 5   0  0.3215494E-08  0.3599832E+04  0.7818609E-02  0.8090530E-01
        1   -1    0    0  501    0  0.00000000000E+00  0.00000000000E+00  0.16521665518E+04  0.16521665518E+04  0.50400001928E-02 0. -1.
       -1   -1    0    0    0  501  0.00000000000E+00  0.00000000000E+00 -0.19608786488E+04  0.19608786489E+04  0.50400001928E-02 0.  1.
    10030    2    1    2    0    0  0.00000000000E+00  0.00000000000E+00 -0.30871209709E+03  0.36130452006E+04  0.35998322826E+04 0.  0.
        4    1    3    3  502    0  0.12270819775E+04 -0.15175409861E+03 -0.14671849795E+04  0.19186956150E+04  0.12699999809E+01 0.  1.
       -4    1    3    3    0  502 -0.12270819775E+04  0.15175409861E+03  0.11584728824E+04  0.16943495856E+04  0.12699999809E+01 0. -1.
</event>
<event>
 5   0  0.3202875E-08  0.3593392E+04  0.7818609E-02  0.8092007E-01
       -1   -1    0    0    0  501  0.00000000000E+00  0.00000000000E+00  0.14332660029E+04  0.14332660029E+04  0.50400001928E-02 0. -1.
        1   -1    0    0  501    0  0.00000000000E+00  0.00000000000E+00 -0.22522800387E+04  0.22522800387E+04  0.50400001928E-02 0.  1.
    10030    2    1    2    0    0  0.00000000000E+00  0.00000000000E+00 -0.81901403580E+03  0.36855460415E+04  0.35933919398E+04 0.  0.
        2    1    3    3  502    0 -0.91114071927E+03 -0.65160152362E+03  0.10312800496E+04  0.15225966296E+04  0.25500000920E-02 0. -1.
       -2    1    3    3    0  502  0.91114071927E+03  0.65160152362E+03 -0.18502940854E+04  0.21629494119E+04  0.25500000920E-02 0.  1.
</event>
<event>
 5   0  0.1029908E-07  0.3598445E+04  0.7818609E-02  0.8090848E-01
       -2   -1    0    0    0  501  0.00000000000E+00  0.00000000000E+00  0.13674074587E+04  0.13674074588E+04  0.25500000920E-02 0. -1.
        2   -1    0    0  501    0  0.00000000000E+00  0.00000000000E+00 -0.23674005118E+04  0.23674005118E+04  0.25500000920E-02 0.  1.
    10030    2    1    2    0    0  0.00000000000E+00  0.00000000000E+00 -0.99999305305E+03  0.37348079705E+04  0.35984447294E+04 0.  0.
        4    1    3    3  502    0  0.11038626016E+04  0.13884141050E+04 -0.18691477576E+03  0.17835764958E+04  0.12699999809E+01 0. -1.
       -4    1    3    3    0  502 -0.11038626016E+04 -0.13884141050E+04 -0.81307827729E+03  0.19512314747E+04  0.12699999809E+01 0.  1.
</event>
<event>
 5   0  0.1017794E-07  0.3600870E+04  0.7818609E-02  0.8090292E-01
        2   -1    0    0  501    0  0.00000000000E+00  0.00000000000E+00  0.21620610648E+04  0.21620610648E+04  0.25500000920E-02 0.  1.
       -2   -1    0    0    0  501  0.00000000000E+00  0.00000000000E+00 -0.14992943833E+04  0.14992943833E+04  0.25500000920E-02 0. -1.
    10030    2    1    2    0    0  0.00000000000E+00  0.00000000000E+00  0.66276668151E+03  0.36613554481E+04  0.36008699009E+04 0.  0.
        1    1    3    3  502    0  0.14147751546E+04 -0.79138910388E+03 -0.46515309179E+03  0.16864912839E+04  0.50400001928E-02 0. -1.
       -1    1    3    3    0  502 -0.14147751546E+04  0.79138910388E+03  0.11279197733E+04  0.19748641642E+04  0.50400001928E-02 0.  1.
</event>
<event>
 5   0  0.3202875E-08  0.3600574E+04  0.7818609E-02  0.8090360E-01
        1   -1    0    0  501    0  0.00000000000E+00  0.00000000000E+00  0.22131572729E+04  0.22131572729E+04  0.50400001928E-02 0.  1.
       -1   -1    0    0    0  501  0.00000000000E+00  0.00000000000E+00 -0.14644386562E+04  0.14644386562E+04  0.50400001928E-02 0. -1.
    10030    2    1    2    0    0  0.00000000000E+00  0.00000000000E+00  0.74871861675E+03  0.36775959291E+04  0.36005738779E+04 0.  0.
        1    1    3    3  502    0  0.38200521767E+03 -0.16305996585E+04  0.10489804062E+04  0.19761434981E+04  0.50400001928E-02 0.  1.
       -1    1    3    3    0  502 -0.38200521767E+03  0.16305996585E+04 -0.30026178943E+03  0.17014524310E+04  0.50400001928E-02 0. -1.
</event>
<event>
 5   0  0.9905335E-08  0.3585942E+04  0.7818609E-02  0.8093719E-01
       -2   -1    0    0    0  501  0.00000000000E+00  0.00000000000E+00  0.12960165504E+04  0.12960165504E+04  0.25500000920E-02 0.  1.
        2   -1    0    0  501    0  0.00000000000E+00  0.00000000000E+00 -0.24804821243E+04  0.24804821243E+04  0.25500000920E-02 0. -1.
    10030    2    1    2    0    0  0.00000000000E+00  0.00000000000E+00 -0.11844655738E+04  0.37764986747E+04  0.35859424904E+04 0.  0.
        5    1    3    3  502    0 -0.71285757471E+03  0.12475578291E+04  0.53721105929E+03  0.15340092148E+04  0.46999998093E+01 0.  1.
       -5    1    3    3    0  502  0.71285757471E+03 -0.12475578291E+04 -0.17216766331E+04  0.22424894599E+04  0.46999998093E+01 0. -1.
</event>
<event>
 5   0  0.3215494E-08  0.3601184E+04  0.7818609E-02  0.8090221E-01
       -1   -1    0    0    0  501  0.00000000000E+00  0.00000000000E+00  0.13377907291E+04  0.13377907291E+04  0.50400001928E-02 0.  1.
        1   -1    0    0  501    0  0.00000000000E+00  0.00000000000E+00 -0.24234965317E+04  0.24234965317E+04  0.50400001928E-02 0. -1.
    10030    2    1    2    0    0  0.00000000000E+00  0.00000000000E+00 -0.10857058025E+04  0.37612872608E+04  0.36011838010E+04 0.  0.
        4    1    3    3  502    0  0.27422126329E+03  0.17692649309E+04 -0.34294374372E+03  0.18229393081E+04  0.12699999809E+01 0. -1.
       -4    1    3    3    0  502 -0.27422126329E+03 -0.17692649309E+04 -0.74276205879E+03  0.19383479527E+04  0.12699999809E+01 0.  1.
</event>
<event>
 5   0  0.3279988E-08  0.3598692E+04  0.7818609E-02  0.8090791E-01
        1   -1    0    0  501    0  0.00000000000E+00  0.00000000000E+00  0.27902002501E+04  0.27902002501E+04  0.50400001928E-02 0.  1.
       -1   -1    0    0    0  501  0.00000000000E+00  0.00000000000E+00 -0.11603631773E+04  0.11603631773E+04  0.50400001928E-02 0. -1.
    10030    2    1    2    0    0  0.00000000000E+00  0.00000000000E+00  0.16298370728E+04  0.39505634274E+04  0.35986917776E+04 0.  0.
        5    1    3    3  502    0 -0.13525302903E+04 -0.78634327092E+03  0.17906135428E+04  0.23778126241E+04  0.46999998093E+01 0.  1.
       -5    1    3    3    0  502  0.13525302903E+04  0.78634327092E+03 -0.16077646990E+03  0.15727508033E+04  0.46999998093E+01 0. -1.
</event>
<event>
 5   0  0.3202875E-08  0.3596981E+04  0.7818609E-02  0.8091184E-01
       -1   -1    0    0    0  501  0.00000000000E+00  0.00000000000E+00  0.23634404481E+04  0.23634404481E+04  0.50400001928E-02 0. -1.
        1   -1    0    0  501    0  0.00000000000E+00  0.00000000000E+00 -0.13685844553E+04  0.13685844553E+04  0.50400001928E-02 0.  1.
    10030    2    1    2    0    0  0.00000000000E+00  0.00000000000E+00  0.99485599284E+03  0.37320249034E+04  0.35969808775E+04 0.  0.
        2    1    3    3  502    0  0.54311511703E+03  0.72380330227E+03 -0.11151775090E+04  0.14361358318E+04  0.25500000920E-02 0.  1.
       -2    1    3    3    0  502 -0.54311511703E+03 -0.72380330227E+03  0.21100335018E+04  0.22958890717E+04  0.25500000920E-02 0. -1.
</event>
<event>
 5   0  0.1029908E-07  0.3605877E+04  0.7818609E-02  0.8089147E-01
        2   -1    0    0  501    0  0.00000000000E+00  0.00000000000E+00  0.23017633230E+04  0.23017633230E+04  0.25500000920E-02 0.  1.
       -2   -1    0    0    0  501  0.00000000000E+00  0.00000000000E+00 -0.14122157819E+04  0.14122157819E+04  0.25500000920E-02 0. -1.
    10030    2    1    2    0    0  0.00000000000E+00  0.00000000000E+00  0.88954754106E+03  0.37139791049E+04  0.36058765875E+04 0.  0.
        4    1    3    3  502    0  0.60864425632E+03 -0.37818342381E+02 -0.13027669958E+04  0.14384302263E+04  0.12699999809E+01 0. -1.
       -4    1    3    3    0  502 -0.60864425632E+03  0.37818342381E+02  0.21923145368E+04  0.22755488786E+04  0.12699999809E+01 0.  1.
</event>
<event>
 5   0  0.3202875E-08  0.3597603E+04  0.7818609E-02  0.8091041E-01
        1   -1    0    0  501    0  0.00000000000E+00  0.00000000000E+00  0.26132742971E+04  0.26132742971E+04  0.50400001928E-02 0. -1.
       -1   -1    0    0    0  501  0.00000000000E+00  0.00000000000E+00 -0.12381737124E+04  0.12381737124E+04  0.50400001928E-02 0.  1.
    10030    2    1    2    0    0  0.00000000000E+00  0.00000000000E+00  0.13751005847E+04  0.38514480094E+04  0.35976033899E+04 0.  0.
        1    1    3    3  502    0 -0.10172983765E+03  0.17440628116E+04  0.11462490495E+04  0.20894953779E+04  0.50400001928E-02 0. -1.
       -1    1    3    3    0  502  0.10172983765E+03 -0.17440628116E+04  0.22885153516E+03  0.17619526315E+04  0.50400001928E-02 0.  1.
</event>
<event>
 5   0  0.3212523E-08  0.3618039E+04  0.7818609E-02  0.8086372E-01
       -1   -1    0    0    0  501  0.00000000000E+00  0.00000000000E+00  0.22875070478E+04  0.22875070478E+04  0.50400001928E-02 0. -1.
        1   -1    0    0  501    0  0.00000000000E+00  0.00000000000E+00 -0.14306188599E+04  0.14306188599E+04  0.50400001928E-02 0.  1.
    10030    2    1    2    0    0  0.00000000000E+00  0.00000000000E+00  0.85688818796E+03  0.37181259077E+04  0.36180385430E+04 0.  0.
        3    1    3    3  502    0 -0.26797003266E+03 -0.68471774221E+03 -0.12701266954E+04  0.14676062679E+04  0.10100000352E+00 0.  1.
       -3    1    3    3    0  502  0.26797003266E+03  0.68471774221E+03  0.21270148834E+04  0.22505196398E+04  0.10100000352E+00 0. -1.
</event>
<event>
 5   0  0.1044678E-07  0.3602963E+04  0.7818609E-02  0.8089813E-01
        2   -1    0    0  501    0  0.00000000000E+00  0.00000000000E+00  0.26478804171E+04  0.26478804171E+04  0.25500000920E-02 0.  1.
       -2   -1    0    0    0  501  0.00000000000E+00  0.00000000000E+00 -0.12256351331E+04  0.12256351331E+04  0.25500000920E-02 0. -1.
    10030    2    1    2    0    0  0.00000000000E+00  0.00000000000E+00  0.14222452840E+04  0.38735155502E+04  0.36029628183E+04 0.  0.
        2    1    3    3  502    0  0.12143720582E+03  0.86045364232E+03  0.24076595736E+04  0.25596781219E+04  0.25500000920E-02 0.  1.
       -2    1    3    3    0  502 -0.12143720582E+03 -0.86045364232E+03 -0.98541428966E+03  0.13138374282E+04  0.25500000920E-02 0. -1.
</event>
<event>
 5   0  0.1029908E-07  0.3572330E+04  0.7818609E-02  0.8096859E-01
       -2   -1    0    0    0  501  0.00000000000E+00  0.00000000000E+00  0.29466501223E+04  0.29466501223E+04  0.25500000920E-02 0. -1.
        2   -1    0    0  501    0  0.00000000000E+00  0.00000000000E+00 -0.10827161419E+04  0.10827161419E+04  0.25500000920E-02 0.  1.
    10030    2    1    2    0    0  0.00000000000E+00  0.00000000000E+00  0.18639339804E+04  0.40293662642E+04  0.35723301370E+04 0.  0.
        4    1    3    3  502    0  0.30501945985E+03  0.15153348499E+04  0.19415232984E+04  0.24816911390E+04  0.12699999809E+01 0. -1.
       -4    1    3    3    0  502 -0.30501945985E+03 -0.15153348499E+04 -0.77589317969E+02  0.15476751252E+04  0.12699999809E+01 0.  1.
</event>
<event>
 5   0  0.3279988E-08  0.3566375E+04  0.7818609E-02  0.8098238E-01
       -1   -1    0    0    0  501  0.00000000000E+00  0.00000000000E+00  0.24884008132E+04  0.24884008132E+04  0.50400001928E-02 0.  1.
        1   -1    0    0  501    0  0.00000000000E+00  0.00000000000E+00 -0.12778319230E+04  0.12778319230E+04  0.50400001928E-02 0. -1.
    10030    2    1    2    0    0  0.00000000000E+00  0.00000000000E+00  0.12105688902E+04  0.37662327362E+04  0.35663751885E+04 0.  0.
        5    1    3    3  502    0 -0.46207320598E+03  0.96294580251E+03 -0.90265686488E+03  0.13984233164E+04  0.46999998093E+01 0. -1.
       -5    1    3    3    0  502  0.46207320598E+03 -0.96294580251E+03  0.21132257551E+04  0.23678094197E+04  0.46999998093E+01 0.  1.
</event>
<event>
 5   0  0.1029908E-07  0.3599206E+04  0.7818609E-02  0.8090674E-01
       -2   -1    0    0    0  501  0.00000000000E+00  0.00000000000E+00  0.12784905847E+04  0.12784905847E+04  0.25500000920E-02 0. -1.
        2   -1    0    0  501    0  0.00000000000E+00  0.00000000000E+00 -0.25331204715E+04  0.25331204715E+04  0.25500000920E-02 0.  1.
    10030    2    1    2    0    0  0.00000000000E+00  0.00000000000E+00 -0.12546298868E+04  0.38116110561E+04  0.35992058416E+04 0.  0.
        4    1    3    3  502    0  0.37306991429E+03 -0.14884283842E+04  0.36836640568E+03  0.15780670574E+04  0.12699999809E+01 0.  1.
       -4    1    3    3    0  502 -0.37306991429E+03  0.14884283842E+04 -0.16229962925E+04  0.22335439987E+04  0.12699999809E+01 0. -1.
</event>
<event>
 5   0  0.3202875E-08  0.3590714E+04  0.7818609E-02  0.8092622E-01
        1   -1    0    0  501    0  0.00000000000E+00  0.00000000000E+00  0.13600857364E+04  0.13600857364E+04  0.50400001928E-02 0. -1.
       -1   -1    0    0    0  501  0.00000000000E+00  0.00000000000E+00 -0.23699285600E+04  0.23699285600E+04  0.50400001928E-02 0.  1.
    10030    2    1    2    0    0  0.00000000000E+00  0.00000000000E+00 -0.10098428235E+04  0.37300142964E+04  0.35907135953E+04 0.  0.
        2    1    3    3  502    0 -0.15025596629E+04 -0.76127751951E+02 -0.15226354652E+04  0.21405372539E+04  0.25500000920E-02 0.  1.
       -2    1    3    3    0  502  0.15025596629E+04  0.76127751951E+02  0.51279264171E+03  0.15894770425E+04  0.25500000920E-02 0. -1.
</event>
<event>
 5   0  0.9905335E-08  0.3593054E+04  0.7818609E-02  0.8092085E-01
       -2   -1    0    0    0  501  0.00000000000E+00  0.00000000000E+00  0.27253080532E+04  0.27253080532E+04  0.25500000920E-02 0.  1.
        2   -1    0    0  501    0  0.00000000000E+00  0.00000000000E+00 -0.11842730510E+04  0.11842730510E+04  0.25500000920E-02 0. -1.
    10030    2    1    2    0    0  0.00000000000E+00  0.00000000000E+00  0.15410350022E+04  0.39095811041E+04  0.35930537892E+04 0.  0.
        5    1    3    3  502    0 -0.16794276841E+04 -0.75644764874E+02  0.81239806485E+02  0.16830987709E+04  0.46999998093E+01 0. -1.
       -5    1    3    3    0  502  0.16794276841E+04  0.75644764874E+02  0.14597951957E+04  0.22264823332E+04  0.46999998093E+01 0.  1.
</event>
<event>
 5   0  0.3215494E-08  0.3628813E+04  0.7818609E-02  0.8083923E-01
        1   -1    0    0  501    0  0.00000000000E+00  0.00000000000E+00  0.18864960434E+04  0.18864960434E+04  0.50400001928E-02 0.  1.
       -1   -1    0    0    0  501  0.00000000000E+00  0.00000000000E+00 -0.17450715053E+04  0.17450715053E+04  0.50400001928E-02 0. -1.
    10030    2    1    2    0    0  0.00000000000E+00  0.00000000000E+00  0.14142453815E+03  0.36315675487E+04  0.36288127481E+04 0.  0.
        4    1    3    3  502    0  0.41197239409E+03 -0.10027560421E+04 -0.13853245193E+04  0.17590811721E+04  0.12699999809E+01 0. -1.
       -4    1    3    3    0  502 -0.41197239409E+03  0.10027560421E+04  0.15267490574E+04  0.18724863766E+04  0.12699999809E+01 0.  1.
</event>
<event>
 5   0  0.1021087E-07  0.3595709E+04  0.7818609E-02  0.8091475E-01
        2   -1    0    0  501    0  0.00000000000E+00  0.00000000000E+00  0.11140881509E+04  0.11140881509E+04  0.25500000920E-02 0.  1.
       -2   -1    0    0    0  501  0.00000000000E+00  0.00000000000E+00 -0.29012794324E+04  0.29012794324E+04  0.25500000920E-02 0. -1.
    10030    2    1    2    0    0  0.00000000000E+00  0.00000000000E+00 -0.17871912816E+04  0.40153675833E+04  0.35957091307E+04 0.  0.
        3    1    3    3  502    0  0.15107240251E+04  0.13929291664E+03 -0.19708550109E+04  0.24871588370E+04  0.10100000352E+00 0. -1.
       -3    1    3    3    0  502 -0.15107240251E+04 -0.13929291664E+03  0.18366372931E+03  0.15282087463E+04  0.10100000352E+00 0.  1.
</event>
<event>
 5   0  0.3202875E-08  0.3598599E+04  0.7818609E-02  0.8090813E-01
       -1   -1    0    0    0  501  0.00000000000E+00  0.00000000000E+00  0.17958273636E+04  0.17958273636E+04  0.50400001928E-02 0. -1.
        1   -1    0    0  501    0  0.00000000000E+00  0.00000000000E+00 -0.18027786876E+04  0.18027786876E+04  0.50400001928E-02 0.  1.
    10030    2    1    2    0    0  0.00000000000E+00  0.00000000000E+00 -0.69513240096E+01  0.35986060511E+04  0.35985993373E+04 0.  0.
        2    1    3    3  502    0 -0.11279802910E+04  0.51833061313E+03 -0.13059653803E+04  0.18018190076E+04  0.25500000920E-02 0.  1.
       -2    1    3    3    0  502  0.11279802910E+04 -0.51833061313E+03  0.12990140563E+04  0.17967870436E+04  0.25500000920E-02 0. -1.
</event>
<event>
 5   0  0.1044678E-07  0.3603331E+04  0.7818609E-02  0.8089729E-01
        2   -1    0    0  501    0  0.00000000000E+00  0.00000000000E+00  0.13586230815E+04  0.13586230815E+04  0.25500000920E-02 0. -1.
       -2   -1    0    0    0  501  0.00000000000E+00  0.00000000000E+00 -0.23891828532E+04  0.23891828532E+04  0.25500000920E-02 0.  1.
    10030    2    1    2    0    0  0.00000000000E+00  0.00000000000E+00 -0.10305597717E+04  0.37478059348E+04  0.36033312201E+04 0.  0.
        2    1    3    3  502    0 -0.15659310260E+03 -0.31070754707E+03 -0.23539069130E+04  0.23794827872E+04  0.25500000920E-02 0.  1.
       -2    1    3    3    0  502  0.15659310260E+03  0.31070754707E+03  0.13233471413E+04  0.13683231475E+04  0.25500000920E-02 0. -1.
</event>
<event>
 5   0  0.1029908E-07  0.3594979E+04  0.7818609E-02  0.8091643E-01
       -2   -1    0    0    0  501  0.00000000000E+00  0.00000000000E+00  0.11747560343E+04  0.11747560343E+04  0.25500000920E-02 0.  1.
        2   -1    0    0  501    0  0.00000000000E+00  0.00000000000E+00 -0.27503311639E+04  0.27503311639E+04  0.25500000920E-02 0. -1.
    10030    2    1    2    0    0  0.00000000000E+00  0.00000000000E+00 -0.15755751296E+04  0.39250871983E+04  0.35949787934E+04 0.  0.
        4    1    3    3  502    0 -0.11449859957E+04 -0.11175666961E+04  0.10658845909E+03  0.16035307802E+04  0.12699999809E+01 0.  1.
       -4    1    3    3    0  502  0.11449859957E+04  0.11175666961E+04 -0.16821635887E+04  0.23215564181E+04  0.12699999809E+01 0. -1.
</event>
<event>
 5   0  0.9905335E-08  0.3604687E+04  0.7818609E-02  0.8089419E-01
       -2   -1    0    0    0  501  0.00000000000E+00  0.00000000000E+00  0.12446256016E+04  0.12446256016E+04  0.25500000920E-02 0. -1.
        2   -1    0    0  501    0  0.00000000000E+00  0.00000000000E+00 -0.26099746290E+04  0.26099746290E+04  0.25500000920E-02 0.  1.
    10030    2    1    2    0    0  0.00000000000E+00  0.00000000000E+00 -0.13653490274E+04  0.38546002306E+04  0.36046865289E+04 0.  0.
        5    1    3    3  502    0  0.80367124409E+02  0.30057200770E+03  0.12156853328E+04  0.12548766174E+04  0.46999998093E+01 0. -1.
       -5    1    3    3    0  502 -0.80367124409E+02 -0.30057200770E+03 -0.25810343602E+04  0.25997236132E+04  0.46999998093E+01 0.  1.
</event>
<event>
 5   0  0.3202875E-08  0.3596894E+04  0.7818609E-02  0.8091203E-01
        1   -1    0    0  501    0  0.00000000000E+00  0.00000000000E+00  0.26317181951E+04  0.26317181951E+04  0.50400001928E-02 0. -1.
       -1   -1    0    0    0  501  0.00000000000E+00  0.00000000000E+00 -0.12290116220E+04  0.12290116220E+04  0.50400001928E-02 0.  1.
    10030    2    1    2    0    0  0.00000000000E+00  0.00000000000E+00  0.14027065731E+04  0.38607298171E+04  0.35968943535E+04 0.  0.
        1    1    3    3  502    0 -0.72185781544E+03  0.16232189021E+04  0.10020715367E+04  0.20396239052E+04  0.50400001928E-02 0.  1.
       -1    1    3    3    0  502  0.72185781544E+03 -0.16232189021E+04  0.40063503643E+03  0.18211059119E+04  0.50400001928E-02 0. -1.
</event>
<event>
 5   0  0.3202875E-08  0.3594165E+04  0.7818609E-02  0.8091830E-01
        1   -1    0    0  501    0  0.00000000000E+00  0.00000000000E+00  0.26998056250E+04  0.26998056250E+04  0.50400001928E-02 0.  1.
       -1   -1    0    0    0  501  0.00000000000E+00  0.00000000000E+00 -0.11961994011E+04  0.11961994012E+04  0.50400001928E-02 0. -1.
    10030    2    1    2    0    0  0.00000000000E+00  0.00000000000E+00  0.15036062239E+04  0.38960050262E+04  0.35941652004E+04 0.  0.
        2    1    3    3  502    0  0.15699630186E+04 -0.67422122601E+03  0.14812451648E+03  0.17150215782E+04  0.25500000920E-02 0. -1.
       -2    1    3    3    0  502 -0.15699630186E+04  0.67422122601E+03  0.13554817074E+04  0.21809834480E+04  0.25500000920E-02 0.  1.
</event>
<event>
 5   0  0.9905335E-08  0.3597992E+04  0.7818609E-02  0.8090952E-01
       -2   -1    0    0    0  501  0.00000000000E+00  0.00000000000E+00  0.13982355334E+04  0.13982355334E+04  0.25500000920E-02 0.  1.
        2   -1    0    0  501    0  0.00000000000E+00  0.00000000000E+00 -0.23146223061E+04  0.23146223061E+04  0.25500000920E-02 0. -1.
    10030    2    1    2    0    0  0.00000000000E+00  0.00000000000E+00 -0.91638677270E+03  0.37128578395E+04  0.35979923039E+04 0.  0.
        5    1    3    3  502    0  0.17736864212E+04 -0.16935741478E+03 -0.20182782911E+03  0.17931542090E+04  0.46999998093E+01 0. -1.
       -5    1    3    3    0  502 -0.17736864212E+04  0.16935741478E+03 -0.71455894359E+03  0.19197036304E+04  0.46999998093E+01 0.  1.
</event>
<event>
 5   0  0.3212523E-08  0.3605960E+04  0.7818609E-02  0.8089128E-01
       -1   -1    0    0    0  501  0.00000000000E+00  0.00000000000E+00  0.11105190575E+04  0.11105190575E+04  0.50400001928E-02 0.  1.
        1   -1    0    0  501    0  0.00000000000E+00  0.00000000000E+00 -0.29272229800E+04  0.29272229800E+04  0.50400001928E-02 0. -1.
    10030    2    1    2    0    0  0.00000000000E+00  0.00000000000E+00 -0.18167039225E+04  0.40377420375E+04  0.36059600136E+04 0.  0.
        3    1    3    3  502    0 -0.12910575745E+04 -0.28134680840E+03 -0.22819194823E+04  0.26368811542E+04  0.10100000352E+00 0. -1.
       -3    1    3    3    0  502  0.12910575745E+04  0.28134680840E+03  0.46521555982E+03  0.14008608833E+04  0.10100000352E+00 0.  1.
</event>
<event>
 5   0  0.1017794E-07  0.3601409E+04  0.7818609E-02  0.8090169E-01
       -2   -1    0    0    0  501  0.00000000000E+00  0.00000000000E+00  0.12819493091E+04  0.12819493091E+04  0.25500000920E-02 0. -1.
        2   -1    0    0  501    0  0.00000000000E+00  0.00000000000E+00 -0.25293795862E+04  0.25293795862E+04  0.25500000920E-02 0.  1.
    10030    2    1    2    0    0  0.00000000000E+00  0.00000000000E+00 -0.12474302771E+04  0.38113288952E+04  0.36014088426E+04 0.  0.
        1    1    3    3  502    0 -0.21604766428E+03  0.93673261508E+03 -0.22350930997E+04  0.24330609835E+04  0.50400001928E-02 0.  1.
       -1    1    3    3    0  502  0.21604766428E+03 -0.93673261508E+03  0.98766282256E+03  0.13782679117E+04  0.50400001928E-02 0. -1.
</event>
<event>
 5   0  0.3202875E-08  0.3601167E+04  0.7818609E-02  0.8090225E-01
        1   -1    0    0  501    0  0.00000000000E+00  0.00000000000E+00  0.19227001797E+04  0.19227001797E+04  0.50400001928E-02 0.  1.
       -1   -1    0    0    0  501  0.00000000000E+00  0.00000000000E+00 -0.16862224436E+04  0.16862224436E+04  0.50400001928E-02 0. -1.
    10030    2    1    2    0    0  0.00000000000E+00  0.00000000000E+00  0.23647773616E+03  0.36089226233E+04  0.36011665862E+04 0.  0.
        1    1    3    3  502    0  0.16726610553E+04  0.41758436494E+03  0.63890426961E+03  0.18385783566E+04  0.50400001928E-02 0.  1.
       -1    1    3    3    0  502 -0.16726610553E+04 -0.41758436494E+03 -0.40242653345E+03  0.17703442667E+04  0.50400001928E-02 0. -1.
</event>
<event>
 5   0  0.1017794E-07  0.3601114E+04  0.7818609E-02  0.8090237E-01
        2   -1    0    0  501    0  0.00000000000E+00  0.00000000000E+00  0.20401139209E+04  0.20401139209E+04  0.25500000920E-02 0.  1.
       -2   -1    0    0    0  501  0.00000000000E+00  0.00000000000E+00 -0.15891292273E+04  0.15891292273E+04  0.25500000920E-02 0. -1.
    10030    2    1    2    0    0  0.00000000000E+00  0.00000000000E+00  0.45098469363E+03  0.36292431481E+04  0.36011135270E+04 0.  0.
        1    1    3    3  502    0 -0.38109793972E+03 -0.93810765333E+03 -0.12750040994E+04  0.16281637088E+04  0.50400001928E-02 0. -1.
       -1    1    3    3    0  502  0.38109793972E+03  0.93810765333E+03  0.17259887931E+04  0.20010794394E+04  0.50400001928E-02 0.  1.
</event>
<event>
 5   0  0.1017794E-07  0.3608086E+04  0.7818609E-02  0.8088642E-01
       -2   -1    0    0    0  501  0.00000000000E+00  0.00000000000E+00  0.11454759741E+04  0.11454759741E+04  0.25500000920E-02 0.  1.
        2   -1    0    0  501    0  0.00000000000E+00  0.00000000000E+00 -0.28412392940E+04  0.28412392940E+04  0.25500000920E-02 0. -1.
    10030    2    1    2    0    0  0.00000000000E+00  0.00000000000E+00 -0.16957633199E+04  0.39867152682E+04  0.36080861121E+04 0.  0.
        1    1    3    3  502    0 -0.10776623114E+04 -0.36080281334E+03 -0.23959941913E+04  0.26518527282E+04  0.50400001928E-02 0. -1.
       -1    1    3    3    0  502  0.10776623114E+04  0.36080281334E+03  0.70023087136E+03  0.13348625400E+04  0.50400001928E-02 0.  1.
</event>
<event>
 5   0  0.9905335E-08  0.3606607E+04  0.7818609E-02  0.8088980E-01
       -2   -1    0    0    0  501  0.00000000000E+00  0.00000000000E+00  0.14148445370E+04  0.14148445370E+04  0.25500000920E-02 0. -1.
        2   -1    0    0  501    0  0.00000000000E+00  0.00000000000E+00 -0.22984178342E+04  0.22984178342E+04  0.25500000920E-02 0.  1.
    10030    2    1    2    0    0  0.00000000000E+00  0.00000000000E+00 -0.88357329727E+03  0.37132623712E+04  0.36066072237E+04 0.  0.
        5    1    3    3  502    0  0.30473060174E+03  0.41594458401E+03  0.13373221351E+04  0.14332910450E+04  0.46999998093E+01 0. -1.
       -5    1    3    3    0  502 -0.30473060174E+03 -0.41594458401E+03 -0.22208954324E+04  0.22799713262E+04  0.46999998093E+01 0.  1.
</event>
<event>
 5   0  0.1021087E-07  0.3595232E+04  0.7818609E-02  0.8091585E-01
        2   -1    0    0  501    0  0.00000000000E+00  0.00000000000E+00  0.21578637765E+04  0.21578637765E+04  0.25500000920E-02 0.  1.
       -2   -1    0    0    0  501  0.00000000000E+00  0.00000000000E+00 -0.14975102013E+04  0.14975102013E+04  0.25500000920E-02 0. -1.
    10030    2    1    2    0    0  0.00000000000E+00  0.00000000000E+00  0.66035357521E+03  0.36553739778E+04  0.35952318525E+04 0.  0.
        3    1    3    3  502    0 -0.33308461325E+03 -0.56296791144E+03 -0.13722116526E+04  0.15201457360E+04  0.10100000352E+00 0. -1.
       -3    1    3    3    0  502  0.33308461325E+03  0.56296791144E+03  0.20325652278E+04  0.21352282418E+04  0.10100000352E+00 0.  1.
</event>
<event>
 5   0  0.3215494E-08  0.3616530E+04  0.7818609E-02  0.8086716E-01
        1   -1    0    0  501    0  0.00000000000E+00  0.00000000000E+00  0.18001933436E+04  0.18001933436E+04  0.50400001928E-02 0. -1.
       -1   -1    0    0    0  501  0.00000000000E+00  0.00000000000E+00 -0.18163733456E+04  0.18163733456E+04  0.50400001928E-02 0.  1.
    10030    2    1    2    0    0  0.00000000000E+00  0.00000000000E+00 -0.16180001947E+02  0.36165666892E+04  0.36165304955E+04 0.  0.
        4    1    3    3  502    0  0.17224504146E+03  0.16776633640E+04 -0.66047592563E+03  0.18112020259E+04  0.12699999809E+01 0.  1.
       -4    1    3    3    0  502 -0.17224504146E+03 -0.16776633640E+04  0.64429592368E+03  0.18053646633E+04  0.12699999809E+01 0. -1.
</event>
<event>
 5   0  0.3212523E-08  0.3600432E+04  0.7818609E-02  0.8090393E-01
       -1   -1    0    0    0  501  0.00000000000E+00  0.00000000000E+00  0.12239503702E+04  0.12239503702E+04  0.50400001928E-02 0. -1.
        1   -1    0    0  501    0  0.00000000000E+00  0.00000000000E+00 -0.26478014215E+04  0.26478014215E+04  0.50400001928E-02 0.  1.
    10030    2    1    2    0    0  0.00000000000E+00  0.00000000000E+00 -0.14238510513E+04  0.38717517917E+04  0.36004319353E+04 0.  0.
        3    1    3    3  502    0  0.57026530073E+03 -0.12745482424E+04  0.50996738066E+03  0.14865202572E+04  0.10100000352E+00 0. -1.
       -3    1    3    3    0  502 -0.57026530073E+03  0.12745482424E+04 -0.19338184320E+04  0.23852315346E+04  0.10100000352E+00 0.  1.
</event>
<event>
 5   0  0.3202875E-08  0.3599444E+04  0.7818609E-02  0.8090619E-01
       -1   -1    0    0    0  501  0.00000000000E+00  0.00000000000E+00  0.15634127828E+04  0.15634127828E+04  0.50400001928E-02 0.  1.
        1   -1    0    0  501    0  0.00000000000E+00  0.00000000000E+00 -0.20717495142E+04  0.20717495142E+04  0.50400001928E-02 0. -1.
    10030    2    1    2    0    0  0.00000000000E+00  0.00000000000E+00 -0.50833673141E+03  0.36351622969E+04  0.35994442200E+04 0.  0.
        2    1    3    3  502    0  0.47192106060E+03 -0.36197469276E+03 -0.19696306502E+04  0.20574693348E+04  0.25500000920E-02 0. -1.
       -2    1    3    3    0  502 -0.47192106060E+03  0.36197469276E+03  0.14612939188E+04  0.15776929621E+04  0.25500000920E-02 0.  1.
</event>
<event>
 5   0  0.3202875E-08  0.3609559E+04  0.7818609E-02  0.8088306E-01
       -1   -1    0    0    0  501  0.00000000000E+00  0.00000000000E+00  0.94456534194E+03  0.94456534195E+03  0.50400001928E-02 0.  1.
        1   -1    0    0  501    0  0.00000000000E+00  0.00000000000E+00 -0.34483889882E+04  0.34483889882E+04  0.50400001928E-02 0. -1.
    10030    2    1    2    0    0  0.00000000000E+00  0.00000000000E+00 -0.25038236462E+04  0.43929543301E+04  0.36095588228E+04 0.  0.
        1    1    3    3  502    0  0.16599415534E+03 -0.12573072734E+04 -0.28146763519E+04  0.30871959130E+04  0.50400001928E-02 0. -1.
       -1    1    3    3    0  502 -0.16599415534E+03  0.12573072734E+04  0.31085270564E+03  0.13057584171E+04  0.50400001928E-02 0.  1.
</event>
<event>
 5   0  0.1017794E-07  0.3609500E+04  0.7818609E-02  0.8088319E-01
       -2   -1    0    0    0  501  0.00000000000E+00  0.00000000000E+00  0.12146736846E+04  0.12146736846E+04  0.25500000920E-02 0. -1.
        2   -1    0    0  501    0  0.00000000000E+00  0.00000000000E+00 -0.26814799821E+04  0.26814799821E+04  0.25500000920E-02 0.  1.
    10030    2    1    2    0    0  0.00000000000E+00  0.00000000000E+00 -0.14668062975E+04  0.38961536666E+04  0.36095003366E+04 0.  0.
        1    1    3    3  502    0  0.88985679457E+03  0.32939260309E+03 -0.23905018648E+04  0.25719338575E+04  0.50400001928E-02 0.  1.
       -1    1    3    3    0  502 -0.88985679457E+03 -0.32939260309E+03  0.92369556732E+03  0.13242198091E+04  0.50400001928E-02 0. -1.
</event>
<event>
 5   0  0.3212523E-08  0.3597622E+04  0.7818609E-02  0.8091037E-01
       -1   -1    0    0    0  501  0.00000000000E+00  0.00000000000E+00  0.15118627097E+04  0.15118627097E+04  0.50400001928E-02 0. -1.
        1   -1    0    0  501    0  0.00000000000E+00  0.00000000000E+00 -0.21402213782E+04  0.21402213782E+04  0.50400001928E-02 0.  1.
    10030    2    1    2    0    0  0.00000000000E+00  0.00000000000E+00 -0.62835866849E+03  0.36520840880E+04  0.35976219325E+04 0.  0.
        3    1    3    3  502    0  0.16983715717E+04 -0.75170964485E+02  0.28260135270E+03  0.17233630506E+04  0.10100000352E+00 0. -1.
       -3    1    3    3    0  502 -0.16983715717E+04  0.75170964485E+02 -0.91096002119E+03  0.19287210374E+04  0.10100000352E+00 0.  1.
</event>
<event>
 5   0  0.1044678E-07  0.3600293E+04  0.7818609E-02  0.8090425E-01
       -2   -1    0    0    0  501  0.00000000000E+00  0.00000000000E+00  0.19670327861E+04  0.19670327861E+04  0.25500000920E-02 0.  1.
        2   -1    0    0  501    0  0.00000000000E+00  0.00000000000E+00 -0.16474194215E+04  0.16474194215E+04  0.25500000920E-02 0. -1.
    10030    2    1    2    0    0  0.00000000000E+00  0.00000000000E+00  0.31961336456E+03  0.36144522076E+04  0.36002933294E+04 0.  0.
        2    1    3    3  502    0 -0.14902511257E+04  0.97522776055E+03 -0.10315932594E+03  0.17839729396E+04  0.25500000920E-02 0. -1.
       -2    1    3    3    0  502  0.14902511257E+04 -0.97522776055E+03  0.42277269050E+03  0.18304792680E+04  0.25500000920E-02 0.  1.
</event>
<event>
 5   0  0.3279988E-08  0.3599053E+04  0.7818609E-02  0.8090709E-01
        1   -1    0    0  501    0  0.00000000000E+00  0.00000000000E+00  0.21230769238E+04  0.21230769238E+04  0.50400001928E-02 0.  1.
       -1   -1    0    0    0  501  0.00000000000E+00  0.00000000000E+00 -0.15252838266E+04  0.15252838266E+04  0.50400001928E-02 0. -1.
    10030    2    1    2    0    0  0.00000000000E+00  0.00000000000E+00  0.59779309721E+03  0.36483607504E+04  0.35990525945E+04 0.  0.
        5    1    3    3  502    0  0.30088701584E+03  0.11895554975E+04 -0.10354571365E+04  0.16055431634E+04  0.46999998093E+01 0. -1.
       -5    1    3    3    0  502 -0.30088701584E+03 -0.11895554975E+04  0.16332502338E+04  0.20428175870E+04  0.46999998093E+01 0.  1.
</event>
<event>
 5   0  0.1029908E-07  0.3600572E+04  0.7818609E-02  0.8090361E-01
        2   -1    0    0  501    0  0.00000000000E+00  0.00000000000E+00  0.27894231739E+04  0.27894231739E+04  0.25500000920E-02 0.  1.
       -2   -1    0    0    0  501  0.00000000000E+00  0.00000000000E+00 -0.11618997145E+04  0.11618997145E+04  0.25500000920E-02 0. -1.
    10030    2    1    2    0    0  0.00000000000E+00  0.00000000000E+00  0.16275234594E+04  0.39513228884E+04  0.36005721709E+04 0.  0.
        4    1    3    3  502    0 -0.48592782516E+03 -0.15050890822E+04 -0.13002138891E+03  0.15869234925E+04  0.12699999809E+01 0. -1.
       -4    1    3    3    0  502  0.48592782516E+03  0.15050890822E+04  0.17575448483E+04  0.23643993959E+04  0.12699999809E+01 0.  1.
</event>
<event>
 5   0  0.1017794E-07  0.3599045E+04  0.7818609E-02  0.8090711E-01
        2   -1    0    0  501    0  0.00000000000E+00  0.00000000000E+00  0.12632944038E+04  0.12632944038E+04  0.25500000920E-02 0. -1.
       -2   -1    0    0    0  501  0.00000000000E+00  0.00000000000E+00 -0.25633617449E+04  0.25633617449E+04  0.25500000920E-02 0.  1.
    10030    2    1    2    0    0  0.00000000000E+00  0.00000000000E+00 -0.13000673411E+04  0.38266561487E+04  0.35990446217E+04 0.  0.
        1    1    3    3  502    0 -0.11546044212E+04  0.20304309199E+03 -0.21016387692E+04  0.24064960800E+04  0.50400001928E-02 0.  1.
       -1    1    3    3    0  502  0.11546044212E+04 -0.20304309199E+03  0.80157142806E+03  0.14201600688E+04  0.50400001928E-02 0. -1.
</event>
<event>
 5   0  0.1017794E-07  0.3597132E+04  0.7818609E-02  0.8091149E-01
        2   -1    0    0  501    0  0.00000000000E+00  0.00000000000E+00  0.27665168920E+04  0.27665168920E+04  0.25500000920E-02 0.  1.
       -2   -1    0    0    0  501  0.00000000000E+00  0.00000000000E+00 -0.11692821284E+04  0.11692821284E+04  0.25500000920E-02 0. -1.
    10030    2    1    2    0    0  0.00000000000E+00  0.00000000000E+00  0.15972347636E+04  0.39357990204E+04  0.35971315014E+04 0.  0.
        1    1    3    3  502    0 -0.11221691212E+04  0.37345912707E+03  0.22812214183E+04  0.25695731972E+04  0.50400001928E-02 0.  1.
       -1    1    3    3    0  502  0.11221691212E+04 -0.37345912707E+03 -0.68398665471E+03  0.13662258232E+04  0.50400001928E-02 0. -1.
</event>
<event>
 5   0  0.3215494E-08  0.3592578E+04  0.7818609E-02  0.8092194E-01
       -1   -1    0    0    0  501  0.00000000000E+00  0.00000000000E+00  0.14690522580E+04  0.14690522580E+04  0.50400001928E-02 0. -1.
        1   -1    0    0  501    0  0.00000000000E+00  0.00000000000E+00 -0.21964190129E+04  0.21964190129E+04  0.50400001928E-02 0.  1.
    10030    2    1    2    0    0  0.00000000000E+00  0.00000000000E+00 -0.72736675490E+03  0.36654712709E+04  0.35925780773E+04 0.  0.
        4    1    3    3  502    0 -0.16506998863E+04 -0.43500269696E+03 -0.93414794524E+03  0.19459371669E+04  0.12699999809E+01 0.  1.
       -4    1    3    3    0  502  0.16506998863E+04  0.43500269696E+03  0.20678119033E+03  0.17195341039E+04  0.12699999809E+01 0. -1.
</event>
<event>
 5   0  0.1029908E-07  0.3640878E+04  0.7818609E-02  0.8081192E-01
        2   -1    0    0  501    0  0.00000000000E+00  0.00000000000E+00  0.18322391612E+04  0.18322391612E+04  0.25500000920E-02 0. -1.
       -2   -1    0    0    0  501  0.00000000000E+00  0.00000000000E+00 -0.18087143483E+04  0.18087143483E+04  0.25500000920E-02 0.  1.
    10030    2    1    2    0    0  0.00000000000E+00  0.00000000000E+00  0.23524812873E+02  0.36409535094E+04  0.36408775098E+04 0.  0.
        4    1    3    3  502    0 -0.34067516417E+03  0.31571281571E+03 -0.17484622512E+04  0.18091036472E+04  0.12699999809E+01 0.  1.
       -4    1    3    3    0  502  0.34067516417E+03 -0.31571281571E+03  0.17719870641E+04  0.18318498622E+04  0.12699999809E+01 0. -1.
</event>
<event>
 5   0  0.1029908E-07  0.3600775E+04  0.7818609E-02  0.8090314E-01
        2   -1    0    0  501    0  0.00000000000E+00  0.00000000000E+00  0.16510814562E+04  0.16510814562E+04  0.25500000920E-02 0. -1.
       -2   -1    0    0    0  501  0.00000000000E+00  0.00000000000E+00 -0.19631949474E+04  0.19631949474E+04  0.25500000920E-02 0.  1.
    10030    2    1    2    0    0  0.00000000000E+00  0.00000000000E+00 -0.31211349121E+03  0.36142764036E+04  0.36007747902E+04 0.  0.
        4    1    3    3  502    0 -0.11536146309E+04 -0.30969965765E+03 -0.15081982584E+04  0.19239033744E+04  0.12699999809E+01 0.  1.
       -4    1    3    3    0  502  0.11536146309E+04  0.30969965765E+03  0.11960847671E+04  0.16903730292E+04  0.12699999809E+01 0. -1.
</event>
<event>
 5   0  0.3202875E-08  0.3600677E+04  0.7818609E-02  0.8090337E-01
       -1   -1    0    0    0  501  0.00000000000E+00  0.00000000000E+00  0.22139905430E+04  0.22139905430E+04  0.50400001928E-02 0.  1.
        1   -1    0    0  501    0  0.00000000000E+00  0.00000000000E+00 -0.14639713779E+04  0.14639713779E+04  0.50400001928E-02 0. -1.
    10030    2    1    2    0    0  0.00000000000E+00  0.00000000000E+00  0.75001916516E+03  0.36779619209E+04  0.36006770396E+04 0.  0.
        2    1    3    3  502    0  0.17337859914E+03 -0.11654263716E+04  0.17654543427E+04  0.21225239227E+04  0.25500000920E-02 0.  1.
       -2    1    3    3    0  502 -0.17337859914E+03  0.11654263716E+04 -0.10154351776E+04  0.15554379982E+04  0.25500000920E-02 0. -1.
</event>
<event>
 5   0  0.1017794E-07  0.3600262E+04  0.7818609E-02  0.8090432E-01
        2   -1    0    0  501    0  0.00000000000E+00  0.00000000000E+00  0.23920628202E+04  0.23920628202E+04  0.25500000920E-02 0.  1.
       -2   -1    0    0    0  501  0.00000000000E+00  0.00000000000E+00 -0.13546762673E+04  0.13546762673E+04  0.25500000920E-02 0. -1.
    10030    2    1    2    0    0  0.00000000000E+00  0.00000000000E+00  0.10373865529E+04  0.37467390876E+04  0.36002615086E+04 0.  0.
        1    1    3    3  502    0  0.14750230953E+04 -0.10181864000E+04  0.34432319044E+03  0.18250904461E+04  0.50400001928E-02 0. -1.
       -1    1    3    3    0  502 -0.14750230953E+04  0.10181864000E+04  0.69306336244E+03  0.19216486415E+04  0.50400001928E-02 0.  1.
</event>
<event>
 5   0  0.3279988E-08  0.3600211E+04  0.7818609E-02  0.8090443E-01
        1   -1    0    0  501    0  0.00000000000E+00  0.00000000000E+00  0.21648485873E+04  0.21648485873E+04  0.50400001928E-02 0. -1.
       -1   -1    0    0    0  501  0.00000000000E+00  0.00000000000E+00 -0.14968157969E+04  0.14968157969E+04  0.50400001928E-02 0.  1.
    10030    2    1    2    0    0  0.00000000000E+00  0.00000000000E+00  0.66803279041E+03  0.36616643842E+04  0.36002108624E+04 0.  0.
        5    1    3    3  502    0 -0.34002836472E+03  0.47756174956E+00  0.21318827261E+04  0.21588343069E+04  0.46999998093E+01 0. -1.
       -5    1    3    3    0  502  0.34002836472E+03 -0.47756174956E+00 -0.14638499357E+04  0.15028300773E+04  0.46999998093E+01 0.  1.
</event>
<event>
 5   0  0.3279988E-08  0.3598379E+04  0.7818609E-02  0.8090863E-01
       -1   -1    0    0    0  501  0.00000000000E+00  0.00000000000E+00  0.18631705976E+04  0.18631705976E+04  0.50400001928E-02 0. -1.
        1   -1    0    0  501    0  0.00000000000E+00  0.00000000000E+00 -0.17374054569E+04  0.17374054569E+04  0.50400001928E-02 0.  1.
    10030    2    1    2    0    0  0.00000000000E+00  0.00000000000E+00  0.12576514069E+03  0.36005760544E+04  0.35983789480E+04 0.  0.
        5    1    3    3  502    0  0.12940066442E+04 -0.51374497804E+03  0.12031719871E+04  0.18401173925E+04  0.46999998093E+01 0. -1.
       -5    1    3    3    0  502 -0.12940066442E+04  0.51374497804E+03 -0.10774068464E+04  0.17604586619E+04  0.46999998093E+01 0.  1.
</event>
<event>
 5   0  0.3279988E-08  0.3596700E+04  0.7818609E-02  0.8091248E-01
        1   -1    0    0  501    0  0.00000000000E+00  0.00000000000E+00  0.18854569431E+04  0.18854569431E+04  0.50400001928E-02 0.  1.
       -1   -1    0    0    0  501  0.00000000000E+00  0.00000000000E+00 -0.17152676692E+04  0.17152676692E+04  0.50400001928E-02 0. -1.
    10030    2    1    2    0    0  0.00000000000E+00  0.00000000000E+00  0.17018927394E+03  0.36007246123E+04  0.35967003413E+04 0.  0.
        5    1    3    3  502    0 -0.10104924758E+04  0.67475300071E+03 -0.12421543959E+04  0.17376295028E+04  0.46999998093E+01 0. -1.
       -5    1    3    3    0  502  0.10104924758E+04 -0.67475300071E+03  0.14123436698E+04  0.18630951096E+04  0.46999998093E+01 0.  1.
</event>
<event>
 5   0  0.3202875E-08  0.3600423E+04  0.7818609E-02  0.8090395E-01
        1   -1    0    0  501    0  0.00000000000E+00  0.00000000000E+00  0.22855840150E+04  0.22855840150E+04  0.50400001928E-02 0.  1.
       -1   -1    0    0    0  501  0.00000000000E+00  0.00000000000E+00 -0.14179140656E+04  0.14179140656E+04  0.50400001928E-02 0. -1.
    10030    2    1    2    0    0  0.00000000000E+00  0.00000000000E+00  0.86766994937E+03  0.37034980806E+04  0.36004231546E+04 0.  0.
        2    1    3    3  502    0 -0.94041625458E+03  0.28852368555E+03 -0.11170193605E+04  0.14884088486E+04  0.25500000920E-02 0. -1.
       -2    1    3    3    0  502  0.94041625458E+03 -0.28852368555E+03  0.19846893098E+04  0.22150892320E+04  0.25500000920E-02 0.  1.
</event>
<event>
 5   0  0.1021087E-07  0.3594753E+04  0.7818609E-02  0.8091695E-01
        2   -1    0    0  501    0  0.00000000000E+00  0.00000000000E+00  0.19029994572E+04  0.19029994572E+04  0.25500000920E-02 0.  1.
       -2   -1    0    0    0  501  0.00000000000E+00  0.00000000000E+00 -0.16976160912E+04  0.16976160912E+04  0.25500000920E-02 0. -1.
    10030    2    1    2    0    0  0.00000000000E+00  0.00000000000E+00  0.20538336598E+03  0.36006155484E+04  0.35947531209E+04 0.  0.
        3    1    3    3  502    0  0.61287333522E+03  0.97526009005E+03  0.14847304607E+04  0.18791408993E+04  0.10100000352E+00 0.  1.
       -3    1    3    3    0  502 -0.61287333522E+03 -0.97526009005E+03 -0.12793470947E+04  0.17214746490E+04  0.10100000352E+00 0. -1.
</event>
<event>
 5   0  0.9905335E-08  0.3600658E+04  0.7818609E-02  0.8090341E-01
       -2   -1    0    0    0  501  0.00000000000E+00  0.00000000000E+00  0.12930334987E+04  0.12930334988E+04  0.25500000920E-02 0. -1.
        2   -1    0    0  501    0  0.00000000000E+00  0.00000000000E+00 -0.25066518752E+04  0.25066518752E+04  0.25500000920E-02 0.  1.
    10030    2    1    2    0    0  0.00000000000E+00  0.00000000000E+00 -0.12136183764E+04  0.37996853739E+04  0.36006581867E+04 0.  0.
        5    1    3    3  502    0  0.95816753041E+03 -0.80658148075E+03 -0.19715473354E+04  0.23357396446E+04  0.46999998093E+01 0.  1.
       -5    1    3    3    0  502 -0.95816753041E+03  0.80658148075E+03  0.75792895904E+03  0.14639457293E+04  0.46999998093E+01 0. -1.
</event>
<event>
 5   0  0.1044678E-07  0.3583135E+04  0.7818609E-02  0.8094366E-01
       -2   -1    0    0    0  501  0.00000000000E+00  0.00000000000E+00  0.21305710926E+04  0.21305710926E+04  0.25500000920E-02 0. -1.
        2   -1    0    0  501    0  0.00000000000E+00  0.00000000000E+00 -0.15065042558E+04  0.15065042558E+04  0.25500000920E-02 0.  1.
    10030    2    1    2    0    0  0.00000000000E+00  0.00000000000E+00  0.62406683681E+03  0.36370753484E+04  0.35831351737E+04 0.  0.
        2    1    3    3  502    0 -0.13825996887E+04 -0.10967427144E+04 -0.13009756573E+01  0.17647742557E+04  0.25500000920E-02 0. -1.
       -2    1    3    3    0  502  0.13825996887E+04  0.10967427144E+04  0.62536781247E+03  0.18723010927E+04  0.25500000920E-02 0.  1.
</event>
<event>
 5   0  0.3215494E-08  0.3602091E+04  0.7818609E-02  0.8090013E-01
       -1   -1    0    0    0  501  0.00000000000E+00  0.00000000000E+00  0.11019655953E+04  0.11019655953E+04  0.50400001928E-02 0.  1.
        1   -1    0    0  501    0  0.00000000000E+00  0.00000000000E+00 -0.29436166585E+04  0.29436166585E+04  0.50400001928E-02 0. -1.
    10030    2    1    2    0    0  0.00000000000E+00  0.00000000000E+00 -0.18416510631E+04  0.40455822538E+04  0.36020906615E+04 0.  0.
        4    1    3    3  502    0 -0.17875751892E+04  0.58913097082E+02 -0.68292838288E+03  0.19144943455E+04  0.12699999809E+01 0.  1.
       -4    1    3    3    0  502  0.17875751892E+04 -0.58913097082E+02 -0.11587226803E+04  0.21310879083E+04  0.12699999809E+01 0. -1.
</event>
<event>
 5   0  0.1017794E-07  0.3597469E+04  0.7818609E-02  0.8091072E-01
        2   -1    0    0  501    0  0.00000000000E+00  0.00000000000E+00  0.14275791252E+04  0.14275791252E+04  0.25500000920E-02 0.  1.
       -2   -1    0    0    0  501  0.00000000000E+00  0.00000000000E+00 -0.22663866105E+04  0.22663866105E+04  0.25500000920E-02 0. -1.
    10030    2    1    2    0    0  0.00000000000E+00  0.00000000000E+00 -0.83880748532E+03  0.36939657357E+04  0.35974692297E+04 0.  0.
        1    1    3    3  502    0  0.37901897893E+03  0.10254964391E+04  0.10472466374E+04  0.15139431471E+04  0.50400001928E-02 0.  1.
       -1    1    3    3    0  502 -0.37901897893E+03 -0.10254964391E+04 -0.18860541227E+04  0.21800225886E+04  0.50400001928E-02 0. -1.
</event>
<event>
 5   0  0.3202875E-08  0.3610558E+04  0.7818609E-02  0.8088077E-01
       -1   -1    0    0    0  501  0.00000000000E+00  0.00000000000E+00  0.25246413322E+04  0.25246413322E+04  0.50400001928E-02 0. -1.
        1   -1    0    0  501    0  0.00000000000E+00  0.00000000000E+00 -0.12908895443E+04  0.12908895443E+04  0.50400001928E-02 0.  1.
    10030    2    1    2    0    0  0.00000000000E+00  0.00000000000E+00  0.12337517879E+04  0.38155308765E+04  0.36105584603E+04 0.  0.
        2    1    3    3  502    0 -0.16002547425E+04  0.62354329625E+03  0.12047020381E+04  0.20978390033E+04  0.25500000920E-02 0. -1.
       -2    1    3    3    0  502  0.16002547425E+04 -0.62354329625E+03  0.29049749739E+02  0.17176918732E+04  0.25500000920E-02 0.  1.
</event>
<event>
 5   0  0.3202875E-08  0.3587269E+04  0.7818609E-02  0.8093414E-01
       -1   -1    0    0    0  501  0.00000000000E+00  0.00000000000E+00  0.12803005333E+04  0.12803005333E+04  0.50400001928E-02 0. -1.
        1   -1    0    0  501    0  0.00000000000E+00  0.00000000000E+00 -0.25127891520E+04  0.25127891520E+04  0.50400001928E-02 0.  1.
    10030    2    1    2    0    0  0.00000000000E+00  0.00000000000E+00 -0.12324886188E+04  0.37930896853E+04  0.35872693188E+04 0.  0.
        1    1    3    3  502    0  0.57258576104E+03 -0.13212635055E+04 -0.17469604477E+04  0.22639484337E+04  0.50400001928E-02 0.  1.
       -1    1    3    3    0  502 -0.57258576104E+03  0.13212635055E+04  0.51447182892E+03  0.15291412516E+04  0.50400001928E-02 0. -1.
</event>
<event>
 5   0  0.3212523E-08  0.3596578E+04  0.7818609E-02  0.8091276E-01
        1   -1    0    0  501    0  0.00000000000E+00  0.00000000000E+00  0.24743497861E+04  0.24743497861E+04  0.50400001928E-02 0.  1.
       -1   -1    0    0    0  501  0.00000000000E+00  0.00000000000E+00 -0.13069466333E+04  0.13069466333E+04  0.50400001928E-02 0. -1.
    10030    2    1    2    0    0  0.00000000000E+00  0.00000000000E+00  0.11674031528E+04  0.37812964194E+04  0.35965778860E+04 0.  0.
        3    1    3    3  502    0 -0.16044458697E+04  0.72523048355E+03  0.96804115975E+03  0.20093057259E+04  0.10100000352E+00 0.  1.
       -3    1    3    3    0  502  0.16044458697E+04 -0.72523048355E+03  0.19936199308E+03  0.17719906934E+04  0.10100000352E+00 0. -1.
</event>
<event>
 5   0  0.3202875E-08  0.3596907E+04  0.7818609E-02  0.8091201E-01
       -1   -1    0    0    0  501  0.00000000000E+00  0.00000000000E+00  0.17858365108E+04  0.17858365108E+04  0.50400001928E-02 0. -1.
        1   -1    0    0  501    0  0.00000000000E+00  0.00000000000E+00 -0.18111591687E+04  0.18111591687E+04  0.50400001928E-02 0.  1.
    10030    2    1    2    0    0  0.00000000000E+00  0.00000000000E+00 -0.25322657915E+02  0.35969956795E+04  0.35969065433E+04 0.  0.
        2    1    3    3  502    0  0.17218858011E+04 -0.50625617188E+03  0.10244211682E+03  0.17976875176E+04  0.25500000920E-02 0. -1.
       -2    1    3    3    0  502 -0.17218858011E+04  0.50625617188E+03 -0.12776477473E+03  0.17993081619E+04  0.25500000920E-02 0.  1.
</event>
<event>
 5   0  0.3212523E-08  0.3592643E+04  0.7818609E-02  0.8092179E-01
        1   -1    0    0  501    0  0.00000000000E+00  0.00000000000E+00  0.10057141640E+04  0.10057141640E+04  0.50400001928E-02 0. -1.
       -1   -1    0    0    0  501  0.00000000000E+00  0.00000000000E+00 -0.32084370921E+04  0.32084370921E+04  0.50400001928E-02 0.  1.
    10030    2    1    2    0    0  0.00000000000E+00  0.00000000000E+00 -0.22027229281E+04  0.42141512562E+04  0.35926428311E+04 0.  0.
        3    1    3    3  502    0  0.36448812210E+02 -0.16357481393E+03 -0.31992472433E+04  0.32036335885E+04  0.10100000352E+00 0.  1.
       -3    1    3    3    0  502 -0.36448812210E+02  0.16357481393E+03  0.99652431519E+03  0.10105176676E+04  0.10100000352E+00 0. -1.
</event>
<event>
 5   0  0.3202875E-08  0.3603374E+04  0.7818609E-02  0.8089719E-01
        1   -1    0    0  501    0  0.00000000000E+00  0.00000000000E+00  0.15594335808E+04  0.15594335808E+04  0.50400001928E-02 0.  1.
       -1   -1    0    0    0  501  0.00000000000E+00  0.00000000000E+00 -0.20815735906E+04  0.20815735906E+04  0.50400001928E-02 0. -1.
    10030    2    1    2    0    0  0.00000000000E+00  0.00000000000E+00 -0.52214000976E+03  0.36410071714E+04  0.36033738402E+04 0.  0.
        1    1    3    3  502    0  0.70095160695E+03 -0.37864216175E+03  0.13717813244E+04  0.15863439236E+04  0.50400001928E-02 0.  1.
       -1    1    3    3    0  502 -0.70095160695E+03  0.37864216175E+03 -0.18939213342E+04  0.20546632478E+04  0.50400001928E-02 0. -1.
</event>
<event>
 5   0  0.3202875E-08  0.3599066E+04  0.7818609E-02  0.8090706E-01
       -1   -1    0    0    0  501  0.00000000000E+00  0.00000000000E+00  0.19185023422E+04  0.19185023423E+04  0.50400001928E-02 0. -1.
        1   -1    0    0  501    0  0.00000000000E+00  0.00000000000E+00 -0.16879414659E+04  0.16879414659E+04  0.50400001928E-02 0.  1.
    10030    2    1    2    0    0  0.00000000000E+00  0.00000000000E+00  0.23056087635E+03  0.36064438082E+04  0.35990663544E+04 0.  0.
        2    1    3    3  502    0 -0.93375656877E+03  0.77485580947E+03  0.14469201302E+04  0.18883539707E+04  0.25500000920E-02 0. -1.
       -2    1    3    3    0  502  0.93375656877E+03 -0.77485580947E+03 -0.12163592539E+04  0.17180898375E+04  0.25500000920E-02 0.  1.
</event>
<event>
 5   0  0.1044678E-07  0.3595844E+04  0.7818609E-02  0.8091444E-01
        2   -1    0    0  501    0  0.00000000000E+00  0.00000000000E+00  0.21288639989E+04  0.21288639989E+04  0.25500000920E-02 0.  1.
       -2   -1    0    0    0  501  0.00000000000E+00  0.00000000000E+00 -0.15184267395E+04  0.15184267395E+04  0.25500000920E-02 0. -1.
    10030    2    1    2    0    0  0.00000000000E+00  0.00000000000E+00  0.61043725945E+03  0.36472907384E+04  0.35958442795E+04 0.  0.
        2    1    3    3  502    0 -0.81145049835E+03  0.15878098324E+04  0.53857993559E+03  0.18627024245E+04  0.25500000920E-02 0. -1.
       -2    1    3    3    0  502  0.81145049835E+03 -0.15878098324E+04  0.71857323864E+02  0.17845883139E+04  0.25500000920E-02 0.  1.
</event>
<event>
 5   0  0.3202875E-08  0.3552486E+04  0.7818609E-02  0.8101463E-01
       -1   -1    0    0    0  501  0.00000000000E+00  0.00000000000E+00  0.19310155658E+04  0.19310155658E+04  0.50400001928E-02 0.  1.
        1   -1    0    0  501    0  0.00000000000E+00  0.00000000000E+00 -0.16338757365E+04  0.16338757365E+04  0.50400001928E-02 0. -1.
    10030    2    1    2    0    0  0.00000000000E+00  0.00000000000E+00  0.29713982926E+03  0.35648913023E+04  0.35524861603E+04 0.  0.
        2    1    3    3  502    0  0.13481056903E+04  0.10852393998E+04  0.54984873701E+03  0.18158929320E+04  0.25500000920E-02 0.  1.
       -2    1    3    3    0  502 -0.13481056903E+04 -0.10852393998E+04 -0.25270890774E+03  0.17489983702E+04  0.25500000920E-02 0. -1.
</event>
<event>
 5   0  0.3279988E-08  0.3599822E+04  0.7818609E-02  0.8090532E-01
       -1   -1    0    0    0  501  0.00000000000E+00  0.00000000000E+00  0.12705680606E+04  0.12705680606E+04  0.50400001928E-02 0.  1.
        1   -1    0    0  501    0  0.00000000000E+00  0.00000000000E+00 -0.25497888464E+04  0.25497888464E+04  0.50400001928E-02 0. -1.
    10030    2    1    2    0    0  0.00000000000E+00  0.00000000000E+00 -0.12792207858E+04  0.38203569070E+04  0.35998223676E+04 0.  0.
        5    1    3    3  502    0 -0.13102507452E+04  0.11684100188E+04 -0.21814187638E+03  0.17690525587E+04  0.46999998093E+01 0.  1.
       -5    1    3    3    0  502  0.13102507452E+04 -0.11684100188E+04 -0.10610789094E+04  0.20513043483E+04  0.46999998093E+01 0. -1.
</event>
<event>
 5   0  0.1021087E-07  0.3599658E+04  0.7818609E-02  0.8090570E-01
       -2   -1    0    0    0  501  0.00000000000E+00  0.00000000000E+00  0.21532495430E+04  0.21532495430E+04  0.25500000920E-02 0.  1.
        2   -1    0    0  501    0  0.00000000000E+00  0.00000000000E+00 -0.15044166258E+04  0.15044166258E+04  0.25500000920E-02 0. -1.
    10030    2    1    2    0    0  0.00000000000E+00  0.00000000000E+00  0.64883291720E+03  0.36576661687E+04  0.35996579903E+04 0.  0.
        3    1    3    3  502    0 -0.18797094295E+03  0.13209915186E+04 -0.90295308831E+03  0.16111101630E+04  0.10100000352E+00 0. -1.
       -3    1    3    3    0  502  0.18797094295E+03 -0.13209915186E+04  0.15517860055E+04  0.20465560057E+04  0.10100000352E+00 0.  1.
</event>
<event>
 5   0  0.1021087E-07  0.3604656E+04  0.7818609E-02  0.8089426E-01
        2   -1    0    0  501    0  0.00000000000E+00  0.00000000000E+00  0.24995970403E+04  0.24995970403E+04  0.25500000920E-02 0.  1.
       -2   -1    0    0    0  501  0.00000000000E+00  0.00000000000E+00 -0.12995638511E+04  0.12995638511E+04  0.25500000920E-02 0. -1.
    10030    2    1    2    0    0  0.00000000000E+00  0.00000000000E+00  0.12000331892E+04  0.37991608914E+04  0.36046558537E+04 0.  0.
        3    1    3    3  502    0  0.95869343779E+03  0.92263485759E+03  0.18813632585E+04  0.23043167987E+04  0.10100000352E+00 0.  1.
       -3    1    3    3    0  502 -0.95869343779E+03 -0.92263485759E+03 -0.68133006929E+03  0.14948440928E+04  0.10100000352E+00 0. -1.
</event>
<event>
 5   0  0.1029908E-07  0.3587843E+04  0.7818609E-02  0.8093282E-01
       -2   -1    0    0    0  501  0.00000000000E+00  0.00000000000E+00  0.11890062371E+04  0.11890062371E+04  0.25500000920E-02 0. -1.
        2   -1    0    0  501    0  0.00000000000E+00  0.00000000000E+00 -0.27065919059E+04  0.27065919059E+04  0.25500000920E-02 0.  1.
    10030    2    1    2    0    0  0.00000000000E+00  0.00000000000E+00 -0.15175856688E+04  0.38955981429E+04  0.35878431723E+04 0.  0.
        4    1    3    3  502    0  0.12225565975E+04 -0.35950556407E+03  0.61215471685E+03  0.14137269521E+04  0.12699999809E+01 0. -1.
       -4    1    3    3    0  502 -0.12225565975E+04  0.35950556407E+03 -0.21297403857E+04  0.24818711909E+04  0.12699999809E+01 0.  1.
</event>
<event>
 5   0  0.1021087E-07  0.3567874E+04  0.7818609E-02  0.8097891E-01
       -2   -1    0    0    0  501  0.00000000000E+00  0.00000000000E+00  0.14231447792E+04  0.14231447792E+04  0.25500000920E-02 0. -1.
        2   -1    0    0  501    0  0.00000000000E+00  0.00000000000E+00 -0.22361957741E+04  0.22361957741E+04  0.25500000920E-02 0.  1.
    10030    2    1    2    0    0  0.00000000000E+00  0.00000000000E+00 -0.81305099495E+03  0.36593405533E+04  0.35678735073E+04 0.  0.
        3    1    3    3  502    0  0.46367357146E+03  0.16706838239E+04  0.24061867838E+02  0.17340001741E+04  0.10100000352E+00 0. -1.
       -3    1    3    3    0  502 -0.46367357146E+03 -0.16706838239E+04 -0.83711286278E+03  0.19253403791E+04  0.10100000352E+00 0.  1.
</event>
<event>
 5   0  0.1017794E-07  0.3602008E+04  0.7818609E-02  0.8090032E-01
        2   -1    0    0  501    0  0.00000000000E+00  0.00000000000E+00  0.20931885658E+04  0.20931885658E+04  0.25500000920E-02 0.  1.
       -2   -1    0    0    0  501  0.00000000000E+00  0.00000000000E+00 -0.15496048280E+04  0.15496048280E+04  0.25500000920E-02 0. -1.
    10030    2    1    2    0    0  0.00000000000E+00  0.00000000000E+00  0.54358373787E+03  0.36427933938E+04  0.36020078331E+04 0.  0.
        1    1    3    3  502    0  0.71021443520E+03  0.49344129392E+03  0.18694665805E+04  0.20598043961E+04  0.50400001928E-02 0.  1.
       -1    1    3    3    0  502 -0.71021443520E+03 -0.49344129392E+03 -0.13258828426E+04  0.15829889977E+04  0.50400001928E-02 0. -1.
</event>
<event>
 5   0  0.9905335E-08  0.3601182E+04  0.7818609E-02  0.8090221E-01
        2   -1    0    0  501    0  0.00000000000E+00  0.00000000000E+00  0.26946608501E+04  0.26946608501E+04  0.25500000920E-02 0.  1.
       -2   -1    0    0    0  501  0.00000000000E+00  0.00000000000E+00 -0.12031670555E+04  0.12031670555E+04  0.25500000920E-02 0. -1.
    10030    2    1    2    0    0  0.00000000000E+00  0.00000000000E+00  0.14914937947E+04  0.38978279056E+04  0.36011815620E+04 0.  0.
        5    1    3    3  502    0 -0.75027854949E+03 -0.12605138968E+04  0.18759305791E+04  0.23813758236E+04  0.46999998093E+01 0.  1.
       -5    1    3    3    0  502  0.75027854949E+03  0.12605138968E+04 -0.38443678444E+03  0.15164520820E+04  0.46999998093E+01 0. -1.
</event>
<event>
 5   0  0.9905335E-08  0.3596827E+04  0.7818609E-02  0.8091219E-01
       -2   -1    0    0    0  501  0.00000000000E+00  0.00000000000E+00  0.23263955256E+04  0.23263955256E+04  0.25500000920E-02 0. -1.
        2   -1    0    0  501    0  0.00000000000E+00  0.00000000000E+00 -0.13902583087E+04  0.13902583087E+04  0.25500000920E-02 0.  1.
    10030    2    1    2    0    0  0.00000000000E+00  0.00000000000E+00  0.93613721690E+03  0.37166538342E+04  0.35968267730E+04 0.  0.
        5    1    3    3  502    0 -0.14406805329E+04 -0.44280278938E+03  0.14818940119E+04  0.21136855634E+04  0.46999998093E+01 0. -1.
       -5    1    3    3    0  502  0.14406805329E+04  0.44280278938E+03 -0.54575679503E+03  0.16029682709E+04  0.46999998093E+01 0.  1.
</event>
<event>
 5   0  0.3279988E-08  0.3596541E+04  0.7818609E-02  0.8091285E-01
       -1   -1    0    0    0  501  0.00000000000E+00  0.00000000000E+00  0.13330665109E+04  0.13330665109E+04  0.50400001928E-02 0.  1.
        1   -1    0    0  501    0  0.00000000000E+00  0.00000000000E+00 -0.24258176740E+04  0.24258176740E+04  0.50400001928E-02 0. -1.
    10030    2    1    2    0    0  0.00000000000E+00  0.00000000000E+00 -0.10927511631E+04  0.37588841849E+04  0.35965407284E+04 0.  0.
        5    1    3    3  502    0  0.14753135734E+04 -0.47847582931E+03  0.40479542746E+03  0.16029256649E+04  0.46999998093E+01 0.  1.
       -5    1    3    3    0  502 -0.14753135734E+04  0.47847582931E+03 -0.14975465905E+04  0.21559585200E+04  0.46999998093E+01 0. -1.
</event>
<event>
 5   0  0.3202875E-08  0.3600494E+04  0.7818609E-02  0.8090379E-01
       -1   -1    0    0    0  501  0.00000000000E+00  0.00000000000E+00  0.14203181976E+04  0.14203181976E+04  0.50400001928E-02 0.  1.
        1   -1    0    0  501    0  0.00000000000E+00  0.00000000000E+00 -0.22818049097E+04  0.22818049097E+04  0.50400001928E-02 0. -1.
    10030    2    1    2    0    0  0.00000000000E+00  0.00000000000E+00 -0.86148671207E+03  0.37021231073E+04  0.36004938753E+04 0.  0.
        1    1    3    3  502    0  0.15598249886E+04  0.68949555671E+03 -0.10235860674E+04  0.19890164793E+04  0.50400001928E-02 0. -1.
       -1    1    3    3    0  502 -0.15598249886E+04 -0.68949555671E+03  0.16209935532E+03  0.17131066279E+04  0.50400001928E-02 0.  1.
</event>
<event>
 5   0  0.3212523E-08  0.3602202E+04  0.7818609E-02  0.8089988E-01
       -1   -1    0    0    0  501  0.00000000000E+00  0.00000000000E+00  0.29665882561E+04  0.29665882561E+04  0.50400001928E-02 0.  1.
        1   -1    0    0  501    0  0.00000000000E+00  0.00000000000E+00 -0.10934999212E+04  0.10934999212E+04  0.50400001928E-02 0. -1.
    10030    2    1    2    0    0  0.00000000000E+00  0.00000000000E+00  0.18730883349E+04  0.40600881773E+04  0.36022015625E+04 0.  0.
        3    1    3    3  502    0 -0.10673146658E+04  0.20410091559E+03 -0.68240219839E+03  0.12831564792E+04  0.10100000352E+00 0. -1.
       -3    1    3    3    0  502  0.10673146658E+04 -0.20410091559E+03  0.25554905333E+04  0.27769316980E+04  0.10100000352E+00 0.  1.
</event>
<event>
 5   0  0.3202875E-08  0.3598586E+04  0.7818609E-02  0.8090816E-01
        1   -1    0    0  501    0  0.00000000000E+00  0.00000000000E+00  0.26196980235E+04  0.26196980235E+04  0.50400001928E-02 0.  1.
       -1   -1    0    0    0  501  0.00000000000E+00  0.00000000000E+00 -0.12358121704E+04  0.12358121704E+04  0.50400001928E-02 0. -1.
    10030    2    1    2    0    0  0.00000000000E+00  0.00000000000E+00  0.13838858531E+04  0.38555101939E+04  0.35985856667E+04 0.  0.
        1    1    3    3  502    0 -0.88890885121E+03 -0.14014440983E+04  0.14367366847E+04  0.21950892482E+04  0.50400001928E-02 0.  1.
       -1    1    3    3    0  502  0.88890885121E+03  0.14014440983E+04 -0.52850831534E+02  0.16604209457E+04  0.50400001928E-02 0. -1.
</event>
<event>
 5   0  0.3215494E-08  0.3589707E+04  0.7818609E-02  0.8092853E-01
        1   -1    0    0  501    0  0.00000000000E+00  0.00000000000E+00  0.26073157804E+04  0.26073157804E+04  0.50400001928E-02 0. -1.
       -1   -1    0    0    0  501  0.00000000000E+00  0.00000000000E+00 -0.12355615900E+04  0.12355615900E+04  0.50400001928E-02 0.  1.
    10030    2    1    2    0    0  0.00000000000E+00  0.00000000000E+00  0.13717541904E+04  0.38428773705E+04  0.35897070807E+04 0.  0.
        4    1    3    3  502    0  0.11198140409E+04  0.11769896313E+04 -0.13096323646E+03  0.16298592150E+04  0.12699999809E+01 0.  1.
       -4    1    3    3    0  502 -0.11198140409E+04 -0.11769896313E+04  0.15027174269E+04  0.22130181555E+04  0.12699999809E+01 0. -1.
</event>
<event>
 5   0  0.1029908E-07  0.3613611E+04  0.7818609E-02  0.8087381E-01
       -2   -1    0    0    0  501  0.00000000000E+00  0.00000000000E+00  0.13086339278E+04  0.13086339278E+04  0.25500000920E-02 0. -1.
        2   -1    0    0  501    0  0.00000000000E+00  0.00000000000E+00 -0.24946216485E+04  0.24946216485E+04  0.25500000920E-02 0.  1.
    10030    2    1    2    0    0  0.00000000000E+00  0.00000000000E+00 -0.11859877207E+04  0.38032555764E+04  0.36136112278E+04 0.  0.
        4    1    3    3  502    0  0.13545266705E+04 -0.84596771482E+03 -0.14824121973E+04  0.21789794426E+04  0.12699999809E+01 0. -1.
       -4    1    3    3    0  502 -0.13545266705E+04  0.84596771482E+03  0.29642447658E+03  0.16242761338E+04  0.12699999809E+01 0.  1.
</event>
<event>
 5   0  0.9905335E-08  0.3598623E+04  0.7818609E-02  0.8090807E-01
       -2   -1    0    0    0  501  0.00000000000E+00  0.00000000000E+00  0.18830980639E+04  0.18830980639E+04  0.25500000920E-02 0.  1.
        2   -1    0    0  501    0  0.00000000000E+00  0.00000000000E+00 -0.17192525241E+04  0.17192525241E+04  0.25500000920E-02 0. -1.
    10030    2    1    2    0    0  0.00000000000E+00  0.00000000000E+00  0.16384553985E+03  0.36023505880E+04  0.35986225695E+04 0.  0.
        5    1    3    3  502    0  0.59672069045E+03  0.15055502498E+04 -0.70294424078E+03  0.17654772252E+04  0.46999998093E+01 0. -1.
       -5    1    3    3    0  502 -0.59672069045E+03 -0.15055502498E+04  0.86678978064E+03  0.18368733628E+04  0.46999998093E+01 0.  1.
</event>
<event>
 5   0  0.3202875E-08  0.3596043E+04  0.7818609E-02  0.8091399E-01
        1   -1    0    0  501    0  0.00000000000E+00  0.00000000000E+00  0.85223047893E+03  0.85223047894E+03  0.50400001928E-02 0. -1.
       -1   -1    0    0    0  501  0.00000000000E+00  0.00000000000E+00 -0.37934348113E+04  0.37934348113E+04  0.50400001928E-02 0.  1.
    10030    2    1    2    0    0  0.00000000000E+00  0.00000000000E+00 -0.29412043323E+04  0.46456652902E+04  0.35960426950E+04 0.  0.
        1    1    3    3  502    0  0.16954359516E+04 -0.59489443581E+02 -0.70104910362E+03  0.18356230292E+04  0.50400001928E-02 0. -1.
       -1    1    3    3    0  502 -0.16954359516E+04  0.59489443581E+02 -0.22401552287E+04  0.28100422610E+04  0.50400001928E-02 0.  1.
</event>
<event>
 5   0  0.1021087E-07  0.3592291E+04  0.7818609E-02  0.8092260E-01
        2   -1    0    0  501    0  0.00000000000E+00  0.00000000000E+00  0.27361471710E+04  0.27361471710E+04  0.25500000920E-02 0. -1.
       -2   -1    0    0    0  501  0.00000000000E+00  0.00000000000E+00 -0.11790807617E+04  0.11790807617E+04  0.25500000920E-02 0.  1.
    10030    2    1    2    0    0  0.00000000000E+00  0.00000000000E+00  0.15570664093E+04  0.39152279327E+04  0.35922909072E+04 0.  0.
        3    1    3    3  502    0 -0.12528412675E+04  0.69449441568E+03 -0.40248737941E+03  0.14879280344E+04  0.10100000352E+00 0.  1.
       -3    1    3    3    0  502  0.12528412675E+04 -0.69449441568E+03  0.19595537887E+04  0.24272998983E+04  0.10100000352E+00 0. -1.
</event>
<event>
 5   0  0.1017794E-07  0.3597638E+04  0.7818609E-02  0.8091033E-01
        2   -1    0    0  501    0  0.00000000000E+00  0.00000000000E+00  0.14860383993E+04  0.14860383993E+04  0.25500000920E-02 0. -1.
       -2   -1    0    0    0  501  0.00000000000E+00  0.00000000000E+00 -0.21774337417E+04  0.21774337417E+04  0.25500000920E-02 0.  1.
    10030    2    1    2    0    0  0.00000000000E+00  0.00000000000E+00 -0.69139534241E+03  0.36634721410E+04  0.35976381987E+04 0.  0.
        1    1    3    3  502    0 -0.70449875131E+03 -0.12491128045E+04  0.76005940117E+03  0.16230500862E+04  0.50400001928E-02 0. -1.
       -1    1    3    3    0  502  0.70449875131E+03  0.12491128045E+04 -0.14514547436E+04  0.20404220548E+04  0.50400001928E-02 0.  1.
</event>
<event>
 5   0  0.1044678E-07  0.3597884E+04  0.7818609E-02  0.8090976E-01
        2   -1    0    0  501    0  0.00000000000E+00  0.00000000000E+00  0.21928181238E+04  0.21928181238E+04  0.25500000920E-02 0.  1.
       -2   -1    0    0    0  501  0.00000000000E+00  0.00000000000E+00 -0.14758145471E+04  0.14758145471E+04  0.25500000920E-02 0. -1.
    10030    2    1    2    0    0  0.00000000000E+00  0.00000000000E+00  0.71700357668E+03  0.36686326710E+04  0.35978843152E+04 0.  0.
        2    1    3    3  502    0  0.83764778291E+03 -0.96184376001E+03 -0.93506377978E+03  0.15814997626E+04  0.25500000920E-02 0. -1.
       -2    1    3    3    0  502 -0.83764778291E+03  0.96184376001E+03  0.16520673565E+04  0.20871329084E+04  0.25500000920E-02 0.  1.
</event>
<event>
 5   0  0.3202875E-08  0.3606442E+04  0.7818609E-02  0.8089018E-01
       -1   -1    0    0    0  501  0.00000000000E+00  0.00000000000E+00  0.20950769094E+04  0.20950769094E+04  0.50400001928E-02 0.  1.
        1   -1    0    0  501    0  0.00000000000E+00  0.00000000000E+00 -0.15520223210E+04  0.15520223210E+04  0.50400001928E-02 0. -1.
    10030    2    1    2    0    0  0.00000000000E+00  0.00000000000E+00  0.54305458836E+03  0.36470992304E+04  0.36064420847E+04 0.  0.
        2    1    3    3  502    0 -0.13258541815E+03  0.98184689397E+03  0.17951657315E+04  0.20504200106E+04  0.25500000920E-02 0.  1.
       -2    1    3    3    0  502  0.13258541815E+03 -0.98184689397E+03 -0.12521111431E+04  0.15966792198E+04  0.25500000920E-02 0. -1.
</event>
<event>
 5   0  0.3215494E-08  0.3596862E+04  0.7818609E-02  0.8091211E-01
       -1   -1    0    0    0  501  0.00000000000E+00  0.00000000000E+00  0.14911657787E+04  0.14911657787E+04  0.50400001928E-02 0. -1.
        1   -1    0    0  501    0  0.00000000000E+00  0.00000000000E+00 -0.21690106802E+04  0.21690106802E+04  0.50400001928E-02 0.  1.
    10030    2    1    2    0    0  0.00000000000E+00  0.00000000000E+00 -0.67784490154E+03  0.36601764590E+04  0.35968622437E+04 0.  0.
        4    1    3    3  502    0 -0.80701791107E+03  0.11130776199E+04 -0.15186979450E+04  0.20485762758E+04  0.12699999809E+01 0. -1.
       -4    1    3    3    0  502  0.80701791107E+03 -0.11130776199E+04  0.84085304347E+03  0.16116001832E+04  0.12699999809E+01 0.  1.
</event>
<event>
 5   0  0.9905335E-08  0.3598867E+04  0.7818609E-02  0.8090751E-01
       -2   -1    0    0    0  501  0.00000000000E+00  0.00000000000E+00  0.13791501279E+04  0.13791501279E+04  0.25500000920E-02 0.  1.
        2   -1    0    0  501    0  0.00000000000E+00  0.00000000000E+00 -0.23477941450E+04  0.23477941450E+04  0.25500000920E-02 0. -1.
    10030    2    1    2    0    0  0.00000000000E+00  0.00000000000E+00 -0.96864401716E+03  0.37269442729E+04  0.35988668191E+04 0.  0.
        5    1    3    3  502    0 -0.11648766974E+04 -0.68836346824E+03  0.74413037551E+03  0.15441936700E+04  0.46999998093E+01 0.  1.
       -5    1    3    3    0  502  0.11648766974E+04  0.68836346824E+03 -0.17127743927E+04  0.21827506030E+04  0.46999998093E+01 0. -1.
</event>
<event>
 5   0  0.3202875E-08  0.3600259E+04  0.7818609E-02  0.8090432E-01
        1   -1    0    0  501    0  0.00000000000E+00  0.00000000000E+00  0.15796330497E+04  0.15796330497E+04  0.50400001928E-02 0. -1.
       -1   -1    0    0    0  501  0.00000000000E+00  0.00000000000E+00 -0.20514049743E+04  0.20514049743E+04  0.50400001928E-02 0.  1.
    10030    2    1    2    0    0  0.00000000000E+00  0.00000000000E+00 -0.47177192467E+03  0.36310380240E+04  0.36002594883E+04 0.  0.
        2    1    3    3  502    0 -0.26214595986E+03 -0.15613027833E+04 -0.10999954059E+04  0.19277906469E+04  0.25500000920E-02 0.  1.
       -2    1    3    3    0  502  0.26214595986E+03  0.15613027833E+04  0.62822348120E+03  0.17032473771E+04  0.25500000920E-02 0. -1.
</event>
<event>
 5   0  0.3279988E-08  0.3600258E+04  0.7818609E-02  0.8090433E-01
       -1   -1    0    0    0  501  0.00000000000E+00  0.00000000000E+00  0.18517084334E+04  0.18517084334E+04  0.50400001928E-02 0.  1.
        1   -1    0    0  501    0  0.00000000000E+00  0.00000000000E+00 -0.17499864427E+04  0.17499864427E+04  0.50400001928E-02 0. -1.
    10030    2    1    2    0    0  0.00000000000E+00  0.00000000000E+00  0.10172199065E+03  0.36016948761E+04  0.36002581320E+04 0.  0.
        5    1    3    3  502    0 -0.72872884968E+03  0.89125241182E+03  0.14352723325E+04  0.18399471069E+04  0.46999998093E+01 0.  1.
       -5    1    3    3    0  502  0.72872884968E+03 -0.89125241182E+03 -0.13335503418E+04  0.17617477692E+04  0.46999998093E+01 0. -1.
</event>
<event>
 5   0  0.3215494E-08  0.3600411E+04  0.7818609E-02  0.8090398E-01
       -1   -1    0    0    0  501  0.00000000000E+00  0.00000000000E+00  0.22902759294E+04  0.22902759294E+04  0.50400001928E-02 0.  1.
        1   -1    0    0  501    0  0.00000000000E+00  0.00000000000E+00 -0.14149997500E+04  0.14149997501E+04  0.50400001928E-02 0. -1.
    10030    2    1    2    0    0  0.00000000000E+00  0.00000000000E+00  0.87527617933E+03  0.37052756794E+04  0.36004110141E+04 0.  0.
        4    1    3    3  502    0  0.16914248001E+04 -0.43860928489E+03 -0.79178538977E+01  0.17473866958E+04  0.12699999809E+01 0. -1.
       -4    1    3    3    0  502 -0.16914248001E+04  0.43860928489E+03  0.88319403323E+03  0.19578889837E+04  0.12699999809E+01 0.  1.
</event>
<event>
 5   0  0.3212523E-08  0.3598932E+04  0.7818609E-02  0.8090736E-01
       -1   -1    0    0    0  501  0.00000000000E+00  0.00000000000E+00  0.15756856658E+04  0.15756856658E+04  0.50400001928E-02 0.  1.
        1   -1    0    0  501    0  0.00000000000E+00  0.00000000000E+00 -0.20550280080E+04  0.20550280080E+04  0.50400001928E-02 0. -1.
    10030    2    1    2    0    0  0.00000000000E+00  0.00000000000E+00 -0.47934234214E+03  0.36307136738E+04  0.35989321611E+04 0.  0.
        3    1    3    3  502    0 -0.22525348228E+03  0.14912595477E+04 -0.12299114616E+04  0.19460925938E+04  0.10100000352E+00 0. -1.
       -3    1    3    3    0  502  0.22525348228E+03 -0.14912595477E+04  0.75056911943E+03  0.16846210800E+04  0.10100000352E+00 0.  1.
</event>
<event>
 5   0  0.3279988E-08  0.3593537E+04  0.7818609E-02  0.8091974E-01
       -1   -1    0    0    0  501  0.00000000000E+00  0.00000000000E+00  0.23963068527E+04  0.23963068527E+04  0.50400001928E-02 0.  1.
        1   -1    0    0  501    0  0.00000000000E+00  0.00000000000E+00 -0.13472304163E+04  0.13472304163E+04  0.50400001928E-02 0. -1.
    10030    2    1    2    0    0  0.00000000000E+00  0.00000000000E+00  0.10490764364E+04  0.37435372690E+04  0.35935372427E+04 0.  0.
        5    1    3    3  502    0 -0.10266787181E+04  0.90252496030E+03 -0.69021241022E+03  0.15313509576E+04  0.46999998093E+01 0. -1.
       -5    1    3    3    0  502  0.10266787181E+04 -0.90252496030E+03  0.17392888467E+04  0.22121863114E+04  0.46999998093E+01 0.  1.
</event>
<event>
 5   0  0.3202875E-08  0.3601761E+04  0.7818609E-02  0.8090089E-01
       -1   -1    0    0    0  501  0.00000000000E+00  0.00000000000E+00  0.16029683222E+04  0.16029683222E+04  0.50400001928E-02 0.  1.
        1   -1    0    0  501    0  0.00000000000E+00  0.00000000000E+00 -0.20232277221E+04  0.20232277221E+04  0.50400001928E-02 0. -1.
    10030    2    1    2    0    0  0.00000000000E+00  0.00000000000E+00 -0.42025939991E+03  0.36261960443E+04  0.36017606512E+04 0.  0.
        1    1    3    3  502    0 -0.18551013218E+03 -0.53950733888E+03 -0.19298421607E+04  0.20124047662E+04  0.50400001928E-02 0. -1.
       -1    1    3    3    0  502  0.18551013218E+03  0.53950733888E+03  0.15095827608E+04  0.16137912782E+04  0.50400001928E-02 0.  1.
</event>
<event>
 5   0  0.1017794E-07  0.3595354E+04  0.7818609E-02  0.8091557E-01
        2   -1    0    0  501    0  0.00000000000E+00  0.00000000000E+00  0.18232363858E+04  0.18232363858E+04  0.25500000920E-02 0.  1.
       -2   -1    0    0    0  501  0.00000000000E+00  0.00000000000E+00 -0.17724754676E+04  0.17724754676E+04  0.25500000920E-02 0. -1.
    10030    2    1    2    0    0  0.00000000000E+00  0.00000000000E+00  0.50760918200E+02  0.35957118535E+04  0.35953535379E+04 0.  0.
        1    1    3    3  502    0  0.53814241987E+03  0.10113710202E+03 -0.16870447775E+04  0.17736814987E+04  0.50400001928E-02 0. -1.
       -1    1    3    3    0  502 -0.53814241987E+03 -0.10113710202E+03  0.17378056957E+04  0.18220303547E+04  0.50400001928E-02 0.  1.
</event>
<event>
 5   0  0.3202875E-08  0.3601639E+04  0.7818609E-02  0.8090116E-01
        1   -1    0    0  501    0  0.00000000000E+00  0.00000000000E+00  0.26452117273E+04  0.26452117273E+04  0.50400001928E-02 0. -1.
       -1   -1    0    0    0  501  0.00000000000E+00  0.00000000000E+00 -0.12259704283E+04  0.12259704284E+04  0.50400001928E-02 0.  1.
    10030    2    1    2    0    0  0.00000000000E+00  0.00000000000E+00  0.14192412990E+04  0.38711821557E+04  0.36016392681E+04 0.  0.
        1    1    3    3  502    0  0.37445031479E+03  0.17601860856E+04  0.63765249346E+03  0.19092063263E+04  0.50400001928E-02 0. -1.
       -1    1    3    3    0  502 -0.37445031479E+03 -0.17601860856E+04  0.78158880550E+03  0.19619758293E+04  0.50400001928E-02 0.  1.
</event>
<event>
 5   0  0.1029908E-07  0.3593852E+04  0.7818609E-02  0.8091901E-01
       -2   -1    0    0    0  501  0.00000000000E+00  0.00000000000E+00  0.22593749056E+04  0.22593749056E+04  0.25500000920E-02 0.  1.
        2   -1    0    0  501    0  0.00000000000E+00  0.00000000000E+00 -0.14291309842E+04  0.14291309842E+04  0.25500000920E-02 0. -1.
    10030    2    1    2    0    0  0.00000000000E+00  0.00000000000E+00  0.83024392146E+03  0.36885058898E+04  0.35938517958E+04 0.  0.
        4    1    3    3  502    0  0.73447768904E+03  0.34726221876E+02 -0.12676581917E+04  0.14654768132E+04  0.12699999809E+01 0. -1.
       -4    1    3    3    0  502 -0.73447768904E+03 -0.34726221876E+02  0.20979021132E+04  0.22230290766E+04  0.12699999809E+01 0.  1.
</event>
<event>
 5   0  0.9905335E-08  0.3601627E+04  0.7818609E-02  0.8090119E-01
        2   -1    0    0  501    0  0.00000000000E+00  0.00000000000E+00  0.15098503306E+04  0.15098503306E+04  0.25500000920E-02 0. -1.
       -2   -1    0    0    0  501  0.00000000000E+00  0.00000000000E+00 -0.21478484857E+04  0.21478484857E+04  0.25500000920E-02 0.  1.
    10030    2    1    2    0    0  0.00000000000E+00  0.00000000000E+00 -0.63799815505E+03  0.36576988163E+04  0.36016272690E+04 0.  0.
        5    1    3    3  502    0  0.71676376248E+03 -0.68655337559E+03 -0.18449904773E+04  0.20950221431E+04  0.46999998093E+01 0.  1.
       -5    1    3    3    0  502 -0.71676376248E+03  0.68655337559E+03  0.12069923223E+04  0.15626766731E+04  0.46999998093E+01 0. -1.
</event>
<event>
 5   0  0.3202875E-08  0.3591171E+04  0.7818609E-02  0.8092517E-01
        1   -1    0    0  501    0  0.00000000000E+00  0.00000000000E+00  0.22505285832E+04  0.22505285832E+04  0.50400001928E-02 0. -1.
       -1   -1    0    0    0  501  0.00000000000E+00  0.00000000000E+00 -0.14326090745E+04  0.14326090745E+04  0.50400001928E-02 0.  1.
    10030    2    1    2    0    0  0.00000000000E+00  0.00000000000E+00  0.81791950878E+03  0.36831376577E+04  0.35911712132E+04 0.  0.
        2    1    3    3  502    0  0.11090944436E+04 -0.84167292471E+03  0.15718502048E+04  0.20998135306E+04  0.25500000920E-02 0. -1.
       -2    1    3    3    0  502 -0.11090944436E+04  0.84167292471E+03 -0.75393069599E+03  0.15833241271E+04  0.25500000920E-02 0.  1.
</event>
<event>
 5   0  0.3202875E-08  0.3607043E+04  0.7818609E-02  0.8088880E-01
        1   -1    0    0  501    0  0.00000000000E+00  0.00000000000E+00  0.13481573632E+04  0.13481573632E+04  0.50400001928E-02 0.  1.
       -1   -1    0    0    0  501  0.00000000000E+00  0.00000000000E+00 -0.24126931626E+04  0.24126931626E+04  0.50400001928E-02 0. -1.
    10030    2    1    2    0    0  0.00000000000E+00  0.00000000000E+00 -0.10645357994E+04  0.37608505258E+04  0.36070431393E+04 0.  0.
        1    1    3    3  502    0  0.39606391141E+03 -0.17586816057E+04 -0.47648476251E+03  0.18646354446E+04  0.50400001928E-02 0.  1.
       -1    1    3    3    0  502 -0.39606391141E+03  0.17586816057E+04 -0.58805103692E+03  0.18962150812E+04  0.50400001928E-02 0. -1.
</event>
<event>
 5   0  0.1044678E-07  0.3597724E+04  0.7818609E-02  0.8091013E-01
        2   -1    0    0  501    0  0.00000000000E+00  0.00000000000E+00  0.22959702227E+04  0.22959702227E+04  0.25500000920E-02 0.  1.
       -2   -1    0    0    0  501  0.00000000000E+00  0.00000000000E+00 -0.14093840847E+04  0.14093840847E+04  0.25500000920E-02 0. -1.
    10030    2    1    2    0    0  0.00000000000E+00  0.00000000000E+00  0.88658613799E+03  0.37053543073E+04  0.35977236640E+04 0.  0.
        2    1    3    3  502    0  0.11446755645E+04 -0.21127424350E+03 -0.96922690508E+03  0.15147012073E+04  0.25500000920E-02 0. -1.
       -2    1    3    3    0  502 -0.11446755645E+04  0.21127424350E+03  0.18558130431E+04  0.21906531000E+04  0.25500000920E-02 0.  1.
</event>
<event>
 5   0  0.3212523E-08  0.3580173E+04  0.7818609E-02  0.8095048E-01
        1   -1    0    0  501    0  0.00000000000E+00  0.00000000000E+00  0.27269902340E+04  0.27269902340E+04  0.50400001928E-02 0. -1.
       -1   -1    0    0    0  501  0.00000000000E+00  0.00000000000E+00 -0.11750720318E+04  0.11750720318E+04  0.50400001928E-02 0.  1.
    10030    2    1    2    0    0  0.00000000000E+00  0.00000000000E+00  0.15519182021E+04  0.39020622658E+04  0.35801731551E+04 0.  0.
        3    1    3    3  502    0 -0.57629190455E+03  0.16804667128E+04  0.10155636306E+04  0.20463260322E+04  0.10100000352E+00 0.  1.
       -3    1    3    3    0  502  0.57629190455E+03 -0.16804667128E+04  0.53635457150E+03  0.18557362336E+04  0.10100000352E+00 0. -1.
</event>
<event>
 5   0  0.3212523E-08  0.3593515E+04  0.7818609E-02  0.8091979E-01
       -1   -1    0    0    0  501  0.00000000000E+00  0.00000000000E+00  0.13865217362E+04  0.13865217362E+04  0.50400001928E-02 0. -1.
        1   -1    0    0  501    0  0.00000000000E+00  0.00000000000E+00 -0.23283709446E+04  0.23283709447E+04  0.50400001928E-02 0.  1.
    10030    2    1    2    0    0  0.00000000000E+00  0.00000000000E+00 -0.94184920844E+03  0.37148926809E+04  0.35935146722E+04 0.  0.
        3    1    3    3  502    0 -0.16031335376E+04 -0.73329700582E+03 -0.82989280844E+03  0.19484567539E+04  0.10100000352E+00 0. -1.
       -3    1    3    3    0  502  0.16031335376E+04  0.73329700582E+03 -0.11195640000E+03  0.17664359269E+04  0.10100000352E+00 0.  1.
</event>
<event>
 5   0  0.1044678E-07  0.3596418E+04  0.7818609E-02  0.8091313E-01
       -2   -1    0    0    0  501  0.00000000000E+00  0.00000000000E+00  0.12087016247E+04  0.12087016247E+04  0.25500000920E-02 0. -1.
        2   -1    0    0  501    0  0.00000000000E+00  0.00000000000E+00 -0.26752298881E+04  0.26752298881E+04  0.25500000920E-02 0.  1.
    10030    2    1    2    0    0  0.00000000000E+00  0.00000000000E+00 -0.14665282635E+04  0.38839315128E+04  0.35964175020E+04 0.  0.
        2    1    3    3  502    0  0.45237254703E+03 -0.15548461054E+03 -0.26052595825E+04  0.26488098984E+04  0.25500000920E-02 0.  1.
       -2    1    3    3    0  502 -0.45237254703E+03  0.15548461054E+03  0.11387313190E+04  0.12351216144E+04  0.25500000920E-02 0. -1.
</event>
<event>
 5   0  0.3279988E-08  0.3590513E+04  0.7818609E-02  0.8092668E-01
        1   -1    0    0  501    0  0.00000000000E+00  0.00000000000E+00  0.23508993856E+04  0.23508993856E+04  0.50400001928E-02 0.  1.
       -1   -1    0    0    0  501  0.00000000000E+00  0.00000000000E+00 -0.13709414979E+04  0.13709414979E+04  0.50400001928E-02 0. -1.
    10030    2    1    2    0    0  0.00000000000E+00  0.00000000000E+00  0.97995788773E+03  0.37218408835E+04  0.35905127908E+04 0.  0.
        5    1    3    3  502    0 -0.76536968944E+03  0.19274690300E+02 -0.11932249239E+04  0.14177341373E+04  0.46999998093E+01 0. -1.
       -5    1    3    3    0  502  0.76536968944E+03 -0.19274690300E+02  0.21731828116E+04  0.23041067462E+04  0.46999998093E+01 0.  1.
</event>
<event>
 5   0  0.1021087E-07  0.3602432E+04  0.7818609E-02  0.8089935E-01
        2   -1    0    0  501    0  0.00000000000E+00  0.00000000000E+00  0.15017990808E+04  0.15017990808E+04  0.25500000920E-02 0. -1.
       -2   -1    0    0    0  501  0.00000000000E+00  0.00000000000E+00 -0.21603277162E+04  0.21603277162E+04  0.25500000920E-02 0.  1.
    10030    2    1    2    0    0  0.00000000000E+00  0.00000000000E+00 -0.65852863540E+03  0.36621267969E+04  0.36024315001E+04 0.  0.
        3    1    3    3  502    0 -0.13132334514E+04  0.11733801897E+04 -0.71365043943E+03  0.19001842351E+04  0.10100000352E+00 0.  1.
       -3    1    3    3    0  502  0.13132334514E+04 -0.11733801897E+04  0.55121804032E+02  0.17619425618E+04  0.10100000352E+00 0. -1.
</event>
<event>
 5   0  0.1021087E-07  0.3601807E+04  0.7818609E-02  0.8090078E-01
       -2   -1    0    0    0  501  0.00000000000E+00  0.00000000000E+00  0.12476084848E+04  0.12476084848E+04  0.25500000920E-02 0.  1.
        2   -1    0    0  501    0  0.00000000000E+00  0.00000000000E+00 -0.25995762718E+04  0.25995762718E+04  0.25500000920E-02 0. -1.
    10030    2    1    2    0    0  0.00000000000E+00  0.00000000000E+00 -0.13519677870E+04  0.38471847566E+04  0.36018069985E+04 0.  0.
        3    1    3    3  502    0 -0.14918014096E+04 -0.15203123153E+03 -0.17412590032E+04  0.22979486216E+04  0.10100000352E+00 0. -1.
       -3    1    3    3    0  502  0.14918014096E+04  0.15203123153E+03  0.38929121616E+03  0.15492361350E+04  0.10100000352E+00 0.  1.
</event>
<event>
 5   0  0.1044678E-07  0.3609050E+04  0.7818609E-02  0.8088422E-01
       -2   -1    0    0    0  501  0.00000000000E+00  0.00000000000E+00  0.14984891181E+04  0.14984891181E+04  0.25500000920E-02 0.  1.
        2   -1    0    0  501    0  0.00000000000E+00  0.00000000000E+00 -0.21730621310E+04  0.21730621310E+04  0.25500000920E-02 0. -1.
    10030    2    1    2    0    0  0.00000000000E+00  0.00000000000E+00 -0.67457301292E+03  0.36715512491E+04  0.36090497122E+04 0.  0.
        2    1    3    3  502    0 -0.89613264715E+03  0.26714488082E+03 -0.19073512705E+04  0.21242431541E+04  0.25500000920E-02 0. -1.
       -2    1    3    3    0  502  0.89613264715E+03 -0.26714488082E+03  0.12327782576E+04  0.15473080950E+04  0.25500000920E-02 0.  1.
</event>
<event>
 5   0  0.3215494E-08  0.3601196E+04  0.7818609E-02  0.8090218E-01
       -1   -1    0    0    0  501  0.00000000000E+00  0.00000000000E+00  0.10982711549E+04  0.10982711549E+04  0.50400001928E-02 0.  1.
        1   -1    0    0  501    0  0.00000000000E+00  0.00000000000E+00 -0.29520517116E+04  0.29520517117E+04  0.50400001928E-02 0. -1.
    10030    2    1    2    0    0  0.00000000000E+00  0.00000000000E+00 -0.18537805567E+04  0.40503228666E+04  0.36011960473E+04 0.  0.
        4    1    3    3  502    0  0.10460513978E+04 -0.41378184726E+03 -0.25081916724E+04  0.27489026942E+04  0.12699999809E+01 0. -1.
       -4    1    3    3    0  502 -0.10460513978E+04  0.41378184726E+03  0.65441111563E+03  0.13014201724E+04  0.12699999809E+01 0.  1.
</event>
<event>
 5   0  0.1017794E-07  0.3600073E+04  0.7818609E-02  0.8090475E-01
       -2   -1    0    0    0  501  0.00000000000E+00  0.00000000000E+00  0.20701464208E+04  0.20701464208E+04  0.25500000920E-02 0.  1.
        2   -1    0    0  501    0  0.00000000000E+00  0.00000000000E+00 -0.15651703846E+04  0.15651703846E+04  0.25500000920E-02 0. -1.
    10030    2    1    2    0    0  0.00000000000E+00  0.00000000000E+00  0.50497603620E+03  0.36353168055E+04  0.36000732602E+04 0.  0.
        1    1    3    3  502    0 -0.17968215701E+04 -0.10291887305E+03  0.22100879744E+03  0.18132856746E+04  0.50400001928E-02 0.  1.
       -1    1    3    3    0  502  0.17968215701E+04  0.10291887305E+03  0.28396723876E+03  0.18220311309E+04  0.50400001928E-02 0. -1.
</event>
<event>
 5   0  0.1044678E-07  0.3595806E+04  0.7818609E-02  0.8091453E-01
       -2   -1    0    0    0  501  0.00000000000E+00  0.00000000000E+00  0.17027064287E+04  0.17027064287E+04  0.25500000920E-02 0. -1.
        2   -1    0    0  501    0  0.00000000000E+00  0.00000000000E+00 -0.18984221418E+04  0.18984221418E+04  0.25500000920E-02 0.  1.
    10030    2    1    2    0    0  0.00000000000E+00  0.00000000000E+00 -0.19571571315E+03  0.36011285705E+04  0.35958062157E+04 0.  0.
        2    1    3    3  502    0  0.83996780074E+03 -0.10743453689E+04  0.10754955901E+04  0.17367943581E+04  0.25500000920E-02 0. -1.
       -2    1    3    3    0  502 -0.83996780074E+03  0.10743453689E+04 -0.12712113033E+04  0.18643342124E+04  0.25500000920E-02 0.  1.
</event>
<event>
 5   0  0.1017794E-07  0.3605966E+04  0.7818609E-02  0.8089127E-01
        2   -1    0    0  501    0  0.00000000000E+00  0.00000000000E+00  0.20884935011E+04  0.20884935011E+04  0.25500000920E-02 0.  1.
       -2   -1    0    0    0  501  0.00000000000E+00  0.00000000000E+00 -0.15565032854E+04  0.15565032854E+04  0.25500000920E-02 0. -1.
    10030    2    1    2    0    0  0.00000000000E+00  0.00000000000E+00  0.53199021571E+03  0.36449967865E+04  0.36059656105E+04 0.  0.
        1    1    3    3  502    0  0.10002778724E+03  0.19653007506E+03  0.20748102802E+04  0.20864964240E+04  0.50400001928E-02 0.  1.
       -1    1    3    3    0  502 -0.10002778724E+03 -0.19653007506E+03 -0.15428200644E+04  0.15585003625E+04  0.50400001928E-02 0. -1.
</event>
<event>
 5   0  0.1021087E-07  0.3603351E+04  0.7818609E-02  0.8089725E-01
        2   -1    0    0  501    0  0.00000000000E+00  0.00000000000E+00  0.24008466966E+04  0.24008466966E+04  0.25500000920E-02 0. -1.
       -2   -1    0    0    0  501  0.00000000000E+00  0.00000000000E+00 -0.13520371448E+04  0.13520371448E+04  0.25500000920E-02 0.  1.
    10030    2    1    2    0    0  0.00000000000E+00  0.00000000000E+00  0.10488095518E+04  0.37528838414E+04  0.36033506145E+04 0.  0.
        3    1    3    3  502    0 -0.65861018493E+03  0.57846464110E+03 -0.11149696535E+04  0.14182898347E+04  0.10100000352E+00 0.  1.
       -3    1    3    3    0  502  0.65861018493E+03 -0.57846464110E+03  0.21637792053E+04  0.23345940067E+04  0.10100000352E+00 0. -1.
</event>
<event>
 5   0  0.3202875E-08  0.3600462E+04  0.7818609E-02  0.8090386E-01
        1   -1    0    0  501    0  0.00000000000E+00  0.00000000000E+00  0.22747013279E+04  0.22747013279E+04  0.50400001928E-02 0. -1.
       -1   -1    0    0    0  501  0.00000000000E+00  0.00000000000E+00 -0.14247286000E+04  0.14247286000E+04  0.50400001928E-02 0.  1.
    10030    2    1    2    0    0  0.00000000000E+00  0.00000000000E+00  0.84997272785E+03  0.36994299279E+04  0.36004622139E+04 0.  0.
        2    1    3    3  502    0 -0.44793027531E+03 -0.67561664085E+03 -0.12265963768E+04  0.14702510155E+04  0.25500000920E-02 0.  1.
       -2    1    3    3    0  502  0.44793027531E+03  0.67561664085E+03  0.20765691047E+04  0.22291789124E+04  0.25500000920E-02 0. -1.
</event>
<event>
 5   0  0.1021087E-07  0.3622535E+04  0.7818609E-02  0.8085349E-01
       -2   -1    0    0    0  501  0.00000000000E+00  0.00000000000E+00  0.14785827649E+04  0.14785827649E+04  0.25500000920E-02 0. -1.
        2   -1    0    0  501    0  0.00000000000E+00  0.00000000000E+00 -0.22188075890E+04  0.22188075890E+04  0.25500000920E-02 0.  1.
    10030    2    1    2    0    0  0.00000000000E+00  0.00000000000E+00 -0.74022482414E+03  0.36973903539E+04  0.36225353883E+04 0.  0.
        3    1    3    3  502    0 -0.55729013834E+03 -0.29660041202E+03  0.13626566963E+04  0.15017913919E+04  0.10100000352E+00 0. -1.
       -3    1    3    3    0  502  0.55729013834E+03  0.29660041202E+03 -0.21028815205E+04  0.21955989620E+04  0.10100000352E+00 0.  1.
</event>
<event>
 5   0  0.1029908E-07  0.3600412E+04  0.7818609E-02  0.8090397E-01
        2   -1    0    0  501    0  0.00000000000E+00  0.00000000000E+00  0.23421292114E+04  0.23421292114E+04  0.25500000920E-02 0.  1.
       -2   -1    0    0    0  501  0.00000000000E+00  0.00000000000E+00 -0.13836734985E+04  0.13836734985E+04  0.25500000920E-02 0. -1.
    10030    2    1    2    0    0  0.00000000000E+00  0.00000000000E+00  0.95845571288E+03  0.37258027099E+04  0.36004122652E+04 0.  0.
        4    1    3    3  502    0  0.11089581750E+04  0.12660275755E+04  0.11403245622E+04  0.20329672344E+04  0.12699999809E+01 0.  1.
       -4    1    3    3    0  502 -0.11089581750E+04 -0.12660275755E+04 -0.18186884930E+03  0.16928354755E+04  0.12699999809E+01 0. -1.
</event>
<event>
 5   0  0.3202875E-08  0.3606852E+04  0.7818609E-02  0.8088924E-01
       -1   -1    0    0    0  501  0.00000000000E+00  0.00000000000E+00  0.14713203465E+04  0.14713203465E+04  0.50400001928E-02 0.  1.
        1   -1    0    0  501    0  0.00000000000E+00  0.00000000000E+00 -0.22104940666E+04  0.22104940666E+04  0.50400001928E-02 0. -1.
    10030    2    1    2    0    0  0.00000000000E+00  0.00000000000E+00 -0.73917372007E+03  0.36818144130E+04  0.36068517552E+04 0.  0.
        1    1    3    3  502    0 -0.12035522037E+04  0.13170433577E+04 -0.10105333163E+03  0.17869954921E+04  0.50400001928E-02 0.  1.
       -1    1    3    3    0  502  0.12035522037E+04 -0.13170433577E+04 -0.63812038844E+03  0.18948189209E+04  0.50400001928E-02 0. -1.
</event>
<event>
 5   0  0.3202875E-08  0.3594376E+04  0.7818609E-02  0.8091781E-01
        1   -1    0    0  501    0  0.00000000000E+00  0.00000000000E+00  0.20581192124E+04  0.20581192124E+04  0.50400001928E-02 0. -1.
       -1   -1    0    0    0  501  0.00000000000E+00  0.00000000000E+00 -0.15693376987E+04  0.15693376987E+04  0.50400001928E-02 0.  1.
    10030    2    1    2    0    0  0.00000000000E+00  0.00000000000E+00  0.48878151367E+03  0.36274569110E+04  0.35943756444E+04 0.  0.
        2    1    3    3  502    0  0.38224900341E+03 -0.93654952275E+03 -0.12547589739E+04  0.16117255944E+04  0.25500000920E-02 0.  1.
       -2    1    3    3    0  502 -0.38224900341E+03  0.93654952275E+03  0.17435404875E+04  0.20157313166E+04  0.25500000920E-02 0. -1.
</event>
<event>
 5   0  0.3279988E-08  0.3595831E+04  0.7818609E-02  0.8091447E-01
       -1   -1    0    0    0  501  0.00000000000E+00  0.00000000000E+00  0.18183994738E+04  0.18183994738E+04  0.50400001928E-02 0. -1.
        1   -1    0    0  501    0  0.00000000000E+00  0.00000000000E+00 -0.17776620036E+04  0.17776620036E+04  0.50400001928E-02 0.  1.
    10030    2    1    2    0    0  0.00000000000E+00  0.00000000000E+00  0.40737470222E+02  0.35960614774E+04  0.35958307257E+04 0.  0.
        5    1    3    3  502    0  0.47768275903E+03 -0.10623245324E+04 -0.13493042486E+04  0.17825145934E+04  0.46999998093E+01 0.  1.
       -5    1    3    3    0  502 -0.47768275903E+03  0.10623245324E+04  0.13900417188E+04  0.18135468840E+04  0.46999998093E+01 0. -1.
</event>
<event>
 5   0  0.3212523E-08  0.3591742E+04  0.7818609E-02  0.8092386E-01
       -1   -1    0    0    0  501  0.00000000000E+00  0.00000000000E+00  0.20076090781E+04  0.20076090781E+04  0.50400001928E-02 0. -1.
        1   -1    0    0  501    0  0.00000000000E+00  0.00000000000E+00 -0.16064646315E+04  0.16064646315E+04  0.50400001928E-02 0.  1.
    10030    2    1    2    0    0  0.00000000000E+00  0.00000000000E+00  0.40114444659E+03  0.36140737097E+04  0.35917421834E+04 0.  0.
        3    1    3    3  502    0  0.11703848643E+04 -0.10706164357E+04  0.10479081135E+04  0.19010869806E+04  0.10100000352E+00 0. -1.
       -3    1    3    3    0  502 -0.11703848643E+04  0.10706164357E+04 -0.64676366690E+03  0.17129867291E+04  0.10100000352E+00 0.  1.
</event>
<event>
 5   0  0.1029908E-07  0.3601188E+04  0.7818609E-02  0.8090220E-01
        2   -1    0    0  501    0  0.00000000000E+00  0.00000000000E+00  0.27193754902E+04  0.27193754902E+04  0.25500000920E-02 0.  1.
       -2   -1    0    0    0  501  0.00000000000E+00  0.00000000000E+00 -0.11922362659E+04  0.11922362659E+04  0.25500000920E-02 0. -1.
    10030    2    1    2    0    0  0.00000000000E+00  0.00000000000E+00  0.15271392243E+04  0.39116117561E+04  0.36011876263E+04 0.  0.
        4    1    3    3  502    0 -0.60429674301E+02  0.11828818999E+04  0.22366733891E+04  0.25309229141E+04  0.12699999809E+01 0.  1.
       -4    1    3    3    0  502  0.60429674301E+02 -0.11828818999E+04 -0.70953416476E+03  0.13806888420E+04  0.12699999809E+01 0. -1.
</event>
<event>
 5   0  0.3202875E-08  0.3583457E+04  0.7818609E-02  0.8094292E-01
        1   -1    0    0  501    0  0.00000000000E+00  0.00000000000E+00  0.22783773441E+04  0.22783773441E+04  0.50400001928E-02 0. -1.
       -1   -1    0    0    0  501  0.00000000000E+00  0.00000000000E+00 -0.14090249660E+04  0.14090249660E+04  0.50400001928E-02 0.  1.
    10030    2    1    2    0    0  0.00000000000E+00  0.00000000000E+00  0.86935237810E+03  0.36874023101E+04  0.35834567445E+04 0.  0.
        1    1    3    3  502    0  0.29922042034E+03  0.12857612941E+04  0.16812517186E+04  0.21375973210E+04  0.50400001928E-02 0. -1.
       -1    1    3    3    0  502 -0.29922042034E+03 -0.12857612941E+04 -0.81189934046E+03  0.15498049892E+04  0.50400001928E-02 0.  1.
</event>
<event>
 5   0  0.9905335E-08  0.3565980E+04  0.7818609E-02  0.8098329E-01
        2   -1    0    0  501    0  0.00000000000E+00  0.00000000000E+00  0.15828494531E+04  0.15828494531E+04  0.25500000920E-02 0.  1.
       -2   -1    0    0    0  501  0.00000000000E+00  0.00000000000E+00 -0.20084367873E+04  0.20084367873E+04  0.25500000920E-02 0. -1.
    10030    2    1    2    0    0  0.00000000000E+00  0.00000000000E+00 -0.42558733420E+03  0.35912862404E+04  0.35659798487E+04 0.  0.
        5    1    3    3  502    0  0.15164122027E+04  0.86328460689E+03  0.15622816338E+03  0.17519119870E+04  0.46999998093E+01 0.  1.
       -5    1    3    3    0  502 -0.15164122027E+04 -0.86328460689E+03 -0.58181549758E+03  0.18393742534E+04  0.46999998093E+01 0. -1.
</event>
<event>
 5   0  0.9905335E-08  0.3581327E+04  0.7818609E-02  0.8094782E-01
       -2   -1    0    0    0  501  0.00000000000E+00  0.00000000000E+00  0.15674222329E+04  0.15674222329E+04  0.25500000920E-02 0. -1.
        2   -1    0    0  501    0  0.00000000000E+00  0.00000000000E+00 -0.20457000834E+04  0.20457000834E+04  0.25500000920E-02 0.  1.
    10030    2    1    2    0    0  0.00000000000E+00  0.00000000000E+00 -0.47827785045E+03  0.36131223163E+04  0.35813270125E+04 0.  0.
        5    1    3    3  502    0  0.56252808361E+03 -0.49910099933E+03 -0.18786555291E+04  0.20235879866E+04  0.46999998093E+01 0.  1.
       -5    1    3    3    0  502 -0.56252808361E+03  0.49910099933E+03  0.14003776787E+04  0.15895343297E+04  0.46999998093E+01 0. -1.
</event>
<event>
 5   0  0.9905335E-08  0.3599563E+04  0.7818609E-02  0.8090592E-01
       -2   -1    0    0    0  501  0.00000000000E+00  0.00000000000E+00  0.12637686058E+04  0.12637686058E+04  0.25500000920E-02 0. -1.
        2   -1    0    0  501    0  0.00000000000E+00  0.00000000000E+00 -0.25631381403E+04  0.25631381403E+04  0.25500000920E-02 0.  1.
    10030    2    1    2    0    0  0.00000000000E+00  0.00000000000E+00 -0.12993695345E+04  0.38269067462E+04  0.35995630369E+04 0.  0.
        5    1    3    3  502    0  0.38827322705E+03  0.20671170514E+03 -0.25051040110E+04  0.25434335108E+04  0.46999998093E+01 0.  1.
       -5    1    3    3    0  502 -0.38827322705E+03 -0.20671170514E+03  0.12057344766E+04  0.12834732353E+04  0.46999998093E+01 0. -1.
</event>
<event>
 5   0  0.1044678E-07  0.3603702E+04  0.7818609E-02  0.8089644E-01
       -2   -1    0    0    0  501  0.00000000000E+00  0.00000000000E+00  0.20766367758E+04  0.20766367758E+04  0.25500000920E-02 0. -1.
        2   -1    0    0  501    0  0.00000000000E+00  0.00000000000E+00 -0.15634257506E+04  0.15634257506E+04  0.25500000920E-02 0.  1.
    10030    2    1    2    0    0  0.00000000000E+00  0.00000000000E+00  0.51321102525E+03  0.36400625264E+04  0.36037022130E+04 0.  0.
        2    1    3    3  502    0 -0.35151505278E+03 -0.14090629473E+04  0.13339722308E+04  0.19719287853E+04  0.25500000920E-02 0. -1.
       -2    1    3    3    0  502  0.35151505278E+03  0.14090629473E+04 -0.82076120553E+03  0.16681337411E+04  0.25500000920E-02 0.  1.
</event>
<event>
 5   0  0.3215494E-08  0.3598361E+04  0.7818609E-02  0.8090867E-01
        1   -1    0    0  501    0  0.00000000000E+00  0.00000000000E+00  0.14358212418E+04  0.14358212418E+04  0.50400001928E-02 0. -1.
       -1   -1    0    0    0  501  0.00000000000E+00  0.00000000000E+00 -0.22544938799E+04  0.22544938799E+04  0.50400001928E-02 0.  1.
    10030    2    1    2    0    0  0.00000000000E+00  0.00000000000E+00 -0.81867263811E+03  0.36903151217E+04  0.35983608504E+04 0.  0.
        4    1    3    3  502    0  0.59377443726E+03  0.46550929400E+03 -0.20844098518E+04  0.22167618339E+04  0.12699999809E+01 0.  1.
       -4    1    3    3    0  502 -0.59377443726E+03 -0.46550929400E+03  0.12657372137E+04  0.14735532878E+04  0.12699999809E+01 0. -1.
</event>
<event>
 5   0  0.1017794E-07  0.3601221E+04  0.7818609E-02  0.8090212E-01
       -2   -1    0    0    0  501  0.00000000000E+00  0.00000000000E+00  0.18754610376E+04  0.18754610376E+04  0.25500000920E-02 0.  1.
        2   -1    0    0  501    0  0.00000000000E+00  0.00000000000E+00 -0.17287468390E+04  0.17287468390E+04  0.25500000920E-02 0. -1.
    10030    2    1    2    0    0  0.00000000000E+00  0.00000000000E+00  0.14671419860E+03  0.36042078765E+04  0.36012205377E+04 0.  0.
        1    1    3    3  502    0  0.97629754541E+03  0.46030517219E+03 -0.13690738954E+04  0.17433878168E+04  0.50400001928E-02 0. -1.
       -1    1    3    3    0  502 -0.97629754541E+03 -0.46030517219E+03  0.15157880940E+04  0.18608200597E+04  0.50400001928E-02 0.  1.
</event>
<event>
 5   0  0.9905335E-08  0.3607540E+04  0.7818609E-02  0.8088767E-01
       -2   -1    0    0    0  501  0.00000000000E+00  0.00000000000E+00  0.13173561091E+04  0.13173561091E+04  0.25500000920E-02 0. -1.
        2   -1    0    0  501    0  0.00000000000E+00  0.00000000000E+00 -0.24697854831E+04  0.24697854831E+04  0.25500000920E-02 0.  1.
    10030    2    1    2    0    0  0.00000000000E+00  0.00000000000E+00 -0.11524293741E+04  0.37871415922E+04  0.36075404332E+04 0.  0.
        5    1    3    3  502    0 -0.44944896423E+03 -0.62713222296E+03 -0.22878038565E+04  0.24144083690E+04  0.46999998093E+01 0.  1.
       -5    1    3    3    0  502  0.44944896423E+03  0.62713222296E+03  0.11353744825E+04  0.13727332232E+04  0.46999998093E+01 0. -1.
</event>
<event>
 5   0  0.1029908E-07  0.3592996E+04  0.7818609E-02  0.8092098E-01
        2   -1    0    0  501    0  0.00000000000E+00  0.00000000000E+00  0.22149683001E+04  0.22149683002E+04  0.25500000920E-02 0. -1.
       -2   -1    0    0    0  501  0.00000000000E+00  0.00000000000E+00 -0.14570888438E+04  0.14570888438E+04  0.25500000920E-02 0.  1.
    10030    2    1    2    0    0  0.00000000000E+00  0.00000000000E+00  0.75787945631E+03  0.36720571440E+04  0.35929962981E+04 0.  0.
        4    1    3    3  502    0 -0.14555345869E+04  0.85499166067E+03  0.10071292890E+04  0.19656812283E+04  0.12699999809E+01 0.  1.
       -4    1    3    3    0  502  0.14555345869E+04 -0.85499166067E+03 -0.24924983273E+03  0.17063759157E+04  0.12699999809E+01 0. -1.
</event>
<event>
 5   0  0.9905335E-08  0.3604855E+04  0.7818609E-02  0.8089381E-01
        2   -1    0    0  501    0  0.00000000000E+00  0.00000000000E+00  0.28275850083E+04  0.28275850083E+04  0.25500000920E-02 0.  1.
       -2   -1    0    0    0  501  0.00000000000E+00  0.00000000000E+00 -0.11489466573E+04  0.11489466573E+04  0.25500000920E-02 0. -1.
    10030    2    1    2    0    0  0.00000000000E+00  0.00000000000E+00  0.16786383510E+04  0.39765316656E+04  0.36048546953E+04 0.  0.
        5    1    3    3  502    0 -0.29547878284E+03 -0.14172534702E+04  0.20237099361E+04  0.24882401623E+04  0.46999998093E+01 0.  1.
       -5    1    3    3    0  502  0.29547878284E+03  0.14172534702E+04 -0.34507158510E+03  0.14882915033E+04  0.46999998093E+01 0. -1.
</event>
<event>
 5   0  0.9905335E-08  0.3598958E+04  0.7818609E-02  0.8090730E-01
        2   -1    0    0  501    0  0.00000000000E+00  0.00000000000E+00  0.22151442472E+04  0.22151442472E+04  0.25500000920E-02 0. -1.
       -2   -1    0    0    0  501  0.00000000000E+00  0.00000000000E+00 -0.14618120268E+04  0.14618120268E+04  0.25500000920E-02 0.  1.
    10030    2    1    2    0    0  0.00000000000E+00  0.00000000000E+00  0.75333222040E+03  0.36769562740E+04  0.35989579056E+04 0.  0.
        5    1    3    3  502    0  0.84325235186E+03  0.78536125553E+03  0.17887326539E+04  0.21277813393E+04  0.46999998093E+01 0. -1.
       -5    1    3    3    0  502 -0.84325235186E+03 -0.78536125553E+03 -0.10354004335E+04  0.15491749347E+04  0.46999998093E+01 0.  1.
</event>
<event>
 5   0  0.3215494E-08  0.3599705E+04  0.7818609E-02  0.8090559E-01
       -1   -1    0    0    0  501  0.00000000000E+00  0.00000000000E+00  0.96046293116E+03  0.96046293117E+03  0.50400001928E-02 0.  1.
        1   -1    0    0  501    0  0.00000000000E+00  0.00000000000E+00 -0.33728202547E+04  0.33728202547E+04  0.50400001928E-02 0. -1.
    10030    2    1    2    0    0  0.00000000000E+00  0.00000000000E+00 -0.24123573236E+04  0.43332831859E+04  0.35997048924E+04 0.  0.
        4    1    3    3  502    0  0.18783915965E+03  0.17040338480E+04 -0.18660176103E+04  0.25339767639E+04  0.12699999809E+01 0. -1.
       -4    1    3    3    0  502 -0.18783915965E+03 -0.17040338480E+04 -0.54633971321E+03  0.17993064220E+04  0.12699999809E+01 0.  1.
</event>
<event>
 5   0  0.3212523E-08  0.3600944E+04  0.7818609E-02  0.8090275E-01
        1   -1    0    0  501    0  0.00000000000E+00  0.00000000000E+00  0.18281624633E+04  0.18281624633E+04  0.50400001928E-02 0. -1.
       -1   -1    0    0    0  501  0.00000000000E+00  0.00000000000E+00 -0.17732009394E+04  0.17732009394E+04  0.50400001928E-02 0.  1.
    10030    2    1    2    0    0  0.00000000000E+00  0.00000000000E+00  0.54961523902E+02  0.36013634026E+04  0.36009439858E+04 0.  0.
        3    1    3    3  502    0  0.11887368123E+04  0.11785034541E+04 -0.63572073675E+03  0.17905603775E+04  0.10100000352E+00 0.  1.
       -3    1    3    3    0  502 -0.11887368123E+04 -0.11785034541E+04  0.69068226065E+03  0.18108030251E+04  0.10100000352E+00 0. -1.
</event>
<event>
 5   0  0.3279988E-08  0.3596055E+04  0.7818609E-02  0.8091396E-01
       -1   -1    0    0    0  501  0.00000000000E+00  0.00000000000E+00  0.11230017292E+04  0.11230017292E+04  0.50400001928E-02 0.  1.
        1   -1    0    0  501    0  0.00000000000E+00  0.00000000000E+00 -0.28788042823E+04  0.28788042823E+04  0.50400001928E-02 0. -1.
    10030    2    1    2    0    0  0.00000000000E+00  0.00000000000E+00 -0.17558025531E+04  0.40018060115E+04  0.35960546086E+04 0.  0.
        5    1    3    3  502    0  0.23340469250E+03  0.15688733121E+03 -0.28541702447E+04  0.28679960357E+04  0.46999998093E+01 0. -1.
       -5    1    3    3    0  502 -0.23340469250E+03 -0.15688733121E+03  0.10983676916E+04  0.11338099758E+04  0.46999998093E+01 0.  1.
</event>
<event>
 5   0  0.1017794E-07  0.3600337E+04  0.7818609E-02  0.8090414E-01
        2   -1    0    0  501    0  0.00000000000E+00  0.00000000000E+00  0.17905858921E+04  0.17905858921E+04  0.25500000920E-02 0. -1.
       -2   -1    0    0    0  501  0.00000000000E+00  0.00000000000E+00 -0.18098024612E+04  0.18098024612E+04  0.25500000920E-02 0.  1.
    10030    2    1    2    0    0  0.00000000000E+00  0.00000000000E+00 -0.19216569138E+02  0.36003883534E+04  0.36003370701E+04 0.  0.
        1    1    3    3  502    0  0.15287374401E+04  0.46328860814E+03 -0.83963954048E+03  0.18046243524E+04  0.50400001928E-02 0.  1.
       -1    1    3    3    0  502 -0.15287374401E+04 -0.46328860814E+03  0.82042297134E+03  0.17957640010E+04  0.50400001928E-02 0. -1.
</event>
<event>
 5   0  0.9905335E-08  0.3603198E+04  0.7818609E-02  0.8089759E-01
       -2   -1    0    0    0  501  0.00000000000E+00  0.00000000000E+00  0.14139811274E+04  0.14139811274E+04  0.25500000920E-02 0.  1.
        2   -1    0    0  501    0  0.00000000000E+00  0.00000000000E+00 -0.22954757546E+04  0.22954757546E+04  0.25500000920E-02 0. -1.
    10030    2    1    2    0    0  0.00000000000E+00  0.00000000000E+00 -0.88149462717E+03  0.37094568820E+04  0.36031982434E+04 0.  0.
        5    1    3    3  502    0 -0.71256743580E+03  0.16213507707E+04 -0.10053762364E+03  0.17738829093E+04  0.46999998093E+01 0.  1.
       -5    1    3    3    0  502  0.71256743580E+03 -0.16213507707E+04 -0.78095700353E+03  0.19355739726E+04  0.46999998093E+01 0. -1.
</event>
<event>
 5   0  0.3279988E-08  0.3597116E+04  0.7818609E-02  0.8091153E-01
       -1   -1    0    0    0  501  0.00000000000E+00  0.00000000000E+00  0.24056165627E+04  0.24056165627E+04  0.50400001928E-02 0.  1.
        1   -1    0    0  501    0  0.00000000000E+00  0.00000000000E+00 -0.13446907980E+04  0.13446907981E+04  0.50400001928E-02 0. -1.
    10030    2    1    2    0    0  0.00000000000E+00  0.00000000000E+00  0.10609257647E+04  0.37503073608E+04  0.35971157644E+04 0.  0.
        5    1    3    3  502    0 -0.14781017733E+04  0.10246936326E+04  0.52781036698E+03  0.18744033094E+04  0.46999998093E+01 0.  1.
       -5    1    3    3    0  502  0.14781017733E+04 -0.10246936326E+04  0.53311539771E+03  0.18759040514E+04  0.46999998093E+01 0. -1.
</event>
<event>
 5   0  0.3202875E-08  0.3597364E+04  0.7818609E-02  0.8091096E-01
       -1   -1    0    0    0  501  0.00000000000E+00  0.00000000000E+00  0.14537487104E+04  0.14537487104E+04  0.50400001928E-02 0. -1.
        1   -1    0    0  501    0  0.00000000000E+00  0.00000000000E+00 -0.22254584506E+04  0.22254584506E+04  0.50400001928E-02 0.  1.
    10030    2    1    2    0    0  0.00000000000E+00  0.00000000000E+00 -0.77170974021E+03  0.36792071610E+04  0.35973642310E+04 0.  0.
        1    1    3    3  502    0 -0.55430891411E+03  0.12485140771E+04  0.81089974632E+03  0.15885855884E+04  0.50400001928E-02 0. -1.
       -1    1    3    3    0  502  0.55430891411E+03 -0.12485140771E+04 -0.15826094865E+04  0.20906215726E+04  0.50400001928E-02 0.  1.
</event>
<event>
 5   0  0.1029908E-07  0.3600898E+04  0.7818609E-02  0.8090286E-01
       -2   -1    0    0    0  501  0.00000000000E+00  0.00000000000E+00  0.17952267301E+04  0.17952267301E+04  0.25500000920E-02 0. -1.
        2   -1    0    0  501    0  0.00000000000E+00  0.00000000000E+00 -0.18056864283E+04  0.18056864283E+04  0.25500000920E-02 0.  1.
    10030    2    1    2    0    0  0.00000000000E+00  0.00000000000E+00 -0.10459698184E+02  0.36009131584E+04  0.36008979670E+04 0.  0.
        4    1    3    3  502    0 -0.83724677835E+03  0.64441596432E+03  0.14526380322E+04  0.17962218595E+04  0.12699999809E+01 0. -1.
       -4    1    3    3    0  502  0.83724677835E+03 -0.64441596432E+03 -0.14630977304E+04  0.18046912989E+04  0.12699999809E+01 0.  1.
</event>
<event>
 5   0  0.3202875E-08  0.3602234E+04  0.7818609E-02  0.8089980E-01
       -1   -1    0    0    0  501  0.00000000000E+00  0.00000000000E+00  0.16887905040E+04  0.16887905041E+04  0.50400001928E-02 0.  1.
        1   -1    0    0  501    0  0.00000000000E+00  0.00000000000E+00 -0.19209151856E+04  0.19209151857E+04  0.50400001928E-02 0. -1.
    10030    2    1    2    0    0  0.00000000000E+00  0.00000000000E+00 -0.23212468161E+03  0.36097056897E+04  0.36022344869E+04 0.  0.
        1    1    3    3  502    0 -0.11332791349E+04  0.35645543867E+03 -0.14726208903E+04  0.18920873034E+04  0.50400001928E-02 0. -1.
       -1    1    3    3    0  502  0.11332791349E+04 -0.35645543867E+03  0.12404962086E+04  0.17176183863E+04  0.50400001928E-02 0.  1.
</event>
<event>
 5   0  0.1029908E-07  0.3605207E+04  0.7818609E-02  0.8089300E-01
       -2   -1    0    0    0  501  0.00000000000E+00  0.00000000000E+00  0.14713901302E+04  0.14713901302E+04  0.25500000920E-02 0. -1.
        2   -1    0    0  501    0  0.00000000000E+00  0.00000000000E+00 -0.22083740038E+04  0.22083740038E+04  0.25500000920E-02 0.  1.
    10030    2    1    2    0    0  0.00000000000E+00  0.00000000000E+00 -0.73698387360E+03  0.36797641339E+04  0.36052071857E+04 0.  0.
        4    1    3    3  502    0 -0.30541465154E+03 -0.30924799798E+03 -0.21540891933E+04  0.21975018314E+04  0.12699999809E+01 0.  1.
       -4    1    3    3    0  502  0.30541465154E+03  0.30924799798E+03  0.14171053197E+04  0.14822623025E+04  0.12699999809E+01 0. -1.
</event>
<event>
 5   0  0.1017794E-07  0.3592994E+04  0.7818609E-02  0.8092098E-01
       -2   -1    0    0    0  501  0.00000000000E+00  0.00000000000E+00  0.11385077073E+04  0.11385077074E+04  0.25500000920E-02 0.  1.
        2   -1    0    0  501    0  0.00000000000E+00  0.00000000000E+00 -0.28347647792E+04  0.28347647792E+04  0.25500000920E-02 0. -1.
    10030    2    1    2    0    0  0.00000000000E+00  0.00000000000E+00 -0.16962570719E+04  0.39732724866E+04  0.35929940438E+04 0.  0.
        1    1    3    3  502    0 -0.17638740266E+03 -0.10865251553E+04 -0.24181674452E+04  0.26569123474E+04  0.50400001928E-02 0. -1.
       -1    1    3    3    0  502  0.17638740266E+03  0.10865251553E+04  0.72191037328E+03  0.13163601392E+04  0.50400001928E-02 0.  1.
</event>
<event>
 5   0  0.3202875E-08  0.3597872E+04  0.7818609E-02  0.8090979E-01
       -1   -1    0    0    0  501  0.00000000000E+00  0.00000000000E+00  0.13682062341E+04  0.13682062341E+04  0.50400001928E-02 0. -1.
        1   -1    0    0  501    0  0.00000000000E+00  0.00000000000E+00 -0.23652647829E+04  0.23652647829E+04  0.50400001928E-02 0.  1.
    10030    2    1    2    0    0  0.00000000000E+00  0.00000000000E+00 -0.99705854876E+03  0.37334710170E+04  0.35978716049E+04 0.  0.
        2    1    3    3  502    0  0.11419342237E+04  0.38038450226E+03 -0.18858783871E+04  0.22372401372E+04  0.25500000920E-02 0.  1.
       -2    1    3    3    0  502 -0.11419342237E+04 -0.38038450226E+03  0.88881983831E+03  0.14962308798E+04  0.25500000920E-02 0. -1.
</event>
<event>
 5   0  0.3202875E-08  0.3601652E+04  0.7818609E-02  0.8090113E-01
        1   -1    0    0  501    0  0.00000000000E+00  0.00000000000E+00  0.19226166201E+04  0.19226166201E+04  0.50400001928E-02 0.  1.
       -1   -1    0    0    0  501  0.00000000000E+00  0.00000000000E+00 -0.16867507970E+04  0.16867507970E+04  0.50400001928E-02 0. -1.
    10030    2    1    2    0    0  0.00000000000E+00  0.00000000000E+00  0.23586582313E+03  0.36093674172E+04  0.36016524632E+04 0.  0.
        1    1    3    3  502    0 -0.48322565110E+03 -0.12196565176E+04 -0.11183652222E+04  0.17238937963E+04  0.50400001928E-02 0. -1.
       -1    1    3    3    0  502  0.48322565110E+03  0.12196565176E+04  0.13542310453E+04  0.18854736208E+04  0.50400001928E-02 0.  1.
</event>
<event>
 5   0  0.1029908E-07  0.3611167E+04  0.7818609E-02  0.8087939E-01
       -2   -1    0    0    0  501  0.00000000000E+00  0.00000000000E+00  0.19501595423E+04  0.19501595423E+04  0.25500000920E-02 0. -1.
        2   -1    0    0  501    0  0.00000000000E+00  0.00000000000E+00 -0.16717257748E+04  0.16717257748E+04  0.25500000920E-02 0.  1.
    10030    2    1    2    0    0  0.00000000000E+00  0.00000000000E+00  0.27843376745E+03  0.36218853171E+04  0.36111671087E+04 0.  0.
        4    1    3    3  502    0 -0.97482079953E+03 -0.15000359104E+04  0.38437444252E+03  0.18297892361E+04  0.12699999809E+01 0. -1.
       -4    1    3    3    0  502  0.97482079953E+03  0.15000359104E+04 -0.10594067507E+03  0.17920960809E+04  0.12699999809E+01 0.  1.
</event>
<event>
 5   0  0.3215494E-08  0.3606075E+04  0.7818609E-02  0.8089102E-01
       -1   -1    0    0    0  501  0.00000000000E+00  0.00000000000E+00  0.20958797993E+04  0.20958797993E+04  0.50400001928E-02 0.  1.
        1   -1    0    0  501    0  0.00000000000E+00  0.00000000000E+00 -0.15511119434E+04  0.15511119434E+04  0.50400001928E-02 0. -1.
    10030    2    1    2    0    0  0.00000000000E+00  0.00000000000E+00  0.54476785588E+03  0.36469917427E+04  0.36060749790E+04 0.  0.
        4    1    3    3  502    0 -0.15292320431E+03  0.78909883368E+03  0.19046610607E+04  0.20673165807E+04  0.12699999809E+01 0.  1.
       -4    1    3    3    0  502  0.15292320431E+03 -0.78909883368E+03 -0.13598932049E+04  0.15796751619E+04  0.12699999809E+01 0. -1.
</event>
<event>
 5   0  0.1029908E-07  0.3573602E+04  0.7818609E-02  0.8096565E-01
       -2   -1    0    0    0  501  0.00000000000E+00  0.00000000000E+00  0.16277693361E+04  0.16277693362E+04  0.25500000920E-02 0.  1.
        2   -1    0    0  501    0  0.00000000000E+00  0.00000000000E+00 -0.19613704508E+04  0.19613704508E+04  0.25500000920E-02 0. -1.
    10030    2    1    2    0    0  0.00000000000E+00  0.00000000000E+00 -0.33360111465E+03  0.35891397870E+04  0.35736024830E+04 0.  0.
        4    1    3    3  502    0  0.17001822487E+04  0.47372538615E+02 -0.71671489239E+03  0.18456829863E+04  0.12699999809E+01 0.  1.
       -4    1    3    3    0  502 -0.17001822487E+04 -0.47372538615E+02  0.38311377773E+03  0.17434568006E+04  0.12699999809E+01 0. -1.
</event>
<event>
 5   0  0.3202875E-08  0.3597245E+04  0.7818609E-02  0.8091123E-01
       -1   -1    0    0    0  501  0.00000000000E+00  0.00000000000E+00  0.14915471613E+04  0.14915471613E+04  0.50400001928E-02 0.  1.
        1   -1    0    0  501    0  0.00000000000E+00  0.00000000000E+00 -0.21689175585E+04  0.21689175585E+04  0.50400001928E-02 0. -1.
    10030    2    1    2    0    0  0.00000000000E+00  0.00000000000E+00 -0.67737039720E+03  0.36604647198E+04  0.35972449611E+04 0.  0.
        2    1    3    3  502    0  0.59704180392E+03  0.18418724610E+01 -0.20651407572E+04  0.21497136217E+04  0.25500000920E-02 0. -1.
       -2    1    3    3    0  502 -0.59704180392E+03 -0.18418724610E+01  0.13877703601E+04  0.15107510981E+04  0.25500000920E-02 0.  1.
</event>
<event>
 5   0  0.1017794E-07  0.3603603E+04  0.7818609E-02  0.8089667E-01
        2   -1    0    0  501    0  0.00000000000E+00  0.00000000000E+00  0.18724600644E+04  0.18724600644E+04  0.25500000920E-02 0. -1.
       -2   -1    0    0    0  501  0.00000000000E+00  0.00000000000E+00 -0.17338094519E+04  0.17338094519E+04  0.25500000920E-02 0.  1.
    10030    2    1    2    0    0  0.00000000000E+00  0.00000000000E+00  0.13865061246E+03  0.36062695163E+04  0.36036031735E+04 0.  0.
        1    1    3    3  502    0  0.34803752968E+03  0.30067680454E+03  0.18127257597E+04  0.18701634535E+04  0.50400001928E-02 0. -1.
       -1    1    3    3    0  502 -0.34803752968E+03 -0.30067680454E+03 -0.16740751472E+04  0.17361060628E+04  0.50400001928E-02 0.  1.
</event>
<event>
 5   0  0.3212523E-08  0.3606171E+04  0.7818609E-02  0.8089080E-01
       -1   -1    0    0    0  501  0.00000000000E+00  0.00000000000E+00  0.23340412992E+04  0.23340412992E+04  0.50400001928E-02 0. -1.
        1   -1    0    0  501    0  0.00000000000E+00  0.00000000000E+00 -0.13929134602E+04  0.13929134602E+04  0.50400001928E-02 0.  1.
    10030    2    1    2    0    0  0.00000000000E+00  0.00000000000E+00  0.94112783901E+03  0.37269547594E+04  0.36061711231E+04 0.  0.
        3    1    3    3  502    0 -0.74046303963E+02 -0.83973034206E+03  0.21178397710E+04  0.22794462504E+04  0.10100000352E+00 0. -1.
       -3    1    3    3    0  502  0.74046303963E+02  0.83973034206E+03 -0.11767119320E+04  0.14475085090E+04  0.10100000352E+00 0.  1.
</event>
<event>
 5   0  0.3202875E-08  0.3600215E+04  0.7818609E-02  0.8090442E-01
       -1   -1    0    0    0  501  0.00000000000E+00  0.00000000000E+00  0.14427227684E+04  0.14427227684E+04  0.50400001928E-02 0. -1.
        1   -1    0    0  501    0  0.00000000000E+00  0.00000000000E+00 -0.22460221077E+04  0.22460221078E+04  0.50400001928E-02 0.  1.
    10030    2    1    2    0    0  0.00000000000E+00  0.00000000000E+00 -0.80329933935E+03  0.36887448762E+04  0.36002151231E+04 0.  0.
        1    1    3    3  502    0 -0.11552030232E+04 -0.10642795648E+04 -0.13025914190E+04  0.20405708569E+04  0.50400001928E-02 0.  1.
       -1    1    3    3    0  502  0.11552030232E+04  0.10642795648E+04  0.49929207966E+03  0.16481740193E+04  0.50400001928E-02 0. -1.
</event>
<event>
 5   0  0.3212523E-08  0.3599557E+04  0.7818609E-02  0.8090593E-01
       -1   -1    0    0    0  501  0.00000000000E+00  0.00000000000E+00  0.22680258689E+04  0.22680258689E+04  0.50400001928E-02 0.  1.
        1   -1    0    0  501    0  0.00000000000E+00  0.00000000000E+00 -0.14282035257E+04  0.14282035257E+04  0.50400001928E-02 0. -1.
    10030    2    1    2    0    0  0.00000000000E+00  0.00000000000E+00  0.83982234319E+03  0.36962293946E+04  0.35995569407E+04 0.  0.
        3    1    3    3  502    0 -0.38628343487E+03  0.15343641523E+04  0.13006851264E+04  0.20482358390E+04  0.10100000352E+00 0.  1.
       -3    1    3    3    0  502  0.38628343487E+03 -0.15343641523E+04 -0.46086278319E+03  0.16479935556E+04  0.10100000352E+00 0. -1.
</event>
<event>
 5   0  0.1021087E-07  0.3598051E+04  0.7818609E-02  0.8090938E-01
       -2   -1    0    0    0  501  0.00000000000E+00  0.00000000000E+00  0.18465697658E+04  0.18465697658E+04  0.25500000920E-02 0. -1.
        2   -1    0    0  501    0  0.00000000000E+00  0.00000000000E+00 -0.17527052978E+04  0.17527052978E+04  0.25500000920E-02 0.  1.
    10030    2    1    2    0    0  0.00000000000E+00  0.00000000000E+00  0.93864468071E+02  0.35992750636E+04  0.35980509231E+04 0.  0.
        3    1    3    3  502    0  0.10888362866E+04  0.35190762779E+03 -0.13417364333E+04  0.17634228376E+04  0.10100000352E+00 0.  1.
       -3    1    3    3    0  502 -0.10888362866E+04 -0.35190762779E+03  0.14356009014E+04  0.18358522260E+04  0.10100000352E+00 0. -1.
</event>
<event>
 5   0  0.1044678E-07  0.3598826E+04  0.7818609E-02  0.8090761E-01
        2   -1    0    0  501    0  0.00000000000E+00  0.00000000000E+00  0.24632641309E+04  0.24632641309E+04  0.25500000920E-02 0. -1.
       -2   -1    0    0    0  501  0.00000000000E+00  0.00000000000E+00 -0.13144703789E+04  0.13144703789E+04  0.25500000920E-02 0.  1.
    10030    2    1    2    0    0  0.00000000000E+00  0.00000000000E+00  0.11487937520E+04  0.37777345098E+04  0.35988263284E+04 0.  0.
        2    1    3    3  502    0  0.63646131621E+01  0.16510564350E+04  0.13254075123E+04  0.21172465453E+04  0.25500000920E-02 0. -1.
       -2    1    3    3    0  502 -0.63646131621E+01 -0.16510564350E+04 -0.17661376028E+03  0.16604879645E+04  0.25500000920E-02 0.  1.
</event>
<event>
 5   0  0.3215494E-08  0.3609274E+04  0.7818609E-02  0.8088371E-01
        1   -1    0    0  501    0  0.00000000000E+00  0.00000000000E+00  0.22599992451E+04  0.22599992452E+04  0.50400001928E-02 0. -1.
       -1   -1    0    0    0  501  0.00000000000E+00  0.00000000000E+00 -0.14410246630E+04  0.14410246630E+04  0.50400001928E-02 0.  1.
    10030    2    1    2    0    0  0.00000000000E+00  0.00000000000E+00  0.81897458215E+03  0.37010239082E+04  0.36092739717E+04 0.  0.
        4    1    3    3  502    0 -0.64215115796E+03  0.16325615415E+04 -0.24470105880E+02  0.17544844529E+04  0.12699999809E+01 0.  1.
       -4    1    3    3    0  502  0.64215115796E+03 -0.16325615415E+04  0.84344468803E+03  0.19465394553E+04  0.12699999809E+01 0. -1.
</event>
<event>
 5   0  0.1017794E-07  0.3600304E+04  0.7818609E-02  0.8090422E-01
        2   -1    0    0  501    0  0.00000000000E+00  0.00000000000E+00  0.10011555968E+04  0.10011555968E+04  0.25500000920E-02 0. -1.
       -2   -1    0    0    0  501  0.00000000000E+00  0.00000000000E+00 -0.32368075917E+04  0.32368075917E+04  0.25500000920E-02 0.  1.
    10030    2    1    2    0    0  0.00000000000E+00  0.00000000000E+00 -0.22356519949E+04  0.42379631885E+04  0.36003044517E+04 0.  0.
        1    1    3    3  502    0  0.16388545091E+04  0.61370911651E+03 -0.62111096782E+03  0.18569495998E+04  0.50400001928E-02 0. -1.
       -1    1    3    3    0  502 -0.16388545091E+04 -0.61370911651E+03 -0.16145410271E+04  0.23810135888E+04  0.50400001928E-02 0.  1.
</event>
<event>
 5   0  0.9905335E-08  0.3599665E+04  0.7818609E-02  0.8090568E-01
        2   -1    0    0  501    0  0.00000000000E+00  0.00000000000E+00  0.22827505423E+04  0.22827505423E+04  0.25500000920E-02 0.  1.
       -2   -1    0    0    0  501  0.00000000000E+00  0.00000000000E+00 -0.14190761071E+04  0.14190761071E+04  0.25500000920E-02 0. -1.
    10030    2    1    2    0    0  0.00000000000E+00  0.00000000000E+00  0.86367443522E+03  0.37018266494E+04  0.35996648472E+04 0.  0.
        5    1    3    3  502    0  0.99284200357E+03 -0.11373310853E+04  0.14395022444E+04  0.20860119950E+04  0.46999998093E+01 0.  1.
       -5    1    3    3    0  502 -0.99284200357E+03  0.11373310853E+04 -0.57582780918E+03  0.16158146544E+04  0.46999998093E+01 0. -1.
</event>
<event>
 5   0  0.3215494E-08  0.3599081E+04  0.7818609E-02  0.8090702E-01
        1   -1    0    0  501    0  0.00000000000E+00  0.00000000000E+00  0.29639121660E+04  0.29639121660E+04  0.50400001928E-02 0.  1.
       -1   -1    0    0    0  501  0.00000000000E+00  0.00000000000E+00 -0.10925920396E+04  0.10925920396E+04  0.50400001928E-02 0. -1.
    10030    2    1    2    0    0  0.00000000000E+00  0.00000000000E+00  0.18713201264E+04  0.40565042056E+04  0.35990814598E+04 0.  0.
        4    1    3    3  502    0  0.35988828315E+03 -0.75392054118E+03 -0.86078452151E+03  0.11995279756E+04  0.12699999809E+01 0. -1.
       -4    1    3    3    0  502 -0.35988828315E+03  0.75392054118E+03  0.27321046479E+04  0.28569762300E+04  0.12699999809E+01 0.  1.
</event>
<event>
 5   0  0.1017794E-07  0.3601150E+04  0.7818609E-02  0.8090228E-01
       -2   -1    0    0    0  501  0.00000000000E+00  0.00000000000E+00  0.12876241339E+04  0.12876241339E+04  0.25500000920E-02 0.  1.
        2   -1    0    0  501    0  0.00000000000E+00  0.00000000000E+00 -0.25178696608E+04  0.25178696608E+04  0.25500000920E-02 0. -1.
    10030    2    1    2    0    0  0.00000000000E+00  0.00000000000E+00 -0.12302455268E+04  0.38054937947E+04  0.36011496727E+04 0.  0.
        1    1    3    3  502    0 -0.79755579832E+02  0.43011271071E+03  0.12306168796E+04  0.13060535214E+04  0.50400001928E-02 0.  1.
       -1    1    3    3    0  502  0.79755579832E+02 -0.43011271071E+03 -0.24608624064E+04  0.24994402733E+04  0.50400001928E-02 0. -1.
</event>
<event>
 5   0  0.3202875E-08  0.3589906E+04  0.7818609E-02  0.8092808E-01
        1   -1    0    0  501    0  0.00000000000E+00  0.00000000000E+00  0.10436986485E+04  0.10436986485E+04  0.50400001928E-02 0. -1.
       -1   -1    0    0    0  501  0.00000000000E+00  0.00000000000E+00 -0.30869597613E+04  0.30869597613E+04  0.50400001928E-02 0.  1.
    10030    2    1    2    0    0  0.00000000000E+00  0.00000000000E+00 -0.20432611128E+04  0.41306584098E+04  0.35899056985E+04 0.  0.
        1    1    3    3  502    0 -0.21888471003E+03 -0.18636557990E+03 -0.30602991826E+04  0.30737719064E+04  0.50400001928E-02 0.  1.
       -1    1    3    3    0  502  0.21888471003E+03  0.18636557990E+03  0.10170380698E+04  0.10568865034E+04  0.50400001928E-02 0. -1.
</event>
<event>
 5   0  0.1017794E-07  0.3611855E+04  0.7818609E-02  0.8087782E-01
        2   -1    0    0  501    0  0.00000000000E+00  0.00000000000E+00  0.16305607958E+04  0.16305607958E+04  0.25500000920E-02 0. -1.
       -2   -1    0    0    0  501  0.00000000000E+00  0.00000000000E+00 -0.20001551281E+04  0.20001551281E+04  0.25500000920E-02 0.  1.
    10030    2    1    2    0    0  0.00000000000E+00  0.00000000000E+00 -0.36959433230E+03  0.36307159239E+04  0.36118552227E+04 0.  0.
        1    1    3    3  502    0  0.11377731326E+04  0.66721422205E+03  0.10552050560E+04  0.16891300215E+04  0.50400001928E-02 0. -1.
       -1    1    3    3    0  502 -0.11377731326E+04 -0.66721422205E+03 -0.14247993883E+04  0.19415859024E+04  0.50400001928E-02 0.  1.
</event>
<event>
 5   0  0.3215494E-08  0.3598974E+04  0.7818609E-02  0.8090727E-01
        1   -1    0    0  501    0  0.00000000000E+00  0.00000000000E+00  0.17146766597E+04  0.17146766597E+04  0.50400001928E-02 0. -1.
       -1   -1    0    0    0  501  0.00000000000E+00  0.00000000000E+00 -0.18884922397E+04  0.18884922397E+04  0.50400001928E-02 0.  1.
    10030    2    1    2    0    0  0.00000000000E+00  0.00000000000E+00 -0.17381557992E+03  0.36031688994E+04  0.35989740568E+04 0.  0.
        4    1    3    3  502    0 -0.14074757102E+04 -0.88173742826E+03 -0.78032115053E+03  0.18350344624E+04  0.12699999809E+01 0.  1.
       -4    1    3    3    0  502  0.14074757102E+04  0.88173742826E+03  0.60650557061E+03  0.17681344370E+04  0.12699999809E+01 0. -1.
</event>
<event>
 5   0  0.1044678E-07  0.3601288E+04  0.7818609E-02  0.8090197E-01
        2   -1    0    0  501    0  0.00000000000E+00  0.00000000000E+00  0.22424243502E+04  0.22424243502E+04  0.25500000920E-02 0. -1.
       -2   -1    0    0    0  501  0.00000000000E+00  0.00000000000E+00 -0.14458985526E+04  0.14458985526E+04  0.25500000920E-02 0.  1.
    10030    2    1    2    0    0  0.00000000000E+00  0.00000000000E+00  0.79652579753E+03  0.36883229028E+04  0.36012876155E+04 0.  0.
        2    1    3    3  502    0  0.17924991273E+03 -0.15919250523E+04 -0.44377635811E+03  0.16623156618E+04  0.25500000920E-02 0.  1.
       -2    1    3    3    0  502 -0.17924991273E+03  0.15919250523E+04  0.12403021556E+04  0.20260072410E+04  0.25500000920E-02 0. -1.
</event>
<event>
 5   0  0.1044678E-07  0.3605871E+04  0.7818609E-02  0.8089148E-01
        2   -1    0    0  501    0  0.00000000000E+00  0.00000000000E+00  0.22886602837E+04  0.22886602837E+04  0.25500000920E-02 0.  1.
       -2   -1    0    0    0  501  0.00000000000E+00  0.00000000000E+00 -0.14202968838E+04  0.14202968838E+04  0.25500000920E-02 0. -1.
    10030    2    1    2    0    0  0.00000000000E+00  0.00000000000E+00  0.86836339993E+03  0.37089571675E+04  0.36058713616E+04 0.  0.
        2    1    3    3  502    0  0.12158268963E+04  0.88360830500E+03  0.14584296784E+04  0.20942816920E+04  0.25500000920E-02 0.  1.
       -2    1    3    3    0  502 -0.12158268963E+04 -0.88360830500E+03 -0.59006627846E+03  0.16146754756E+04  0.25500000920E-02 0. -1.
</event>
<event>
 5   0  0.3215494E-08  0.3594036E+04  0.7818609E-02  0.8091859E-01
        1   -1    0    0  501    0  0.00000000000E+00  0.00000000000E+00  0.21725681120E+04  0.21725681120E+04  0.50400001928E-02 0.  1.
       -1   -1    0    0    0  501  0.00000000000E+00  0.00000000000E+00 -0.14863856316E+04  0.14863856316E+04  0.50400001928E-02 0. -1.
    10030    2    1    2    0    0  0.00000000000E+00  0.00000000000E+00  0.68618248040E+03  0.36589537436E+04  0.35940361853E+04 0.  0.
        4    1    3    3  502    0 -0.50888923792E+02 -0.62273858187E+03 -0.13722397925E+04  0.15077919900E+04  0.12699999809E+01 0. -1.
       -4    1    3    3    0  502  0.50888923792E+02  0.62273858187E+03  0.20584222729E+04  0.21511617537E+04  0.12699999809E+01 0.  1.
</event>
<event>
 5   0  0.3279988E-08  0.3595295E+04  0.7818609E-02  0.8091570E-01
       -1   -1    0    0    0  501  0.00000000000E+00  0.00000000000E+00  0.16546648868E+04  0.16546648868E+04  0.50400001928E-02 0.  1.
        1   -1    0    0  501    0  0.00000000000E+00  0.00000000000E+00 -0.19529859400E+04  0.19529859400E+04  0.50400001928E-02 0. -1.
    10030    2    1    2    0    0  0.00000000000E+00  0.00000000000E+00 -0.29832105322E+03  0.36076508267E+04  0.35952954033E+04 0.  0.
        5    1    3    3  502    0  0.15953004673E+04 -0.14598160295E+03  0.66925315260E+03  0.17361497866E+04  0.46999998093E+01 0.  1.
       -5    1    3    3    0  502 -0.15953004673E+04  0.14598160295E+03 -0.96757420582E+03  0.18715010401E+04  0.46999998093E+01 0. -1.
</event>
<event>
 5   0  0.3202875E-08  0.3604757E+04  0.7818609E-02  0.8089403E-01
       -1   -1    0    0    0  501  0.00000000000E+00  0.00000000000E+00  0.12829687321E+04  0.12829687321E+04  0.50400001928E-02 0. -1.
        1   -1    0    0  501    0  0.00000000000E+00  0.00000000000E+00 -0.25320713208E+04  0.25320713208E+04  0.50400001928E-02 0.  1.
    10030    2    1    2    0    0  0.00000000000E+00  0.00000000000E+00 -0.12491025887E+04  0.38150400529E+04  0.36047570415E+04 0.  0.
        2    1    3    3  502    0 -0.17210753500E+04  0.32819985150E+03 -0.10720065000E+04  0.20540237192E+04  0.25500000920E-02 0.  1.
       -2    1    3    3    0  502  0.17210753500E+04 -0.32819985150E+03 -0.17709608869E+03  0.17610163337E+04  0.25500000920E-02 0. -1.
</event>
<event>
 5   0  0.1021087E-07  0.3589233E+04  0.7818609E-02  0.8092963E-01
       -2   -1    0    0    0  501  0.00000000000E+00  0.00000000000E+00  0.11224282011E+04  0.11224282011E+04  0.25500000920E-02 0. -1.
        2   -1    0    0  501    0  0.00000000000E+00  0.00000000000E+00 -0.28693575642E+04  0.28693575642E+04  0.25500000920E-02 0.  1.
    10030    2    1    2    0    0  0.00000000000E+00  0.00000000000E+00 -0.17469293631E+04  0.39917857653E+04  0.35892327031E+04 0.  0.
        3    1    3    3  502    0 -0.23509482265E+03  0.29714173348E+03 -0.28243662567E+04  0.28496679714E+04  0.10100000352E+00 0.  1.
       -3    1    3    3    0  502  0.23509482265E+03 -0.29714173348E+03  0.10774368936E+04  0.11421177939E+04  0.10100000352E+00 0. -1.
</event>
<event>
 5   0  0.3202875E-08  0.3601712E+04  0.7818609E-02  0.8090100E-01
       -1   -1    0    0    0  501  0.00000000000E+00  0.00000000000E+00  0.16734272146E+04  0.16734272146E+04  0.50400001928E-02 0. -1.
        1   -1    0    0  501    0  0.00000000000E+00  0.00000000000E+00 -0.19379887620E+04  0.19379887620E+04  0.50400001928E-02 0.  1.
    10030    2    1    2    0    0  0.00000000000E+00  0.00000000000E+00 -0.26456154738E+03  0.36114159766E+04  0.36017124460E+04 0.  0.
        2    1    3    3  502    0  0.71577933037E+03  0.15932372516E+04  0.30746451121E+03  0.17734935622E+04  0.25500000920E-02 0. -1.
       -2    1    3    3    0  502 -0.71577933037E+03 -0.15932372516E+04 -0.57202605859E+03  0.18379224144E+04  0.25500000920E-02 0.  1.
</event>
<event>
 5   0  0.3202875E-08  0.3592720E+04  0.7818609E-02  0.8092161E-01
       -1   -1    0    0    0  501  0.00000000000E+00  0.00000000000E+00  0.13762731096E+04  0.13762731096E+04  0.50400001928E-02 0.  1.
        1   -1    0    0  501    0  0.00000000000E+00  0.00000000000E+00 -0.23446722419E+04  0.23446722419E+04  0.50400001928E-02 0. -1.
    10030    2    1    2    0    0  0.00000000000E+00  0.00000000000E+00 -0.96839913225E+03  0.37209453515E+04  0.35927200600E+04 0.  0.
        1    1    3    3  502    0 -0.41006899757E+03 -0.11054867499E+04  0.91940033714E+03  0.14951770855E+04  0.50400001928E-02 0.  1.
       -1    1    3    3    0  502  0.41006899757E+03  0.11054867499E+04 -0.18877994694E+04  0.22257682660E+04  0.50400001928E-02 0. -1.
</event>
<event>
 5   0  0.1017794E-07  0.3598668E+04  0.7818609E-02  0.8090797E-01
       -2   -1    0    0    0  501  0.00000000000E+00  0.00000000000E+00  0.10058103795E+04  0.10058103795E+04  0.25500000920E-02 0. -1.
        2   -1    0    0  501    0  0.00000000000E+00  0.00000000000E+00 -0.32189000930E+04  0.32189000930E+04  0.25500000920E-02 0.  1.
    10030    2    1    2    0    0  0.00000000000E+00  0.00000000000E+00 -0.22130897135E+04  0.42247104725E+04  0.35986681559E+04 0.  0.
        1    1    3    3  502    0  0.15545500706E+04 -0.87135890470E+03 -0.13981773787E+04  0.22651252162E+04  0.50400001928E-02 0. -1.
       -1    1    3    3    0  502 -0.15545500706E+04  0.87135890470E+03 -0.81491233483E+03  0.19595852562E+04  0.50400001928E-02 0.  1.
</event>
<event>
 5   0  0.3202875E-08  0.3605390E+04  0.7818609E-02  0.8089258E-01
       -3   -1    0    0    0  501  0.00000000000E+00  0.00000000000E+00  0.23674476241E+04  0.23674476263E+04  0.10100000352E+00 0. -1.
        3   -1    0    0  501    0  0.00000000000E+00  0.00000000000E+00 -0.13726639822E+04  0.13726639859E+04  0.10100000352E+00 0.  1.
    10030    2    1    2    0    0  0.00000000000E+00  0.00000000000E+00  0.99478364191E+03  0.37401116122E+04  0.36053904612E+04 0.  0.
        1    1    3    3  502    0 -0.11767281113E+04 -0.10372109758E+04  0.14189648754E+04  0.21151730364E+04  0.50400001928E-02 0. -1.
       -1    1    3    3    0  502  0.11767281113E+04  0.10372109758E+04 -0.42418123349E+03  0.16249385758E+04  0.50400001928E-02 0.  1.
</event>
<event>
 5   0  0.3279988E-08  0.3593397E+04  0.7818609E-02  0.8092006E-01
        1   -1    0    0  501    0  0.00000000000E+00  0.00000000000E+00  0.18476391219E+04  0.18476391219E+04  0.50400001928E-02 0.  1.
       -1   -1    0    0    0  501  0.00000000000E+00  0.00000000000E+00 -0.17471620041E+04  0.17471620041E+04  0.50400001928E-02 0. -1.
    10030    2    1    2    0    0  0.00000000000E+00  0.00000000000E+00  0.10047711781E+03  0.35948011260E+04  0.35933966500E+04 0.  0.
        5    1    3    3  502    0 -0.75630460955E+03  0.10384741857E+04  0.13067858096E+04  0.18325219068E+04  0.46999998093E+01 0. -1.
       -5    1    3    3    0  502  0.75630460955E+03 -0.10384741857E+04 -0.12063086918E+04  0.17622792192E+04  0.46999998093E+01 0.  1.
</event>
<event>
 5   0  0.1044678E-07  0.3597449E+04  0.7818609E-02  0.8091076E-01
       -2   -1    0    0    0  501  0.00000000000E+00  0.00000000000E+00  0.11602124523E+04  0.11602124523E+04  0.25500000920E-02 0.  1.
        2   -1    0    0  501    0  0.00000000000E+00  0.00000000000E+00 -0.27886351848E+04  0.27886351848E+04  0.25500000920E-02 0. -1.
    10030    2    1    2    0    0  0.00000000000E+00  0.00000000000E+00 -0.16284227325E+04  0.39488476371E+04  0.35974486883E+04 0.  0.
        2    1    3    3  502    0 -0.11526442376E+04 -0.54266954357E+03 -0.22080187987E+04  0.25492010488E+04  0.25500000920E-02 0. -1.
       -2    1    3    3    0  502  0.11526442376E+04  0.54266954357E+03  0.57959606621E+03  0.13996465882E+04  0.25500000920E-02 0.  1.
</event>
<event>
 5   0  0.1044678E-07  0.3608447E+04  0.7818609E-02  0.8088560E-01
        2   -1    0    0  501    0  0.00000000000E+00  0.00000000000E+00  0.12987240294E+04  0.12987240294E+04  0.25500000920E-02 0. -1.
       -2   -1    0    0    0  501  0.00000000000E+00  0.00000000000E+00 -0.25064770288E+04  0.25064770288E+04  0.25500000920E-02 0.  1.
    10030    2    1    2    0    0  0.00000000000E+00  0.00000000000E+00 -0.12077529994E+04  0.38052010582E+04  0.36084467276E+04 0.  0.
        2    1    3    3  502    0  0.81428547449E+03  0.12443256316E+04  0.47350383269E+03  0.15606450560E+04  0.25500000920E-02 0. -1.
       -2    1    3    3    0  502 -0.81428547449E+03 -0.12443256316E+04 -0.16812568321E+04  0.22445560021E+04  0.25500000920E-02 0.  1.
</event>
<event>
 5   0  0.3212523E-08  0.3600510E+04  0.7818609E-02  0.8090375E-01
       -1   -1    0    0    0  501  0.00000000000E+00  0.00000000000E+00  0.14661751835E+04  0.14661751835E+04  0.50400001928E-02 0.  1.
        1   -1    0    0  501    0  0.00000000000E+00  0.00000000000E+00 -0.22104570459E+04  0.22104570459E+04  0.50400001928E-02 0. -1.
    10030    2    1    2    0    0  0.00000000000E+00  0.00000000000E+00 -0.74428186243E+03  0.36766322295E+04  0.36005095556E+04 0.  0.
        3    1    3    3  502    0 -0.92281516294E+03  0.87634920502E+03  0.92809891714E+03  0.15751010648E+04  0.10100000352E+00 0.  1.
       -3    1    3    3    0  502  0.92281516294E+03 -0.87634920502E+03 -0.16723807796E+04  0.21015311647E+04  0.10100000352E+00 0. -1.
</event>
<event>
 5   0  0.9905335E-08  0.3582889E+04  0.7818609E-02  0.8094422E-01
        2   -1    0    0  501    0  0.00000000000E+00  0.00000000000E+00  0.19624021491E+04  0.19624021491E+04  0.25500000920E-02 0.  1.
       -2   -1    0    0    0  501  0.00000000000E+00  0.00000000000E+00 -0.16353804791E+04  0.16353804791E+04  0.25500000920E-02 0. -1.
    10030    2    1    2    0    0  0.00000000000E+00  0.00000000000E+00  0.32702167008E+03  0.35977826282E+04  0.35828894299E+04 0.  0.
        5    1    3    3  502    0 -0.71928880912E+03  0.11998122065E+04 -0.96021476508E+03  0.16967498952E+04  0.46999998093E+01 0. -1.
       -5    1    3    3    0  502  0.71928880912E+03 -0.11998122065E+04  0.12872364352E+04  0.19010327330E+04  0.46999998093E+01 0.  1.
</event>
<event>
 5   0  0.3215494E-08  0.3599405E+04  0.7818609E-02  0.8090628E-01
        1   -1    0    0  501    0  0.00000000000E+00  0.00000000000E+00  0.17825243221E+04  0.17825243221E+04  0.50400001928E-02 0. -1.
       -1   -1    0    0    0  501  0.00000000000E+00  0.00000000000E+00 -0.18170457753E+04  0.18170457753E+04  0.50400001928E-02 0.  1.
    10030    2    1    2    0    0  0.00000000000E+00  0.00000000000E+00 -0.34521453226E+02  0.35995700975E+04  0.35994045557E+04 0.  0.
        4    1    3    3  502    0  0.13132818999E+04 -0.98606273214E+03  0.71891008383E+03  0.17927248483E+04  0.12699999809E+01 0. -1.
       -4    1    3    3    0  502 -0.13132818999E+04  0.98606273214E+03 -0.75343153706E+03  0.18068452491E+04  0.12699999809E+01 0.  1.
</event>
<event>
 5   0  0.1044678E-07  0.3603457E+04  0.7818609E-02  0.8089700E-01
       -2   -1    0    0    0  501  0.00000000000E+00  0.00000000000E+00  0.11036640280E+04  0.11036640280E+04  0.25500000920E-02 0.  1.
        2   -1    0    0  501    0  0.00000000000E+00  0.00000000000E+00 -0.29413163022E+04  0.29413163022E+04  0.25500000920E-02 0. -1.
    10030    2    1    2    0    0  0.00000000000E+00  0.00000000000E+00 -0.18376522742E+04  0.40449803303E+04  0.36034566726E+04 0.  0.
        2    1    3    3  502    0  0.10911014162E+04  0.97427341807E+03  0.26197174885E+03  0.14860485157E+04  0.25500000920E-02 0.  1.
       -2    1    3    3    0  502 -0.10911014162E+04 -0.97427341807E+03 -0.20996240230E+04  0.25589318146E+04  0.25500000920E-02 0. -1.
</event>
<event>
 5   0  0.3279988E-08  0.3603114E+04  0.7818609E-02  0.8089779E-01
        1   -1    0    0  501    0  0.00000000000E+00  0.00000000000E+00  0.97880655236E+03  0.97880655237E+03  0.50400001928E-02 0.  1.
       -1   -1    0    0    0  501  0.00000000000E+00  0.00000000000E+00 -0.33158833954E+04  0.33158833954E+04  0.50400001928E-02 0. -1.
    10030    2    1    2    0    0  0.00000000000E+00  0.00000000000E+00 -0.23370768431E+04  0.42946899478E+04  0.36031144275E+04 0.  0.
        5    1    3    3  502    0  0.75167414069E+03  0.11746310080E+04  0.19090585292E+03  0.14075649730E+04  0.46999998093E+01 0.  1.
       -5    1    3    3    0  502 -0.75167414069E+03 -0.11746310080E+04 -0.25279826960E+04  0.28871249748E+04  0.46999998093E+01 0. -1.
</event>
<event>
 5   0  0.3202875E-08  0.3611269E+04  0.7818609E-02  0.8087915E-01
       -3   -1    0    0    0  501  0.00000000000E+00  0.00000000000E+00  0.10098218496E+04  0.10098218547E+04  0.10100000352E+00 0. -1.
        3   -1    0    0  501    0  0.00000000000E+00  0.00000000000E+00 -0.32286053700E+04  0.32286053715E+04  0.10100000352E+00 0.  1.
    10030    2    1    2    0    0  0.00000000000E+00  0.00000000000E+00 -0.22187835203E+04  0.42384272262E+04  0.36112691733E+04 0.  0.
        3    1    3    3  502    0  0.53008732340E+02  0.73393817668E+03  0.82585692683E+03  0.11061260537E+04  0.10100000352E+00 0. -1.
       -3    1    3    3    0  502 -0.53008732340E+02 -0.73393817668E+03 -0.30446404471E+04  0.31323011725E+04  0.10100000352E+00 0.  1.
</event>
<event>
 5   0  0.3202875E-08  0.3600794E+04  0.7818609E-02  0.8090310E-01
       -1   -1    0    0    0  501  0.00000000000E+00  0.00000000000E+00  0.12803148143E+04  0.12803148143E+04  0.50400001928E-02 0. -1.
        1   -1    0    0  501    0  0.00000000000E+00  0.00000000000E+00 -0.25317438348E+04  0.25317438348E+04  0.50400001928E-02 0.  1.
    10030    2    1    2    0    0  0.00000000000E+00  0.00000000000E+00 -0.12514290205E+04  0.38120586490E+04  0.36007938778E+04 0.  0.
        2    1    3    3  502    0 -0.16203441553E+04 -0.52807115815E+03 -0.12403414267E+04  0.21078000817E+04  0.25500000920E-02 0.  1.
       -2    1    3    3    0  502  0.16203441553E+04  0.52807115815E+03 -0.11087593796E+02  0.17042585673E+04  0.25500000920E-02 0. -1.
</event>
<event>
 5   0  0.3279988E-08  0.3603130E+04  0.7818609E-02  0.8089775E-01
        1   -1    0    0  501    0  0.00000000000E+00  0.00000000000E+00  0.27422515499E+04  0.27422515499E+04  0.50400001928E-02 0. -1.
       -1   -1    0    0    0  501  0.00000000000E+00  0.00000000000E+00 -0.11835665418E+04  0.11835665418E+04  0.50400001928E-02 0.  1.
    10030    2    1    2    0    0  0.00000000000E+00  0.00000000000E+00  0.15586850081E+04  0.39258180917E+04  0.36031304077E+04 0.  0.
        5    1    3    3  502    0 -0.75925339333E+03  0.52516979143E+03 -0.90625135949E+03  0.12936702214E+04  0.46999998093E+01 0.  1.
       -5    1    3    3    0  502  0.75925339333E+03 -0.52516979143E+03  0.24649363676E+04  0.26321478703E+04  0.46999998093E+01 0. -1.
</event>
<event>
 5   0  0.1044678E-07  0.3598004E+04  0.7818609E-02  0.8090949E-01
       -2   -1    0    0    0  501  0.00000000000E+00  0.00000000000E+00  0.19496087973E+04  0.19496087973E+04  0.25500000920E-02 0. -1.
        2   -1    0    0  501    0  0.00000000000E+00  0.00000000000E+00 -0.16600298275E+04  0.16600298275E+04  0.25500000920E-02 0.  1.
    10030    2    1    2    0    0  0.00000000000E+00  0.00000000000E+00  0.28957896972E+03  0.36096386248E+04  0.35980043110E+04 0.  0.
        2    1    3    3  502    0 -0.56521003498E+03  0.17026396287E+04  0.27925521819E+03  0.18156066661E+04  0.25500000920E-02 0.  1.
       -2    1    3    3    0  502  0.56521003498E+03 -0.17026396287E+04  0.10323751536E+02  0.17940319587E+04  0.25500000920E-02 0. -1.
</event>
<event>
 5   0  0.1044678E-07  0.3601752E+04  0.7818609E-02  0.8090090E-01
       -2   -1    0    0    0  501  0.00000000000E+00  0.00000000000E+00  0.12093733247E+04  0.12093733247E+04  0.25500000920E-02 0. -1.
        2   -1    0    0  501    0  0.00000000000E+00  0.00000000000E+00 -0.26816824391E+04  0.26816824391E+04  0.25500000920E-02 0.  1.
    10030    2    1    2    0    0  0.00000000000E+00  0.00000000000E+00 -0.14723091144E+04  0.38910557638E+04  0.36017524663E+04 0.  0.
        2    1    3    3  502    0 -0.16842955921E+04  0.41553702790E+03 -0.21397452392E+03  0.17479438664E+04  0.25500000920E-02 0. -1.
       -2    1    3    3    0  502  0.16842955921E+04 -0.41553702790E+03 -0.12583345905E+04  0.21431118974E+04  0.25500000920E-02 0.  1.
</event>
<event>
 5   0  0.3215494E-08  0.3600534E+04  0.7818609E-02  0.8090369E-01
        1   -1    0    0  501    0  0.00000000000E+00  0.00000000000E+00  0.11291880620E+04  0.11291880620E+04  0.50400001928E-02 0. -1.
       -1   -1    0    0    0  501  0.00000000000E+00  0.00000000000E+00 -0.28701699839E+04  0.28701699840E+04  0.50400001928E-02 0.  1.
    10030    2    1    2    0    0  0.00000000000E+00  0.00000000000E+00 -0.17409819219E+04  0.39993580460E+04  0.36005342281E+04 0.  0.
        4    1    3    3  502    0  0.12825343556E+04 -0.49909811492E+03 -0.21596360041E+04  0.25608636404E+04  0.12699999809E+01 0.  1.
       -4    1    3    3    0  502 -0.12825343556E+04  0.49909811492E+03  0.41865408215E+03  0.14384944056E+04  0.12699999809E+01 0. -1.
</event>
<event>
 5   0  0.1029908E-07  0.3598346E+04  0.7818609E-02  0.8090871E-01
       -2   -1    0    0    0  501  0.00000000000E+00  0.00000000000E+00  0.13256687679E+04  0.13256687679E+04  0.25500000920E-02 0. -1.
        2   -1    0    0  501    0  0.00000000000E+00  0.00000000000E+00 -0.24418045654E+04  0.24418045654E+04  0.25500000920E-02 0.  1.
    10030    2    1    2    0    0  0.00000000000E+00  0.00000000000E+00 -0.11161357975E+04  0.37674733334E+04  0.35983463145E+04 0.  0.
        4    1    3    3  502    0 -0.16070817054E+04  0.36132301628E+03 -0.13157934706E+04  0.21082172563E+04  0.12699999809E+01 0.  1.
       -4    1    3    3    0  502  0.16070817054E+04 -0.36132301628E+03  0.19965767309E+03  0.16592560770E+04  0.12699999809E+01 0. -1.
</event>
<event>
 5   0  0.3202875E-08  0.3627951E+04  0.7818609E-02  0.8084119E-01
        3   -1    0    0  501    0  0.00000000000E+00  0.00000000000E+00  0.25736503673E+04  0.25736503692E+04  0.10100000352E+00 0. -1.
       -3   -1    0    0    0  501  0.00000000000E+00  0.00000000000E+00 -0.12785366434E+04  0.12785366474E+04  0.10100000352E+00 0.  1.
    10030    2    1    2    0    0  0.00000000000E+00  0.00000000000E+00  0.12951137238E+04  0.38521870166E+04  0.36279505583E+04 0.  0.
        3    1    3    3  502    0 -0.73600890009E+03  0.42724037201E+02 -0.11122828292E+04  0.13344315444E+04  0.10100000352E+00 0.  1.
       -3    1    3    3    0  502  0.73600890009E+03 -0.42724037201E+02  0.24073965530E+04  0.25177554723E+04  0.10100000352E+00 0. -1.
</event>
<event>
 5   0  0.3279988E-08  0.3535497E+04  0.7818609E-02  0.8105429E-01
        1   -1    0    0  501    0  0.00000000000E+00  0.00000000000E+00  0.15192872376E+04  0.15192872376E+04  0.50400001928E-02 0. -1.
       -1   -1    0    0    0  501  0.00000000000E+00  0.00000000000E+00 -0.20568431609E+04  0.20568431609E+04  0.50400001928E-02 0.  1.
    10030    2    1    2    0    0  0.00000000000E+00  0.00000000000E+00 -0.53755592336E+03  0.35761303985E+04  0.35354974553E+04 0.  0.
        5    1    3    3  502    0  0.14329200881E+04 -0.92251341709E+03  0.20632496828E+03  0.17166487894E+04  0.46999998093E+01 0. -1.
       -5    1    3    3    0  502 -0.14329200881E+04  0.92251341709E+03 -0.74388089164E+03  0.18594816091E+04  0.46999998093E+01 0.  1.
</event>
<event>
 5   0  0.1044678E-07  0.3597817E+04  0.7818609E-02  0.8090992E-01
       -2   -1    0    0    0  501  0.00000000000E+00  0.00000000000E+00  0.22740519863E+04  0.22740519863E+04  0.25500000920E-02 0.  1.
        2   -1    0    0  501    0  0.00000000000E+00  0.00000000000E+00 -0.14230423391E+04  0.14230423391E+04  0.25500000920E-02 0. -1.
    10030    2    1    2    0    0  0.00000000000E+00  0.00000000000E+00  0.85100964718E+03  0.36970943254E+04  0.35978172593E+04 0.  0.
        2    1    3    3  502    0  0.11144325755E+04  0.12330136378E+03 -0.10200492747E+04  0.15158046426E+04  0.25500000920E-02 0. -1.
       -2    1    3    3    0  502 -0.11144325755E+04 -0.12330136378E+03  0.18710589218E+04  0.21812896829E+04  0.25500000920E-02 0.  1.
</event>
<event>
 5   0  0.3202875E-08  0.3597411E+04  0.7818609E-02  0.8091085E-01
        1   -1    0    0  501    0  0.00000000000E+00  0.00000000000E+00  0.24311489140E+04  0.24311489140E+04  0.50400001928E-02 0. -1.
       -1   -1    0    0    0  501  0.00000000000E+00  0.00000000000E+00 -0.13307871464E+04  0.13307871464E+04  0.50400001928E-02 0.  1.
    10030    2    1    2    0    0  0.00000000000E+00  0.00000000000E+00  0.11003617676E+04  0.37619360604E+04  0.35974111390E+04 0.  0.
        1    1    3    3  502    0 -0.17380917303E+04  0.11997763140E+03  0.82532744621E+02  0.17441815126E+04  0.50400001928E-02 0.  1.
       -1    1    3    3    0  502  0.17380917303E+04 -0.11997763140E+03  0.10178290230E+04  0.20177545478E+04  0.50400001928E-02 0. -1.
</event>
<event>
 5   0  0.1044678E-07  0.3598257E+04  0.7818609E-02  0.8090891E-01
        2   -1    0    0  501    0  0.00000000000E+00  0.00000000000E+00  0.11180231317E+04  0.11180231317E+04  0.25500000920E-02 0.  1.
       -2   -1    0    0    0  501  0.00000000000E+00  0.00000000000E+00 -0.28951674014E+04  0.28951674014E+04  0.25500000920E-02 0. -1.
    10030    2    1    2    0    0  0.00000000000E+00  0.00000000000E+00 -0.17771442697E+04  0.40131905331E+04  0.35982574254E+04 0.  0.
        2    1    3    3  502    0 -0.23623564926E+03 -0.12794093343E+04  0.49736939007E+03  0.13928646154E+04  0.25500000920E-02 0.  1.
       -2    1    3    3    0  502  0.23623564926E+03  0.12794093343E+04 -0.22745136598E+04  0.26203259178E+04  0.25500000920E-02 0. -1.
</event>
<event>
 5   0  0.1044678E-07  0.3626791E+04  0.7818609E-02  0.8084382E-01
        2   -1    0    0  501    0  0.00000000000E+00  0.00000000000E+00  0.19411158352E+04  0.19411158352E+04  0.25500000920E-02 0. -1.
       -2   -1    0    0    0  501  0.00000000000E+00  0.00000000000E+00 -0.16940789386E+04  0.16940789386E+04  0.25500000920E-02 0.  1.
    10030    2    1    2    0    0  0.00000000000E+00  0.00000000000E+00  0.24703689665E+03  0.36351947738E+04  0.36267911182E+04 0.  0.
        2    1    3    3  502    0 -0.10098375897E+04  0.66294022666E+03 -0.12320730091E+04  0.17254754711E+04  0.25500000920E-02 0.  1.
       -2    1    3    3    0  502  0.10098375897E+04 -0.66294022666E+03  0.14791099058E+04  0.19097193027E+04  0.25500000920E-02 0. -1.
</event>
<event>
 5   0  0.3212523E-08  0.3607391E+04  0.7818609E-02  0.8088801E-01
        1   -1    0    0  501    0  0.00000000000E+00  0.00000000000E+00  0.28927543026E+04  0.28927543026E+04  0.50400001928E-02 0. -1.
       -1   -1    0    0    0  501  0.00000000000E+00  0.00000000000E+00 -0.11246432464E+04  0.11246432464E+04  0.50400001928E-02 0.  1.
    10030    2    1    2    0    0  0.00000000000E+00  0.00000000000E+00  0.17681110563E+04  0.40173975490E+04  0.36073905194E+04 0.  0.
        3    1    3    3  502    0  0.13749182322E+04 -0.45324074847E+03  0.20822026128E+04  0.25360195292E+04  0.10100000352E+00 0. -1.
       -3    1    3    3    0  502 -0.13749182322E+04  0.45324074847E+03 -0.31409155657E+03  0.14813780198E+04  0.10100000352E+00 0.  1.
</event>
<event>
 5   0  0.3202875E-08  0.3596626E+04  0.7818609E-02  0.8091265E-01
       -1   -1    0    0    0  501  0.00000000000E+00  0.00000000000E+00  0.19328752192E+04  0.19328752192E+04  0.50400001928E-02 0.  1.
        1   -1    0    0  501    0  0.00000000000E+00  0.00000000000E+00 -0.16731184291E+04  0.16731184291E+04  0.50400001928E-02 0. -1.
    10030    2    1    2    0    0  0.00000000000E+00  0.00000000000E+00  0.25975679010E+03  0.36059936483E+04  0.35966257244E+04 0.  0.
        1    1    3    3  502    0  0.21912345757E+01 -0.12533535824E+04  0.14228221761E+04  0.18961336844E+04  0.50400001928E-02 0.  1.
       -1    1    3    3    0  502 -0.21912345757E+01  0.12533535824E+04 -0.11630653860E+04  0.17098599639E+04  0.50400001928E-02 0. -1.
</event>
<event>
 5   0  0.3212523E-08  0.3607493E+04  0.7818609E-02  0.8088777E-01
       -1   -1    0    0    0  501  0.00000000000E+00  0.00000000000E+00  0.13282895167E+04  0.13282895167E+04  0.50400001928E-02 0. -1.
        1   -1    0    0  501    0  0.00000000000E+00  0.00000000000E+00 -0.24493920547E+04  0.24493920547E+04  0.50400001928E-02 0.  1.
    10030    2    1    2    0    0  0.00000000000E+00  0.00000000000E+00 -0.11211025380E+04  0.37776815714E+04  0.36074931953E+04 0.  0.
        3    1    3    3  502    0 -0.14383286721E+04  0.10390007049E+04 -0.22092056904E+03  0.17880485848E+04  0.10100000352E+00 0.  1.
       -3    1    3    3    0  502  0.14383286721E+04 -0.10390007049E+04 -0.90018196894E+03  0.19896329865E+04  0.10100000352E+00 0. -1.
</event>
<event>
 5   0  0.3215494E-08  0.3601263E+04  0.7818609E-02  0.8090202E-01
       -1   -1    0    0    0  501  0.00000000000E+00  0.00000000000E+00  0.21479661483E+04  0.21479661483E+04  0.50400001928E-02 0. -1.
        1   -1    0    0  501    0  0.00000000000E+00  0.00000000000E+00 -0.15094624402E+04  0.15094624402E+04  0.50400001928E-02 0.  1.
    10030    2    1    2    0    0  0.00000000000E+00  0.00000000000E+00  0.63850370817E+03  0.36574285885E+04  0.36012632360E+04 0.  0.
        4    1    3    3  502    0  0.12752586384E+04  0.12652300376E+04  0.19411918244E+03  0.18068689806E+04  0.12699999809E+01 0.  1.
       -4    1    3    3    0  502 -0.12752586384E+04 -0.12652300376E+04  0.44438452573E+03  0.18505596080E+04  0.12699999809E+01 0. -1.
</event>
<event>
 5   0  0.3215494E-08  0.3594892E+04  0.7818609E-02  0.8091663E-01
       -1   -1    0    0    0  501  0.00000000000E+00  0.00000000000E+00  0.31112332544E+04  0.31112332544E+04  0.50400001928E-02 0.  1.
        1   -1    0    0  501    0  0.00000000000E+00  0.00000000000E+00 -0.10384342992E+04  0.10384342992E+04  0.50400001928E-02 0. -1.
    10030    2    1    2    0    0  0.00000000000E+00  0.00000000000E+00  0.20727989552E+04  0.41496675537E+04  0.35948915557E+04 0.  0.
        4    1    3    3  502    0  0.10268989911E+04 -0.14752227903E+04  0.10335974362E+04  0.20734341301E+04  0.12699999809E+01 0. -1.
       -4    1    3    3    0  502 -0.10268989911E+04  0.14752227903E+04  0.10392015190E+04  0.20762334235E+04  0.12699999809E+01 0.  1.
</event>
<event>
 5   0  0.1017794E-07  0.3583737E+04  0.7818609E-02  0.8094227E-01
        2   -1    0    0  501    0  0.00000000000E+00  0.00000000000E+00  0.14735053427E+04  0.14735053427E+04  0.25500000920E-02 0. -1.
       -2   -1    0    0    0  501  0.00000000000E+00  0.00000000000E+00 -0.21790162542E+04  0.21790162542E+04  0.25500000920E-02 0.  1.
    10030    2    1    2    0    0  0.00000000000E+00  0.00000000000E+00 -0.70551091144E+03  0.36525215969E+04  0.35837366491E+04 0.  0.
        1    1    3    3  502    0  0.15519867060E+04  0.59171742134E+03 -0.10379688596E+04  0.19586147135E+04  0.50400001928E-02 0.  1.
       -1    1    3    3    0  502 -0.15519867060E+04 -0.59171742134E+03  0.33245794820E+03  0.16939068834E+04  0.50400001928E-02 0. -1.
</event>
<event>
 5   0  0.1021087E-07  0.3599284E+04  0.7818609E-02  0.8090656E-01
        2   -1    0    0  501    0  0.00000000000E+00  0.00000000000E+00  0.19251191137E+04  0.19251191137E+04  0.25500000920E-02 0.  1.
       -2   -1    0    0    0  501  0.00000000000E+00  0.00000000000E+00 -0.16823435718E+04  0.16823435718E+04  0.25500000920E-02 0. -1.
    10030    2    1    2    0    0  0.00000000000E+00  0.00000000000E+00  0.24277554187E+03  0.36074626855E+04  0.35992842432E+04 0.  0.
        3    1    3    3  502    0  0.15632545795E+04 -0.14897342388E+03 -0.75967383320E+03  0.17444375324E+04  0.10100000352E+00 0. -1.
       -3    1    3    3    0  502 -0.15632545795E+04  0.14897342388E+03  0.10024493751E+04  0.18630251531E+04  0.10100000352E+00 0.  1.
</event>
<event>
 5   0  0.3202875E-08  0.3583959E+04  0.7818609E-02  0.8094176E-01
       -3   -1    0    0    0  501  0.00000000000E+00  0.00000000000E+00  0.11622998322E+04  0.11622998366E+04  0.10100000352E+00 0.  1.
        3   -1    0    0  501    0  0.00000000000E+00  0.00000000000E+00 -0.27627898448E+04  0.27627898467E+04  0.10100000352E+00 0. -1.
    10030    2    1    2    0    0  0.00000000000E+00  0.00000000000E+00 -0.16004900126E+04  0.39250896833E+04  0.35839588085E+04 0.  0.
        3    1    3    3  502    0  0.32369773669E+03  0.14244107878E+04 -0.19370551244E+04  0.24260892157E+04  0.10100000352E+00 0. -1.
       -3    1    3    3    0  502 -0.32369773669E+03 -0.14244107878E+04  0.33656511178E+03  0.14990004676E+04  0.10100000352E+00 0.  1.
</event>
<event>
 5   0  0.1044678E-07  0.3600850E+04  0.7818609E-02  0.8090297E-01
       -2   -1    0    0    0  501  0.00000000000E+00  0.00000000000E+00  0.96546926073E+03  0.96546926073E+03  0.25500000920E-02 0.  1.
        2   -1    0    0  501    0  0.00000000000E+00  0.00000000000E+00 -0.33574652440E+04  0.33574652440E+04  0.25500000920E-02 0. -1.
    10030    2    1    2    0    0  0.00000000000E+00  0.00000000000E+00 -0.23919959832E+04  0.43229345047E+04  0.36008496148E+04 0.  0.
        2    1    3    3  502    0 -0.36546013582E+03 -0.50519759690E+03 -0.32237043086E+04  0.32834517192E+04  0.25500000920E-02 0. -1.
       -2    1    3    3    0  502  0.36546013582E+03  0.50519759690E+03  0.83170832540E+03  0.10394827855E+04  0.25500000920E-02 0.  1.
</event>
<event>
 5   0  0.1029908E-07  0.3608514E+04  0.7818609E-02  0.8088544E-01
       -2   -1    0    0    0  501  0.00000000000E+00  0.00000000000E+00  0.13604994506E+04  0.13604994506E+04  0.25500000920E-02 0.  1.
        2   -1    0    0  501    0  0.00000000000E+00  0.00000000000E+00 -0.23927556706E+04  0.23927556706E+04  0.25500000920E-02 0. -1.
    10030    2    1    2    0    0  0.00000000000E+00  0.00000000000E+00 -0.10322562200E+04  0.37532551212E+04  0.36085136970E+04 0.  0.
        4    1    3    3  502    0 -0.15621117540E+04 -0.19115617153E+03  0.40165270879E+03  0.16242106776E+04  0.12699999809E+01 0.  1.
       -4    1    3    3    0  502  0.15621117540E+04  0.19115617153E+03 -0.14339089287E+04  0.21290444436E+04  0.12699999809E+01 0. -1.
</event>
<event>
 5   0  0.3215494E-08  0.3606452E+04  0.7818609E-02  0.8089015E-01
        1   -1    0    0  501    0  0.00000000000E+00  0.00000000000E+00  0.12096542849E+04  0.12096542849E+04  0.50400001928E-02 0. -1.
       -1   -1    0    0    0  501  0.00000000000E+00  0.00000000000E+00 -0.26880607106E+04  0.26880607106E+04  0.50400001928E-02 0.  1.
    10030    2    1    2    0    0  0.00000000000E+00  0.00000000000E+00 -0.14784064257E+04  0.38977149956E+04  0.36064520830E+04 0.  0.
        4    1    3    3  502    0 -0.17912195367E+03 -0.13553656208E+04 -0.20099702001E+04  0.24308604358E+04  0.12699999809E+01 0.  1.
       -4    1    3    3    0  502  0.17912195367E+03  0.13553656208E+04  0.53156377437E+03  0.14668545598E+04  0.12699999809E+01 0. -1.
</event>
<event>
 5   0  0.9905335E-08  0.3605958E+04  0.7818609E-02  0.8089128E-01
       -2   -1    0    0    0  501  0.00000000000E+00  0.00000000000E+00  0.14227758497E+04  0.14227758497E+04  0.25500000920E-02 0.  1.
        2   -1    0    0  501    0  0.00000000000E+00  0.00000000000E+00 -0.22847822183E+04  0.22847822183E+04  0.25500000920E-02 0. -1.
    10030    2    1    2    0    0  0.00000000000E+00  0.00000000000E+00 -0.86200636852E+03  0.37075580680E+04  0.36059578268E+04 0.  0.
        5    1    3    3  502    0 -0.83858522672E+03 -0.98739884390E+03  0.85833450986E+03  0.15540083270E+04  0.46999998093E+01 0.  1.
       -5    1    3    3    0  502  0.83858522672E+03  0.98739884390E+03 -0.17203408784E+04  0.21535497411E+04  0.46999998093E+01 0. -1.
</event>
<event>
 5   0  0.1021087E-07  0.3597013E+04  0.7818609E-02  0.8091176E-01
       -2   -1    0    0    0  501  0.00000000000E+00  0.00000000000E+00  0.13227301570E+04  0.13227301570E+04  0.25500000920E-02 0. -1.
        2   -1    0    0  501    0  0.00000000000E+00  0.00000000000E+00 -0.24454156898E+04  0.24454156898E+04  0.25500000920E-02 0.  1.
    10030    2    1    2    0    0  0.00000000000E+00  0.00000000000E+00 -0.11226855327E+04  0.37681458468E+04  0.35970126935E+04 0.  0.
        3    1    3    3  502    0 -0.14420308925E+04  0.54179469130E+03  0.41106017092E+03  0.15943541190E+04  0.10100000352E+00 0. -1.
       -3    1    3    3    0  502  0.14420308925E+04 -0.54179469130E+03 -0.15337457036E+04  0.21737917278E+04  0.10100000352E+00 0.  1.
</event>
<event>
 5   0  0.3215494E-08  0.3615403E+04  0.7818609E-02  0.8086973E-01
       -1   -1    0    0    0  501  0.00000000000E+00  0.00000000000E+00  0.12108997723E+04  0.12108997723E+04  0.50400001928E-02 0.  1.
        1   -1    0    0  501    0  0.00000000000E+00  0.00000000000E+00 -0.26986412124E+04  0.26986412124E+04  0.50400001928E-02 0. -1.
    10030    2    1    2    0    0  0.00000000000E+00  0.00000000000E+00 -0.14877414401E+04  0.39095409847E+04  0.36154026219E+04 0.  0.
        4    1    3    3  502    0 -0.57549922887E+03 -0.60421875644E+03  0.99018320179E+03  0.12948915221E+04  0.12699999809E+01 0.  1.
       -4    1    3    3    0  502  0.57549922887E+03  0.60421875644E+03 -0.24779246419E+04  0.26146494626E+04  0.12699999809E+01 0. -1.
</event>
<event>
 5   0  0.3212523E-08  0.3600182E+04  0.7818609E-02  0.8090450E-01
       -1   -1    0    0    0  501  0.00000000000E+00  0.00000000000E+00  0.20933362301E+04  0.20933362301E+04  0.50400001928E-02 0.  1.
        1   -1    0    0  501    0  0.00000000000E+00  0.00000000000E+00 -0.15479249240E+04  0.15479249240E+04  0.50400001928E-02 0. -1.
    10030    2    1    2    0    0  0.00000000000E+00  0.00000000000E+00  0.54541130609E+03  0.36412611541E+04  0.36001818425E+04 0.  0.
        3    1    3    3  502    0  0.10747136487E+04  0.44555236366E+02  0.17325505229E+04  0.20392954471E+04  0.10100000352E+00 0.  1.
       -3    1    3    3    0  502 -0.10747136487E+04 -0.44555236366E+02 -0.11871392168E+04  0.16019657070E+04  0.10100000352E+00 0. -1.
</event>
<event>
 5   0  0.1029908E-07  0.3602476E+04  0.7818609E-02  0.8089925E-01
       -2   -1    0    0    0  501  0.00000000000E+00  0.00000000000E+00  0.13941901369E+04  0.13941901369E+04  0.25500000920E-02 0. -1.
        2   -1    0    0  501    0  0.00000000000E+00  0.00000000000E+00 -0.23271278137E+04  0.23271278137E+04  0.25500000920E-02 0.  1.
    10030    2    1    2    0    0  0.00000000000E+00  0.00000000000E+00 -0.93293767685E+03  0.37213179506E+04  0.36024761735E+04 0.  0.
        4    1    3    3  502    0  0.53138054071E+03 -0.13580043716E+04 -0.15586639375E+04  0.21344732454E+04  0.12699999809E+01 0.  1.
       -4    1    3    3    0  502 -0.53138054071E+03  0.13580043716E+04  0.62572626067E+03  0.15868447052E+04  0.12699999809E+01 0. -1.
</event>
<event>
 5   0  0.1021087E-07  0.3597831E+04  0.7818609E-02  0.8090989E-01
        2   -1    0    0  501    0  0.00000000000E+00  0.00000000000E+00  0.17271978288E+04  0.17271978288E+04  0.25500000920E-02 0.  1.
       -2   -1    0    0    0  501  0.00000000000E+00  0.00000000000E+00 -0.18736107008E+04  0.18736107008E+04  0.25500000920E-02 0. -1.
    10030    2    1    2    0    0  0.00000000000E+00  0.00000000000E+00 -0.14641287196E+03  0.36008085296E+04  0.35978306433E+04 0.  0.
        3    1    3    3  502    0 -0.15960499200E+02  0.93937468149E+03  0.14621483123E+04  0.17379750364E+04  0.10100000352E+00 0.  1.
       -3    1    3    3    0  502  0.15960499200E+02 -0.93937468149E+03 -0.16085611842E+04  0.18628334932E+04  0.10100000352E+00 0. -1.
</event>
<event>
 5   0  0.1044678E-07  0.3618145E+04  0.7818609E-02  0.8086348E-01
        2   -1    0    0  501    0  0.00000000000E+00  0.00000000000E+00  0.22847743307E+04  0.22847743307E+04  0.25500000920E-02 0.  1.
       -2   -1    0    0    0  501  0.00000000000E+00  0.00000000000E+00 -0.14324140679E+04  0.14324140679E+04  0.25500000920E-02 0. -1.
    10030    2    1    2    0    0  0.00000000000E+00  0.00000000000E+00  0.85236026274E+03  0.37171883986E+04  0.36181447695E+04 0.  0.
        2    1    3    3  502    0  0.84349221460E+03 -0.75164111765E+03 -0.10254015273E+04  0.15257430249E+04  0.25500000920E-02 0. -1.
       -2    1    3    3    0  502 -0.84349221460E+03  0.75164111765E+03  0.18777617900E+04  0.21914453737E+04  0.25500000920E-02 0.  1.
</event>
<event>
 5   0  0.1044678E-07  0.3681708E+04  0.7818609E-02  0.8072028E-01
        2   -1    0    0  501    0  0.00000000000E+00  0.00000000000E+00  0.24219930140E+04  0.24219930140E+04  0.25500000920E-02 0. -1.
       -2   -1    0    0    0  501  0.00000000000E+00  0.00000000000E+00 -0.13991547558E+04  0.13991547558E+04  0.25500000920E-02 0.  1.
    10030    2    1    2    0    0  0.00000000000E+00  0.00000000000E+00  0.10228382582E+04  0.38211477698E+04  0.36817077798E+04 0.  0.
        2    1    3    3  502    0 -0.12168276505E+04 -0.13791577393E+04  0.59179535036E+03  0.19320888534E+04  0.25500000920E-02 0. -1.
       -2    1    3    3    0  502  0.12168276505E+04  0.13791577393E+04  0.43104290783E+03  0.18890589163E+04  0.25500000920E-02 0.  1.
</event>
<event>
 5   0  0.1029908E-07  0.3599630E+04  0.7818609E-02  0.8090576E-01
        2   -1    0    0  501    0  0.00000000000E+00  0.00000000000E+00  0.18806963708E+04  0.18806963708E+04  0.25500000920E-02 0.  1.
       -2   -1    0    0    0  501  0.00000000000E+00  0.00000000000E+00 -0.17224124594E+04  0.17224124594E+04  0.25500000920E-02 0. -1.
    10030    2    1    2    0    0  0.00000000000E+00  0.00000000000E+00  0.15828391135E+03  0.36031088302E+04  0.35996304596E+04 0.  0.
        4    1    3    3  502    0 -0.70653819883E+03 -0.16486349561E+04 -0.69796328291E+02  0.17950115836E+04  0.12699999809E+01 0.  1.
       -4    1    3    3    0  502  0.70653819883E+03  0.16486349561E+04  0.22808023964E+03  0.18080972467E+04  0.12699999809E+01 0. -1.
</event>
<event>
 5   0  0.9905335E-08  0.3604254E+04  0.7818609E-02  0.8089518E-01
        2   -1    0    0  501    0  0.00000000000E+00  0.00000000000E+00  0.24525519912E+04  0.24525519912E+04  0.25500000920E-02 0. -1.
       -2   -1    0    0    0  501  0.00000000000E+00  0.00000000000E+00 -0.13241971052E+04  0.13241971052E+04  0.25500000920E-02 0.  1.
    10030    2    1    2    0    0  0.00000000000E+00  0.00000000000E+00  0.11283548859E+04  0.37767490964E+04  0.36042542902E+04 0.  0.
        5    1    3    3  502    0 -0.37257172166E+03  0.13844385727E+03 -0.12776897818E+04  0.13380917973E+04  0.46999998093E+01 0.  1.
       -5    1    3    3    0  502  0.37257172166E+03 -0.13844385727E+03  0.24060446677E+04  0.24386572991E+04  0.46999998093E+01 0. -1.
</event>
<event>
 5   0  0.9905335E-08  0.3530004E+04  0.7818609E-02  0.8106716E-01
        2   -1    0    0  501    0  0.00000000000E+00  0.00000000000E+00  0.17533044561E+04  0.17533044561E+04  0.25500000920E-02 0.  1.
       -2   -1    0    0    0  501  0.00000000000E+00  0.00000000000E+00 -0.17767774208E+04  0.17767774208E+04  0.25500000920E-02 0. -1.
    10030    2    1    2    0    0  0.00000000000E+00  0.00000000000E+00 -0.23472964664E+02  0.35300818769E+04  0.35300038354E+04 0.  0.
        5    1    3    3  502    0  0.12554525909E+04  0.30431109730E+03 -0.12144447530E+04  0.17730382399E+04  0.46999998093E+01 0. -1.
       -5    1    3    3    0  502 -0.12554525909E+04 -0.30431109730E+03  0.11909717883E+04  0.17570436371E+04  0.46999998093E+01 0.  1.
</event>
<event>
 5   0  0.1021087E-07  0.3600777E+04  0.7818609E-02  0.8090314E-01
       -2   -1    0    0    0  501  0.00000000000E+00  0.00000000000E+00  0.20117762829E+04  0.20117762829E+04  0.25500000920E-02 0. -1.
        2   -1    0    0  501    0  0.00000000000E+00  0.00000000000E+00 -0.16112120353E+04  0.16112120353E+04  0.25500000920E-02 0.  1.
    10030    2    1    2    0    0  0.00000000000E+00  0.00000000000E+00  0.40056424759E+03  0.36229883183E+04  0.36007766715E+04 0.  0.
        3    1    3    3  502    0  0.81364650371E+03  0.14996516665E+04 -0.37808751271E+03  0.17475485491E+04  0.10100000352E+00 0.  1.
       -3    1    3    3    0  502 -0.81364650371E+03 -0.14996516665E+04  0.77865176030E+03  0.18754397692E+04  0.10100000352E+00 0. -1.
</event>
<event>
 5   0  0.3202875E-08  0.3600227E+04  0.7818609E-02  0.8090440E-01
       -1   -1    0    0    0  501  0.00000000000E+00  0.00000000000E+00  0.13119645315E+04  0.13119645315E+04  0.50400001928E-02 0. -1.
        1   -1    0    0  501    0  0.00000000000E+00  0.00000000000E+00 -0.24698897769E+04  0.24698897769E+04  0.50400001928E-02 0.  1.
    10030    2    1    2    0    0  0.00000000000E+00  0.00000000000E+00 -0.11579252454E+04  0.37818543085E+04  0.36002265396E+04 0.  0.
        1    1    3    3  502    0 -0.15537143469E+04 -0.80937142357E+03 -0.10137234082E+04  0.20240418774E+04  0.50400001928E-02 0. -1.
       -1    1    3    3    0  502  0.15537143469E+04  0.80937142357E+03 -0.14420183717E+03  0.17578124311E+04  0.50400001928E-02 0.  1.
</event>
<event>
 5   0  0.3202875E-08  0.3608662E+04  0.7818609E-02  0.8088510E-01
        1   -1    0    0  501    0  0.00000000000E+00  0.00000000000E+00  0.25882123339E+04  0.25882123339E+04  0.50400001928E-02 0. -1.
       -1   -1    0    0    0  501  0.00000000000E+00  0.00000000000E+00 -0.12578607172E+04  0.12578607173E+04  0.50400001928E-02 0.  1.
    10030    2    1    2    0    0  0.00000000000E+00  0.00000000000E+00  0.13303516166E+04  0.38460730511E+04  0.36086621469E+04 0.  0.
        1    1    3    3  502    0 -0.11450993463E+04 -0.69682010993E+01  0.21512962564E+04  0.24370836365E+04  0.50400001928E-02 0. -1.
       -1    1    3    3    0  502  0.11450993463E+04  0.69682010993E+01 -0.82094463975E+03  0.14089894146E+04  0.50400001928E-02 0.  1.
</event>
<event>
 5   0  0.1044678E-07  0.3596468E+04  0.7818609E-02  0.8091301E-01
       -2   -1    0    0    0  501  0.00000000000E+00  0.00000000000E+00  0.21925468795E+04  0.21925468795E+04  0.25500000920E-02 0. -1.
        2   -1    0    0  501    0  0.00000000000E+00  0.00000000000E+00 -0.14748350332E+04  0.14748350332E+04  0.25500000920E-02 0.  1.
    10030    2    1    2    0    0  0.00000000000E+00  0.00000000000E+00  0.71771184633E+03  0.36673819128E+04  0.35964676837E+04 0.  0.
        2    1    3    3  502    0  0.16345864530E+04 -0.33724321203E+03  0.10414113617E+04  0.19672680246E+04  0.25500000920E-02 0. -1.
       -2    1    3    3    0  502 -0.16345864530E+04  0.33724321203E+03 -0.32369951538E+03  0.17001138881E+04  0.25500000920E-02 0.  1.
</event>
<event>
 5   0  0.1029908E-07  0.3596333E+04  0.7818609E-02  0.8091332E-01
       -2   -1    0    0    0  501  0.00000000000E+00  0.00000000000E+00  0.15887780767E+04  0.15887780767E+04  0.25500000920E-02 0. -1.
        2   -1    0    0  501    0  0.00000000000E+00  0.00000000000E+00 -0.20351511009E+04  0.20351511009E+04  0.25500000920E-02 0.  1.
    10030    2    1    2    0    0  0.00000000000E+00  0.00000000000E+00 -0.44637302422E+03  0.36239291776E+04  0.35963333838E+04 0.  0.
        4    1    3    3  502    0  0.14687497892E+03  0.15145665765E+04  0.74224533519E+03  0.16930487071E+04  0.12699999809E+01 0. -1.
       -4    1    3    3    0  502 -0.14687497892E+03 -0.15145665765E+04 -0.11886183594E+04  0.19308804705E+04  0.12699999809E+01 0.  1.
</event>
<event>
 5   0  0.3279988E-08  0.3600161E+04  0.7818609E-02  0.8090455E-01
        1   -1    0    0  501    0  0.00000000000E+00  0.00000000000E+00  0.17114085568E+04  0.17114085568E+04  0.50400001928E-02 0. -1.
       -1   -1    0    0    0  501  0.00000000000E+00  0.00000000000E+00 -0.18933463262E+04  0.18933463262E+04  0.50400001928E-02 0.  1.
    10030    2    1    2    0    0  0.00000000000E+00  0.00000000000E+00 -0.18193776941E+03  0.36047548830E+04  0.36001606095E+04 0.  0.
        5    1    3    3  502    0 -0.17666247725E+03  0.53040110893E+03 -0.18042140944E+04  0.18888476793E+04  0.46999998093E+01 0.  1.
       -5    1    3    3    0  502  0.17666247725E+03 -0.53040110893E+03  0.16222763249E+04  0.17159072037E+04  0.46999998093E+01 0. -1.
</event>
<event>
 5   0  0.1017794E-07  0.3599911E+04  0.7818609E-02  0.8090512E-01
        2   -1    0    0  501    0  0.00000000000E+00  0.00000000000E+00  0.20440033699E+04  0.20440033699E+04  0.25500000920E-02 0. -1.
       -2   -1    0    0    0  501  0.00000000000E+00  0.00000000000E+00 -0.15850465164E+04  0.15850465164E+04  0.25500000920E-02 0.  1.
    10030    2    1    2    0    0  0.00000000000E+00  0.00000000000E+00  0.45895685348E+03  0.36290498864E+04  0.35999113440E+04 0.  0.
        1    1    3    3  502    0 -0.35647450548E+03 -0.39467801979E+03 -0.15040320575E+04  0.15952922122E+04  0.50400001928E-02 0.  1.
       -1    1    3    3    0  502  0.35647450548E+03  0.39467801979E+03  0.19629889110E+04  0.20337576741E+04  0.50400001928E-02 0. -1.
</event>
<event>
 5   0  0.3279988E-08  0.3600383E+04  0.7818609E-02  0.8090404E-01
       -1   -1    0    0    0  501  0.00000000000E+00  0.00000000000E+00  0.25470905120E+04  0.25470905120E+04  0.50400001928E-02 0.  1.
        1   -1    0    0  501    0  0.00000000000E+00  0.00000000000E+00 -0.12723099720E+04  0.12723099720E+04  0.50400001928E-02 0. -1.
    10030    2    1    2    0    0  0.00000000000E+00  0.00000000000E+00  0.12747805400E+04  0.38194004840E+04  0.36003825675E+04 0.  0.
        5    1    3    3  502    0 -0.65961302491E+03  0.16640967195E+04  0.43510954336E+03  0.18421861033E+04  0.46999998093E+01 0.  1.
       -5    1    3    3    0  502  0.65961302491E+03 -0.16640967195E+04  0.83967099668E+03  0.19772143807E+04  0.46999998093E+01 0. -1.
</event>
<event>
 5   0  0.3215494E-08  0.3603451E+04  0.7818609E-02  0.8089702E-01
       -1   -1    0    0    0  501  0.00000000000E+00  0.00000000000E+00  0.14954360182E+04  0.14954360182E+04  0.50400001928E-02 0. -1.
        1   -1    0    0  501    0  0.00000000000E+00  0.00000000000E+00 -0.21707474805E+04  0.21707474805E+04  0.50400001928E-02 0.  1.
    10030    2    1    2    0    0  0.00000000000E+00  0.00000000000E+00 -0.67531146228E+03  0.36661834987E+04  0.36034505512E+04 0.  0.
        4    1    3    3  502    0  0.16135141162E+04  0.60312216687E+03 -0.87508298172E+03  0.19320859166E+04  0.12699999809E+01 0. -1.
       -4    1    3    3    0  502 -0.16135141162E+04 -0.60312216687E+03  0.19977151944E+03  0.17340975821E+04  0.12699999809E+01 0.  1.
</event>
<event>
 5   0  0.3202875E-08  0.3594416E+04  0.7818609E-02  0.8091772E-01
       -1   -1    0    0    0  501  0.00000000000E+00  0.00000000000E+00  0.15665739912E+04  0.15665739912E+04  0.50400001928E-02 0.  1.
        1   -1    0    0  501    0  0.00000000000E+00  0.00000000000E+00 -0.20617964321E+04  0.20617964321E+04  0.50400001928E-02 0. -1.
    10030    2    1    2    0    0  0.00000000000E+00  0.00000000000E+00 -0.49522244087E+03  0.36283704233E+04  0.35944160392E+04 0.  0.
        1    1    3    3  502    0 -0.23006569984E+03 -0.17568220414E+04 -0.55145753645E+03  0.18556560365E+04  0.50400001928E-02 0. -1.
       -1    1    3    3    0  502  0.23006569984E+03  0.17568220414E+04  0.56235095585E+02  0.17727143868E+04  0.50400001928E-02 0.  1.
</event>
<event>
 5   0  0.3202875E-08  0.3603345E+04  0.7818609E-02  0.8089726E-01
       -1   -1    0    0    0  501  0.00000000000E+00  0.00000000000E+00  0.14426319570E+04  0.14426319571E+04  0.50400001928E-02 0. -1.
        1   -1    0    0  501    0  0.00000000000E+00  0.00000000000E+00 -0.22500703599E+04  0.22500703599E+04  0.50400001928E-02 0.  1.
    10030    2    1    2    0    0  0.00000000000E+00  0.00000000000E+00 -0.80743840289E+03  0.36927023170E+04  0.36033447833E+04 0.  0.
        1    1    3    3  502    0  0.69054760234E+03  0.12373292196E+04 -0.15440504924E+04  0.20956935634E+04  0.50400001928E-02 0.  1.
       -1    1    3    3    0  502 -0.69054760234E+03 -0.12373292196E+04  0.73661208948E+03  0.15970087536E+04  0.50400001928E-02 0. -1.
</event>
<event>
 5   0  0.3202875E-08  0.3602318E+04  0.7818609E-02  0.8089961E-01
        1   -1    0    0  501    0  0.00000000000E+00  0.00000000000E+00  0.22031762704E+04  0.22031762704E+04  0.50400001928E-02 0.  1.
       -1   -1    0    0    0  501  0.00000000000E+00  0.00000000000E+00 -0.14724988157E+04  0.14724988157E+04  0.50400001928E-02 0. -1.
    10030    2    1    2    0    0  0.00000000000E+00  0.00000000000E+00  0.73067745473E+03  0.36756750861E+04  0.36023183917E+04 0.  0.
        1    1    3    3  502    0 -0.94118894340E+02 -0.13105121075E+04  0.16224476078E+04  0.20877347988E+04  0.50400001928E-02 0.  1.
       -1    1    3    3    0  502  0.94118894340E+02  0.13105121075E+04 -0.89177015304E+03  0.15879402873E+04  0.50400001928E-02 0. -1.
</event>
<event>
 5   0  0.3202875E-08  0.3604216E+04  0.7818609E-02  0.8089527E-01
       -1   -1    0    0    0  501  0.00000000000E+00  0.00000000000E+00  0.20323347747E+04  0.20323347747E+04  0.50400001928E-02 0. -1.
        1   -1    0    0  501    0  0.00000000000E+00  0.00000000000E+00 -0.15979614421E+04  0.15979614421E+04  0.50400001928E-02 0.  1.
    10030    2    1    2    0    0  0.00000000000E+00  0.00000000000E+00  0.43437333256E+03  0.36302962168E+04  0.36042156470E+04 0.  0.
        2    1    3    3  502    0  0.32477383218E+03 -0.65856206334E+03 -0.14404469507E+04  0.16168084151E+04  0.25500000920E-02 0.  1.
       -2    1    3    3    0  502 -0.32477383218E+03  0.65856206334E+03  0.18748202832E+04  0.20134878018E+04  0.25500000920E-02 0. -1.
</event>
<event>
 5   0  0.3279988E-08  0.3599708E+04  0.7818609E-02  0.8090559E-01
       -1   -1    0    0    0  501  0.00000000000E+00  0.00000000000E+00  0.13555616500E+04  0.13555616500E+04  0.50400001928E-02 0. -1.
        1   -1    0    0  501    0  0.00000000000E+00  0.00000000000E+00 -0.23897656130E+04  0.23897656130E+04  0.50400001928E-02 0.  1.
    10030    2    1    2    0    0  0.00000000000E+00  0.00000000000E+00 -0.10342039629E+04  0.37453272630E+04  0.35997081090E+04 0.  0.
        5    1    3    3  502    0 -0.35788829122E+03 -0.14030129842E+04 -0.16294251521E+04  0.21798114320E+04  0.46999998093E+01 0.  1.
       -5    1    3    3    0  502  0.35788829122E+03  0.14030129842E+04  0.59522118918E+03  0.15655158309E+04  0.46999998093E+01 0. -1.
</event>
<event>
 5   0  0.1021087E-07  0.3597800E+04  0.7818609E-02  0.8090996E-01
       -2   -1    0    0    0  501  0.00000000000E+00  0.00000000000E+00  0.15108357240E+04  0.15108357240E+04  0.25500000920E-02 0.  1.
        2   -1    0    0  501    0  0.00000000000E+00  0.00000000000E+00 -0.21418885101E+04  0.21418885101E+04  0.25500000920E-02 0. -1.
    10030    2    1    2    0    0  0.00000000000E+00  0.00000000000E+00 -0.63105278612E+03  0.36527242342E+04  0.35978002602E+04 0.  0.
        3    1    3    3  502    0 -0.11229257593E+04  0.72248705919E+03 -0.15393712624E+04  0.20377962865E+04  0.10100000352E+00 0. -1.
       -3    1    3    3    0  502  0.11229257593E+04 -0.72248705919E+03  0.90831847623E+03  0.16149279477E+04  0.10100000352E+00 0.  1.
</event>
<event>
 5   0  0.3212523E-08  0.3606946E+04  0.7818609E-02  0.8088903E-01
       -1   -1    0    0    0  501  0.00000000000E+00  0.00000000000E+00  0.13657545493E+04  0.13657545493E+04  0.50400001928E-02 0. -1.
        1   -1    0    0  501    0  0.00000000000E+00  0.00000000000E+00 -0.23814780675E+04  0.23814780675E+04  0.50400001928E-02 0.  1.
    10030    2    1    2    0    0  0.00000000000E+00  0.00000000000E+00 -0.10157235182E+04  0.37472326168E+04  0.36069458021E+04 0.  0.
        3    1    3    3  502    0 -0.25303635322E+03 -0.14244911664E+04  0.61072894391E+03  0.15704115169E+04  0.10100000352E+00 0. -1.
       -3    1    3    3    0  502  0.25303635322E+03  0.14244911664E+04 -0.16264524621E+04  0.21768210999E+04  0.10100000352E+00 0.  1.
</event>
<event>
 5   0  0.3202875E-08  0.3593974E+04  0.7818609E-02  0.8091873E-01
       -1   -1    0    0    0  501  0.00000000000E+00  0.00000000000E+00  0.12286287752E+04  0.12286287752E+04  0.50400001928E-02 0.  1.
        1   -1    0    0  501    0  0.00000000000E+00  0.00000000000E+00 -0.26282654079E+04  0.26282654079E+04  0.50400001928E-02 0. -1.
    10030    2    1    2    0    0  0.00000000000E+00  0.00000000000E+00 -0.13996366326E+04  0.38568941831E+04  0.35939741285E+04 0.  0.
        2    1    3    3  502    0 -0.55879303260E+01 -0.31264266399E+03 -0.25988450108E+04  0.26175889767E+04  0.25500000920E-02 0. -1.
       -2    1    3    3    0  502  0.55879303260E+01  0.31264266399E+03  0.11992083782E+04  0.12393052064E+04  0.25500000920E-02 0.  1.
</event>
<event>
 5   0  0.9905335E-08  0.3596622E+04  0.7818609E-02  0.8091266E-01
        2   -1    0    0  501    0  0.00000000000E+00  0.00000000000E+00  0.23902887716E+04  0.23902887716E+04  0.25500000920E-02 0.  1.
       -2   -1    0    0    0  501  0.00000000000E+00  0.00000000000E+00 -0.13529420988E+04  0.13529420988E+04  0.25500000920E-02 0. -1.
    10030    2    1    2    0    0  0.00000000000E+00  0.00000000000E+00  0.10373466728E+04  0.37432308704E+04  0.35966219192E+04 0.  0.
        5    1    3    3  502    0 -0.68737259411E+03  0.30556299558E+03  0.22186730214E+04  0.23427295818E+04  0.46999998093E+01 0.  1.
       -5    1    3    3    0  502  0.68737259411E+03 -0.30556299558E+03 -0.11813263487E+04  0.14005012886E+04  0.46999998093E+01 0. -1.
</event>
<event>
 5   0  0.1021087E-07  0.3608984E+04  0.7818609E-02  0.8088437E-01
       -2   -1    0    0    0  501  0.00000000000E+00  0.00000000000E+00  0.16675555273E+04  0.16675555273E+04  0.25500000920E-02 0. -1.
        2   -1    0    0  501    0  0.00000000000E+00  0.00000000000E+00 -0.19526738242E+04  0.19526738242E+04  0.25500000920E-02 0.  1.
    10030    2    1    2    0    0  0.00000000000E+00  0.00000000000E+00 -0.28511829686E+03  0.36202293515E+04  0.36089843605E+04 0.  0.
        3    1    3    3  502    0  0.54136832649E+03  0.13397773795E+03 -0.18640538993E+04  0.19456943873E+04  0.10100000352E+00 0.  1.
       -3    1    3    3    0  502 -0.54136832649E+03 -0.13397773795E+03  0.15789356025E+04  0.16745349641E+04  0.10100000352E+00 0. -1.
</event>
<event>
 5   0  0.3202875E-08  0.3586135E+04  0.7818609E-02  0.8093675E-01
        1   -1    0    0  501    0  0.00000000000E+00  0.00000000000E+00  0.21997637073E+04  0.21997637073E+04  0.50400001928E-02 0.  1.
       -1   -1    0    0    0  501  0.00000000000E+00  0.00000000000E+00 -0.14615623937E+04  0.14615623937E+04  0.50400001928E-02 0. -1.
    10030    2    1    2    0    0  0.00000000000E+00  0.00000000000E+00  0.73820131355E+03  0.36613261010E+04  0.35861354741E+04 0.  0.
        1    1    3    3  502    0 -0.40808090540E+03 -0.13376144095E+04  0.15148374762E+04  0.20616679929E+04  0.50400001928E-02 0. -1.
       -1    1    3    3    0  502  0.40808090540E+03  0.13376144095E+04 -0.77663616263E+03  0.15996581081E+04  0.50400001928E-02 0.  1.
</event>
<event>
 5   0  0.1029908E-07  0.3603987E+04  0.7818609E-02  0.8089579E-01
       -2   -1    0    0    0  501  0.00000000000E+00  0.00000000000E+00  0.27007009785E+04  0.27007009785E+04  0.25500000920E-02 0.  1.
        2   -1    0    0  501    0  0.00000000000E+00  0.00000000000E+00 -0.12023470530E+04  0.12023470530E+04  0.25500000920E-02 0. -1.
    10030    2    1    2    0    0  0.00000000000E+00  0.00000000000E+00  0.14983539255E+04  0.39030480315E+04  0.36039866051E+04 0.  0.
        4    1    3    3  502    0 -0.55298498904E+02  0.72140607817E+03  0.25364868279E+04  0.26376602690E+04  0.12699999809E+01 0.  1.
       -4    1    3    3    0  502  0.55298498904E+02 -0.72140607817E+03 -0.10381329023E+04  0.12653877625E+04  0.12699999809E+01 0. -1.
</event>
<event>
 5   0  0.1017794E-07  0.3607387E+04  0.7818609E-02  0.8088802E-01
        2   -1    0    0  501    0  0.00000000000E+00  0.00000000000E+00  0.16250005673E+04  0.16250005673E+04  0.25500000920E-02 0.  1.
       -2   -1    0    0    0  501  0.00000000000E+00  0.00000000000E+00 -0.20020368321E+04  0.20020368321E+04  0.25500000920E-02 0. -1.
    10030    2    1    2    0    0  0.00000000000E+00  0.00000000000E+00 -0.37703626486E+03  0.36270373994E+04  0.36073874136E+04 0.  0.
        1    1    3    3  502    0 -0.33533723674E+03 -0.14572535226E+04 -0.12026112005E+04  0.19189352754E+04  0.50400001928E-02 0. -1.
       -1    1    3    3    0  502  0.33533723674E+03  0.14572535226E+04  0.82557493567E+03  0.17081021240E+04  0.50400001928E-02 0.  1.
</event>
<event>
 5   0  0.1021087E-07  0.3597158E+04  0.7818609E-02  0.8091143E-01
       -2   -1    0    0    0  501  0.00000000000E+00  0.00000000000E+00  0.19124223636E+04  0.19124223636E+04  0.25500000920E-02 0.  1.
        2   -1    0    0  501    0  0.00000000000E+00  0.00000000000E+00 -0.16915122641E+04  0.16915122641E+04  0.25500000920E-02 0. -1.
    10030    2    1    2    0    0  0.00000000000E+00  0.00000000000E+00  0.22091009957E+03  0.36039346277E+04  0.35971577014E+04 0.  0.
        3    1    3    3  502    0  0.53501598024E+02 -0.13320680929E+04 -0.10991380343E+04  0.17278229810E+04  0.10100000352E+00 0. -1.
       -3    1    3    3    0  502 -0.53501598024E+02  0.13320680929E+04  0.13200481339E+04  0.18761116467E+04  0.10100000352E+00 0.  1.
</event>
<event>
 5   0  0.3279988E-08  0.3600636E+04  0.7818609E-02  0.8090346E-01
        1   -1    0    0  501    0  0.00000000000E+00  0.00000000000E+00  0.25060134975E+04  0.25060134975E+04  0.50400001928E-02 0. -1.
       -1   -1    0    0    0  501  0.00000000000E+00  0.00000000000E+00 -0.12933469550E+04  0.12933469551E+04  0.50400001928E-02 0.  1.
    10030    2    1    2    0    0  0.00000000000E+00  0.00000000000E+00  0.12126665425E+04  0.37993604526E+04  0.36006360140E+04 0.  0.
        5    1    3    3  502    0 -0.17347164258E+04 -0.39305537739E+01  0.11144343316E+04  0.20618541405E+04  0.46999998093E+01 0. -1.
       -5    1    3    3    0  502  0.17347164258E+04  0.39305537739E+01  0.98232210890E+02  0.17375063121E+04  0.46999998093E+01 0.  1.
</event>
<event>
 5   0  0.3202875E-08  0.3584211E+04  0.7818609E-02  0.8094118E-01
        1   -1    0    0  501    0  0.00000000000E+00  0.00000000000E+00  0.14485579925E+04  0.14485579925E+04  0.50400001928E-02 0. -1.
       -1   -1    0    0    0  501  0.00000000000E+00  0.00000000000E+00 -0.22171302637E+04  0.22171302637E+04  0.50400001928E-02 0.  1.
    10030    2    1    2    0    0  0.00000000000E+00  0.00000000000E+00 -0.76857227126E+03  0.36656882562E+04  0.35842107996E+04 0.  0.
        2    1    3    3  502    0 -0.12355868774E+04  0.66400274789E+03  0.75644659072E+03  0.15936706139E+04  0.25500000920E-02 0. -1.
       -2    1    3    3    0  502  0.12355868774E+04 -0.66400274789E+03 -0.15250188620E+04  0.20720176424E+04  0.25500000920E-02 0.  1.
</event>
<event>
 5   0  0.3212523E-08  0.3598235E+04  0.7818609E-02  0.8090896E-01
       -1   -1    0    0    0  501  0.00000000000E+00  0.00000000000E+00  0.12675787455E+04  0.12675787455E+04  0.50400001928E-02 0.  1.
        1   -1    0    0  501    0  0.00000000000E+00  0.00000000000E+00 -0.25535483756E+04  0.25535483756E+04  0.50400001928E-02 0. -1.
    10030    2    1    2    0    0  0.00000000000E+00  0.00000000000E+00 -0.12859696302E+04  0.38211271211E+04  0.35982349265E+04 0.  0.
        3    1    3    3  502    0 -0.10895283602E+04 -0.27937839529E+03  0.84816854854E+03  0.14087278774E+04  0.10100000352E+00 0.  1.
       -3    1    3    3    0  502  0.10895283602E+04  0.27937839529E+03 -0.21341381787E+04  0.24123992438E+04  0.10100000352E+00 0. -1.
</event>
<event>
 5   0  0.1044678E-07  0.3596698E+04  0.7818609E-02  0.8091248E-01
        2   -1    0    0  501    0  0.00000000000E+00  0.00000000000E+00  0.21102967306E+04  0.21102967306E+04  0.25500000920E-02 0.  1.
       -2   -1    0    0    0  501  0.00000000000E+00  0.00000000000E+00 -0.15325138850E+04  0.15325138850E+04  0.25500000920E-02 0. -1.
    10030    2    1    2    0    0  0.00000000000E+00  0.00000000000E+00  0.57778284561E+03  0.36428106156E+04  0.35966979529E+04 0.  0.
        2    1    3    3  502    0  0.66218512925E+03 -0.13274457536E+03  0.19769780995E+04  0.20891511850E+04  0.25500000920E-02 0.  1.
       -2    1    3    3    0  502 -0.66218512925E+03  0.13274457536E+03 -0.13991952539E+04  0.15536594306E+04  0.25500000920E-02 0. -1.
</event>
<event>
 5   0  0.1029908E-07  0.3620469E+04  0.7818609E-02  0.8085819E-01
       -2   -1    0    0    0  501  0.00000000000E+00  0.00000000000E+00  0.22856377778E+04  0.22856377778E+04  0.25500000920E-02 0.  1.
        2   -1    0    0  501    0  0.00000000000E+00  0.00000000000E+00 -0.14337127889E+04  0.14337127889E+04  0.25500000920E-02 0. -1.
    10030    2    1    2    0    0  0.00000000000E+00  0.00000000000E+00  0.85192498886E+03  0.37193505667E+04  0.36204685403E+04 0.  0.
        4    1    3    3  502    0  0.94595681539E+03 -0.14560248433E+04 -0.99980947537E+02  0.17392068432E+04  0.12699999809E+01 0. -1.
       -4    1    3    3    0  502 -0.94595681539E+03  0.14560248433E+04  0.95190593640E+03  0.19801437234E+04  0.12699999809E+01 0.  1.
</event>
<event>
 5   0  0.3202875E-08  0.3555922E+04  0.7818609E-02  0.8100664E-01
        1   -1    0    0  501    0  0.00000000000E+00  0.00000000000E+00  0.14669325582E+04  0.14669325582E+04  0.50400001928E-02 0. -1.
       -1   -1    0    0    0  501  0.00000000000E+00  0.00000000000E+00 -0.21549359609E+04  0.21549359609E+04  0.50400001928E-02 0.  1.
    10030    2    1    2    0    0  0.00000000000E+00  0.00000000000E+00 -0.68800340265E+03  0.36218685191E+04  0.35559222275E+04 0.  0.
        2    1    3    3  502    0 -0.10421565152E+04 -0.13669357997E+04  0.11889560857E+03  0.17230031482E+04  0.25500000920E-02 0. -1.
       -2    1    3    3    0  502  0.10421565152E+04  0.13669357997E+04 -0.80689901122E+03  0.18988653710E+04  0.25500000920E-02 0.  1.
</event>
<event>
 5   0  0.3279988E-08  0.3608035E+04  0.7818609E-02  0.8088654E-01
       -1   -1    0    0    0  501  0.00000000000E+00  0.00000000000E+00  0.15586376870E+04  0.15586376870E+04  0.50400001928E-02 0. -1.
        1   -1    0    0  501    0  0.00000000000E+00  0.00000000000E+00 -0.20880279956E+04  0.20880279956E+04  0.50400001928E-02 0.  1.
    10030    2    1    2    0    0  0.00000000000E+00  0.00000000000E+00 -0.52939030867E+03  0.36466656826E+04  0.36080349918E+04 0.  0.
        5    1    3    3  502    0  0.11552479033E+02 -0.10046343304E+04 -0.17790812594E+04  0.20431778716E+04  0.46999998093E+01 0.  1.
       -5    1    3    3    0  502 -0.11552479033E+02  0.10046343304E+04  0.12496909507E+04  0.16034878110E+04  0.46999998093E+01 0. -1.
</event>
<event>
 5   0  0.3202875E-08  0.3614931E+04  0.7818609E-02  0.8087080E-01
       -1   -1    0    0    0  501  0.00000000000E+00  0.00000000000E+00  0.19257908241E+04  0.19257908241E+04  0.50400001928E-02 0.  1.
        1   -1    0    0  501    0  0.00000000000E+00  0.00000000000E+00 -0.16964103294E+04  0.16964103294E+04  0.50400001928E-02 0. -1.
    10030    2    1    2    0    0  0.00000000000E+00  0.00000000000E+00  0.22938049474E+03  0.36222011535E+04  0.36149309516E+04 0.  0.
        2    1    3    3  502    0 -0.72238834898E+03 -0.79633843738E+03  0.15705168134E+04  0.19032926456E+04  0.25500000920E-02 0.  1.
       -2    1    3    3    0  502  0.72238834898E+03  0.79633843738E+03 -0.13411363186E+04  0.17189085080E+04  0.25500000920E-02 0. -1.
</event>
<event>
 5   0  0.1044678E-07  0.3599409E+04  0.7818609E-02  0.8090627E-01
        2   -1    0    0  501    0  0.00000000000E+00  0.00000000000E+00  0.25665781170E+04  0.25665781170E+04  0.25500000920E-02 0. -1.
       -2   -1    0    0    0  501  0.00000000000E+00  0.00000000000E+00 -0.12619667261E+04  0.12619667261E+04  0.25500000920E-02 0.  1.
    10030    2    1    2    0    0  0.00000000000E+00  0.00000000000E+00  0.13046113909E+04  0.38285448431E+04  0.35994089424E+04 0.  0.
        2    1    3    3  502    0 -0.12149676319E+04 -0.13072026137E+03 -0.75305436828E+03  0.14353832293E+04  0.25500000920E-02 0.  1.
       -2    1    3    3    0  502  0.12149676319E+04  0.13072026137E+03  0.20576657591E+04  0.23931616138E+04  0.25500000920E-02 0. -1.
</event>
<event>
 5   0  0.1021087E-07  0.3589222E+04  0.7818609E-02  0.8092965E-01
       -2   -1    0    0    0  501  0.00000000000E+00  0.00000000000E+00  0.28275233213E+04  0.28275233213E+04  0.25500000920E-02 0. -1.
        2   -1    0    0  501    0  0.00000000000E+00  0.00000000000E+00 -0.11390279590E+04  0.11390279590E+04  0.25500000920E-02 0.  1.
    10030    2    1    2    0    0  0.00000000000E+00  0.00000000000E+00  0.16884953623E+04  0.39665512803E+04  0.35892217082E+04 0.  0.
        3    1    3    3  502    0  0.46783797731E+03  0.12415376653E+03 -0.10655287435E+04  0.11703153610E+04  0.10100000352E+00 0.  1.
       -3    1    3    3    0  502 -0.46783797731E+03 -0.12415376653E+03  0.27540241058E+04  0.27962359193E+04  0.10100000352E+00 0. -1.
</event>
<event>
 5   0  0.1044678E-07  0.3598329E+04  0.7818609E-02  0.8090875E-01
        2   -1    0    0  501    0  0.00000000000E+00  0.00000000000E+00  0.18945604156E+04  0.18945604156E+04  0.25500000920E-02 0.  1.
       -2   -1    0    0    0  501  0.00000000000E+00  0.00000000000E+00 -0.17085718177E+04  0.17085718177E+04  0.25500000920E-02 0. -1.
    10030    2    1    2    0    0  0.00000000000E+00  0.00000000000E+00  0.18598859785E+03  0.36031322333E+04  0.35983287971E+04 0.  0.
        2    1    3    3  502    0 -0.11641883250E+04 -0.32470089552E+03  0.14275252163E+04  0.18704527181E+04  0.25500000920E-02 0.  1.
       -2    1    3    3    0  502  0.11641883250E+04  0.32470089552E+03 -0.12415366184E+04  0.17326795152E+04  0.25500000920E-02 0. -1.
</event>
<event>
 5   0  0.3212523E-08  0.3600028E+04  0.7818609E-02  0.8090485E-01
       -1   -1    0    0    0  501  0.00000000000E+00  0.00000000000E+00  0.26813170084E+04  0.26813170084E+04  0.50400001928E-02 0.  1.
        1   -1    0    0  501    0  0.00000000000E+00  0.00000000000E+00 -0.12083804378E+04  0.12083804378E+04  0.50400001928E-02 0. -1.
    10030    2    1    2    0    0  0.00000000000E+00  0.00000000000E+00  0.14729365706E+04  0.38896974463E+04  0.36000283447E+04 0.  0.
        3    1    3    3  502    0  0.57811886427E+03 -0.35712028043E+03  0.25374075067E+04  0.26268218784E+04  0.10100000352E+00 0.  1.
       -3    1    3    3    0  502 -0.57811886427E+03  0.35712028043E+03 -0.10644709361E+04  0.12628755678E+04  0.10100000352E+00 0. -1.
</event>
<event>
 5   0  0.3279988E-08  0.3596083E+04  0.7818609E-02  0.8091389E-01
        1   -1    0    0  501    0  0.00000000000E+00  0.00000000000E+00  0.27466274927E+04  0.27466274927E+04  0.50400001928E-02 0.  1.
       -1   -1    0    0    0  501  0.00000000000E+00  0.00000000000E+00 -0.11770629975E+04  0.11770629975E+04  0.50400001928E-02 0. -1.
    10030    2    1    2    0    0  0.00000000000E+00  0.00000000000E+00  0.15695644952E+04  0.39236904902E+04  0.35960831968E+04 0.  0.
        5    1    3    3  502    0 -0.56903767339E+03 -0.38756735054E+03 -0.10275361532E+04  0.12368771002E+04  0.46999998093E+01 0. -1.
       -5    1    3    3    0  502  0.56903767339E+03  0.38756735054E+03  0.25971006484E+04  0.26868133900E+04  0.46999998093E+01 0.  1.
</event>
<event>
 5   0  0.9905335E-08  0.3591984E+04  0.7818609E-02  0.8092330E-01
       -2   -1    0    0    0  501  0.00000000000E+00  0.00000000000E+00  0.24187225007E+04  0.24187225007E+04  0.25500000920E-02 0. -1.
        2   -1    0    0  501    0  0.00000000000E+00  0.00000000000E+00 -0.13335911753E+04  0.13335911753E+04  0.25500000920E-02 0.  1.
    10030    2    1    2    0    0  0.00000000000E+00  0.00000000000E+00  0.10851313254E+04  0.37523136761E+04  0.35919838432E+04 0.  0.
        5    1    3    3  502    0 -0.58951568605E+03 -0.12827373314E+04 -0.61722486715E+03  0.15407570971E+04  0.46999998093E+01 0.  1.
       -5    1    3    3    0  502  0.58951568605E+03  0.12827373314E+04  0.17023561926E+04  0.22115565790E+04  0.46999998093E+01 0. -1.
</event>
<event>
 5   0  0.3279988E-08  0.3598448E+04  0.7818609E-02  0.8090847E-01
        1   -1    0    0  501    0  0.00000000000E+00  0.00000000000E+00  0.25665421004E+04  0.25665421004E+04  0.50400001928E-02 0. -1.
       -1   -1    0    0    0  501  0.00000000000E+00  0.00000000000E+00 -0.12613110350E+04  0.12613110351E+04  0.50400001928E-02 0.  1.
    10030    2    1    2    0    0  0.00000000000E+00  0.00000000000E+00  0.13052310653E+04  0.38278531354E+04  0.35984484841E+04 0.  0.
        5    1    3    3  502    0  0.42020532425E+03 -0.47315943643E+03 -0.11390182358E+04  0.13030107437E+04  0.46999998093E+01 0.  1.
       -5    1    3    3    0  502 -0.42020532425E+03  0.47315943643E+03  0.24442493011E+04  0.25248423917E+04  0.46999998093E+01 0. -1.
</event>
<event>
 5   0  0.3202875E-08  0.3598939E+04  0.7818609E-02  0.8090735E-01
       -1   -1    0    0    0  501  0.00000000000E+00  0.00000000000E+00  0.21585064736E+04  0.21585064736E+04  0.50400001928E-02 0.  1.
        1   -1    0    0  501    0  0.00000000000E+00  0.00000000000E+00 -0.15001536501E+04  0.15001536501E+04  0.50400001928E-02 0. -1.
    10030    2    1    2    0    0  0.00000000000E+00  0.00000000000E+00  0.65835282350E+03  0.36586601237E+04  0.35989394911E+04 0.  0.
        2    1    3    3  502    0 -0.10290413177E+04  0.14709533642E+04  0.20276863732E+03  0.18065837798E+04  0.25500000920E-02 0.  1.
       -2    1    3    3    0  502  0.10290413177E+04 -0.14709533642E+04  0.45558418618E+03  0.18520763439E+04  0.25500000920E-02 0. -1.
</event>
<event>
 5   0  0.9905335E-08  0.3600799E+04  0.7818609E-02  0.8090309E-01
       -2   -1    0    0    0  501  0.00000000000E+00  0.00000000000E+00  0.11545695169E+04  0.11545695169E+04  0.25500000920E-02 0.  1.
        2   -1    0    0  501    0  0.00000000000E+00  0.00000000000E+00 -0.28074871039E+04  0.28074871039E+04  0.25500000920E-02 0. -1.
    10030    2    1    2    0    0  0.00000000000E+00  0.00000000000E+00 -0.16529175870E+04  0.39620566207E+04  0.36007993719E+04 0.  0.
        5    1    3    3  502    0 -0.73018111049E+03 -0.16454478476E+04 -0.79624753673E+03  0.19684245739E+04  0.46999998093E+01 0. -1.
       -5    1    3    3    0  502  0.73018111049E+03  0.16454478476E+04 -0.85667005026E+03  0.19936320469E+04  0.46999998093E+01 0.  1.
</event>
<event>
 5   0  0.3202875E-08  0.3595999E+04  0.7818609E-02  0.8091409E-01
        1   -1    0    0  501    0  0.00000000000E+00  0.00000000000E+00  0.27627133462E+04  0.27627133462E+04  0.50400001928E-02 0.  1.
       -1   -1    0    0    0  501  0.00000000000E+00  0.00000000000E+00 -0.11701546499E+04  0.11701546499E+04  0.50400001928E-02 0. -1.
    10030    2    1    2    0    0  0.00000000000E+00  0.00000000000E+00  0.15925586963E+04  0.39328679960E+04  0.35959988144E+04 0.  0.
        1    1    3    3  502    0  0.10045564709E+04  0.12185945173E+04  0.17362679264E+04  0.23470689408E+04  0.50400001928E-02 0.  1.
       -1    1    3    3    0  502 -0.10045564709E+04 -0.12185945173E+04 -0.14370923005E+03  0.15857990552E+04  0.50400001928E-02 0. -1.
</event>
<event>
 5   0  0.1021087E-07  0.3590267E+04  0.7818609E-02  0.8092725E-01
       -2   -1    0    0    0  501  0.00000000000E+00  0.00000000000E+00  0.21271112303E+04  0.21271112303E+04  0.25500000920E-02 0. -1.
        2   -1    0    0  501    0  0.00000000000E+00  0.00000000000E+00 -0.15149674793E+04  0.15149674793E+04  0.25500000920E-02 0.  1.
    10030    2    1    2    0    0  0.00000000000E+00  0.00000000000E+00  0.61214375104E+03  0.36420787096E+04  0.35902670312E+04 0.  0.
        3    1    3    3  502    0 -0.85569250724E+02  0.17786756218E+04  0.53627235372E+03  0.18597303869E+04  0.10100000352E+00 0. -1.
       -3    1    3    3    0  502  0.85569250724E+02 -0.17786756218E+04  0.75871397317E+02  0.17823483227E+04  0.10100000352E+00 0.  1.
</event>
<event>
 5   0  0.1017794E-07  0.3598516E+04  0.7818609E-02  0.8090832E-01
        2   -1    0    0  501    0  0.00000000000E+00  0.00000000000E+00  0.12748823330E+04  0.12748823330E+04  0.25500000920E-02 0. -1.
       -2   -1    0    0    0  501  0.00000000000E+00  0.00000000000E+00 -0.25393159398E+04  0.25393159398E+04  0.25500000920E-02 0.  1.
    10030    2    1    2    0    0  0.00000000000E+00  0.00000000000E+00 -0.12644336068E+04  0.38141982728E+04  0.35985158216E+04 0.  0.
        1    1    3    3  502    0 -0.59466442435E+03 -0.11895816375E+04 -0.19167088815E+04  0.23329173124E+04  0.50400001928E-02 0.  1.
       -1    1    3    3    0  502  0.59466442435E+03  0.11895816375E+04  0.65227527473E+03  0.14812809605E+04  0.50400001928E-02 0. -1.
</event>
<event>
 5   0  0.1021087E-07  0.3591738E+04  0.7818609E-02  0.8092387E-01
       -2   -1    0    0    0  501  0.00000000000E+00  0.00000000000E+00  0.12712864306E+04  0.12712864306E+04  0.25500000920E-02 0.  1.
        2   -1    0    0  501    0  0.00000000000E+00  0.00000000000E+00 -0.25369142079E+04  0.25369142079E+04  0.25500000920E-02 0. -1.
    10030    2    1    2    0    0  0.00000000000E+00  0.00000000000E+00 -0.12656277772E+04  0.38082006385E+04  0.35917375228E+04 0.  0.
        3    1    3    3  502    0  0.58994288818E+03 -0.16824702417E+04 -0.40441094306E+03  0.18281922620E+04  0.10100000352E+00 0. -1.
       -3    1    3    3    0  502 -0.58994288818E+03  0.16824702417E+04 -0.86121683417E+03  0.19800083766E+04  0.10100000352E+00 0.  1.
</event>
<event>
 5   0  0.3202875E-08  0.3600683E+04  0.7818609E-02  0.8090335E-01
       -1   -1    0    0    0  501  0.00000000000E+00  0.00000000000E+00  0.12500832103E+04  0.12500832103E+04  0.50400001928E-02 0. -1.
        1   -1    0    0  501    0  0.00000000000E+00  0.00000000000E+00 -0.25928114534E+04  0.25928114534E+04  0.50400001928E-02 0.  1.
    10030    2    1    2    0    0  0.00000000000E+00  0.00000000000E+00 -0.13427282431E+04  0.38428946637E+04  0.36006833048E+04 0.  0.
        2    1    3    3  502    0 -0.26440349519E+03  0.42881645850E+02  0.12286975686E+04  0.12575554695E+04  0.25500000920E-02 0. -1.
       -2    1    3    3    0  502  0.26440349519E+03 -0.42881645850E+02 -0.25714258117E+04  0.25853391942E+04  0.25500000920E-02 0.  1.
</event>
<event>
 5   0  0.1029908E-07  0.3597226E+04  0.7818609E-02  0.8091127E-01
       -2   -1    0    0    0  501  0.00000000000E+00  0.00000000000E+00  0.12742493699E+04  0.12742493699E+04  0.25500000920E-02 0. -1.
        2   -1    0    0  501    0  0.00000000000E+00  0.00000000000E+00 -0.25387560512E+04  0.25387560512E+04  0.25500000920E-02 0.  1.
    10030    2    1    2    0    0  0.00000000000E+00  0.00000000000E+00 -0.12645066813E+04  0.38130054211E+04  0.35972257636E+04 0.  0.
        4    1    3    3  502    0 -0.12923294958E+04 -0.11374691001E+04 -0.11841129437E+04  0.20895158663E+04  0.12699999809E+01 0. -1.
       -4    1    3    3    0  502  0.12923294958E+04  0.11374691001E+04 -0.80393737583E+02  0.17234895547E+04  0.12699999809E+01 0.  1.
</event>
<event>
 5   0  0.3279988E-08  0.3593408E+04  0.7818609E-02  0.8092003E-01
       -1   -1    0    0    0  501  0.00000000000E+00  0.00000000000E+00  0.19539414096E+04  0.19539414096E+04  0.50400001928E-02 0.  1.
        1   -1    0    0  501    0  0.00000000000E+00  0.00000000000E+00 -0.16521193691E+04  0.16521193691E+04  0.50400001928E-02 0. -1.
    10030    2    1    2    0    0  0.00000000000E+00  0.00000000000E+00  0.30182204049E+03  0.36060607787E+04  0.35934075466E+04 0.  0.
        5    1    3    3  502    0  0.58676322718E+03 -0.68322069202E+03 -0.14092468775E+04  0.16724474433E+04  0.46999998093E+01 0. -1.
       -5    1    3    3    0  502 -0.58676322718E+03  0.68322069202E+03  0.17110689180E+04  0.19336133354E+04  0.46999998093E+01 0.  1.
</event>
<event>
 5   0  0.3202875E-08  0.3595637E+04  0.7818609E-02  0.8091492E-01
       -1   -1    0    0    0  501  0.00000000000E+00  0.00000000000E+00  0.20133908952E+04  0.20133908952E+04  0.50400001928E-02 0.  1.
        1   -1    0    0  501    0  0.00000000000E+00  0.00000000000E+00 -0.16053275974E+04  0.16053275974E+04  0.50400001928E-02 0. -1.
    10030    2    1    2    0    0  0.00000000000E+00  0.00000000000E+00  0.40806329774E+03  0.36187184926E+04  0.35956373390E+04 0.  0.
        2    1    3    3  502    0 -0.12110087797E+04  0.12542130308E+03  0.15353531702E+04  0.19594851683E+04  0.25500000920E-02 0.  1.
       -2    1    3    3    0  502  0.12110087797E+04 -0.12542130308E+03 -0.11272898725E+04  0.16592333242E+04  0.25500000920E-02 0. -1.
</event>
<event>
 5   0  0.3202875E-08  0.3600131E+04  0.7818609E-02  0.8090462E-01
       -1   -1    0    0    0  501  0.00000000000E+00  0.00000000000E+00  0.18214970207E+04  0.18214970207E+04  0.50400001928E-02 0.  1.
        1   -1    0    0  501    0  0.00000000000E+00  0.00000000000E+00 -0.17788862585E+04  0.17788862585E+04  0.50400001928E-02 0. -1.
    10030    2    1    2    0    0  0.00000000000E+00  0.00000000000E+00  0.42610762186E+02  0.36003832792E+04  0.36001311199E+04 0.  0.
        2    1    3    3  502    0 -0.15360722814E+04  0.44319093556E+03 -0.80597668903E+03  0.17904007044E+04  0.25500000920E-02 0.  1.
       -2    1    3    3    0  502  0.15360722814E+04 -0.44319093556E+03  0.84858745122E+03  0.18099825749E+04  0.25500000920E-02 0. -1.
</event>
<event>
 5   0  0.3212523E-08  0.3595533E+04  0.7818609E-02  0.8091516E-01
       -1   -1    0    0    0  501  0.00000000000E+00  0.00000000000E+00  0.16701785209E+04  0.16701785209E+04  0.50400001928E-02 0.  1.
        1   -1    0    0  501    0  0.00000000000E+00  0.00000000000E+00 -0.19351015035E+04  0.19351015035E+04  0.50400001928E-02 0. -1.
    10030    2    1    2    0    0  0.00000000000E+00  0.00000000000E+00 -0.26492298255E+03  0.36052800244E+04  0.35955333218E+04 0.  0.
        3    1    3    3  502    0  0.82412487636E+03 -0.74049612157E+03 -0.15520848956E+04  0.19069566988E+04  0.10100000352E+00 0. -1.
       -3    1    3    3    0  502 -0.82412487636E+03  0.74049612157E+03  0.12871619130E+04  0.16983233256E+04  0.10100000352E+00 0.  1.
</event>
<event>
 5   0  0.3279988E-08  0.3592677E+04  0.7818609E-02  0.8092171E-01
       -1   -1    0    0    0  501  0.00000000000E+00  0.00000000000E+00  0.26679655876E+04  0.26679655876E+04  0.50400001928E-02 0. -1.
        1   -1    0    0  501    0  0.00000000000E+00  0.00000000000E+00 -0.12094731277E+04  0.12094731277E+04  0.50400001928E-02 0.  1.
    10030    2    1    2    0    0  0.00000000000E+00  0.00000000000E+00  0.14584924600E+04  0.38774387153E+04  0.35926773770E+04 0.  0.
        5    1    3    3  502    0 -0.11405511724E+04 -0.20511457492E+03 -0.75208960333E+03  0.13815172193E+04  0.46999998093E+01 0.  1.
       -5    1    3    3    0  502  0.11405511724E+04  0.20511457492E+03  0.22105820633E+04  0.24959214960E+04  0.46999998093E+01 0. -1.
</event>
<event>
 5   0  0.9905335E-08  0.3596053E+04  0.7818609E-02  0.8091396E-01
       -2   -1    0    0    0  501  0.00000000000E+00  0.00000000000E+00  0.18261849059E+04  0.18261849059E+04  0.25500000920E-02 0. -1.
        2   -1    0    0  501    0  0.00000000000E+00  0.00000000000E+00 -0.17703025438E+04  0.17703025438E+04  0.25500000920E-02 0.  1.
    10030    2    1    2    0    0  0.00000000000E+00  0.00000000000E+00  0.55882362072E+02  0.35964874497E+04  0.35960532724E+04 0.  0.
        5    1    3    3  502    0  0.75737108949E+03 -0.91148480546E+03 -0.13244284911E+04  0.17772305522E+04  0.46999998093E+01 0.  1.
       -5    1    3    3    0  502 -0.75737108949E+03  0.91148480546E+03  0.13803108531E+04  0.18192568975E+04  0.46999998093E+01 0. -1.
</event>
<event>
 5   0  0.3212523E-08  0.3630259E+04  0.7818609E-02  0.8083595E-01
       -1   -1    0    0    0  501  0.00000000000E+00  0.00000000000E+00  0.19253333374E+04  0.19253333375E+04  0.50400001928E-02 0. -1.
        1   -1    0    0  501    0  0.00000000000E+00  0.00000000000E+00 -0.17112339845E+04  0.17112339845E+04  0.50400001928E-02 0.  1.
    10030    2    1    2    0    0  0.00000000000E+00  0.00000000000E+00  0.21409935291E+03  0.36365673220E+04  0.36302594059E+04 0.  0.
        3    1    3    3  502    0 -0.66967845267E+03  0.16870458771E+04  0.11720667893E+03  0.18188816446E+04  0.10100000352E+00 0.  1.
       -3    1    3    3    0  502  0.66967845267E+03 -0.16870458771E+04  0.96892673978E+02  0.18176856774E+04  0.10100000352E+00 0. -1.
</event>
<event>
 5   0  0.3279988E-08  0.3602501E+04  0.7818609E-02  0.8089919E-01
        1   -1    0    0  501    0  0.00000000000E+00  0.00000000000E+00  0.17162106582E+04  0.17162106582E+04  0.50400001928E-02 0.  1.
       -1   -1    0    0    0  501  0.00000000000E+00  0.00000000000E+00 -0.18905044799E+04  0.18905044799E+04  0.50400001928E-02 0. -1.
    10030    2    1    2    0    0  0.00000000000E+00  0.00000000000E+00 -0.17429382163E+03  0.36067151381E+04  0.36025013187E+04 0.  0.
        5    1    3    3  502    0  0.10657409071E+04 -0.12329954818E+04 -0.85511670764E+03  0.18404695631E+04  0.46999998093E+01 0. -1.
       -5    1    3    3    0  502 -0.10657409071E+04  0.12329954818E+04  0.68082288602E+03  0.17662455750E+04  0.46999998093E+01 0.  1.
</event>
<event>
 5   0  0.3215494E-08  0.3596081E+04  0.7818609E-02  0.8091390E-01
        1   -1    0    0  501    0  0.00000000000E+00  0.00000000000E+00  0.10906774929E+04  0.10906774929E+04  0.50400001928E-02 0. -1.
       -1   -1    0    0    0  501  0.00000000000E+00  0.00000000000E+00 -0.29641669016E+04  0.29641669016E+04  0.50400001928E-02 0.  1.
    10030    2    1    2    0    0  0.00000000000E+00  0.00000000000E+00 -0.18734894087E+04  0.40548443945E+04  0.35960812699E+04 0.  0.
        4    1    3    3  502    0  0.10335153557E+04 -0.66263632851E+03  0.54450508906E+03  0.13430295228E+04  0.12699999809E+01 0.  1.
       -4    1    3    3    0  502 -0.10335153557E+04  0.66263632851E+03 -0.24179944978E+04  0.27118148717E+04  0.12699999809E+01 0. -1.
</event>
<event>
 5   0  0.3202875E-08  0.3601688E+04  0.7818609E-02  0.8090105E-01
       -1   -1    0    0    0  501  0.00000000000E+00  0.00000000000E+00  0.15001225798E+04  0.15001225798E+04  0.50400001928E-02 0.  1.
        1   -1    0    0  501    0  0.00000000000E+00  0.00000000000E+00 -0.21618496028E+04  0.21618496029E+04  0.50400001928E-02 0. -1.
    10030    2    1    2    0    0  0.00000000000E+00  0.00000000000E+00 -0.66172702303E+03  0.36619721827E+04  0.36016881616E+04 0.  0.
        2    1    3    3  502    0 -0.11534919302E+03  0.79644233120E+03  0.13071301578E+04  0.15349967663E+04  0.25500000920E-02 0.  1.
       -2    1    3    3    0  502  0.11534919302E+03 -0.79644233120E+03 -0.19688571808E+04  0.21269754163E+04  0.25500000920E-02 0. -1.
</event>
<event>
 5   0  0.1044678E-07  0.3690717E+04  0.7818609E-02  0.8070022E-01
       -2   -1    0    0    0  501  0.00000000000E+00  0.00000000000E+00  0.19267232235E+04  0.19267232235E+04  0.25500000920E-02 0. -1.
        2   -1    0    0  501    0  0.00000000000E+00  0.00000000000E+00 -0.17674299977E+04  0.17674299977E+04  0.25500000920E-02 0.  1.
    10030    2    1    2    0    0  0.00000000000E+00  0.00000000000E+00  0.15929322582E+03  0.36941532213E+04  0.36907172325E+04 0.  0.
        2    1    3    3  502    0 -0.16490571778E+04  0.40491002991E+03  0.80281956882E+03  0.18782600906E+04  0.25500000920E-02 0. -1.
       -2    1    3    3    0  502  0.16490571778E+04 -0.40491002991E+03 -0.64352634300E+03  0.18158931307E+04  0.25500000920E-02 0.  1.
</event>
<event>
 5   0  0.1021087E-07  0.3603423E+04  0.7818609E-02  0.8089708E-01
        2   -1    0    0  501    0  0.00000000000E+00  0.00000000000E+00  0.15595180550E+04  0.15595180550E+04  0.25500000920E-02 0.  1.
       -2   -1    0    0    0  501  0.00000000000E+00  0.00000000000E+00 -0.20815179441E+04  0.20815179441E+04  0.25500000920E-02 0. -1.
    10030    2    1    2    0    0  0.00000000000E+00  0.00000000000E+00 -0.52199988905E+03  0.36410359991E+04  0.36034232700E+04 0.  0.
        3    1    3    3  502    0  0.13777210548E+04  0.72262615230E+03  0.65725475216E+03  0.16888717181E+04  0.10100000352E+00 0.  1.
       -3    1    3    3    0  502 -0.13777210548E+04 -0.72262615230E+03 -0.11792546412E+04  0.19521642810E+04  0.10100000352E+00 0. -1.
</event>
<event>
 5   0  0.1029908E-07  0.3599000E+04  0.7818609E-02  0.8090721E-01
       -2   -1    0    0    0  501  0.00000000000E+00  0.00000000000E+00  0.13505363252E+04  0.13505363252E+04  0.25500000920E-02 0. -1.
        2   -1    0    0  501    0  0.00000000000E+00  0.00000000000E+00 -0.23977137667E+04  0.23977137667E+04  0.25500000920E-02 0.  1.
    10030    2    1    2    0    0  0.00000000000E+00  0.00000000000E+00 -0.10471774415E+04  0.37482500919E+04  0.35989996050E+04 0.  0.
        4    1    3    3  502    0 -0.84950876651E+03  0.14605702039E+04  0.12117075928E+03  0.16939936336E+04  0.12699999809E+01 0. -1.
       -4    1    3    3    0  502  0.84950876651E+03 -0.14605702039E+04 -0.11683482008E+04  0.20542564582E+04  0.12699999809E+01 0.  1.
</event>
<event>
 5   0  0.3279988E-08  0.3604277E+04  0.7818609E-02  0.8089513E-01
        1   -1    0    0  501    0  0.00000000000E+00  0.00000000000E+00  0.15376804335E+04  0.15376804335E+04  0.50400001928E-02 0.  1.
       -1   -1    0    0    0  501  0.00000000000E+00  0.00000000000E+00 -0.21120790844E+04  0.21120790844E+04  0.50400001928E-02 0. -1.
    10030    2    1    2    0    0  0.00000000000E+00  0.00000000000E+00 -0.57439865091E+03  0.36497595180E+04  0.36042767276E+04 0.  0.
        5    1    3    3  502    0  0.12971376597E+04  0.12323743961E+04 -0.69150115845E+02  0.17905632044E+04  0.46999998093E+01 0. -1.
       -5    1    3    3    0  502 -0.12971376597E+04 -0.12323743961E+04 -0.50524853507E+03  0.18591963136E+04  0.46999998093E+01 0.  1.
</event>
<event>
 5   0  0.1017794E-07  0.3593641E+04  0.7818609E-02  0.8091950E-01
       -2   -1    0    0    0  501  0.00000000000E+00  0.00000000000E+00  0.10457301541E+04  0.10457301541E+04  0.25500000920E-02 0. -1.
        2   -1    0    0  501    0  0.00000000000E+00  0.00000000000E+00 -0.30873773206E+04  0.30873773206E+04  0.25500000920E-02 0.  1.
    10030    2    1    2    0    0  0.00000000000E+00  0.00000000000E+00 -0.20416471665E+04  0.41331074747E+04  0.35936408063E+04 0.  0.
        1    1    3    3  502    0 -0.68296892747E+03 -0.11555826210E+04 -0.23945977189E+04  0.27451622876E+04  0.50400001928E-02 0.  1.
       -1    1    3    3    0  502  0.68296892747E+03  0.11555826210E+04  0.35295055239E+03  0.13879451871E+04  0.50400001928E-02 0. -1.
</event>
<event>
 5   0  0.9905335E-08  0.3600983E+04  0.7818609E-02  0.8090267E-01
        2   -1    0    0  501    0  0.00000000000E+00  0.00000000000E+00  0.22093202409E+04  0.22093202409E+04  0.25500000920E-02 0. -1.
       -2   -1    0    0    0  501  0.00000000000E+00  0.00000000000E+00 -0.14673155959E+04  0.14673155960E+04  0.25500000920E-02 0.  1.
    10030    2    1    2    0    0  0.00000000000E+00  0.00000000000E+00  0.74200464495E+03  0.36766358369E+04  0.36009832246E+04 0.  0.
        5    1    3    3  502    0 -0.25714710868E+03 -0.12474655074E+04 -0.92831045472E+03  0.15760955612E+04  0.46999998093E+01 0.  1.
       -5    1    3    3    0  502  0.25714710868E+03  0.12474655074E+04  0.16703150997E+04  0.21005402757E+04  0.46999998093E+01 0. -1.
</event>
<event>
 5   0  0.3215494E-08  0.3597887E+04  0.7818609E-02  0.8090976E-01
        1   -1    0    0  501    0  0.00000000000E+00  0.00000000000E+00  0.23972863881E+04  0.23972863881E+04  0.50400001928E-02 0.  1.
       -1   -1    0    0    0  501  0.00000000000E+00  0.00000000000E+00 -0.13499418475E+04  0.13499418475E+04  0.50400001928E-02 0. -1.
    10030    2    1    2    0    0  0.00000000000E+00  0.00000000000E+00  0.10473445405E+04  0.37472282356E+04  0.35978867219E+04 0.  0.
        4    1    3    3  502    0 -0.16117718145E+04  0.37970524337E+03 -0.20850953011E+03  0.16689704284E+04  0.12699999809E+01 0. -1.
       -4    1    3    3    0  502  0.16117718145E+04 -0.37970524337E+03  0.12558540706E+04  0.20782578072E+04  0.12699999809E+01 0.  1.
</event>
<event>
 5   0  0.3202875E-08  0.3592297E+04  0.7818609E-02  0.8092258E-01
        1   -1    0    0  501    0  0.00000000000E+00  0.00000000000E+00  0.23574493622E+04  0.23574493622E+04  0.50400001928E-02 0.  1.
       -1   -1    0    0    0  501  0.00000000000E+00  0.00000000000E+00 -0.13684913553E+04  0.13684913553E+04  0.50400001928E-02 0. -1.
    10030    2    1    2    0    0  0.00000000000E+00  0.00000000000E+00  0.98895800691E+03  0.37259407175E+04  0.35922967988E+04 0.  0.
        2    1    3    3  502    0  0.35294122383E+03  0.47021823297E+03  0.22548162915E+04  0.23302079741E+04  0.25500000920E-02 0.  1.
       -2    1    3    3    0  502 -0.35294122383E+03 -0.47021823297E+03 -0.12658582846E+04  0.13957327433E+04  0.25500000920E-02 0. -1.
</event>
<event>
 5   0  0.3202875E-08  0.3602650E+04  0.7818609E-02  0.8089885E-01
       -1   -1    0    0    0  501  0.00000000000E+00  0.00000000000E+00  0.19587150340E+04  0.19587150340E+04  0.50400001928E-02 0.  1.
        1   -1    0    0  501    0  0.00000000000E+00  0.00000000000E+00 -0.16565821636E+04  0.16565821636E+04  0.50400001928E-02 0. -1.
    10030    2    1    2    0    0  0.00000000000E+00  0.00000000000E+00  0.30213287039E+03  0.36152971976E+04  0.36026503515E+04 0.  0.
        2    1    3    3  502    0  0.54595221938E+03  0.10645069546E+04 -0.12003359527E+04  0.16947109729E+04  0.25500000920E-02 0. -1.
       -2    1    3    3    0  502 -0.54595221938E+03 -0.10645069546E+04  0.15024688231E+04  0.19205862247E+04  0.25500000920E-02 0.  1.
</event>
<event>
 5   0  0.3279988E-08  0.3587045E+04  0.7818609E-02  0.8093466E-01
       -1   -1    0    0    0  501  0.00000000000E+00  0.00000000000E+00  0.13392399097E+04  0.13392399097E+04  0.50400001928E-02 0. -1.
        1   -1    0    0  501    0  0.00000000000E+00  0.00000000000E+00 -0.24019013059E+04  0.24019013059E+04  0.50400001928E-02 0.  1.
    10030    2    1    2    0    0  0.00000000000E+00  0.00000000000E+00 -0.10626613962E+04  0.37411412156E+04  0.35870445150E+04 0.  0.
        5    1    3    3  502    0  0.11561906059E+03  0.10574523013E+04 -0.20373605381E+04  0.22983544524E+04  0.46999998093E+01 0.  1.
       -5    1    3    3    0  502 -0.11561906059E+03 -0.10574523013E+04  0.97469914194E+03  0.14427867632E+04  0.46999998093E+01 0. -1.
</event>
<event>
 5   0  0.3215494E-08  0.3602004E+04  0.7818609E-02  0.8090033E-01
        1   -1    0    0  501    0  0.00000000000E+00  0.00000000000E+00  0.25019776879E+04  0.25019776879E+04  0.50400001928E-02 0.  1.
       -1   -1    0    0    0  501  0.00000000000E+00  0.00000000000E+00 -0.12964180714E+04  0.12964180714E+04  0.50400001928E-02 0. -1.
    10030    2    1    2    0    0  0.00000000000E+00  0.00000000000E+00  0.12055596164E+04  0.37983957593E+04  0.36020044913E+04 0.  0.
        4    1    3    3  502    0 -0.15827519378E+04  0.63735899704E+02  0.15065012180E+04  0.21860268741E+04  0.12699999809E+01 0.  1.
       -4    1    3    3    0  502  0.15827519378E+04 -0.63735899704E+02 -0.30094160160E+03  0.16123688852E+04  0.12699999809E+01 0. -1.
</event>
<event>
 5   0  0.1044678E-07  0.3571923E+04  0.7818609E-02  0.8096954E-01
       -2   -1    0    0    0  501  0.00000000000E+00  0.00000000000E+00  0.17907611196E+04  0.17907611196E+04  0.25500000920E-02 0. -1.
        2   -1    0    0  501    0  0.00000000000E+00  0.00000000000E+00 -0.17811746991E+04  0.17811746991E+04  0.25500000920E-02 0.  1.
    10030    2    1    2    0    0  0.00000000000E+00  0.00000000000E+00  0.95864205840E+01  0.35719358187E+04  0.35719229546E+04 0.  0.
        2    1    3    3  502    0  0.54192107854E+02  0.17518136285E+04 -0.33853094216E+03  0.17850464903E+04  0.25500000920E-02 0.  1.
       -2    1    3    3    0  502 -0.54192107854E+02 -0.17518136285E+04  0.34811736274E+03  0.17868893284E+04  0.25500000920E-02 0. -1.
</event>
<event>
 5   0  0.1044678E-07  0.3628883E+04  0.7818609E-02  0.8083908E-01
        2   -1    0    0  501    0  0.00000000000E+00  0.00000000000E+00  0.29535409241E+04  0.29535409241E+04  0.25500000920E-02 0. -1.
       -2   -1    0    0    0  501  0.00000000000E+00  0.00000000000E+00 -0.11146613849E+04  0.11146613849E+04  0.25500000920E-02 0.  1.
    10030    2    1    2    0    0  0.00000000000E+00  0.00000000000E+00  0.18388795392E+04  0.40682023089E+04  0.36288830329E+04 0.  0.
        2    1    3    3  502    0  0.17217940545E+04  0.44853999636E+03  0.13180637651E+04  0.22142843050E+04  0.25500000920E-02 0. -1.
       -2    1    3    3    0  502 -0.17217940545E+04 -0.44853999636E+03  0.52081577407E+03  0.18539180039E+04  0.25500000920E-02 0.  1.
</event>
<event>
 5   0  0.1021087E-07  0.3619631E+04  0.7818609E-02  0.8086010E-01
        2   -1    0    0  501    0  0.00000000000E+00  0.00000000000E+00  0.22885565920E+04  0.22885565920E+04  0.25500000920E-02 0.  1.
       -2   -1    0    0    0  501  0.00000000000E+00  0.00000000000E+00 -0.14312217291E+04  0.14312217291E+04  0.25500000920E-02 0. -1.
    10030    2    1    2    0    0  0.00000000000E+00  0.00000000000E+00  0.85733486289E+03  0.37197783211E+04  0.36196308778E+04 0.  0.
        3    1    3    3  502    0 -0.25329039518E+03  0.16540623393E+03 -0.14050550978E+04  0.14372526168E+04  0.10100000352E+00 0. -1.
       -3    1    3    3    0  502  0.25329039518E+03 -0.16540623393E+03  0.22623899607E+04  0.22825257043E+04  0.10100000352E+00 0.  1.
</event>
<event>
 5   0  0.3202875E-08  0.3604548E+04  0.7818609E-02  0.8089451E-01
       -1   -1    0    0    0  501  0.00000000000E+00  0.00000000000E+00  0.26416368419E+04  0.26416368419E+04  0.50400001928E-02 0. -1.
        1   -1    0    0  501    0  0.00000000000E+00  0.00000000000E+00 -0.12296133225E+04  0.12296133225E+04  0.50400001928E-02 0.  1.
    10030    2    1    2    0    0  0.00000000000E+00  0.00000000000E+00  0.14120235194E+04  0.38712501644E+04  0.36045481570E+04 0.  0.
        1    1    3    3  502    0 -0.14803174504E+04 -0.98860834293E+03  0.10088421007E+04  0.20460812774E+04  0.50400001928E-02 0.  1.
       -1    1    3    3    0  502  0.14803174504E+04  0.98860834293E+03  0.40318141868E+03  0.18251688870E+04  0.50400001928E-02 0. -1.
</event>
<event>
 5   0  0.3202875E-08  0.3597405E+04  0.7818609E-02  0.8091086E-01
        1   -1    0    0  501    0  0.00000000000E+00  0.00000000000E+00  0.15944999675E+04  0.15944999675E+04  0.50400001928E-02 0.  1.
       -1   -1    0    0    0  501  0.00000000000E+00  0.00000000000E+00 -0.20290563479E+04  0.20290563479E+04  0.50400001928E-02 0. -1.
    10030    2    1    2    0    0  0.00000000000E+00  0.00000000000E+00 -0.43455638039E+03  0.36235563154E+04  0.35974047761E+04 0.  0.
        2    1    3    3  502    0 -0.44853613652E+03  0.15333361013E+04 -0.10497400236E+04  0.19116114623E+04  0.25500000920E-02 0. -1.
       -2    1    3    3    0  502  0.44853613652E+03 -0.15333361013E+04  0.61518364325E+03  0.17119448532E+04  0.25500000920E-02 0.  1.
</event>
<event>
 5   0  0.3202875E-08  0.3566261E+04  0.7818609E-02  0.8098264E-01
       -1   -1    0    0    0  501  0.00000000000E+00  0.00000000000E+00  0.20644696303E+04  0.20644696303E+04  0.50400001928E-02 0.  1.
        1   -1    0    0  501    0  0.00000000000E+00  0.00000000000E+00 -0.15401310856E+04  0.15401310857E+04  0.50400001928E-02 0. -1.
    10030    2    1    2    0    0  0.00000000000E+00  0.00000000000E+00  0.52433854466E+03  0.36046007160E+04  0.35662607044E+04 0.  0.
        2    1    3    3  502    0  0.87306948703E+03  0.71618377532E+03 -0.11326610351E+04  0.15994031854E+04  0.25500000920E-02 0. -1.
       -2    1    3    3    0  502 -0.87306948703E+03 -0.71618377532E+03  0.16569995797E+04  0.20051975305E+04  0.25500000920E-02 0.  1.
</event>
<event>
 5   0  0.1021087E-07  0.3615120E+04  0.7818609E-02  0.8087037E-01
        2   -1    0    0  501    0  0.00000000000E+00  0.00000000000E+00  0.18680982657E+04  0.18680982657E+04  0.25500000920E-02 0. -1.
       -2   -1    0    0    0  501  0.00000000000E+00  0.00000000000E+00 -0.17489834135E+04  0.17489834135E+04  0.25500000920E-02 0.  1.
    10030    2    1    2    0    0  0.00000000000E+00  0.00000000000E+00  0.11911485222E+03  0.36170816792E+04  0.36151198495E+04 0.  0.
        3    1    3    3  502    0  0.95698756567E+03  0.58323540731E+03  0.14785245376E+04  0.18552691341E+04  0.10100000352E+00 0. -1.
       -3    1    3    3    0  502 -0.95698756567E+03 -0.58323540731E+03 -0.13594096854E+04  0.17618125451E+04  0.10100000352E+00 0.  1.
</event>
<event>
 5   0  0.1044678E-07  0.3601636E+04  0.7818609E-02  0.8090117E-01
        2   -1    0    0  501    0  0.00000000000E+00  0.00000000000E+00  0.16827729485E+04  0.16827729485E+04  0.25500000920E-02 0. -1.
       -2   -1    0    0    0  501  0.00000000000E+00  0.00000000000E+00 -0.19271434580E+04  0.19271434580E+04  0.25500000920E-02 0.  1.
    10030    2    1    2    0    0  0.00000000000E+00  0.00000000000E+00 -0.24437050948E+03  0.36099164065E+04  0.36016356723E+04 0.  0.
        2    1    3    3  502    0  0.79546017362E+03 -0.13766829050E+04 -0.96966589477E+03  0.18623277521E+04  0.25500000920E-02 0.  1.
       -2    1    3    3    0  502 -0.79546017362E+03  0.13766829050E+04  0.72529538529E+03  0.17475886543E+04  0.25500000920E-02 0. -1.
</event>
<event>
 5   0  0.1044678E-07  0.3590503E+04  0.7818609E-02  0.8092671E-01
        2   -1    0    0  501    0  0.00000000000E+00  0.00000000000E+00  0.27072311390E+04  0.27072311390E+04  0.25500000920E-02 0.  1.
       -2   -1    0    0    0  501  0.00000000000E+00  0.00000000000E+00 -0.11904884155E+04  0.11904884155E+04  0.25500000920E-02 0. -1.
    10030    2    1    2    0    0  0.00000000000E+00  0.00000000000E+00  0.15167427235E+04  0.38977195545E+04  0.35905026440E+04 0.  0.
        2    1    3    3  502    0 -0.12135270106E+04  0.75817938117E+03  0.19353165071E+04  0.24068514209E+04  0.25500000920E-02 0.  1.
       -2    1    3    3    0  502  0.12135270106E+04 -0.75817938117E+03 -0.41857378358E+03  0.14908681336E+04  0.25500000920E-02 0. -1.
</event>
<event>
 5   0  0.3215494E-08  0.3604867E+04  0.7818609E-02  0.8089378E-01
       -1   -1    0    0    0  501  0.00000000000E+00  0.00000000000E+00  0.12007173935E+04  0.12007173935E+04  0.50400001928E-02 0. -1.
        1   -1    0    0  501    0  0.00000000000E+00  0.00000000000E+00 -0.27056885263E+04  0.27056885263E+04  0.50400001928E-02 0.  1.
    10030    2    1    2    0    0  0.00000000000E+00  0.00000000000E+00 -0.15049711328E+04  0.39064059198E+04  0.36048674178E+04 0.  0.
        4    1    3    3  502    0 -0.85282854105E+03 -0.10765669398E+04  0.51239290342E+03  0.14658993815E+04  0.12699999809E+01 0. -1.
       -4    1    3    3    0  502  0.85282854105E+03  0.10765669398E+04 -0.20173640362E+04  0.24405065383E+04  0.12699999809E+01 0.  1.
</event>
<event>
 5   0  0.1017794E-07  0.3602754E+04  0.7818609E-02  0.8089861E-01
        2   -1    0    0  501    0  0.00000000000E+00  0.00000000000E+00  0.15978259481E+04  0.15978259481E+04  0.25500000920E-02 0. -1.
       -2   -1    0    0    0  501  0.00000000000E+00  0.00000000000E+00 -0.20308589163E+04  0.20308589163E+04  0.25500000920E-02 0.  1.
    10030    2    1    2    0    0  0.00000000000E+00  0.00000000000E+00 -0.43303296824E+03  0.36286848644E+04  0.36027539874E+04 0.  0.
        1    1    3    3  502    0 -0.12240149832E+04  0.10956379173E+03  0.11100594480E+04  0.16560340822E+04  0.50400001928E-02 0. -1.
       -1    1    3    3    0  502  0.12240149832E+04 -0.10956379173E+03 -0.15430924162E+04  0.19726507822E+04  0.50400001928E-02 0.  1.
</event>
<event>
 5   0  0.1021087E-07  0.3589148E+04  0.7818609E-02  0.8092982E-01
        2   -1    0    0  501    0  0.00000000000E+00  0.00000000000E+00  0.22887426056E+04  0.22887426056E+04  0.25500000920E-02 0. -1.
       -2   -1    0    0    0  501  0.00000000000E+00  0.00000000000E+00 -0.14071026742E+04  0.14071026742E+04  0.25500000920E-02 0.  1.
    10030    2    1    2    0    0  0.00000000000E+00  0.00000000000E+00  0.88163993142E+03  0.36958452798E+04  0.35891479996E+04 0.  0.
        3    1    3    3  502    0  0.49524804386E+03  0.98780223858E+03  0.18968826506E+04  0.21952648332E+04  0.10100000352E+00 0. -1.
       -3    1    3    3    0  502 -0.49524804386E+03 -0.98780223858E+03 -0.10152427192E+04  0.15005804466E+04  0.10100000352E+00 0.  1.
</event>
<event>
 5   0  0.3202875E-08  0.3596989E+04  0.7818609E-02  0.8091182E-01
       -1   -1    0    0    0  501  0.00000000000E+00  0.00000000000E+00  0.15680271267E+04  0.15680271267E+04  0.50400001928E-02 0.  1.
        1   -1    0    0  501    0  0.00000000000E+00  0.00000000000E+00 -0.20628354848E+04  0.20628354848E+04  0.50400001928E-02 0. -1.
    10030    2    1    2    0    0  0.00000000000E+00  0.00000000000E+00 -0.49480835808E+03  0.36308626115E+04  0.35969887396E+04 0.  0.
        2    1    3    3  502    0 -0.13539957161E+04 -0.69394706437E+03  0.72064492915E+03  0.16835070660E+04  0.25500000920E-02 0.  1.
       -2    1    3    3    0  502  0.13539957161E+04  0.69394706437E+03 -0.12154532872E+04  0.19473555455E+04  0.25500000920E-02 0. -1.
</event>
<event>
 5   0  0.1021087E-07  0.3596702E+04  0.7818609E-02  0.8091247E-01
       -2   -1    0    0    0  501  0.00000000000E+00  0.00000000000E+00  0.17822685045E+04  0.17822685045E+04  0.25500000920E-02 0. -1.
        2   -1    0    0  501    0  0.00000000000E+00  0.00000000000E+00 -0.18145790676E+04  0.18145790676E+04  0.25500000920E-02 0.  1.
    10030    2    1    2    0    0  0.00000000000E+00  0.00000000000E+00 -0.32310563068E+02  0.35968475720E+04  0.35967024459E+04 0.  0.
        3    1    3    3  502    0  0.10426363829E+04  0.33645042421E+03 -0.14423185696E+04  0.18112350431E+04  0.10100000352E+00 0.  1.
       -3    1    3    3    0  502 -0.10426363829E+04 -0.33645042421E+03  0.14100080065E+04  0.17856125290E+04  0.10100000352E+00 0. -1.
</event>
<event>
 5   0  0.1044678E-07  0.3657922E+04  0.7818609E-02  0.8077351E-01
       -2   -1    0    0    0  501  0.00000000000E+00  0.00000000000E+00  0.24084094506E+04  0.24084094506E+04  0.25500000920E-02 0.  1.
        2   -1    0    0  501    0  0.00000000000E+00  0.00000000000E+00 -0.13889239692E+04  0.13889239692E+04  0.25500000920E-02 0. -1.
    10030    2    1    2    0    0  0.00000000000E+00  0.00000000000E+00  0.10194854814E+04  0.37973334198E+04  0.36579216030E+04 0.  0.
        2    1    3    3  502    0  0.93826775077E+03  0.42537230626E+03 -0.10590814927E+04  0.14774781146E+04  0.25500000920E-02 0. -1.
       -2    1    3    3    0  502 -0.93826775077E+03 -0.42537230626E+03  0.20785669741E+04  0.23198553051E+04  0.25500000920E-02 0.  1.
</event>
<event>
 5   0  0.9905335E-08  0.3603989E+04  0.7818609E-02  0.8089579E-01
       -2   -1    0    0    0  501  0.00000000000E+00  0.00000000000E+00  0.16719673263E+04  0.16719673263E+04  0.25500000920E-02 0. -1.
        2   -1    0    0  501    0  0.00000000000E+00  0.00000000000E+00 -0.19421334006E+04  0.19421334006E+04  0.25500000920E-02 0.  1.
    10030    2    1    2    0    0  0.00000000000E+00  0.00000000000E+00 -0.27016607428E+03  0.36141007268E+04  0.36039886731E+04 0.  0.
        5    1    3    3  502    0  0.13004341597E+04 -0.71587321515E+03 -0.11594961719E+04  0.18836286594E+04  0.46999998093E+01 0.  1.
       -5    1    3    3    0  502 -0.13004341597E+04  0.71587321515E+03  0.88933009758E+03  0.17304720675E+04  0.46999998093E+01 0. -1.
</event>
<event>
 5   0  0.3279988E-08  0.3597639E+04  0.7818609E-02  0.8091033E-01
        1   -1    0    0  501    0  0.00000000000E+00  0.00000000000E+00  0.15877348351E+04  0.15877348351E+04  0.50400001928E-02 0. -1.
       -1   -1    0    0    0  501  0.00000000000E+00  0.00000000000E+00 -0.20379677604E+04  0.20379677604E+04  0.50400001928E-02 0.  1.
    10030    2    1    2    0    0  0.00000000000E+00  0.00000000000E+00 -0.45023292524E+03  0.36257025955E+04  0.35976394517E+04 0.  0.
        5    1    3    3  502    0 -0.31402752146E+03  0.12021856347E+04  0.10857474741E+04  0.16500706810E+04  0.46999998093E+01 0. -1.
       -5    1    3    3    0  502  0.31402752146E+03 -0.12021856347E+04 -0.15359803994E+04  0.19756319146E+04  0.46999998093E+01 0.  1.
</event>
<event>
 5   0  0.3279988E-08  0.3525153E+04  0.7818609E-02  0.8107855E-01
        1   -1    0    0  501    0  0.00000000000E+00  0.00000000000E+00  0.24515683851E+04  0.24515683851E+04  0.50400001928E-02 0. -1.
       -1   -1    0    0    0  501  0.00000000000E+00  0.00000000000E+00 -0.12672195742E+04  0.12672195742E+04  0.50400001928E-02 0.  1.
    10030    2    1    2    0    0  0.00000000000E+00  0.00000000000E+00  0.11843488109E+04  0.37187879594E+04  0.35251527316E+04 0.  0.
        5    1    3    3  502    0  0.52748822903E+03 -0.57668590148E+03 -0.10744283682E+04  0.13286191588E+04  0.46999998093E+01 0.  1.
       -5    1    3    3    0  502 -0.52748822903E+03  0.57668590148E+03  0.22587771791E+04  0.23901688006E+04  0.46999998093E+01 0. -1.
</event>
<event>
 5   0  0.1017794E-07  0.3589573E+04  0.7818609E-02  0.8092884E-01
       -2   -1    0    0    0  501  0.00000000000E+00  0.00000000000E+00  0.13491308216E+04  0.13491308216E+04  0.25500000920E-02 0. -1.
        2   -1    0    0  501    0  0.00000000000E+00  0.00000000000E+00 -0.23876541365E+04  0.23876541365E+04  0.25500000920E-02 0.  1.
    10030    2    1    2    0    0  0.00000000000E+00  0.00000000000E+00 -0.10385233149E+04  0.37367849581E+04  0.35895725578E+04 0.  0.
        1    1    3    3  502    0  0.80857445732E+03 -0.19943689681E+03 -0.21743351375E+04  0.23283687464E+04  0.50400001928E-02 0.  1.
       -1    1    3    3    0  502 -0.80857445732E+03  0.19943689681E+03  0.11358118227E+04  0.14084162117E+04  0.50400001928E-02 0. -1.
</event>
<event>
 5   0  0.3215494E-08  0.3594706E+04  0.7818609E-02  0.8091705E-01
       -1   -1    0    0    0  501  0.00000000000E+00  0.00000000000E+00  0.16988266232E+04  0.16988266232E+04  0.50400001928E-02 0.  1.
        1   -1    0    0  501    0  0.00000000000E+00  0.00000000000E+00 -0.19015936531E+04  0.19015936531E+04  0.50400001928E-02 0. -1.
    10030    2    1    2    0    0  0.00000000000E+00  0.00000000000E+00 -0.20276702990E+03  0.36004202764E+04  0.35947060656E+04 0.  0.
        4    1    3    3  502    0  0.98472132882E+03  0.48118338833E+03 -0.15281699031E+04  0.18805633237E+04  0.12699999809E+01 0. -1.
       -4    1    3    3    0  502 -0.98472132882E+03 -0.48118338833E+03  0.13254028732E+04  0.17198569527E+04  0.12699999809E+01 0.  1.
</event>
<event>
 5   0  0.1044678E-07  0.3583466E+04  0.7818609E-02  0.8094290E-01
       -2   -1    0    0    0  501  0.00000000000E+00  0.00000000000E+00  0.13070187746E+04  0.13070187746E+04  0.25500000920E-02 0.  1.
        2   -1    0    0  501    0  0.00000000000E+00  0.00000000000E+00 -0.24562059095E+04  0.24562059096E+04  0.25500000920E-02 0. -1.
    10030    2    1    2    0    0  0.00000000000E+00  0.00000000000E+00 -0.11491871349E+04  0.37632246842E+04  0.35834660529E+04 0.  0.
        2    1    3    3  502    0  0.16023211486E+04 -0.44503042794E+03 -0.12749998431E+04  0.20954974934E+04  0.25500000920E-02 0. -1.
       -2    1    3    3    0  502 -0.16023211486E+04  0.44503042794E+03  0.12581270813E+03  0.16677271907E+04  0.25500000920E-02 0.  1.
</event>
<event>
 5   0  0.3202875E-08  0.3589161E+04  0.7818609E-02  0.8092979E-01
        1   -1    0    0  501    0  0.00000000000E+00  0.00000000000E+00  0.23674909228E+04  0.23674909228E+04  0.50400001928E-02 0. -1.
       -1   -1    0    0    0  501  0.00000000000E+00  0.00000000000E+00 -0.13603092354E+04  0.13603092354E+04  0.50400001928E-02 0.  1.
    10030    2    1    2    0    0  0.00000000000E+00  0.00000000000E+00  0.10071816874E+04  0.37278001582E+04  0.35891613321E+04 0.  0.
        1    1    3    3  502    0 -0.41376410870E+03  0.44923445139E+03 -0.12490465592E+04  0.13903703237E+04  0.50400001928E-02 0.  1.
       -1    1    3    3    0  502  0.41376410870E+03 -0.44923445139E+03  0.22562282467E+04  0.23374298345E+04  0.50400001928E-02 0. -1.
</event>
<event>
 5   0  0.1029908E-07  0.3613785E+04  0.7818609E-02  0.8087341E-01
        2   -1    0    0  501    0  0.00000000000E+00  0.00000000000E+00  0.24244067811E+04  0.24244067811E+04  0.25500000920E-02 0.  1.
       -2   -1    0    0    0  501  0.00000000000E+00  0.00000000000E+00 -0.13466634477E+04  0.13466634477E+04  0.25500000920E-02 0. -1.
    10030    2    1    2    0    0  0.00000000000E+00  0.00000000000E+00  0.10777433335E+04  0.37710702288E+04  0.36137847166E+04 0.  0.
        4    1    3    3  502    0  0.12779719140E+04 -0.14434804158E+03  0.18632878434E+04  0.22640432350E+04  0.12699999809E+01 0.  1.
       -4    1    3    3    0  502 -0.12779719140E+04  0.14434804158E+03 -0.78554450988E+03  0.15070269938E+04  0.12699999809E+01 0. -1.
</event>
<event>
 5   0  0.3215494E-08  0.3599786E+04  0.7818609E-02  0.8090541E-01
       -1   -1    0    0    0  501  0.00000000000E+00  0.00000000000E+00  0.11700099449E+04  0.11700099449E+04  0.50400001928E-02 0. -1.
        1   -1    0    0  501    0  0.00000000000E+00  0.00000000000E+00 -0.27688782177E+04  0.27688782177E+04  0.50400001928E-02 0.  1.
    10030    2    1    2    0    0  0.00000000000E+00  0.00000000000E+00 -0.15988682729E+04  0.39388881626E+04  0.35997861330E+04 0.  0.
        4    1    3    3  502    0  0.15300407733E+04  0.36165913481E+03 -0.17582132290E+04  0.23586304223E+04  0.12699999809E+01 0.  1.
       -4    1    3    3    0  502 -0.15300407733E+04 -0.36165913481E+03  0.15934495611E+03  0.15802577403E+04  0.12699999809E+01 0. -1.
</event>
<event>
 5   0  0.3202875E-08  0.3599831E+04  0.7818609E-02  0.8090530E-01
        4   -1    0    0  501    0  0.00000000000E+00  0.00000000000E+00  0.24076188328E+04  0.24076191677E+04  0.12699999809E+01 0. -1.
       -4   -1    0    0    0  501  0.00000000000E+00  0.00000000000E+00 -0.13456009612E+04  0.13456015605E+04  0.12699999809E+01 0.  1.
    10030    2    1    2    0    0  0.00000000000E+00  0.00000000000E+00  0.10620178715E+04  0.37532207283E+04  0.35998310899E+04 0.  0.
        2    1    3    3  502    0  0.30000852713E+03  0.71632099203E+03  0.22239508402E+04  0.23556481528E+04  0.25500000920E-02 0. -1.
       -2    1    3    3    0  502 -0.30000852713E+03 -0.71632099203E+03 -0.11619329687E+04  0.13975725755E+04  0.25500000920E-02 0.  1.
</event>
<event>
 5   0  0.3215494E-08  0.3607352E+04  0.7818609E-02  0.8088810E-01
        1   -1    0    0  501    0  0.00000000000E+00  0.00000000000E+00  0.21302114932E+04  0.21302114932E+04  0.50400001928E-02 0.  1.
       -1   -1    0    0    0  501  0.00000000000E+00  0.00000000000E+00 -0.15271945403E+04  0.15271945403E+04  0.50400001928E-02 0. -1.
    10030    2    1    2    0    0  0.00000000000E+00  0.00000000000E+00  0.60301695286E+03  0.36574060335E+04  0.36073521381E+04 0.  0.
        4    1    3    3  502    0 -0.14185344565E+04 -0.84183542961E+03 -0.43821697677E+03  0.17067403512E+04  0.12699999809E+01 0. -1.
       -4    1    3    3    0  502  0.14185344565E+04  0.84183542961E+03  0.10412339296E+04  0.19506656823E+04  0.12699999809E+01 0.  1.
</event>
<event>
 5   0  0.3279988E-08  0.3603965E+04  0.7818609E-02  0.8089584E-01
        1   -1    0    0  501    0  0.00000000000E+00  0.00000000000E+00  0.23301680712E+04  0.23301680712E+04  0.50400001928E-02 0. -1.
       -1   -1    0    0    0  501  0.00000000000E+00  0.00000000000E+00 -0.13935223765E+04  0.13935223765E+04  0.50400001928E-02 0.  1.
    10030    2    1    2    0    0  0.00000000000E+00  0.00000000000E+00  0.93664569469E+03  0.37236904477E+04  0.36039652319E+04 0.  0.
        5    1    3    3  502    0  0.63527015225E+03 -0.16812073111E+04  0.33323913121E+03  0.18278666795E+04  0.46999998093E+01 0. -1.
       -5    1    3    3    0  502 -0.63527015225E+03  0.16812073111E+04  0.60340656348E+03  0.18958237682E+04  0.46999998093E+01 0.  1.
</event>
<event>
 5   0  0.1017794E-07  0.3605013E+04  0.7818609E-02  0.8089344E-01
       -2   -1    0    0    0  501  0.00000000000E+00  0.00000000000E+00  0.15557709222E+04  0.15557709222E+04  0.25500000920E-02 0. -1.
        2   -1    0    0  501    0  0.00000000000E+00  0.00000000000E+00 -0.20883724528E+04  0.20883724528E+04  0.25500000920E-02 0.  1.
    10030    2    1    2    0    0  0.00000000000E+00  0.00000000000E+00 -0.53260153057E+03  0.36441433750E+04  0.36050126972E+04 0.  0.
        1    1    3    3  502    0 -0.16534426935E+04 -0.12826924002E+03  0.44755393035E+03  0.17177398695E+04  0.50400001928E-02 0. -1.
       -1    1    3    3    0  502  0.16534426935E+04  0.12826924002E+03 -0.98015546092E+03  0.19264035055E+04  0.50400001928E-02 0.  1.
</event>
<event>
 5   0  0.3279988E-08  0.3604962E+04  0.7818609E-02  0.8089356E-01
        1   -1    0    0  501    0  0.00000000000E+00  0.00000000000E+00  0.12379019037E+04  0.12379019037E+04  0.50400001928E-02 0.  1.
       -1   -1    0    0    0  501  0.00000000000E+00  0.00000000000E+00 -0.26245520050E+04  0.26245520050E+04  0.50400001928E-02 0. -1.
    10030    2    1    2    0    0  0.00000000000E+00  0.00000000000E+00 -0.13866501013E+04  0.38624539088E+04  0.36049620933E+04 0.  0.
        5    1    3    3  502    0 -0.12278232351E+04  0.76951117025E+03 -0.18419120890E+04  0.23435783690E+04  0.46999998093E+01 0. -1.
       -5    1    3    3    0  502  0.12278232351E+04 -0.76951117025E+03  0.45526198773E+03  0.15188755398E+04  0.46999998093E+01 0.  1.
</event>
<event>
 5   0  0.1017794E-07  0.3612939E+04  0.7818609E-02  0.8087534E-01
        2   -1    0    0  501    0  0.00000000000E+00  0.00000000000E+00  0.13980609113E+04  0.13980609113E+04  0.25500000920E-02 0. -1.
       -2   -1    0    0    0  501  0.00000000000E+00  0.00000000000E+00 -0.23341843275E+04  0.23341843275E+04  0.25500000920E-02 0.  1.
    10030    2    1    2    0    0  0.00000000000E+00  0.00000000000E+00 -0.93612341616E+03  0.37322452388E+04  0.36129388968E+04 0.  0.
        1    1    3    3  502    0 -0.16161970955E+04 -0.34998143782E+03 -0.12192269594E+04  0.20545302229E+04  0.50400001928E-02 0.  1.
       -1    1    3    3    0  502  0.16161970955E+04  0.34998143782E+03  0.28310354323E+03  0.16777150159E+04  0.50400001928E-02 0. -1.
</event>
<event>
 5   0  0.3212523E-08  0.3588501E+04  0.7818609E-02  0.8093131E-01
        1   -1    0    0  501    0  0.00000000000E+00  0.00000000000E+00  0.11454935690E+04  0.11454935690E+04  0.50400001928E-02 0. -1.
       -1   -1    0    0    0  501  0.00000000000E+00  0.00000000000E+00 -0.28104339369E+04  0.28104339369E+04  0.50400001928E-02 0.  1.
    10030    2    1    2    0    0  0.00000000000E+00  0.00000000000E+00 -0.16649403680E+04  0.39559275059E+04  0.35885005230E+04 0.  0.
        3    1    3    3  502    0  0.60319900816E+03  0.61936936456E+03 -0.25656667491E+04  0.27074182039E+04  0.10100000352E+00 0.  1.
       -3    1    3    3    0  502 -0.60319900816E+03 -0.61936936456E+03  0.90072638118E+03  0.12485093020E+04  0.10100000352E+00 0. -1.
</event>
<event>
 5   0  0.3279988E-08  0.3601843E+04  0.7818609E-02  0.8090070E-01
       -1   -1    0    0    0  501  0.00000000000E+00  0.00000000000E+00  0.15783860497E+04  0.15783860497E+04  0.50400001928E-02 0.  1.
        1   -1    0    0  501    0  0.00000000000E+00  0.00000000000E+00 -0.20548317893E+04  0.20548317893E+04  0.50400001928E-02 0. -1.
    10030    2    1    2    0    0  0.00000000000E+00  0.00000000000E+00 -0.47644573961E+03  0.36332178390E+04  0.36018427676E+04 0.  0.
        5    1    3    3  502    0  0.52577522065E+03 -0.16895705470E+04  0.99668950684E+02  0.17722991298E+04  0.46999998093E+01 0.  1.
       -5    1    3    3    0  502 -0.52577522065E+03  0.16895705470E+04 -0.57611469029E+03  0.18609187092E+04  0.46999998093E+01 0. -1.
</event>
<event>
 5   0  0.1029908E-07  0.3592965E+04  0.7818609E-02  0.8092105E-01
        2   -1    0    0  501    0  0.00000000000E+00  0.00000000000E+00  0.16696926817E+04  0.16696926817E+04  0.25500000920E-02 0. -1.
       -2   -1    0    0    0  501  0.00000000000E+00  0.00000000000E+00 -0.19329007496E+04  0.19329007496E+04  0.25500000920E-02 0.  1.
    10030    2    1    2    0    0  0.00000000000E+00  0.00000000000E+00 -0.26320806788E+03  0.36025934313E+04  0.35929654805E+04 0.  0.
        4    1    3    3  502    0 -0.11603910769E+04  0.13714375208E+04 -0.13105629831E+03  0.18012566977E+04  0.12699999809E+01 0. -1.
       -4    1    3    3    0  502  0.11603910769E+04 -0.13714375208E+04 -0.13215176956E+03  0.18013367336E+04  0.12699999809E+01 0.  1.
</event>
<event>
 5   0  0.1044678E-07  0.3605091E+04  0.7818609E-02  0.8089327E-01
        2   -1    0    0  501    0  0.00000000000E+00  0.00000000000E+00  0.19849818063E+04  0.19849818063E+04  0.25500000920E-02 0. -1.
       -2   -1    0    0    0  501  0.00000000000E+00  0.00000000000E+00 -0.16368762307E+04  0.16368762307E+04  0.25500000920E-02 0.  1.
    10030    2    1    2    0    0  0.00000000000E+00  0.00000000000E+00  0.34810557557E+03  0.36218580370E+04  0.36050905881E+04 0.  0.
        2    1    3    3  502    0  0.99857685812E+01  0.10398237095E+04  0.16532582476E+04  0.19530990491E+04  0.25500000920E-02 0. -1.
       -2    1    3    3    0  502 -0.99857685812E+01 -0.10398237095E+04 -0.13051526720E+04  0.16687589879E+04  0.25500000920E-02 0.  1.
</event>
<event>
 5   0  0.3202875E-08  0.3597209E+04  0.7818609E-02  0.8091131E-01
        1   -1    0    0  501    0  0.00000000000E+00  0.00000000000E+00  0.16672127121E+04  0.16672127121E+04  0.50400001928E-02 0.  1.
       -1   -1    0    0    0  501  0.00000000000E+00  0.00000000000E+00 -0.19403508648E+04  0.19403508648E+04  0.50400001928E-02 0. -1.
    10030    2    1    2    0    0  0.00000000000E+00  0.00000000000E+00 -0.27313815269E+03  0.36075635769E+04  0.35972087111E+04 0.  0.
        1    1    3    3  502    0  0.15853442305E+04  0.57174993273E+02 -0.98658917969E+03  0.18681390522E+04  0.50400001928E-02 0. -1.
       -1    1    3    3    0  502 -0.15853442305E+04 -0.57174993273E+02  0.71345102700E+03  0.17394245247E+04  0.50400001928E-02 0.  1.
</event>
<event>
 5   0  0.9905335E-08  0.3610566E+04  0.7818609E-02  0.8088076E-01
        2   -1    0    0  501    0  0.00000000000E+00  0.00000000000E+00  0.12675878251E+04  0.12675878251E+04  0.25500000920E-02 0. -1.
       -2   -1    0    0    0  501  0.00000000000E+00  0.00000000000E+00 -0.25710618121E+04  0.25710618121E+04  0.25500000920E-02 0.  1.
    10030    2    1    2    0    0  0.00000000000E+00  0.00000000000E+00 -0.13034739870E+04  0.38386496373E+04  0.36105659671E+04 0.  0.
        5    1    3    3  502    0  0.36689978391E+02 -0.15704839618E+04 -0.15974566017E+04  0.22404588175E+04  0.46999998093E+01 0.  1.
       -5    1    3    3    0  502 -0.36689978391E+02  0.15704839618E+04  0.29398261467E+03  0.15981908198E+04  0.46999998093E+01 0. -1.
</event>
<event>
 5   0  0.3202875E-08  0.3596823E+04  0.7818609E-02  0.8091220E-01
        1   -1    0    0  501    0  0.00000000000E+00  0.00000000000E+00  0.14771342502E+04  0.14771342502E+04  0.50400001928E-02 0. -1.
       -1   -1    0    0    0  501  0.00000000000E+00  0.00000000000E+00 -0.21895672433E+04  0.21895672434E+04  0.50400001928E-02 0.  1.
    10030    2    1    2    0    0  0.00000000000E+00  0.00000000000E+00 -0.71243299311E+03  0.36667014936E+04  0.35968234699E+04 0.  0.
        1    1    3    3  502    0  0.13380393825E+04  0.78820012411E+03 -0.12808525662E+04  0.20130057429E+04  0.50400001928E-02 0.  1.
       -1    1    3    3    0  502 -0.13380393825E+04 -0.78820012411E+03  0.56841957307E+03  0.16536957507E+04  0.50400001928E-02 0. -1.
</event>
<event>
 5   0  0.1029908E-07  0.3608292E+04  0.7818609E-02  0.8088595E-01
       -2   -1    0    0    0  501  0.00000000000E+00  0.00000000000E+00  0.14645603951E+04  0.14645603951E+04  0.25500000920E-02 0.  1.
        2   -1    0    0  501    0  0.00000000000E+00  0.00000000000E+00 -0.22224704365E+04  0.22224704365E+04  0.25500000920E-02 0. -1.
    10030    2    1    2    0    0  0.00000000000E+00  0.00000000000E+00 -0.75791004145E+03  0.36870308316E+04  0.36082916626E+04 0.  0.
        4    1    3    3  502    0  0.82449155299E+03  0.52579301068E+03  0.11702749868E+04  0.15250540216E+04  0.12699999809E+01 0.  1.
       -4    1    3    3    0  502 -0.82449155299E+03 -0.52579301068E+03 -0.19281850283E+04  0.21619768100E+04  0.12699999809E+01 0. -1.
</event>
<event>
 5   0  0.3215494E-08  0.3572481E+04  0.7818609E-02  0.8096824E-01
       -1   -1    0    0    0  501  0.00000000000E+00  0.00000000000E+00  0.18703966051E+04  0.18703966051E+04  0.50400001928E-02 0. -1.
        1   -1    0    0  501    0  0.00000000000E+00  0.00000000000E+00 -0.17058713459E+04  0.17058713459E+04  0.50400001928E-02 0.  1.
    10030    2    1    2    0    0  0.00000000000E+00  0.00000000000E+00  0.16452525925E+03  0.35762679510E+04  0.35724814760E+04 0.  0.
        4    1    3    3  502    0 -0.85969327351E+03 -0.10441392963E+04 -0.10857452033E+04  0.17344000847E+04  0.12699999809E+01 0.  1.
       -4    1    3    3    0  502  0.85969327351E+03  0.10441392963E+04  0.12502704625E+04  0.18418678663E+04  0.12699999809E+01 0. -1.
</event>
<event>
 5   0  0.3202875E-08  0.3602865E+04  0.7818609E-02  0.8089836E-01
       -1   -1    0    0    0  501  0.00000000000E+00  0.00000000000E+00  0.19511483197E+04  0.19511483197E+04  0.50400001928E-02 0. -1.
        1   -1    0    0  501    0  0.00000000000E+00  0.00000000000E+00 -0.16632043634E+04  0.16632043635E+04  0.50400001928E-02 0.  1.
    10030    2    1    2    0    0  0.00000000000E+00  0.00000000000E+00  0.28794395620E+03  0.36143526831E+04  0.36028646375E+04 0.  0.
        2    1    3    3  502    0 -0.10880829947E+04 -0.74354437378E+03 -0.10881035341E+04  0.17090208132E+04  0.25500000920E-02 0.  1.
       -2    1    3    3    0  502  0.10880829947E+04  0.74354437378E+03  0.13760474903E+04  0.19053318699E+04  0.25500000920E-02 0. -1.
</event>
<event>
 5   0  0.1044678E-07  0.3610578E+04  0.7818609E-02  0.8088073E-01
        2   -1    0    0  501    0  0.00000000000E+00  0.00000000000E+00  0.23561025493E+04  0.23561025493E+04  0.25500000920E-02 0. -1.
       -2   -1    0    0    0  501  0.00000000000E+00  0.00000000000E+00 -0.13832454919E+04  0.13832454919E+04  0.25500000920E-02 0.  1.
    10030    2    1    2    0    0  0.00000000000E+00  0.00000000000E+00  0.97285705740E+03  0.37393480413E+04  0.36105779204E+04 0.  0.
        2    1    3    3  502    0 -0.54951456060E+03  0.16641132054E+04  0.37579033127E+02  0.17528979424E+04  0.25500000920E-02 0.  1.
       -2    1    3    3    0  502  0.54951456060E+03 -0.16641132054E+04  0.93527802427E+03  0.19864500989E+04  0.25500000920E-02 0. -1.
</event>
<event>
 5   0  0.3202875E-08  0.3597564E+04  0.7818609E-02  0.8091050E-01
        3   -1    0    0  501    0  0.00000000000E+00  0.00000000000E+00  0.23666083258E+04  0.23666083279E+04  0.10100000352E+00 0. -1.
       -3   -1    0    0    0  501  0.00000000000E+00  0.00000000000E+00 -0.13671954715E+04  0.13671954752E+04  0.10100000352E+00 0.  1.
    10030    2    1    2    0    0  0.00000000000E+00  0.00000000000E+00  0.99941285429E+03  0.37338038031E+04  0.35975637294E+04 0.  0.
        2    1    3    3  502    0  0.36887283569E+03 -0.13524214432E+04 -0.67014641022E+03  0.15537719073E+04  0.25500000920E-02 0.  1.
       -2    1    3    3    0  502 -0.36887283569E+03  0.13524214432E+04  0.16695592645E+04  0.21800318958E+04  0.25500000920E-02 0. -1.
</event>
<event>
 5   0  0.3202875E-08  0.3597420E+04  0.7818609E-02  0.8091083E-01
       -1   -1    0    0    0  501  0.00000000000E+00  0.00000000000E+00  0.14651880400E+04  0.14651880400E+04  0.50400001928E-02 0. -1.
        1   -1    0    0  501    0  0.00000000000E+00  0.00000000000E+00 -0.22081521517E+04  0.22081521517E+04  0.50400001928E-02 0.  1.
    10030    2    1    2    0    0  0.00000000000E+00  0.00000000000E+00 -0.74296411170E+03  0.36733401917E+04  0.35974202553E+04 0.  0.
        1    1    3    3  502    0 -0.73515162884E+03  0.14968853116E+04 -0.10596823394E+04  0.19758644219E+04  0.50400001928E-02 0. -1.
       -1    1    3    3    0  502  0.73515162884E+03 -0.14968853116E+04  0.31671822768E+03  0.16974757698E+04  0.50400001928E-02 0.  1.
</event>
<event>
 5   0  0.3279988E-08  0.3661361E+04  0.7818609E-02  0.8076579E-01
        1   -1    0    0  501    0  0.00000000000E+00  0.00000000000E+00  0.21353703181E+04  0.21353703181E+04  0.50400001928E-02 0. -1.
       -1   -1    0    0    0  501  0.00000000000E+00  0.00000000000E+00 -0.15694658050E+04  0.15694658050E+04  0.50400001928E-02 0.  1.
    10030    2    1    2    0    0  0.00000000000E+00  0.00000000000E+00  0.56590451311E+03  0.37048361230E+04  0.36613607826E+04 0.  0.
        5    1    3    3  502    0 -0.33533795324E+03 -0.53491200889E+03  0.20217236186E+04  0.21180110671E+04  0.46999998093E+01 0. -1.
       -5    1    3    3    0  502  0.33533795324E+03  0.53491200889E+03 -0.14558191055E+04  0.15868250559E+04  0.46999998093E+01 0.  1.
</event>
<event>
 5   0  0.1044678E-07  0.3597625E+04  0.7818609E-02  0.8091036E-01
        2   -1    0    0  501    0  0.00000000000E+00  0.00000000000E+00  0.19710356864E+04  0.19710356864E+04  0.25500000920E-02 0. -1.
       -2   -1    0    0    0  501  0.00000000000E+00  0.00000000000E+00 -0.16416380543E+04  0.16416380543E+04  0.25500000920E-02 0.  1.
    10030    2    1    2    0    0  0.00000000000E+00  0.00000000000E+00  0.32939763205E+03  0.36126737407E+04  0.35976254330E+04 0.  0.
        2    1    3    3  502    0 -0.15801310903E+04 -0.85907843460E+03  0.19477689812E+03  0.18090793402E+04  0.25500000920E-02 0. -1.
       -2    1    3    3    0  502  0.15801310903E+04  0.85907843460E+03  0.13462073392E+03  0.18035944004E+04  0.25500000920E-02 0.  1.
</event>
<event>
 5   0  0.1044678E-07  0.3599511E+04  0.7818609E-02  0.8090604E-01
       -2   -1    0    0    0  501  0.00000000000E+00  0.00000000000E+00  0.30337634251E+04  0.30337634251E+04  0.25500000920E-02 0. -1.
        2   -1    0    0  501    0  0.00000000000E+00  0.00000000000E+00 -0.10676903985E+04  0.10676903985E+04  0.25500000920E-02 0.  1.
    10030    2    1    2    0    0  0.00000000000E+00  0.00000000000E+00  0.19660730266E+04  0.41014538237E+04  0.35995111226E+04 0.  0.
        2    1    3    3  502    0 -0.30265500883E+03 -0.15978107359E+04  0.10446349441E+03  0.16295741234E+04  0.25500000920E-02 0.  1.
       -2    1    3    3    0  502  0.30265500883E+03  0.15978107359E+04  0.18616095322E+04  0.24718797002E+04  0.25500000920E-02 0. -1.
</event>
<event>
 5   0  0.3202875E-08  0.3603902E+04  0.7818609E-02  0.8089599E-01
        1   -1    0    0  501    0  0.00000000000E+00  0.00000000000E+00  0.20974230601E+04  0.20974230601E+04  0.50400001928E-02 0.  1.
       -1   -1    0    0    0  501  0.00000000000E+00  0.00000000000E+00 -0.15481029631E+04  0.15481029631E+04  0.50400001928E-02 0. -1.
    10030    2    1    2    0    0  0.00000000000E+00  0.00000000000E+00  0.54932009700E+03  0.36455260232E+04  0.36039016936E+04 0.  0.
        1    1    3    3  502    0 -0.59977046235E+03 -0.14686838086E+04 -0.58976836109E+03  0.16925080375E+04  0.50400001928E-02 0.  1.
       -1    1    3    3    0  502  0.59977046235E+03  0.14686838086E+04  0.11390884581E+04  0.19530179857E+04  0.50400001928E-02 0. -1.
</event>
<event>
 5   0  0.1021087E-07  0.3604619E+04  0.7818609E-02  0.8089435E-01
        2   -1    0    0  501    0  0.00000000000E+00  0.00000000000E+00  0.18424051959E+04  0.18424051959E+04  0.25500000920E-02 0. -1.
       -2   -1    0    0    0  501  0.00000000000E+00  0.00000000000E+00 -0.17630859778E+04  0.17630859778E+04  0.25500000920E-02 0.  1.
    10030    2    1    2    0    0  0.00000000000E+00  0.00000000000E+00  0.79319218091E+02  0.36054911737E+04  0.36046185742E+04 0.  0.
        3    1    3    3  502    0 -0.27501219423E+03 -0.62123877504E+03  0.17094197174E+04  0.18394795739E+04  0.10100000352E+00 0. -1.
       -3    1    3    3    0  502  0.27501219423E+03  0.62123877504E+03 -0.16301004993E+04  0.17660115998E+04  0.10100000352E+00 0.  1.
</event>
<event>
 5   0  0.1021087E-07  0.3604042E+04  0.7818609E-02  0.8089566E-01
       -2   -1    0    0    0  501  0.00000000000E+00  0.00000000000E+00  0.13810512257E+04  0.13810512257E+04  0.25500000920E-02 0. -1.
        2   -1    0    0  501    0  0.00000000000E+00  0.00000000000E+00 -0.23513100352E+04  0.23513100352E+04  0.25500000920E-02 0.  1.
    10030    2    1    2    0    0  0.00000000000E+00  0.00000000000E+00 -0.97025880955E+03  0.37323612609E+04  0.36040419566E+04 0.  0.
        3    1    3    3  502    0 -0.16601868884E+04 -0.57182984772E+03 -0.65652505212E+02  0.17571340702E+04  0.10100000352E+00 0.  1.
       -3    1    3    3    0  502  0.16601868884E+04  0.57182984772E+03 -0.90460630434E+03  0.19752271907E+04  0.10100000352E+00 0. -1.
</event>
<event>
 5   0  0.1029908E-07  0.3596478E+04  0.7818609E-02  0.8091299E-01
        2   -1    0    0  501    0  0.00000000000E+00  0.00000000000E+00  0.16439104828E+04  0.16439104828E+04  0.25500000920E-02 0.  1.
       -2   -1    0    0    0  501  0.00000000000E+00  0.00000000000E+00 -0.19670555161E+04  0.19670555161E+04  0.25500000920E-02 0. -1.
    10030    2    1    2    0    0  0.00000000000E+00  0.00000000000E+00 -0.32314503327E+03  0.36109659989E+04  0.35964778232E+04 0.  0.
        4    1    3    3  502    0  0.48474944262E+03 -0.74164553234E+03 -0.17326898177E+04  0.19460821501E+04  0.12699999809E+01 0. -1.
       -4    1    3    3    0  502 -0.48474944262E+03  0.74164553234E+03  0.14095447844E+04  0.16648838488E+04  0.12699999809E+01 0.  1.
</event>
<event>
 5   0  0.3215494E-08  0.3605550E+04  0.7818609E-02  0.8089221E-01
        1   -1    0    0  501    0  0.00000000000E+00  0.00000000000E+00  0.25669820483E+04  0.25669820483E+04  0.50400001928E-02 0.  1.
       -1   -1    0    0    0  501  0.00000000000E+00  0.00000000000E+00 -0.12660775564E+04  0.12660775564E+04  0.50400001928E-02 0. -1.
    10030    2    1    2    0    0  0.00000000000E+00  0.00000000000E+00  0.13009044919E+04  0.38330596046E+04  0.36055503652E+04 0.  0.
        4    1    3    3  502    0  0.95818637012E+03 -0.19792392432E+03  0.22601627834E+04  0.24628504664E+04  0.12699999809E+01 0.  1.
       -4    1    3    3    0  502 -0.95818637012E+03  0.19792392432E+03 -0.95925829150E+03  0.13702091382E+04  0.12699999809E+01 0. -1.
</event>
<event>
 5   0  0.3215494E-08  0.3624184E+04  0.7818609E-02  0.8084974E-01
        1   -1    0    0  501    0  0.00000000000E+00  0.00000000000E+00  0.13108478629E+04  0.13108478630E+04  0.50400001928E-02 0.  1.
       -1   -1    0    0    0  501  0.00000000000E+00  0.00000000000E+00 -0.25050031337E+04  0.25050031337E+04  0.50400001928E-02 0. -1.
    10030    2    1    2    0    0  0.00000000000E+00  0.00000000000E+00 -0.11941552708E+04  0.38158509967E+04  0.36241843245E+04 0.  0.
        4    1    3    3  502    0 -0.42326988985E+03 -0.12011876271E+04  0.76015146829E+03  0.14831860918E+04  0.12699999809E+01 0.  1.
       -4    1    3    3    0  502  0.42326988985E+03  0.12011876271E+04 -0.19543067391E+04  0.23326649049E+04  0.12699999809E+01 0. -1.
</event>
<event>
 5   0  0.9905335E-08  0.3596064E+04  0.7818609E-02  0.8091394E-01
       -2   -1    0    0    0  501  0.00000000000E+00  0.00000000000E+00  0.14658227607E+04  0.14658227607E+04  0.25500000920E-02 0.  1.
        2   -1    0    0  501    0  0.00000000000E+00  0.00000000000E+00 -0.22055320125E+04  0.22055320125E+04  0.25500000920E-02 0. -1.
    10030    2    1    2    0    0  0.00000000000E+00  0.00000000000E+00 -0.73970925180E+03  0.36713547732E+04  0.35960639724E+04 0.  0.
        5    1    3    3  502    0  0.14182608457E+04  0.17308096907E+03 -0.14842559244E+04  0.20602083845E+04  0.46999998093E+01 0. -1.
       -5    1    3    3    0  502 -0.14182608457E+04 -0.17308096907E+03  0.74454667262E+03  0.16111463887E+04  0.46999998093E+01 0.  1.
</event>
<event>
 5   0  0.3215494E-08  0.3582049E+04  0.7818609E-02  0.8094616E-01
        1   -1    0    0  501    0  0.00000000000E+00  0.00000000000E+00  0.11019586603E+04  0.11019586603E+04  0.50400001928E-02 0.  1.
       -1   -1    0    0    0  501  0.00000000000E+00  0.00000000000E+00 -0.29109695978E+04  0.29109695978E+04  0.50400001928E-02 0. -1.
    10030    2    1    2    0    0  0.00000000000E+00  0.00000000000E+00 -0.18090109376E+04  0.40129282581E+04  0.35820486642E+04 0.  0.
        4    1    3    3  502    0  0.71661343101E+03 -0.91239659498E+03  0.62408888172E+03  0.13173803176E+04  0.12699999809E+01 0.  1.
       -4    1    3    3    0  502 -0.71661343101E+03  0.91239659498E+03 -0.24330998193E+04  0.26955479405E+04  0.12699999809E+01 0. -1.
</event>
<event>
 5   0  0.1021087E-07  0.3592437E+04  0.7818609E-02  0.8092226E-01
        2   -1    0    0  501    0  0.00000000000E+00  0.00000000000E+00  0.20710029902E+04  0.20710029902E+04  0.25500000920E-02 0.  1.
       -2   -1    0    0    0  501  0.00000000000E+00  0.00000000000E+00 -0.15578930088E+04  0.15578930088E+04  0.25500000920E-02 0. -1.
    10030    2    1    2    0    0  0.00000000000E+00  0.00000000000E+00  0.51310998145E+03  0.36288959990E+04  0.35924371001E+04 0.  0.
        3    1    3    3  502    0  0.16713707165E+04  0.51817343788E+03 -0.15304419652E+03  0.17565324705E+04  0.10100000352E+00 0. -1.
       -3    1    3    3    0  502 -0.16713707165E+04 -0.51817343788E+03  0.66615417797E+03  0.18723635285E+04  0.10100000352E+00 0.  1.
</event>
<event>
 5   0  0.9905335E-08  0.3601401E+04  0.7818609E-02  0.8090171E-01
        2   -1    0    0  501    0  0.00000000000E+00  0.00000000000E+00  0.21537809795E+04  0.21537809795E+04  0.25500000920E-02 0. -1.
       -2   -1    0    0    0  501  0.00000000000E+00  0.00000000000E+00 -0.15055027323E+04  0.15055027323E+04  0.25500000920E-02 0.  1.
    10030    2    1    2    0    0  0.00000000000E+00  0.00000000000E+00  0.64827824725E+03  0.36592837118E+04  0.36014014768E+04 0.  0.
        5    1    3    3  502    0  0.41636179105E+03 -0.17468950987E+04  0.45855833491E+03  0.18534555466E+04  0.46999998093E+01 0.  1.
       -5    1    3    3    0  502 -0.41636179105E+03  0.17468950987E+04  0.18971991234E+03  0.18058281651E+04  0.46999998093E+01 0. -1.
</event>
<event>
 5   0  0.3215494E-08  0.3598004E+04  0.7818609E-02  0.8090949E-01
        1   -1    0    0  501    0  0.00000000000E+00  0.00000000000E+00  0.10688893963E+04  0.10688893963E+04  0.50400001928E-02 0.  1.
       -1   -1    0    0    0  501  0.00000000000E+00  0.00000000000E+00 -0.30278225136E+04  0.30278225136E+04  0.50400001928E-02 0. -1.
    10030    2    1    2    0    0  0.00000000000E+00  0.00000000000E+00 -0.19589331173E+04  0.40967119099E+04  0.35980035456E+04 0.  0.
        4    1    3    3  502    0  0.52018309961E+03  0.10174663215E+04  0.60257347131E+03  0.12918686364E+04  0.12699999809E+01 0.  1.
       -4    1    3    3    0  502 -0.52018309961E+03 -0.10174663215E+04 -0.25615065886E+04  0.28048432735E+04  0.12699999809E+01 0. -1.
</event>
<event>
 5   0  0.3212523E-08  0.3599888E+04  0.7818609E-02  0.8090517E-01
        1   -1    0    0  501    0  0.00000000000E+00  0.00000000000E+00  0.13651148471E+04  0.13651148471E+04  0.50400001928E-02 0. -1.
       -1   -1    0    0    0  501  0.00000000000E+00  0.00000000000E+00 -0.23732783930E+04  0.23732783930E+04  0.50400001928E-02 0.  1.
    10030    2    1    2    0    0  0.00000000000E+00  0.00000000000E+00 -0.10081635458E+04  0.37383932401E+04  0.35998875375E+04 0.  0.
        3    1    3    3  502    0 -0.33214614864E+03 -0.10766485734E+04  0.95359994501E+03  0.14760914877E+04  0.10100000352E+00 0. -1.
       -3    1    3    3    0  502  0.33214614864E+03  0.10766485734E+04 -0.19617634909E+04  0.22623017524E+04  0.10100000352E+00 0.  1.
</event>
<event>
 5   0  0.3215494E-08  0.3605025E+04  0.7818609E-02  0.8089342E-01
       -1   -1    0    0    0  501  0.00000000000E+00  0.00000000000E+00  0.16645731696E+04  0.16645731696E+04  0.50400001928E-02 0.  1.
        1   -1    0    0  501    0  0.00000000000E+00  0.00000000000E+00 -0.19518827515E+04  0.19518827515E+04  0.50400001928E-02 0. -1.
    10030    2    1    2    0    0  0.00000000000E+00  0.00000000000E+00 -0.28730958185E+03  0.36164559211E+04  0.36050251918E+04 0.  0.
        4    1    3    3  502    0  0.12514133250E+04 -0.14350803120E+02  0.11576896407E+04  0.17048425654E+04  0.12699999809E+01 0.  1.
       -4    1    3    3    0  502 -0.12514133250E+04  0.14350803120E+02 -0.14449992226E+04  0.19116133557E+04  0.12699999809E+01 0. -1.
</event>
<event>
 5   0  0.9905335E-08  0.3595026E+04  0.7818609E-02  0.8091632E-01
        2   -1    0    0  501    0  0.00000000000E+00  0.00000000000E+00  0.22332688867E+04  0.22332688867E+04  0.25500000920E-02 0. -1.
       -2   -1    0    0    0  501  0.00000000000E+00  0.00000000000E+00 -0.14467820276E+04  0.14467820276E+04  0.25500000920E-02 0.  1.
    10030    2    1    2    0    0  0.00000000000E+00  0.00000000000E+00  0.78648685914E+03  0.36800509143E+04  0.35950261685E+04 0.  0.
        5    1    3    3  502    0 -0.84435752880E+03  0.15700508746E+04  0.62897622567E+03  0.18904053977E+04  0.46999998093E+01 0. -1.
       -5    1    3    3    0  502  0.84435752880E+03 -0.15700508746E+04  0.15751063347E+03  0.17896455165E+04  0.46999998093E+01 0.  1.
</event>
<event>
 5   0  0.3215494E-08  0.3599866E+04  0.7818609E-02  0.8090522E-01
        1   -1    0    0  501    0  0.00000000000E+00  0.00000000000E+00  0.19977427398E+04  0.19977427398E+04  0.50400001928E-02 0. -1.
       -1   -1    0    0    0  501  0.00000000000E+00  0.00000000000E+00 -0.16217100783E+04  0.16217100783E+04  0.50400001928E-02 0.  1.
    10030    2    1    2    0    0  0.00000000000E+00  0.00000000000E+00  0.37603266149E+03  0.36194528181E+04  0.35998664058E+04 0.  0.
        4    1    3    3  502    0  0.27595869209E+03 -0.17785811735E+04  0.20403195690E+03  0.18113903065E+04  0.12699999809E+01 0. -1.
       -4    1    3    3    0  502 -0.27595869209E+03  0.17785811735E+04  0.17200070458E+03  0.18080625115E+04  0.12699999809E+01 0.  1.
</event>
<event>
 5   0  0.3202875E-08  0.3597324E+04  0.7818609E-02  0.8091105E-01
       -1   -1    0    0    0  501  0.00000000000E+00  0.00000000000E+00  0.13214159780E+04  0.13214159780E+04  0.50400001928E-02 0.  1.
        1   -1    0    0  501    0  0.00000000000E+00  0.00000000000E+00 -0.24482718680E+04  0.24482718680E+04  0.50400001928E-02 0. -1.
    10030    2    1    2    0    0  0.00000000000E+00  0.00000000000E+00 -0.11268558900E+04  0.37696878460E+04  0.35973243195E+04 0.  0.
        2    1    3    3  502    0 -0.24966930246E+03 -0.13192038982E+04  0.69081300194E+03  0.15099192989E+04  0.25500000920E-02 0.  1.
       -2    1    3    3    0  502  0.24966930246E+03  0.13192038982E+04 -0.18176688919E+04  0.22597685471E+04  0.25500000920E-02 0. -1.
</event>
<event>
 5   0  0.3202875E-08  0.3600671E+04  0.7818609E-02  0.8090338E-01
       -3   -1    0    0    0  501  0.00000000000E+00  0.00000000000E+00  0.12642508728E+04  0.12642508768E+04  0.10100000352E+00 0.  1.
        3   -1    0    0  501    0  0.00000000000E+00  0.00000000000E+00 -0.25637373282E+04  0.25637373302E+04  0.10100000352E+00 0. -1.
    10030    2    1    2    0    0  0.00000000000E+00  0.00000000000E+00 -0.12994864554E+04  0.38279882070E+04  0.36006705855E+04 0.  0.
        2    1    3    3  502    0 -0.72674004360E+03  0.16304768292E+04 -0.40132181429E+03  0.18296625318E+04  0.25500000920E-02 0. -1.
       -2    1    3    3    0  502  0.72674004360E+03 -0.16304768292E+04 -0.89816464112E+03  0.19983256752E+04  0.25500000920E-02 0.  1.
</event>
<event>
 5   0  0.1044678E-07  0.3592443E+04  0.7818609E-02  0.8092225E-01
        2   -1    0    0  501    0  0.00000000000E+00  0.00000000000E+00  0.20514825348E+04  0.20514825348E+04  0.25500000920E-02 0. -1.
       -2   -1    0    0    0  501  0.00000000000E+00  0.00000000000E+00 -0.15727221064E+04  0.15727221064E+04  0.25500000920E-02 0.  1.
    10030    2    1    2    0    0  0.00000000000E+00  0.00000000000E+00  0.47876042845E+03  0.36242046412E+04  0.35924431427E+04 0.  0.
        2    1    3    3  502    0  0.17132724422E+04 -0.52868417031E+03  0.13071288944E+03  0.17977472772E+04  0.25500000920E-02 0. -1.
       -2    1    3    3    0  502 -0.17132724422E+04  0.52868417031E+03  0.34804753902E+03  0.18264573640E+04  0.25500000920E-02 0.  1.
</event>
<event>
 5   0  0.1029908E-07  0.3598047E+04  0.7818609E-02  0.8090939E-01
       -2   -1    0    0    0  501  0.00000000000E+00  0.00000000000E+00  0.18199076832E+04  0.18199076832E+04  0.25500000920E-02 0.  1.
        2   -1    0    0  501    0  0.00000000000E+00  0.00000000000E+00 -0.17783791638E+04  0.17783791638E+04  0.25500000920E-02 0. -1.
    10030    2    1    2    0    0  0.00000000000E+00  0.00000000000E+00  0.41528519395E+02  0.35982868470E+04  0.35980471947E+04 0.  0.
        4    1    3    3  502    0  0.41101090574E+03  0.15408982037E+03 -0.17240039600E+04  0.17790067185E+04  0.12699999809E+01 0. -1.
       -4    1    3    3    0  502 -0.41101090574E+03 -0.15408982037E+03  0.17655324794E+04  0.18192801285E+04  0.12699999809E+01 0.  1.
</event>
<event>
 5   0  0.1021087E-07  0.3606565E+04  0.7818609E-02  0.8088990E-01
        2   -1    0    0  501    0  0.00000000000E+00  0.00000000000E+00  0.24980203211E+04  0.24980203211E+04  0.25500000920E-02 0. -1.
       -2   -1    0    0    0  501  0.00000000000E+00  0.00000000000E+00 -0.13017617066E+04  0.13017617066E+04  0.25500000920E-02 0.  1.
    10030    2    1    2    0    0  0.00000000000E+00  0.00000000000E+00  0.11962586145E+04  0.37997820277E+04  0.36065646792E+04 0.  0.
        3    1    3    3  502    0  0.49073344950E+03  0.91573539782E+03  0.21510114989E+04  0.23887739775E+04  0.10100000352E+00 0. -1.
       -3    1    3    3    0  502 -0.49073344950E+03 -0.91573539782E+03 -0.95475288439E+03  0.14110080502E+04  0.10100000352E+00 0.  1.
</event>
<event>
 5   0  0.3202875E-08  0.3605430E+04  0.7818609E-02  0.8089249E-01
        1   -1    0    0  501    0  0.00000000000E+00  0.00000000000E+00  0.14363415199E+04  0.14363415199E+04  0.50400001928E-02 0. -1.
       -1   -1    0    0    0  501  0.00000000000E+00  0.00000000000E+00 -0.22625408540E+04  0.22625408540E+04  0.50400001928E-02 0.  1.
    10030    2    1    2    0    0  0.00000000000E+00  0.00000000000E+00 -0.82619933414E+03  0.36988823739E+04  0.36054299988E+04 0.  0.
        1    1    3    3  502    0 -0.15299173632E+04  0.58038776451E+03  0.36300332668E+03  0.16760872622E+04  0.50400001928E-02 0. -1.
       -1    1    3    3    0  502  0.15299173632E+04 -0.58038776451E+03 -0.11892026608E+04  0.20227951117E+04  0.50400001928E-02 0.  1.
</event>
<event>
 5   0  0.3212523E-08  0.3648601E+04  0.7818609E-02  0.8079449E-01
       -1   -1    0    0    0  501  0.00000000000E+00  0.00000000000E+00  0.14564873235E+04  0.14564873235E+04  0.50400001928E-02 0.  1.
        1   -1    0    0  501    0  0.00000000000E+00  0.00000000000E+00 -0.22849993585E+04  0.22849993585E+04  0.50400001928E-02 0. -1.
    10030    2    1    2    0    0  0.00000000000E+00  0.00000000000E+00 -0.82851203501E+03  0.37414866821E+04  0.36486011566E+04 0.  0.
        3    1    3    3  502    0  0.88703271019E+03  0.87444676318E+03  0.95256366975E+03  0.15680758036E+04  0.10100000352E+00 0.  1.
       -3    1    3    3    0  502 -0.88703271019E+03 -0.87444676318E+03 -0.17810757048E+04  0.21734108785E+04  0.10100000352E+00 0. -1.
</event>
<event>
 5   0  0.3279988E-08  0.3599760E+04  0.7818609E-02  0.8090547E-01
        1   -1    0    0  501    0  0.00000000000E+00  0.00000000000E+00  0.15159949678E+04  0.15159949678E+04  0.50400001928E-02 0. -1.
       -1   -1    0    0    0  501  0.00000000000E+00  0.00000000000E+00 -0.21369247892E+04  0.21369247892E+04  0.50400001928E-02 0.  1.
    10030    2    1    2    0    0  0.00000000000E+00  0.00000000000E+00 -0.62092982146E+03  0.36529197570E+04  0.35997595625E+04 0.  0.
        5    1    3    3  502    0  0.34465840897E+03  0.96454623954E+03  0.11913934451E+04  0.15711713141E+04  0.46999998093E+01 0. -1.
       -5    1    3    3    0  502 -0.34465840897E+03 -0.96454623954E+03 -0.18123232666E+04  0.20817484429E+04  0.46999998093E+01 0.  1.
</event>
<event>
 5   0  0.3279988E-08  0.3581566E+04  0.7818609E-02  0.8094727E-01
       -1   -1    0    0    0  501  0.00000000000E+00  0.00000000000E+00  0.14237391887E+04  0.14237391887E+04  0.50400001928E-02 0.  1.
        1   -1    0    0  501    0  0.00000000000E+00  0.00000000000E+00 -0.22524522925E+04  0.22524522925E+04  0.50400001928E-02 0. -1.
    10030    2    1    2    0    0  0.00000000000E+00  0.00000000000E+00 -0.82871310381E+03  0.36761914812E+04  0.35815664726E+04 0.  0.
        5    1    3    3  502    0 -0.11856137308E+04  0.13390279716E+04 -0.32137240491E+03  0.18171345960E+04  0.46999998093E+01 0.  1.
       -5    1    3    3    0  502  0.11856137308E+04 -0.13390279716E+04 -0.50734069891E+03  0.18590568851E+04  0.46999998093E+01 0. -1.
</event>
<event>
 5   0  0.1044678E-07  0.3601931E+04  0.7818609E-02  0.8090049E-01
        2   -1    0    0  501    0  0.00000000000E+00  0.00000000000E+00  0.16108658597E+04  0.16108658597E+04  0.25500000920E-02 0. -1.
       -2   -1    0    0    0  501  0.00000000000E+00  0.00000000000E+00 -0.20134993204E+04  0.20134993204E+04  0.25500000920E-02 0.  1.
    10030    2    1    2    0    0  0.00000000000E+00  0.00000000000E+00 -0.40263346073E+03  0.36243651801E+04  0.36019313230E+04 0.  0.
        2    1    3    3  502    0 -0.61825480225E+03  0.13093849136E+04 -0.12788502621E+04  0.19318866026E+04  0.25500000920E-02 0.  1.
       -2    1    3    3    0  502  0.61825480225E+03 -0.13093849136E+04  0.87621680138E+03  0.16924785775E+04  0.25500000920E-02 0. -1.
</event>
<event>
 5   0  0.1044678E-07  0.3583190E+04  0.7818609E-02  0.8094353E-01
        2   -1    0    0  501    0  0.00000000000E+00  0.00000000000E+00  0.19360639522E+04  0.19360639522E+04  0.25500000920E-02 0.  1.
       -2   -1    0    0    0  501  0.00000000000E+00  0.00000000000E+00 -0.16579066297E+04  0.16579066297E+04  0.25500000920E-02 0. -1.
    10030    2    1    2    0    0  0.00000000000E+00  0.00000000000E+00  0.27815732259E+03  0.35939705819E+04  0.35831903449E+04 0.  0.
        2    1    3    3  502    0 -0.45290468615E+03 -0.10125511401E+04  0.15502339250E+04  0.19062024259E+04  0.25500000920E-02 0.  1.
       -2    1    3    3    0  502  0.45290468615E+03  0.10125511401E+04 -0.12720766024E+04  0.16877681560E+04  0.25500000920E-02 0. -1.
</event>
<event>
 5   0  0.3212523E-08  0.3604562E+04  0.7818609E-02  0.8089447E-01
       -1   -1    0    0    0  501  0.00000000000E+00  0.00000000000E+00  0.14972742427E+04  0.14972742427E+04  0.50400001928E-02 0.  1.
        1   -1    0    0  501    0  0.00000000000E+00  0.00000000000E+00 -0.21694203512E+04  0.21694203512E+04  0.50400001928E-02 0. -1.
    10030    2    1    2    0    0  0.00000000000E+00  0.00000000000E+00 -0.67214610852E+03  0.36666945938E+04  0.36045622277E+04 0.  0.
        3    1    3    3  502    0  0.11197667699E+04 -0.64039379149E+03 -0.16164329554E+04  0.20680515798E+04  0.10100000352E+00 0. -1.
       -3    1    3    3    0  502 -0.11197667699E+04  0.64039379149E+03  0.94428684685E+03  0.15986430141E+04  0.10100000352E+00 0.  1.
</event>
<event>
 5   0  0.3202875E-08  0.3600006E+04  0.7818609E-02  0.8090490E-01
        1   -1    0    0  501    0  0.00000000000E+00  0.00000000000E+00  0.11463981325E+04  0.11463981325E+04  0.50400001928E-02 0.  1.
       -1   -1    0    0    0  501  0.00000000000E+00  0.00000000000E+00 -0.28262528820E+04  0.28262528820E+04  0.50400001928E-02 0. -1.
    10030    2    1    2    0    0  0.00000000000E+00  0.00000000000E+00 -0.16798547496E+04  0.39726510145E+04  0.36000061255E+04 0.  0.
        1    1    3    3  502    0  0.73224004106E+03 -0.11794456169E+04 -0.21042768361E+04  0.25209618093E+04  0.50400001928E-02 0. -1.
       -1    1    3    3    0  502 -0.73224004106E+03  0.11794456169E+04  0.42442208654E+03  0.14516892052E+04  0.50400001928E-02 0.  1.
</event>
<event>
 5   0  0.1021087E-07  0.3593627E+04  0.7818609E-02  0.8091953E-01
       -2   -1    0    0    0  501  0.00000000000E+00  0.00000000000E+00  0.14664237249E+04  0.14664237249E+04  0.25500000920E-02 0. -1.
        2   -1    0    0  501    0  0.00000000000E+00  0.00000000000E+00 -0.22016407694E+04  0.22016407694E+04  0.25500000920E-02 0.  1.
    10030    2    1    2    0    0  0.00000000000E+00  0.00000000000E+00 -0.73521704452E+03  0.36680644943E+04  0.35936267241E+04 0.  0.
        3    1    3    3  502    0 -0.84826879320E+03 -0.46484683147E+03  0.11779880689E+04  0.15242369970E+04  0.10100000352E+00 0. -1.
       -3    1    3    3    0  502  0.84826879320E+03  0.46484683147E+03 -0.19132051134E+04  0.21438274974E+04  0.10100000352E+00 0.  1.
</event>
<event>
 5   0  0.9905335E-08  0.3598604E+04  0.7818609E-02  0.8090812E-01
        2   -1    0    0  501    0  0.00000000000E+00  0.00000000000E+00  0.23131955913E+04  0.23131955913E+04  0.25500000920E-02 0. -1.
       -2   -1    0    0    0  501  0.00000000000E+00  0.00000000000E+00 -0.13995736147E+04  0.13995736147E+04  0.25500000920E-02 0.  1.
    10030    2    1    2    0    0  0.00000000000E+00  0.00000000000E+00  0.91362197661E+03  0.37127692060E+04  0.35986039045E+04 0.  0.
        5    1    3    3  502    0 -0.14907267615E+04  0.28756785095E+03  0.14531089230E+04  0.21015492330E+04  0.46999998093E+01 0. -1.
       -5    1    3    3    0  502  0.14907267615E+04 -0.28756785095E+03 -0.53948694644E+03  0.16112199731E+04  0.46999998093E+01 0.  1.
</event>
<event>
 5   0  0.3202875E-08  0.3602336E+04  0.7818609E-02  0.8089957E-01
        1   -1    0    0  501    0  0.00000000000E+00  0.00000000000E+00  0.26274063645E+04  0.26274063645E+04  0.50400001928E-02 0. -1.
       -1   -1    0    0    0  501  0.00000000000E+00  0.00000000000E+00 -0.12347560546E+04  0.12347560546E+04  0.50400001928E-02 0.  1.
    10030    2    1    2    0    0  0.00000000000E+00  0.00000000000E+00  0.13926503098E+04  0.38621624191E+04  0.36023358625E+04 0.  0.
        2    1    3    3  502    0 -0.68712848606E+03 -0.15709209803E+04  0.10493483651E+03  0.17178328215E+04  0.25500000920E-02 0.  1.
       -2    1    3    3    0  502  0.68712848606E+03  0.15709209803E+04  0.12877154733E+04  0.21443295976E+04  0.25500000920E-02 0. -1.
</event>
<event>
 5   0  0.3202875E-08  0.3601828E+04  0.7818609E-02  0.8090073E-01
        1   -1    0    0  501    0  0.00000000000E+00  0.00000000000E+00  0.16707421835E+04  0.16707421835E+04  0.50400001928E-02 0. -1.
       -1   -1    0    0    0  501  0.00000000000E+00  0.00000000000E+00 -0.19412281326E+04  0.19412281326E+04  0.50400001928E-02 0.  1.
    10030    2    1    2    0    0  0.00000000000E+00  0.00000000000E+00 -0.27048594914E+03  0.36119703161E+04  0.36018282740E+04 0.  0.
        2    1    3    3  502    0 -0.48938597787E+03 -0.82823489751E+03  0.13914827634E+04  0.16916547998E+04  0.25500000920E-02 0. -1.
       -2    1    3    3    0  502  0.48938597787E+03  0.82823489751E+03 -0.16619687125E+04  0.19203155163E+04  0.25500000920E-02 0.  1.
</event>
<event>
 5   0  0.3212523E-08  0.3597109E+04  0.7818609E-02  0.8091154E-01
       -1   -1    0    0    0  501  0.00000000000E+00  0.00000000000E+00  0.17579911031E+04  0.17579911031E+04  0.50400001928E-02 0.  1.
        1   -1    0    0  501    0  0.00000000000E+00  0.00000000000E+00 -0.18400535453E+04  0.18400535453E+04  0.50400001928E-02 0. -1.
    10030    2    1    2    0    0  0.00000000000E+00  0.00000000000E+00 -0.82062442203E+02  0.35980446485E+04  0.35971087067E+04 0.  0.
        3    1    3    3  502    0  0.11771948983E+04 -0.12539668664E+04  0.48501152107E+03  0.17870245987E+04  0.10100000352E+00 0.  1.
       -3    1    3    3    0  502 -0.11771948983E+04  0.12539668664E+04 -0.56707396327E+03  0.18110200498E+04  0.10100000352E+00 0. -1.
</event>
<event>
 5   0  0.1021087E-07  0.3601289E+04  0.7818609E-02  0.8090197E-01
        2   -1    0    0  501    0  0.00000000000E+00  0.00000000000E+00  0.29877492686E+04  0.29877492686E+04  0.25500000920E-02 0. -1.
       -2   -1    0    0    0  501  0.00000000000E+00  0.00000000000E+00 -0.10852049522E+04  0.10852049522E+04  0.25500000920E-02 0.  1.
    10030    2    1    2    0    0  0.00000000000E+00  0.00000000000E+00  0.19025443164E+04  0.40729542207E+04  0.36012888260E+04 0.  0.
        3    1    3    3  502    0 -0.30207676750E+03 -0.77615403706E+03  0.27568120414E+04  0.28798746682E+04  0.10100000352E+00 0. -1.
       -3    1    3    3    0  502  0.30207676750E+03  0.77615403706E+03 -0.85426772494E+03  0.11930795526E+04  0.10100000352E+00 0.  1.
</event>
<event>
 5   0  0.3279988E-08  0.3598213E+04  0.7818609E-02  0.8090901E-01
       -1   -1    0    0    0  501  0.00000000000E+00  0.00000000000E+00  0.13523062587E+04  0.13523062587E+04  0.50400001928E-02 0.  1.
        1   -1    0    0  501    0  0.00000000000E+00  0.00000000000E+00 -0.23935285436E+04  0.23935285436E+04  0.50400001928E-02 0. -1.
    10030    2    1    2    0    0  0.00000000000E+00  0.00000000000E+00 -0.10412222849E+04  0.37458348024E+04  0.35982126841E+04 0.  0.
        5    1    3    3  502    0  0.48802066331E+02 -0.13882136533E+04  0.66964357469E+03  0.15420646536E+04  0.46999998093E+01 0.  1.
       -5    1    3    3    0  502 -0.48802066331E+02  0.13882136533E+04 -0.17108658596E+04  0.22037701487E+04  0.46999998093E+01 0. -1.
</event>
<event>
 5   0  0.3215494E-08  0.3654165E+04  0.7818609E-02  0.8078196E-01
       -1   -1    0    0    0  501  0.00000000000E+00  0.00000000000E+00  0.17035728124E+04  0.17035728124E+04  0.50400001928E-02 0.  1.
        1   -1    0    0  501    0  0.00000000000E+00  0.00000000000E+00 -0.19595464435E+04  0.19595464435E+04  0.50400001928E-02 0. -1.
    10030    2    1    2    0    0  0.00000000000E+00  0.00000000000E+00 -0.25597363113E+03  0.36631192559E+04  0.36541647723E+04 0.  0.
        4    1    3    3  502    0 -0.18205221858E+04 -0.93357544888E+02 -0.25162506436E+03  0.18401992952E+04  0.12699999809E+01 0.  1.
       -4    1    3    3    0  502  0.18205221858E+04  0.93357544888E+02 -0.43485667712E+01  0.18229199607E+04  0.12699999809E+01 0. -1.
</event>
<event>
 5   0  0.1021087E-07  0.3622552E+04  0.7818609E-02  0.8085345E-01
       -2   -1    0    0    0  501  0.00000000000E+00  0.00000000000E+00  0.16573018704E+04  0.16573018704E+04  0.25500000920E-02 0.  1.
        2   -1    0    0  501    0  0.00000000000E+00  0.00000000000E+00 -0.19795549709E+04  0.19795549709E+04  0.25500000920E-02 0. -1.
    10030    2    1    2    0    0  0.00000000000E+00  0.00000000000E+00 -0.32225310053E+03  0.36368568412E+04  0.36225516729E+04 0.  0.
        3    1    3    3  502    0 -0.61040318525E+02  0.16065310676E+04  0.67646542513E+03  0.17442114187E+04  0.10100000352E+00 0.  1.
       -3    1    3    3    0  502  0.61040318525E+02 -0.16065310676E+04 -0.99871852565E+03  0.18926454225E+04  0.10100000352E+00 0. -1.
</event>
<event>
 5   0  0.9905335E-08  0.3593102E+04  0.7818609E-02  0.8092074E-01
       -2   -1    0    0    0  501  0.00000000000E+00  0.00000000000E+00  0.16624086635E+04  0.16624086635E+04  0.25500000920E-02 0.  1.
        2   -1    0    0  501    0  0.00000000000E+00  0.00000000000E+00 -0.19415173961E+04  0.19415173961E+04  0.25500000920E-02 0. -1.
    10030    2    1    2    0    0  0.00000000000E+00  0.00000000000E+00 -0.27910873263E+03  0.36039260596E+04  0.35931019132E+04 0.  0.
        5    1    3    3  502    0  0.57071340432E+03  0.44939346199E+03  0.15085343132E+04  0.16743255769E+04  0.46999998093E+01 0.  1.
       -5    1    3    3    0  502 -0.57071340432E+03 -0.44939346199E+03 -0.17876430458E+04  0.19296004827E+04  0.46999998093E+01 0. -1.
</event>
<event>
 5   0  0.9905335E-08  0.3603184E+04  0.7818609E-02  0.8089763E-01
       -2   -1    0    0    0  501  0.00000000000E+00  0.00000000000E+00  0.14962763033E+04  0.14962763033E+04  0.25500000920E-02 0.  1.
        2   -1    0    0  501    0  0.00000000000E+00  0.00000000000E+00 -0.21692079191E+04  0.21692079191E+04  0.25500000920E-02 0. -1.
    10030    2    1    2    0    0  0.00000000000E+00  0.00000000000E+00 -0.67293161589E+03  0.36654842224E+04  0.36031843729E+04 0.  0.
        5    1    3    3  502    0  0.14057065981E+04 -0.11156637279E+04 -0.49729975333E+03  0.18622689732E+04  0.46999998093E+01 0. -1.
       -5    1    3    3    0  502 -0.14057065981E+04  0.11156637279E+04 -0.17563186256E+03  0.18032152492E+04  0.46999998093E+01 0.  1.
</event>
<event>
 5   0  0.9905335E-08  0.3610874E+04  0.7818609E-02  0.8088005E-01
       -2   -1    0    0    0  501  0.00000000000E+00  0.00000000000E+00  0.16850544630E+04  0.16850544630E+04  0.25500000920E-02 0. -1.
        2   -1    0    0  501    0  0.00000000000E+00  0.00000000000E+00 -0.19344199654E+04  0.19344199654E+04  0.25500000920E-02 0.  1.
    10030    2    1    2    0    0  0.00000000000E+00  0.00000000000E+00 -0.24936550240E+03  0.36194744284E+04  0.36108741302E+04 0.  0.
        5    1    3    3  502    0  0.66264105658E+03  0.97724489383E+03  0.12443961556E+04  0.17154138377E+04  0.46999998093E+01 0. -1.
       -5    1    3    3    0  502 -0.66264105658E+03 -0.97724489383E+03 -0.14937616580E+04  0.19040605908E+04  0.46999998093E+01 0.  1.
</event>
<event>
 5   0  0.1044678E-07  0.3605788E+04  0.7818609E-02  0.8089167E-01
        2   -1    0    0  501    0  0.00000000000E+00  0.00000000000E+00  0.18274147437E+04  0.18274147437E+04  0.25500000920E-02 0. -1.
       -2   -1    0    0    0  501  0.00000000000E+00  0.00000000000E+00 -0.17787027654E+04  0.17787027654E+04  0.25500000920E-02 0.  1.
    10030    2    1    2    0    0  0.00000000000E+00  0.00000000000E+00  0.48711978268E+02  0.36061175091E+04  0.36057884898E+04 0.  0.
        2    1    3    3  502    0  0.41716335707E+03  0.16765857936E+04 -0.49092152467E+03  0.17960983083E+04  0.25500000920E-02 0. -1.
       -2    1    3    3    0  502 -0.41716335707E+03 -0.16765857936E+04  0.53963350294E+03  0.18100192008E+04  0.25500000920E-02 0.  1.
</event>
<event>
 5   0  0.1029908E-07  0.3599102E+04  0.7818609E-02  0.8090697E-01
       -2   -1    0    0    0  501  0.00000000000E+00  0.00000000000E+00  0.16455944678E+04  0.16455944678E+04  0.25500000920E-02 0. -1.
        2   -1    0    0  501    0  0.00000000000E+00  0.00000000000E+00 -0.19679116037E+04  0.19679116037E+04  0.25500000920E-02 0.  1.
    10030    2    1    2    0    0  0.00000000000E+00  0.00000000000E+00 -0.32231713591E+03  0.36135060715E+04  0.35991023593E+04 0.  0.
        4    1    3    3  502    0  0.55227035206E+03  0.25766642221E+03  0.15388360696E+04  0.16551170922E+04  0.12699999809E+01 0. -1.
       -4    1    3    3    0  502 -0.55227035206E+03 -0.25766642221E+03 -0.18611532055E+04  0.19583889793E+04  0.12699999809E+01 0.  1.
</event>
<event>
 5   0  0.9905335E-08  0.3597111E+04  0.7818609E-02  0.8091154E-01
        2   -1    0    0  501    0  0.00000000000E+00  0.00000000000E+00  0.26510150361E+04  0.26510150361E+04  0.25500000920E-02 0. -1.
       -2   -1    0    0    0  501  0.00000000000E+00  0.00000000000E+00 -0.12202127164E+04  0.12202127164E+04  0.25500000920E-02 0.  1.
    10030    2    1    2    0    0  0.00000000000E+00  0.00000000000E+00  0.14308023197E+04  0.38712277525E+04  0.35971112067E+04 0.  0.
        5    1    3    3  502    0 -0.76866774246E+03 -0.16253546833E+04  0.76532851382E+03  0.19540669817E+04  0.46999998093E+01 0. -1.
       -5    1    3    3    0  502  0.76866774246E+03  0.16253546833E+04  0.66547380586E+03  0.19171607708E+04  0.46999998093E+01 0.  1.
</event>
<event>
 5   0  0.9905335E-08  0.3601560E+04  0.7818609E-02  0.8090134E-01
        2   -1    0    0  501    0  0.00000000000E+00  0.00000000000E+00  0.18542854010E+04  0.18542854010E+04  0.25500000920E-02 0. -1.
       -2   -1    0    0    0  501  0.00000000000E+00  0.00000000000E+00 -0.17488184524E+04  0.17488184524E+04  0.25500000920E-02 0.  1.
    10030    2    1    2    0    0  0.00000000000E+00  0.00000000000E+00  0.10546694856E+03  0.36031038534E+04  0.36015599538E+04 0.  0.
        5    1    3    3  502    0  0.16474577084E+03 -0.32528456451E+03  0.18169619200E+04  0.18531929002E+04  0.46999998093E+01 0. -1.
       -5    1    3    3    0  502 -0.16474577084E+03  0.32528456451E+03 -0.17114949714E+04  0.17499109532E+04  0.46999998093E+01 0.  1.
</event>
<event>
 5   0  0.1017794E-07  0.3625730E+04  0.7818609E-02  0.8084623E-01
       -2   -1    0    0    0  501  0.00000000000E+00  0.00000000000E+00  0.18230011283E+04  0.18230011283E+04  0.25500000920E-02 0. -1.
        2   -1    0    0  501    0  0.00000000000E+00  0.00000000000E+00 -0.18027856065E+04  0.18027856066E+04  0.25500000920E-02 0.  1.
    10030    2    1    2    0    0  0.00000000000E+00  0.00000000000E+00  0.20215521734E+02  0.36257867348E+04  0.36257303787E+04 0.  0.
        1    1    3    3  502    0  0.60385832146E+00  0.10386708504E+04 -0.14757291493E+04  0.18046091051E+04  0.50400001928E-02 0.  1.
       -1    1    3    3    0  502 -0.60385832146E+00 -0.10386708504E+04  0.14959446710E+04  0.18211776297E+04  0.50400001928E-02 0. -1.
</event>
<event>
 5   0  0.1017794E-07  0.3599805E+04  0.7818609E-02  0.8090536E-01
        2   -1    0    0  501    0  0.00000000000E+00  0.00000000000E+00  0.14987049704E+04  0.14987049704E+04  0.25500000920E-02 0. -1.
       -2   -1    0    0    0  501  0.00000000000E+00  0.00000000000E+00 -0.21616317143E+04  0.21616317143E+04  0.25500000920E-02 0.  1.
    10030    2    1    2    0    0  0.00000000000E+00  0.00000000000E+00 -0.66292674387E+03  0.36603366847E+04  0.35998045472E+04 0.  0.
        1    1    3    3  502    0 -0.19504547116E+02  0.23568883075E+03 -0.21457648177E+04  0.21587580469E+04  0.50400001928E-02 0.  1.
       -1    1    3    3    0  502  0.19504547116E+02 -0.23568883075E+03  0.14828380738E+04  0.15015786378E+04  0.50400001928E-02 0. -1.
</event>
<event>
 5   0  0.3202875E-08  0.3604190E+04  0.7818609E-02  0.8089533E-01
       -1   -1    0    0    0  501  0.00000000000E+00  0.00000000000E+00  0.13281346520E+04  0.13281346520E+04  0.50400001928E-02 0. -1.
        1   -1    0    0  501    0  0.00000000000E+00  0.00000000000E+00 -0.24451936420E+04  0.24451936420E+04  0.50400001928E-02 0.  1.
    10030    2    1    2    0    0  0.00000000000E+00  0.00000000000E+00 -0.11170589900E+04  0.37733282941E+04  0.36041900099E+04 0.  0.
        2    1    3    3  502    0  0.12631660322E+04 -0.10464934236E+04 -0.13397438777E+04  0.21179354495E+04  0.25500000920E-02 0.  1.
       -2    1    3    3    0  502 -0.12631660322E+04  0.10464934236E+04  0.22268488769E+03  0.16553928445E+04  0.25500000920E-02 0. -1.
</event>
<event>
 5   0  0.1021087E-07  0.3599781E+04  0.7818609E-02  0.8090542E-01
        2   -1    0    0  501    0  0.00000000000E+00  0.00000000000E+00  0.17613670982E+04  0.17613670982E+04  0.25500000920E-02 0.  1.
       -2   -1    0    0    0  501  0.00000000000E+00  0.00000000000E+00 -0.18392567968E+04  0.18392567968E+04  0.25500000920E-02 0. -1.
    10030    2    1    2    0    0  0.00000000000E+00  0.00000000000E+00 -0.77889698570E+02  0.36006238950E+04  0.35997813306E+04 0.  0.
        3    1    3    3  502    0  0.10503716423E+04 -0.13362619691E+04  0.55341818339E+03  0.17874977855E+04  0.10100000352E+00 0.  1.
       -3    1    3    3    0  502 -0.10503716423E+04  0.13362619691E+04 -0.63130788196E+03  0.18131261096E+04  0.10100000352E+00 0. -1.
</event>
<event>
 5   0  0.3215494E-08  0.3600125E+04  0.7818609E-02  0.8090463E-01
        1   -1    0    0  501    0  0.00000000000E+00  0.00000000000E+00  0.21744365062E+04  0.21744365062E+04  0.50400001928E-02 0. -1.
       -1   -1    0    0    0  501  0.00000000000E+00  0.00000000000E+00 -0.14901443765E+04  0.14901443765E+04  0.50400001928E-02 0.  1.
    10030    2    1    2    0    0  0.00000000000E+00  0.00000000000E+00  0.68429212975E+03  0.36645808827E+04  0.36001246266E+04 0.  0.
        4    1    3    3  502    0  0.17010217613E+04 -0.13852142687E+03 -0.24042897928E+03  0.17235054178E+04  0.12699999809E+01 0.  1.
       -4    1    3    3    0  502 -0.17010217613E+04  0.13852142687E+03  0.92472110903E+03  0.19410754649E+04  0.12699999809E+01 0. -1.
</event>
<event>
 5   0  0.3202875E-08  0.3604786E+04  0.7818609E-02  0.8089396E-01
        1   -1    0    0  501    0  0.00000000000E+00  0.00000000000E+00  0.22366776763E+04  0.22366776763E+04  0.50400001928E-02 0. -1.
       -1   -1    0    0    0  501  0.00000000000E+00  0.00000000000E+00 -0.14524313491E+04  0.14524313491E+04  0.50400001928E-02 0.  1.
    10030    2    1    2    0    0  0.00000000000E+00  0.00000000000E+00  0.78424632715E+03  0.36891090254E+04  0.36047861379E+04 0.  0.
        1    1    3    3  502    0 -0.15797815047E+04  0.20959872044E+01  0.12801223948E+04  0.20333291276E+04  0.50400001928E-02 0. -1.
       -1    1    3    3    0  502  0.15797815047E+04 -0.20959872044E+01 -0.49587606761E+03  0.16557798978E+04  0.50400001928E-02 0.  1.
</event>
<event>
 5   0  0.3279988E-08  0.3530558E+04  0.7818609E-02  0.8106586E-01
        1   -1    0    0  501    0  0.00000000000E+00  0.00000000000E+00  0.14521555234E+04  0.14521555234E+04  0.50400001928E-02 0. -1.
       -1   -1    0    0    0  501  0.00000000000E+00  0.00000000000E+00 -0.21459203861E+04  0.21459203861E+04  0.50400001928E-02 0.  1.
    10030    2    1    2    0    0  0.00000000000E+00  0.00000000000E+00 -0.69376486266E+03  0.35980759095E+04  0.35305581097E+04 0.  0.
        5    1    3    3  502    0 -0.83473758321E+03 -0.13449643489E+04 -0.11431515526E+04  0.19525709961E+04  0.46999998093E+01 0. -1.
       -5    1    3    3    0  502  0.83473758321E+03  0.13449643489E+04  0.44938668996E+03  0.16455049133E+04  0.46999998093E+01 0.  1.
</event>
<event>
 5   0  0.1029908E-07  0.3550839E+04  0.7818609E-02  0.8101846E-01
        2   -1    0    0  501    0  0.00000000000E+00  0.00000000000E+00  0.20346601874E+04  0.20346601874E+04  0.25500000920E-02 0. -1.
       -2   -1    0    0    0  501  0.00000000000E+00  0.00000000000E+00 -0.15492090221E+04  0.15492090221E+04  0.25500000920E-02 0.  1.
    10030    2    1    2    0    0  0.00000000000E+00  0.00000000000E+00  0.48545116538E+03  0.35838692095E+04  0.35508387286E+04 0.  0.
        4    1    3    3  502    0  0.96430894135E+03 -0.57637196992E+02 -0.12607276554E+04  0.15882851176E+04  0.12699999809E+01 0.  1.
       -4    1    3    3    0  502 -0.96430894135E+03  0.57637196992E+02  0.17461788208E+04  0.19955840919E+04  0.12699999809E+01 0. -1.
</event>
<event>
 5   0  0.3215494E-08  0.3601346E+04  0.7818609E-02  0.8090183E-01
       -1   -1    0    0    0  501  0.00000000000E+00  0.00000000000E+00  0.11984656991E+04  0.11984656991E+04  0.50400001928E-02 0.  1.
        1   -1    0    0  501    0  0.00000000000E+00  0.00000000000E+00 -0.27054788333E+04  0.27054788333E+04  0.50400001928E-02 0. -1.
    10030    2    1    2    0    0  0.00000000000E+00  0.00000000000E+00 -0.15070131342E+04  0.39039445324E+04  0.36013461824E+04 0.  0.
        4    1    3    3  502    0 -0.85753129560E+03  0.13407155489E+04 -0.16666276960E+04  0.23044582001E+04  0.12699999809E+01 0. -1.
       -4    1    3    3    0  502  0.85753129560E+03 -0.13407155489E+04  0.15961456176E+03  0.15994863323E+04  0.12699999809E+01 0.  1.
</event>
<event>
 5   0  0.1044678E-07  0.3591386E+04  0.7818609E-02  0.8092468E-01
        2   -1    0    0  501    0  0.00000000000E+00  0.00000000000E+00  0.14771747628E+04  0.14771747628E+04  0.25500000920E-02 0.  1.
       -2   -1    0    0    0  501  0.00000000000E+00  0.00000000000E+00 -0.21828927122E+04  0.21828927122E+04  0.25500000920E-02 0. -1.
    10030    2    1    2    0    0  0.00000000000E+00  0.00000000000E+00 -0.70571794948E+03  0.36600674750E+04  0.35913863754E+04 0.  0.
        2    1    3    3  502    0 -0.10840754813E+04 -0.40976606054E+03 -0.17507262325E+04  0.20995642917E+04  0.25500000920E-02 0. -1.
       -2    1    3    3    0  502  0.10840754813E+04  0.40976606054E+03  0.10450082831E+04  0.15605031833E+04  0.25500000920E-02 0.  1.
</event>
<event>
 5   0  0.1017794E-07  0.3597720E+04  0.7818609E-02  0.8091014E-01
       -2   -1    0    0    0  501  0.00000000000E+00  0.00000000000E+00  0.17183392815E+04  0.17183392815E+04  0.25500000920E-02 0. -1.
        2   -1    0    0  501    0  0.00000000000E+00  0.00000000000E+00 -0.18831541901E+04  0.18831541901E+04  0.25500000920E-02 0.  1.
    10030    2    1    2    0    0  0.00000000000E+00  0.00000000000E+00 -0.16481490859E+03  0.36014934717E+04  0.35977202883E+04 0.  0.
        1    1    3    3  502    0  0.29534399232E+03  0.14137365060E+04  0.99110654791E+03  0.17516195853E+04  0.50400001928E-02 0. -1.
       -1    1    3    3    0  502 -0.29534399232E+03 -0.14137365060E+04 -0.11559214565E+04  0.18498738864E+04  0.50400001928E-02 0.  1.
</event>
<event>
 5   0  0.9905335E-08  0.3600980E+04  0.7818609E-02  0.8090267E-01
       -2   -1    0    0    0  501  0.00000000000E+00  0.00000000000E+00  0.27678042906E+04  0.27678042906E+04  0.25500000920E-02 0.  1.
        2   -1    0    0  501    0  0.00000000000E+00  0.00000000000E+00 -0.11712404428E+04  0.11712404428E+04  0.25500000920E-02 0. -1.
    10030    2    1    2    0    0  0.00000000000E+00  0.00000000000E+00  0.15965638478E+04  0.39390447334E+04  0.36009800460E+04 0.  0.
        5    1    3    3  502    0 -0.12167854372E+04 -0.27758173394E+02  0.22496463848E+04  0.25577858126E+04  0.46999998093E+01 0.  1.
       -5    1    3    3    0  502  0.12167854372E+04  0.27758173394E+02 -0.65308253698E+03  0.13812589209E+04  0.46999998093E+01 0. -1.
</event>
<event>
 5   0  0.3202875E-08  0.3585544E+04  0.7818609E-02  0.8093811E-01
        1   -1    0    0  501    0  0.00000000000E+00  0.00000000000E+00  0.22133871849E+04  0.22133871849E+04  0.50400001928E-02 0. -1.
       -1   -1    0    0    0  501  0.00000000000E+00  0.00000000000E+00 -0.14520871135E+04  0.14520871135E+04  0.50400001928E-02 0.  1.
    10030    2    1    2    0    0  0.00000000000E+00  0.00000000000E+00  0.76130007140E+03  0.36654742983E+04  0.35855437569E+04 0.  0.
        2    1    3    3  502    0  0.15217371223E+02 -0.17231018467E+04 -0.12506912643E+03  0.17277018924E+04  0.25500000920E-02 0.  1.
       -2    1    3    3    0  502 -0.15217371223E+02  0.17231018467E+04  0.88636919783E+03  0.19377724060E+04  0.25500000920E-02 0. -1.
</event>
<event>
 5   0  0.3215494E-08  0.3592546E+04  0.7818609E-02  0.8092201E-01
       -1   -1    0    0    0  501  0.00000000000E+00  0.00000000000E+00  0.13063110112E+04  0.13063110112E+04  0.50400001928E-02 0.  1.
        1   -1    0    0  501    0  0.00000000000E+00  0.00000000000E+00 -0.24700070762E+04  0.24700070762E+04  0.50400001928E-02 0. -1.
    10030    2    1    2    0    0  0.00000000000E+00  0.00000000000E+00 -0.11636960649E+04  0.37763180874E+04  0.35925464180E+04 0.  0.
        4    1    3    3  502    0 -0.15329226670E+04  0.92921740318E+03 -0.46062790220E+03  0.18508043015E+04  0.12699999809E+01 0.  1.
       -4    1    3    3    0  502  0.15329226670E+04 -0.92921740318E+03 -0.70306816271E+03  0.19255137859E+04  0.12699999809E+01 0. -1.
</event>
<event>
 5   0  0.1029908E-07  0.3611386E+04  0.7818609E-02  0.8087889E-01
        2   -1    0    0  501    0  0.00000000000E+00  0.00000000000E+00  0.21083747922E+04  0.21083747922E+04  0.25500000920E-02 0.  1.
       -2   -1    0    0    0  501  0.00000000000E+00  0.00000000000E+00 -0.15464644338E+04  0.15464644338E+04  0.25500000920E-02 0. -1.
    10030    2    1    2    0    0  0.00000000000E+00  0.00000000000E+00  0.56191035841E+03  0.36548392261E+04  0.36113856783E+04 0.  0.
        4    1    3    3  502    0 -0.10695751047E+04 -0.76003709495E+03  0.15363966276E+04  0.20204364629E+04  0.12699999809E+01 0.  1.
       -4    1    3    3    0  502  0.10695751047E+04  0.76003709495E+03 -0.97448626924E+03  0.16344027631E+04  0.12699999809E+01 0. -1.
</event>
<event>
 5   0  0.1021087E-07  0.3595584E+04  0.7818609E-02  0.8091504E-01
        2   -1    0    0  501    0  0.00000000000E+00  0.00000000000E+00  0.24929251694E+04  0.24929251694E+04  0.25500000920E-02 0. -1.
       -2   -1    0    0    0  501  0.00000000000E+00  0.00000000000E+00 -0.12964912609E+04  0.12964912609E+04  0.25500000920E-02 0.  1.
    10030    2    1    2    0    0  0.00000000000E+00  0.00000000000E+00  0.11964339086E+04  0.37894164303E+04  0.35955837891E+04 0.  0.
        3    1    3    3  502    0  0.57896905348E+03 -0.10705339910E+04 -0.79629460543E+03  0.14544185435E+04  0.10100000352E+00 0.  1.
       -3    1    3    3    0  502 -0.57896905348E+03  0.10705339910E+04  0.19927285140E+04  0.23349978868E+04  0.10100000352E+00 0. -1.
</event>
<event>
 5   0  0.3202875E-08  0.3569968E+04  0.7818609E-02  0.8097406E-01
       -1   -1    0    0    0  501  0.00000000000E+00  0.00000000000E+00  0.18420597990E+04  0.18420597990E+04  0.50400001928E-02 0.  1.
        1   -1    0    0  501    0  0.00000000000E+00  0.00000000000E+00 -0.17296765634E+04  0.17296765634E+04  0.50400001928E-02 0. -1.
    10030    2    1    2    0    0  0.00000000000E+00  0.00000000000E+00  0.11238323553E+03  0.35717363624E+04  0.35699678781E+04 0.  0.
        1    1    3    3  502    0  0.17737382961E+04 -0.18879832514E+03 -0.99872920918E+01  0.17837858887E+04  0.50400001928E-02 0. -1.
       -1    1    3    3    0  502 -0.17737382961E+04  0.18879832514E+03  0.12237052763E+03  0.17879504738E+04  0.50400001928E-02 0.  1.
</event>
<event>
 5   0  0.3212523E-08  0.3598937E+04  0.7818609E-02  0.8090735E-01
        1   -1    0    0  501    0  0.00000000000E+00  0.00000000000E+00  0.18532065230E+04  0.18532065230E+04  0.50400001928E-02 0. -1.
       -1   -1    0    0    0  501  0.00000000000E+00  0.00000000000E+00 -0.17472889240E+04  0.17472889240E+04  0.50400001928E-02 0.  1.
    10030    2    1    2    0    0  0.00000000000E+00  0.00000000000E+00  0.10591759900E+03  0.36004954470E+04  0.35989371940E+04 0.  0.
        3    1    3    3  502    0  0.30124203769E+03  0.94176365698E+03 -0.14511620435E+04  0.17560002385E+04  0.10100000352E+00 0.  1.
       -3    1    3    3    0  502 -0.30124203769E+03 -0.94176365698E+03  0.15570796425E+04  0.18444952085E+04  0.10100000352E+00 0. -1.
</event>
<event>
 5   0  0.3202875E-08  0.3598092E+04  0.7818609E-02  0.8090929E-01
       -1   -1    0    0    0  501  0.00000000000E+00  0.00000000000E+00  0.23799192540E+04  0.23799192540E+04  0.50400001928E-02 0. -1.
        1   -1    0    0  501    0  0.00000000000E+00  0.00000000000E+00 -0.13599480471E+04  0.13599480471E+04  0.50400001928E-02 0.  1.
    10030    2    1    2    0    0  0.00000000000E+00  0.00000000000E+00  0.10199712070E+04  0.37398673011E+04  0.35980920176E+04 0.  0.
        2    1    3    3  502    0 -0.20224691428E+03 -0.38631080498E+03 -0.13041898760E+04  0.13751549313E+04  0.25500000920E-02 0.  1.
       -2    1    3    3    0  502  0.20224691428E+03  0.38631080498E+03  0.23241610830E+04  0.23647123698E+04  0.25500000920E-02 0. -1.
</event>
<event>
 5   0  0.3202875E-08  0.3603385E+04  0.7818609E-02  0.8089717E-01
       -1   -1    0    0    0  501  0.00000000000E+00  0.00000000000E+00  0.17497389742E+04  0.17497389742E+04  0.50400001928E-02 0. -1.
        1   -1    0    0  501    0  0.00000000000E+00  0.00000000000E+00 -0.18551889956E+04  0.18551889956E+04  0.50400001928E-02 0.  1.
    10030    2    1    2    0    0  0.00000000000E+00  0.00000000000E+00 -0.10545002138E+03  0.36049279698E+04  0.36033853472E+04 0.  0.
        2    1    3    3  502    0  0.94506490129E+03 -0.25858285901E+03  0.14599023421E+04  0.17582171683E+04  0.25500000920E-02 0. -1.
       -2    1    3    3    0  502 -0.94506490129E+03  0.25858285901E+03 -0.15653523634E+04  0.18467108015E+04  0.25500000920E-02 0.  1.
</event>
<event>
 5   0  0.9905335E-08  0.3606724E+04  0.7818609E-02  0.8088953E-01
        2   -1    0    0  501    0  0.00000000000E+00  0.00000000000E+00  0.21780574268E+04  0.21780574268E+04  0.25500000920E-02 0. -1.
       -2   -1    0    0    0  501  0.00000000000E+00  0.00000000000E+00 -0.14931259314E+04  0.14931259314E+04  0.25500000920E-02 0.  1.
    10030    2    1    2    0    0  0.00000000000E+00  0.00000000000E+00  0.68493149537E+03  0.36711833582E+04  0.36067237343E+04 0.  0.
        5    1    3    3  502    0 -0.84220902366E+03 -0.14797688985E+04  0.94727356510E+03  0.19484304786E+04  0.46999998093E+01 0. -1.
       -5    1    3    3    0  502  0.84220902366E+03  0.14797688985E+04 -0.26234206973E+03  0.17227528796E+04  0.46999998093E+01 0.  1.
</event>
<event>
 5   0  0.3279988E-08  0.3598095E+04  0.7818609E-02  0.8090928E-01
        1   -1    0    0  501    0  0.00000000000E+00  0.00000000000E+00  0.14272596338E+04  0.14272596338E+04  0.50400001928E-02 0.  1.
       -1   -1    0    0    0  501  0.00000000000E+00  0.00000000000E+00 -0.22676826046E+04  0.22676826046E+04  0.50400001928E-02 0. -1.
    10030    2    1    2    0    0  0.00000000000E+00  0.00000000000E+00 -0.84042297074E+03  0.36949422384E+04  0.35980949647E+04 0.  0.
        5    1    3    3  502    0 -0.59853279460E+03  0.13463834795E+04  0.63983263266E+03  0.16063616865E+04  0.46999998093E+01 0.  1.
       -5    1    3    3    0  502  0.59853279460E+03 -0.13463834795E+04 -0.14802556034E+04  0.20885805519E+04  0.46999998093E+01 0. -1.
</event>
<event>
 5   0  0.3212523E-08  0.3605155E+04  0.7818609E-02  0.8089312E-01
        1   -1    0    0  501    0  0.00000000000E+00  0.00000000000E+00  0.18472096606E+04  0.18472096606E+04  0.50400001928E-02 0. -1.
       -1   -1    0    0    0  501  0.00000000000E+00  0.00000000000E+00 -0.17590240037E+04  0.17590240037E+04  0.50400001928E-02 0.  1.
    10030    2    1    2    0    0  0.00000000000E+00  0.00000000000E+00  0.88185656870E+02  0.36062336643E+04  0.36051552714E+04 0.  0.
        3    1    3    3  502    0 -0.10608797747E+04  0.40521850255E+03  0.14443751960E+04  0.18373588785E+04  0.10100000352E+00 0. -1.
       -3    1    3    3    0  502  0.10608797747E+04 -0.40521850255E+03 -0.13561895392E+04  0.17688747857E+04  0.10100000352E+00 0.  1.
</event>
<event>
 5   0  0.3279988E-08  0.3611020E+04  0.7818609E-02  0.8087972E-01
        1   -1    0    0  501    0  0.00000000000E+00  0.00000000000E+00  0.20173604003E+04  0.20173604003E+04  0.50400001928E-02 0.  1.
       -1   -1    0    0    0  501  0.00000000000E+00  0.00000000000E+00 -0.16159066883E+04  0.16159066883E+04  0.50400001928E-02 0. -1.
    10030    2    1    2    0    0  0.00000000000E+00  0.00000000000E+00  0.40145371201E+03  0.36332670886E+04  0.36110198912E+04 0.  0.
        5    1    3    3  502    0 -0.11853045374E+04  0.13562706780E+04  0.75755856841E+02  0.18028250160E+04  0.46999998093E+01 0.  1.
       -5    1    3    3    0  502  0.11853045374E+04 -0.13562706780E+04  0.32569785517E+03  0.18304420727E+04  0.46999998093E+01 0. -1.
</event>
<event>
 5   0  0.3202875E-08  0.3575081E+04  0.7818609E-02  0.8096224E-01
        1   -1    0    0  501    0  0.00000000000E+00  0.00000000000E+00  0.20077828279E+04  0.20077828279E+04  0.50400001928E-02 0.  1.
       -1   -1    0    0    0  501  0.00000000000E+00  0.00000000000E+00 -0.15914577980E+04  0.15914577980E+04  0.50400001928E-02 0. -1.
    10030    2    1    2    0    0  0.00000000000E+00  0.00000000000E+00  0.41632502996E+03  0.35992406259E+04  0.35750813351E+04 0.  0.
        1    1    3    3  502    0 -0.62598204444E+03  0.16742019243E+04  0.18574016698E+03  0.17970267146E+04  0.50400001928E-02 0.  1.
       -1    1    3    3    0  502  0.62598204444E+03 -0.16742019243E+04  0.23058486298E+03  0.18022139113E+04  0.50400001928E-02 0. -1.
</event>
<event>
 5   0  0.1044678E-07  0.3599092E+04  0.7818609E-02  0.8090700E-01
        2   -1    0    0  501    0  0.00000000000E+00  0.00000000000E+00  0.19520894891E+04  0.19520894891E+04  0.25500000920E-02 0. -1.
       -2   -1    0    0    0  501  0.00000000000E+00  0.00000000000E+00 -0.16589227024E+04  0.16589227024E+04  0.25500000920E-02 0.  1.
    10030    2    1    2    0    0  0.00000000000E+00  0.00000000000E+00  0.29316678673E+03  0.36110121915E+04  0.35990918691E+04 0.  0.
        2    1    3    3  502    0  0.58863083778E+03 -0.10680980505E+04 -0.11810702228E+04  0.16977180508E+04  0.25500000920E-02 0.  1.
       -2    1    3    3    0  502 -0.58863083778E+03  0.10680980505E+04  0.14742370095E+04  0.19132941407E+04  0.25500000920E-02 0. -1.
</event>
<event>
 5   0  0.1017794E-07  0.3601839E+04  0.7818609E-02  0.8090071E-01
        2   -1    0    0  501    0  0.00000000000E+00  0.00000000000E+00  0.27355723604E+04  0.27355723604E+04  0.25500000920E-02 0.  1.
       -2   -1    0    0    0  501  0.00000000000E+00  0.00000000000E+00 -0.11856058777E+04  0.11856058777E+04  0.25500000920E-02 0. -1.
    10030    2    1    2    0    0  0.00000000000E+00  0.00000000000E+00  0.15499664826E+04  0.39211782381E+04  0.36018387912E+04 0.  0.
        1    1    3    3  502    0 -0.48769099204E+03  0.14743833749E+04 -0.21782574000E+03  0.15681507877E+04  0.50400001928E-02 0. -1.
       -1    1    3    3    0  502  0.48769099204E+03 -0.14743833749E+04  0.17677922226E+04  0.23530274504E+04  0.50400001928E-02 0.  1.
</event>
<event>
 5   0  0.3202875E-08  0.3598928E+04  0.7818609E-02  0.8090737E-01
        3   -1    0    0  501    0  0.00000000000E+00  0.00000000000E+00  0.20804930604E+04  0.20804930628E+04  0.10100000352E+00 0. -1.
       -3   -1    0    0    0  501  0.00000000000E+00  0.00000000000E+00 -0.15563960266E+04  0.15563960299E+04  0.10100000352E+00 0.  1.
    10030    2    1    2    0    0  0.00000000000E+00  0.00000000000E+00  0.52409703379E+03  0.36368890927E+04  0.35989282532E+04 0.  0.
        1    1    3    3  502    0  0.42397850274E+03  0.59061586195E+03 -0.14013654601E+04  0.15787368431E+04  0.50400001928E-02 0.  1.
       -1    1    3    3    0  502 -0.42397850274E+03 -0.59061586195E+03  0.19254624939E+04  0.20581522496E+04  0.50400001928E-02 0. -1.
</event>
<event>
 5   0  0.3202875E-08  0.3647983E+04  0.7818609E-02  0.8079588E-01
        1   -1    0    0  501    0  0.00000000000E+00  0.00000000000E+00  0.12051470184E+04  0.12051470184E+04  0.50400001928E-02 0.  1.
       -1   -1    0    0    0  501  0.00000000000E+00  0.00000000000E+00 -0.27606132686E+04  0.27606132686E+04  0.50400001928E-02 0. -1.
    10030    2    1    2    0    0  0.00000000000E+00  0.00000000000E+00 -0.15554662502E+04  0.39657602870E+04  0.36479829219E+04 0.  0.
        2    1    3    3  502    0  0.73314088781E+03  0.85597236045E+02  0.10355339656E+04  0.12716733236E+04  0.25500000920E-02 0.  1.
       -2    1    3    3    0  502 -0.73314088781E+03 -0.85597236045E+02 -0.25910002158E+04  0.26940869634E+04  0.25500000920E-02 0. -1.
</event>
<event>
 5   0  0.3212523E-08  0.3530678E+04  0.7818609E-02  0.8106558E-01
       -1   -1    0    0    0  501  0.00000000000E+00  0.00000000000E+00  0.11476842519E+04  0.11476842519E+04  0.50400001928E-02 0. -1.
        1   -1    0    0  501    0  0.00000000000E+00  0.00000000000E+00 -0.27153994633E+04  0.27153994633E+04  0.50400001928E-02 0.  1.
    10030    2    1    2    0    0  0.00000000000E+00  0.00000000000E+00 -0.15677152114E+04  0.38630837152E+04  0.35306776696E+04 0.  0.
        3    1    3    3  502    0  0.93517030973E+03  0.10480164977E+04 -0.19538998950E+04  0.24063679888E+04  0.10100000352E+00 0.  1.
       -3    1    3    3    0  502 -0.93517030973E+03 -0.10480164977E+04  0.38618468359E+03  0.14567157265E+04  0.10100000352E+00 0. -1.
</event>
<event>
 5   0  0.1044678E-07  0.3607029E+04  0.7818609E-02  0.8088884E-01
        2   -1    0    0  501    0  0.00000000000E+00  0.00000000000E+00  0.20600289746E+04  0.20600289746E+04  0.25500000920E-02 0.  1.
       -2   -1    0    0    0  501  0.00000000000E+00  0.00000000000E+00 -0.15789412116E+04  0.15789412116E+04  0.25500000920E-02 0. -1.
    10030    2    1    2    0    0  0.00000000000E+00  0.00000000000E+00  0.48108776298E+03  0.36389701861E+04  0.36070290517E+04 0.  0.
        2    1    3    3  502    0  0.12755024313E+03  0.67440810984E+01  0.20554601988E+04  0.20594249624E+04  0.25500000920E-02 0.  1.
       -2    1    3    3    0  502 -0.12755024313E+03 -0.67440810984E+01 -0.15743724358E+04  0.15795452237E+04  0.25500000920E-02 0. -1.
</event>
<event>
 5   0  0.1021087E-07  0.3601840E+04  0.7818609E-02  0.8090070E-01
       -2   -1    0    0    0  501  0.00000000000E+00  0.00000000000E+00  0.11812760053E+04  0.11812760053E+04  0.25500000920E-02 0. -1.
        2   -1    0    0  501    0  0.00000000000E+00  0.00000000000E+00 -0.27456015409E+04  0.27456015409E+04  0.25500000920E-02 0.  1.
    10030    2    1    2    0    0  0.00000000000E+00  0.00000000000E+00 -0.15643255356E+04  0.39268775462E+04  0.36018402077E+04 0.  0.
        3    1    3    3  502    0 -0.12560041470E+04  0.10652845109E+04 -0.15765712679E+04  0.22799022961E+04  0.10100000352E+00 0.  1.
       -3    1    3    3    0  502  0.12560041470E+04 -0.10652845109E+04  0.12245732332E+02  0.16469752501E+04  0.10100000352E+00 0. -1.
</event>
<event>
 5   0  0.3202875E-08  0.3601363E+04  0.7818609E-02  0.8090180E-01
        1   -1    0    0  501    0  0.00000000000E+00  0.00000000000E+00  0.18060616653E+04  0.18060616653E+04  0.50400001928E-02 0.  1.
       -1   -1    0    0    0  501  0.00000000000E+00  0.00000000000E+00 -0.17953171948E+04  0.17953171948E+04  0.50400001928E-02 0. -1.
    10030    2    1    2    0    0  0.00000000000E+00  0.00000000000E+00  0.10744470549E+02  0.36013788601E+04  0.36013628324E+04 0.  0.
        1    1    3    3  502    0 -0.14368731063E+04 -0.42721994351E+03 -0.99229565455E+03  0.17977129553E+04  0.50400001928E-02 0. -1.
       -1    1    3    3    0  502  0.14368731063E+04  0.42721994351E+03  0.10030401251E+04  0.18036659048E+04  0.50400001928E-02 0.  1.
</event>
<event>
 5   0  0.1044678E-07  0.3605807E+04  0.7818609E-02  0.8089163E-01
        2   -1    0    0  501    0  0.00000000000E+00  0.00000000000E+00  0.10894107892E+04  0.10894107892E+04  0.25500000920E-02 0.  1.
       -2   -1    0    0    0  501  0.00000000000E+00  0.00000000000E+00 -0.29836869671E+04  0.29836869671E+04  0.25500000920E-02 0. -1.
    10030    2    1    2    0    0  0.00000000000E+00  0.00000000000E+00 -0.18942761779E+04  0.40730977563E+04  0.36058068575E+04 0.  0.
        2    1    3    3  502    0 -0.20886470189E+03  0.13197545047E+04  0.42013003469E+03  0.14006732890E+04  0.25500000920E-02 0.  1.
       -2    1    3    3    0  502  0.20886470189E+03 -0.13197545047E+04 -0.23144062126E+04  0.26724244673E+04  0.25500000920E-02 0. -1.
</event>
<event>
 5   0  0.3215494E-08  0.3601816E+04  0.7818609E-02  0.8090076E-01
        1   -1    0    0  501    0  0.00000000000E+00  0.00000000000E+00  0.19755329467E+04  0.19755329467E+04  0.50400001928E-02 0.  1.
       -1   -1    0    0    0  501  0.00000000000E+00  0.00000000000E+00 -0.16417190769E+04  0.16417190769E+04  0.50400001928E-02 0. -1.
    10030    2    1    2    0    0  0.00000000000E+00  0.00000000000E+00  0.33381386981E+03  0.36172520236E+04  0.36018162783E+04 0.  0.
        4    1    3    3  502    0 -0.51378794198E+03  0.71575398049E+03 -0.14104886324E+04  0.16630579078E+04  0.12699999809E+01 0. -1.
       -4    1    3    3    0  502  0.51378794198E+03 -0.71575398049E+03  0.17443025022E+04  0.19541941157E+04  0.12699999809E+01 0.  1.
</event>
<event>
 5   0  0.3212523E-08  0.3598641E+04  0.7818609E-02  0.8090803E-01
       -1   -1    0    0    0  501  0.00000000000E+00  0.00000000000E+00  0.12567991470E+04  0.12567991470E+04  0.50400001928E-02 0.  1.
        1   -1    0    0  501    0  0.00000000000E+00  0.00000000000E+00 -0.25760311287E+04  0.25760311287E+04  0.50400001928E-02 0. -1.
    10030    2    1    2    0    0  0.00000000000E+00  0.00000000000E+00 -0.13192319817E+04  0.38328302757E+04  0.35986407018E+04 0.  0.
        3    1    3    3  502    0  0.20389097271E+01  0.55375431505E+03  0.11637843208E+04  0.12888141658E+04  0.10100000352E+00 0.  1.
       -3    1    3    3    0  502 -0.20389097271E+01 -0.55375431505E+03 -0.24830163025E+04  0.25440161098E+04  0.10100000352E+00 0. -1.
</event>
<event>
 5   0  0.9905335E-08  0.3609513E+04  0.7818609E-02  0.8088316E-01
        2   -1    0    0  501    0  0.00000000000E+00  0.00000000000E+00  0.25157679050E+04  0.25157679050E+04  0.25500000920E-02 0.  1.
       -2   -1    0    0    0  501  0.00000000000E+00  0.00000000000E+00 -0.12946929179E+04  0.12946929179E+04  0.25500000920E-02 0. -1.
    10030    2    1    2    0    0  0.00000000000E+00  0.00000000000E+00  0.12210749871E+04  0.38104608229E+04  0.36095134795E+04 0.  0.
        5    1    3    3  502    0 -0.91500135650E+03  0.15518977459E+04  0.72379833117E+03  0.19415252278E+04  0.46999998093E+01 0. -1.
       -5    1    3    3    0  502  0.91500135650E+03 -0.15518977459E+04  0.49727665592E+03  0.18689355951E+04  0.46999998093E+01 0.  1.
</event>
<event>
 5   0  0.1044678E-07  0.3598837E+04  0.7818609E-02  0.8090758E-01
       -2   -1    0    0    0  501  0.00000000000E+00  0.00000000000E+00  0.14300623491E+04  0.14300623491E+04  0.25500000920E-02 0.  1.
        2   -1    0    0  501    0  0.00000000000E+00  0.00000000000E+00 -0.22641724372E+04  0.22641724372E+04  0.25500000920E-02 0. -1.
    10030    2    1    2    0    0  0.00000000000E+00  0.00000000000E+00 -0.83411008812E+03  0.36942347862E+04  0.35988374535E+04 0.  0.
        2    1    3    3  502    0 -0.20646100660E+03 -0.98602307393E+03 -0.19475641249E+04  0.21926864049E+04  0.25500000920E-02 0. -1.
       -2    1    3    3    0  502  0.20646100660E+03  0.98602307393E+03  0.11134540368E+04  0.15015483814E+04  0.25500000920E-02 0.  1.
</event>
<event>
 5   0  0.3202875E-08  0.3603145E+04  0.7818609E-02  0.8089772E-01
        3   -1    0    0  501    0  0.00000000000E+00  0.00000000000E+00  0.10721230402E+04  0.10721230449E+04  0.10100000352E+00 0. -1.
       -3   -1    0    0    0  501  0.00000000000E+00  0.00000000000E+00 -0.30273242954E+04  0.30273242971E+04  0.10100000352E+00 0.  1.
    10030    2    1    2    0    0  0.00000000000E+00  0.00000000000E+00 -0.19552012553E+04  0.40994473420E+04  0.36031453706E+04 0.  0.
        4    1    3    3  502    0 -0.12887079026E+04 -0.80654093624E+03  0.12218169019E+03  0.15251905843E+04  0.12699999809E+01 0. -1.
       -4    1    3    3    0  502  0.12887079026E+04  0.80654093624E+03 -0.20773829455E+04  0.25742567578E+04  0.12699999809E+01 0.  1.
</event>
<event>
 5   0  0.3202875E-08  0.3591274E+04  0.7818609E-02  0.8092493E-01
       -1   -1    0    0    0  501  0.00000000000E+00  0.00000000000E+00  0.18272106113E+04  0.18272106113E+04  0.50400001928E-02 0.  1.
        1   -1    0    0  501    0  0.00000000000E+00  0.00000000000E+00 -0.17646092420E+04  0.17646092420E+04  0.50400001928E-02 0. -1.
    10030    2    1    2    0    0  0.00000000000E+00  0.00000000000E+00  0.62601369291E+02  0.35918198534E+04  0.35912742763E+04 0.  0.
        2    1    3    3  502    0  0.31548726741E+03  0.14380920796E+04  0.10594022189E+04  0.18138285770E+04  0.25500000920E-02 0.  1.
       -2    1    3    3    0  502 -0.31548726741E+03 -0.14380920796E+04 -0.99680084957E+03  0.17779912764E+04  0.25500000920E-02 0. -1.
</event>
<event>
 5   0  0.3202875E-08  0.3599146E+04  0.7818609E-02  0.8090687E-01
        1   -1    0    0  501    0  0.00000000000E+00  0.00000000000E+00  0.27002066523E+04  0.27002066523E+04  0.50400001928E-02 0.  1.
       -1   -1    0    0    0  501  0.00000000000E+00  0.00000000000E+00 -0.11993389736E+04  0.11993389736E+04  0.50400001928E-02 0. -1.
    10030    2    1    2    0    0  0.00000000000E+00  0.00000000000E+00  0.15008676787E+04  0.38995456259E+04  0.35991460514E+04 0.  0.
        1    1    3    3  502    0  0.10758371024E+04  0.14413715414E+04  0.68646646706E+03  0.19251528775E+04  0.50400001928E-02 0. -1.
       -1    1    3    3    0  502 -0.10758371024E+04 -0.14413715414E+04  0.81440121164E+03  0.19743927484E+04  0.50400001928E-02 0.  1.
</event>
<event>
 5   0  0.1044678E-07  0.3610227E+04  0.7818609E-02  0.8088153E-01
       -2   -1    0    0    0  501  0.00000000000E+00  0.00000000000E+00  0.14088419319E+04  0.14088419319E+04  0.25500000920E-02 0. -1.
        2   -1    0    0  501    0  0.00000000000E+00  0.00000000000E+00 -0.23128465171E+04  0.23128465171E+04  0.25500000920E-02 0.  1.
    10030    2    1    2    0    0  0.00000000000E+00  0.00000000000E+00 -0.90400458516E+03  0.37216884490E+04  0.36102272257E+04 0.  0.
        2    1    3    3  502    0  0.10444320061E+04  0.62571276351E+03 -0.18258443200E+04  0.21945528379E+04  0.25500000920E-02 0.  1.
       -2    1    3    3    0  502 -0.10444320061E+04 -0.62571276351E+03  0.92183973480E+03  0.15271356110E+04  0.25500000920E-02 0. -1.
</event>
<event>
 5   0  0.3202875E-08  0.3599648E+04  0.7818609E-02  0.8090572E-01
       -1   -1    0    0    0  501  0.00000000000E+00  0.00000000000E+00  0.21330935239E+04  0.21330935239E+04  0.50400001928E-02 0. -1.
        1   -1    0    0  501    0  0.00000000000E+00  0.00000000000E+00 -0.15186240891E+04  0.15186240891E+04  0.50400001928E-02 0.  1.
    10030    2    1    2    0    0  0.00000000000E+00  0.00000000000E+00  0.61446943483E+03  0.36517176130E+04  0.35996484326E+04 0.  0.
        1    1    3    3  502    0 -0.54569731166E+03 -0.16610564820E+04  0.74058234818E+03  0.18987776085E+04  0.50400001928E-02 0. -1.
       -1    1    3    3    0  502  0.54569731166E+03  0.16610564820E+04 -0.12611291335E+03  0.17529400044E+04  0.50400001928E-02 0.  1.
</event>
<event>
 5   0  0.9905335E-08  0.3598964E+04  0.7818609E-02  0.8090729E-01
        2   -1    0    0  501    0  0.00000000000E+00  0.00000000000E+00  0.26883522315E+04  0.26883522315E+04  0.25500000920E-02 0. -1.
       -2   -1    0    0    0  501  0.00000000000E+00  0.00000000000E+00 -0.12045053312E+04  0.12045053312E+04  0.25500000920E-02 0.  1.
    10030    2    1    2    0    0  0.00000000000E+00  0.00000000000E+00  0.14838469003E+04  0.38928575626E+04  0.35989635146E+04 0.  0.
        5    1    3    3  502    0  0.10955327593E+04  0.89504031693E+03  0.19448660372E+04  0.24049563797E+04  0.46999998093E+01 0.  1.
       -5    1    3    3    0  502 -0.10955327593E+04 -0.89504031693E+03 -0.46101913695E+03  0.14879011829E+04  0.46999998093E+01 0. -1.
</event>
<event>
 5   0  0.3212523E-08  0.3598917E+04  0.7818609E-02  0.8090740E-01
        1   -1    0    0  501    0  0.00000000000E+00  0.00000000000E+00  0.23861563055E+04  0.23861563055E+04  0.50400001928E-02 0. -1.
       -1   -1    0    0    0  501  0.00000000000E+00  0.00000000000E+00 -0.13570152464E+04  0.13570152464E+04  0.50400001928E-02 0.  1.
    10030    2    1    2    0    0  0.00000000000E+00  0.00000000000E+00  0.10291410591E+04  0.37431715520E+04  0.35989167742E+04 0.  0.
        3    1    3    3  502    0 -0.82898042386E+03  0.26156009975E+03  0.21532962878E+04  0.23221341783E+04  0.10100000352E+00 0. -1.
       -3    1    3    3    0  502  0.82898042386E+03 -0.26156009975E+03 -0.11241552287E+04  0.14210373737E+04  0.10100000352E+00 0.  1.
</event>
<event>
 5   0  0.3279988E-08  0.3586726E+04  0.7818609E-02  0.8093539E-01
        1   -1    0    0  501    0  0.00000000000E+00  0.00000000000E+00  0.17184317008E+04  0.17184317008E+04  0.50400001928E-02 0. -1.
       -1   -1    0    0    0  501  0.00000000000E+00  0.00000000000E+00 -0.18715615974E+04  0.18715615974E+04  0.50400001928E-02 0.  1.
    10030    2    1    2    0    0  0.00000000000E+00  0.00000000000E+00 -0.15312989655E+03  0.35899932982E+04  0.35867259605E+04 0.  0.
        5    1    3    3  502    0  0.97774388935E+03  0.12541600397E+04 -0.90631238320E+03  0.18303892330E+04  0.46999998093E+01 0.  1.
       -5    1    3    3    0  502 -0.97774388935E+03 -0.12541600397E+04  0.75318248665E+03  0.17596040652E+04  0.46999998093E+01 0. -1.
</event>
<event>
 5   0  0.1044678E-07  0.3607091E+04  0.7818609E-02  0.8088869E-01
       -2   -1    0    0    0  501  0.00000000000E+00  0.00000000000E+00  0.14221380954E+04  0.14221380954E+04  0.25500000920E-02 0. -1.
        2   -1    0    0  501    0  0.00000000000E+00  0.00000000000E+00 -0.22872435998E+04  0.22872435998E+04  0.25500000920E-02 0.  1.
    10030    2    1    2    0    0  0.00000000000E+00  0.00000000000E+00 -0.86510550438E+03  0.37093816953E+04  0.36070909369E+04 0.  0.
        2    1    3    3  502    0 -0.13128472151E+03  0.17110036311E+04 -0.10032750423E+04  0.19877952395E+04  0.25500000920E-02 0. -1.
       -2    1    3    3    0  502  0.13128472151E+03 -0.17110036311E+04  0.13816953787E+03  0.17215864558E+04  0.25500000920E-02 0.  1.
</event>
<event>
 5   0  0.3202875E-08  0.3592285E+04  0.7818609E-02  0.8092261E-01
        1   -1    0    0  501    0  0.00000000000E+00  0.00000000000E+00  0.13072479161E+04  0.13072479161E+04  0.50400001928E-02 0. -1.
       -1   -1    0    0    0  501  0.00000000000E+00  0.00000000000E+00 -0.24678775692E+04  0.24678775692E+04  0.50400001928E-02 0.  1.
    10030    2    1    2    0    0  0.00000000000E+00  0.00000000000E+00 -0.11606296531E+04  0.37751254854E+04  0.35922849606E+04 0.  0.
        1    1    3    3  502    0 -0.12478380676E+04  0.12918718176E+04 -0.57006258663E+03  0.18844107802E+04  0.50400001928E-02 0.  1.
       -1    1    3    3    0  502  0.12478380676E+04 -0.12918718176E+04 -0.59056706651E+03  0.18907147051E+04  0.50400001928E-02 0. -1.
</event>
<event>
 5   0  0.1044678E-07  0.3591752E+04  0.7818609E-02  0.8092384E-01
        2   -1    0    0  501    0  0.00000000000E+00  0.00000000000E+00  0.11117459626E+04  0.11117459626E+04  0.25500000920E-02 0.  1.
       -2   -1    0    0    0  501  0.00000000000E+00  0.00000000000E+00 -0.29009956985E+04  0.29009956985E+04  0.25500000920E-02 0. -1.
    10030    2    1    2    0    0  0.00000000000E+00  0.00000000000E+00 -0.17892497359E+04  0.40127416611E+04  0.35917518040E+04 0.  0.
        2    1    3    3  502    0 -0.42864528802E+03 -0.43017871815E+03 -0.27828025262E+04  0.28482942988E+04  0.25500000920E-02 0. -1.
       -2    1    3    3    0  502  0.42864528802E+03  0.43017871815E+03  0.99355279034E+03  0.11644473624E+04  0.25500000920E-02 0.  1.
</event>
<event>
 5   0  0.3202875E-08  0.3597210E+04  0.7818609E-02  0.8091131E-01
        1   -1    0    0  501    0  0.00000000000E+00  0.00000000000E+00  0.16787642385E+04  0.16787642385E+04  0.50400001928E-02 0.  1.
       -1   -1    0    0    0  501  0.00000000000E+00  0.00000000000E+00 -0.19270004482E+04  0.19270004482E+04  0.50400001928E-02 0. -1.
    10030    2    1    2    0    0  0.00000000000E+00  0.00000000000E+00 -0.24823620977E+03  0.36057646867E+04  0.35972097187E+04 0.  0.
        2    1    3    3  502    0 -0.90423180073E+03  0.15271108656E+04  0.16859812482E+03  0.17827305105E+04  0.25500000920E-02 0.  1.
       -2    1    3    3    0  502  0.90423180073E+03 -0.15271108656E+04 -0.41683433459E+03  0.18230341762E+04  0.25500000920E-02 0. -1.
</event>
<event>
 5   0  0.3202875E-08  0.3607001E+04  0.7818609E-02  0.8088890E-01
       -1   -1    0    0    0  501  0.00000000000E+00  0.00000000000E+00  0.16302068066E+04  0.16302068066E+04  0.50400001928E-02 0. -1.
        1   -1    0    0  501    0  0.00000000000E+00  0.00000000000E+00 -0.19952153034E+04  0.19952153034E+04  0.50400001928E-02 0.  1.
    10030    2    1    2    0    0  0.00000000000E+00  0.00000000000E+00 -0.36500849680E+03  0.36254221101E+04  0.36070007310E+04 0.  0.
        2    1    3    3  502    0  0.12762646956E+04 -0.24070830154E+03  0.10752143293E+04  0.16860836021E+04  0.25500000920E-02 0. -1.
       -2    1    3    3    0  502 -0.12762646956E+04  0.24070830154E+03 -0.14402228261E+04  0.19393385079E+04  0.25500000920E-02 0.  1.
</event>
<event>
 5   0  0.3215494E-08  0.3607185E+04  0.7818609E-02  0.8088848E-01
       -1   -1    0    0    0  501  0.00000000000E+00  0.00000000000E+00  0.12931921031E+04  0.12931921031E+04  0.50400001928E-02 0. -1.
        1   -1    0    0  501    0  0.00000000000E+00  0.00000000000E+00 -0.25154390354E+04  0.25154390355E+04  0.50400001928E-02 0.  1.
    10030    2    1    2    0    0  0.00000000000E+00  0.00000000000E+00 -0.12222469324E+04  0.38086311385E+04  0.36071849947E+04 0.  0.
        4    1    3    3  502    0  0.31956411099E+03  0.10148034066E+04 -0.21488196492E+04  0.23977853683E+04  0.12699999809E+01 0.  1.
       -4    1    3    3    0  502 -0.31956411099E+03 -0.10148034066E+04  0.92657271678E+03  0.14108457702E+04  0.12699999809E+01 0. -1.
</event>
<event>
 5   0  0.3215494E-08  0.3606239E+04  0.7818609E-02  0.8089064E-01
       -1   -1    0    0    0  501  0.00000000000E+00  0.00000000000E+00  0.12807943386E+04  0.12807943386E+04  0.50400001928E-02 0.  1.
        1   -1    0    0  501    0  0.00000000000E+00  0.00000000000E+00 -0.25384561039E+04  0.25384561039E+04  0.50400001928E-02 0. -1.
    10030    2    1    2    0    0  0.00000000000E+00  0.00000000000E+00 -0.12576617653E+04  0.38192504425E+04  0.36062391527E+04 0.  0.
        4    1    3    3  502    0 -0.85434924625E+03  0.18154275642E+03 -0.22994634128E+04  0.24597568999E+04  0.12699999809E+01 0. -1.
       -4    1    3    3    0  502  0.85434924625E+03 -0.18154275642E+03  0.10418016474E+04  0.13594935426E+04  0.12699999809E+01 0.  1.
</event>
<event>
 5   0  0.3279988E-08  0.3586303E+04  0.7818609E-02  0.8093636E-01
        1   -1    0    0  501    0  0.00000000000E+00  0.00000000000E+00  0.23570994014E+04  0.23570994014E+04  0.50400001928E-02 0. -1.
       -1   -1    0    0    0  501  0.00000000000E+00  0.00000000000E+00 -0.13641312282E+04  0.13641312282E+04  0.50400001928E-02 0.  1.
    10030    2    1    2    0    0  0.00000000000E+00  0.00000000000E+00  0.99296817317E+03  0.37212306296E+04  0.35863033344E+04 0.  0.
        5    1    3    3  502    0 -0.70156712527E+03 -0.15774859497E+04  0.99918264349E+03  0.19947547212E+04  0.46999998093E+01 0.  1.
       -5    1    3    3    0  502  0.70156712527E+03  0.15774859497E+04 -0.62144703211E+01  0.17264759084E+04  0.46999998093E+01 0. -1.
</event>
<event>
 5   0  0.3212523E-08  0.3582209E+04  0.7818609E-02  0.8094579E-01
        1   -1    0    0  501    0  0.00000000000E+00  0.00000000000E+00  0.29619152120E+04  0.29619152120E+04  0.50400001928E-02 0.  1.
       -1   -1    0    0    0  501  0.00000000000E+00  0.00000000000E+00 -0.10831016939E+04  0.10831016939E+04  0.50400001928E-02 0. -1.
    10030    2    1    2    0    0  0.00000000000E+00  0.00000000000E+00  0.18788135181E+04  0.40450169059E+04  0.35822090298E+04 0.  0.
        3    1    3    3  502    0 -0.96714164444E+03  0.79407794898E+03  0.23864234191E+04  0.26946130510E+04  0.10100000352E+00 0.  1.
       -3    1    3    3    0  502  0.96714164444E+03 -0.79407794898E+03 -0.50760990098E+03  0.13504038549E+04  0.10100000352E+00 0. -1.
</event>
<event>
 5   0  0.9905335E-08  0.3604073E+04  0.7818609E-02  0.8089559E-01
        2   -1    0    0  501    0  0.00000000000E+00  0.00000000000E+00  0.23773879989E+04  0.23773879989E+04  0.25500000920E-02 0. -1.
       -2   -1    0    0    0  501  0.00000000000E+00  0.00000000000E+00 -0.13659257440E+04  0.13659257440E+04  0.25500000920E-02 0.  1.
    10030    2    1    2    0    0  0.00000000000E+00  0.00000000000E+00  0.10114622548E+04  0.37433137429E+04  0.36040729578E+04 0.  0.
        5    1    3    3  502    0  0.58208253666E+03  0.10409919205E+04 -0.89732083811E+03  0.14925451533E+04  0.46999998093E+01 0.  1.
       -5    1    3    3    0  502 -0.58208253666E+03 -0.10409919205E+04  0.19087830930E+04  0.22507685896E+04  0.46999998093E+01 0. -1.
</event>
<event>
 5   0  0.3279988E-08  0.3599996E+04  0.7818609E-02  0.8090493E-01
        1   -1    0    0  501    0  0.00000000000E+00  0.00000000000E+00  0.13699649817E+04  0.13699649817E+04  0.50400001928E-02 0.  1.
       -1   -1    0    0    0  501  0.00000000000E+00  0.00000000000E+00 -0.23650193210E+04  0.23650193210E+04  0.50400001928E-02 0. -1.
    10030    2    1    2    0    0  0.00000000000E+00  0.00000000000E+00 -0.99505433928E+03  0.37349843026E+04  0.35999964726E+04 0.  0.
        5    1    3    3  502    0  0.16909559403E+04  0.22027930568E+03  0.10037756832E+03  0.17082016013E+04  0.46999998093E+01 0.  1.
       -5    1    3    3    0  502 -0.16909559403E+04 -0.22027930568E+03 -0.10954319076E+04  0.20267827014E+04  0.46999998093E+01 0. -1.
</event>
<event>
 5   0  0.1017794E-07  0.3601890E+04  0.7818609E-02  0.8090059E-01
       -2   -1    0    0    0  501  0.00000000000E+00  0.00000000000E+00  0.11685002461E+04  0.11685002462E+04  0.25500000920E-02 0.  1.
        2   -1    0    0  501    0  0.00000000000E+00  0.00000000000E+00 -0.27756979069E+04  0.27756979069E+04  0.25500000920E-02 0. -1.
    10030    2    1    2    0    0  0.00000000000E+00  0.00000000000E+00 -0.16071976608E+04  0.39441981531E+04  0.36018904411E+04 0.  0.
        1    1    3    3  502    0 -0.14213259319E+04 -0.11004710903E+04 -0.68264987272E+03  0.19228143108E+04  0.50400001928E-02 0.  1.
       -1    1    3    3    0  502  0.14213259319E+04  0.11004710903E+04 -0.92454778804E+03  0.20213838422E+04  0.50400001928E-02 0. -1.
</event>
<event>
 5   0  0.3212523E-08  0.3601536E+04  0.7818609E-02  0.8090140E-01
       -1   -1    0    0    0  501  0.00000000000E+00  0.00000000000E+00  0.16309291171E+04  0.16309291171E+04  0.50400001928E-02 0.  1.
        1   -1    0    0  501    0  0.00000000000E+00  0.00000000000E+00 -0.19882933055E+04  0.19882933055E+04  0.50400001928E-02 0. -1.
    10030    2    1    2    0    0  0.00000000000E+00  0.00000000000E+00 -0.35736418837E+03  0.36192224226E+04  0.36015360308E+04 0.  0.
        3    1    3    3  502    0 -0.15786668519E+03  0.17199092924E+04 -0.69084715122E+03  0.18601826956E+04  0.10100000352E+00 0.  1.
       -3    1    3    3    0  502  0.15786668519E+03 -0.17199092924E+04  0.33348296285E+03  0.17590397270E+04  0.10100000352E+00 0. -1.
</event>
<event>
 5   0  0.3215494E-08  0.3596047E+04  0.7818609E-02  0.8091398E-01
        1   -1    0    0  501    0  0.00000000000E+00  0.00000000000E+00  0.18147475958E+04  0.18147475958E+04  0.50400001928E-02 0.  1.
       -1   -1    0    0    0  501  0.00000000000E+00  0.00000000000E+00 -0.17814531084E+04  0.17814531084E+04  0.50400001928E-02 0. -1.
    10030    2    1    2    0    0  0.00000000000E+00  0.00000000000E+00  0.33294487474E+02  0.35962007042E+04  0.35960465767E+04 0.  0.
        4    1    3    3  502    0 -0.11885938903E+04 -0.13196349672E+04  0.29718422097E+03  0.18006976306E+04  0.12699999809E+01 0.  1.
       -4    1    3    3    0  502  0.11885938903E+04  0.13196349672E+04 -0.26388973349E+03  0.17955030736E+04  0.12699999809E+01 0. -1.
</event>
<event>
 5   0  0.1017794E-07  0.3568515E+04  0.7818609E-02  0.8097742E-01
        2   -1    0    0  501    0  0.00000000000E+00  0.00000000000E+00  0.18743621297E+04  0.18743621297E+04  0.25500000920E-02 0. -1.
       -2   -1    0    0    0  501  0.00000000000E+00  0.00000000000E+00 -0.16984845471E+04  0.16984845471E+04  0.25500000920E-02 0.  1.
    10030    2    1    2    0    0  0.00000000000E+00  0.00000000000E+00  0.17587758260E+03  0.35728466768E+04  0.35685151606E+04 0.  0.
        1    1    3    3  502    0  0.67267685672E+03 -0.71758019863E+03 -0.14025453237E+04  0.17130525036E+04  0.50400001928E-02 0.  1.
       -1    1    3    3    0  502 -0.67267685672E+03  0.71758019863E+03  0.15784229064E+04  0.18597941731E+04  0.50400001928E-02 0. -1.
</event>
<event>
 5   0  0.1021087E-07  0.3597848E+04  0.7818609E-02  0.8090985E-01
        2   -1    0    0  501    0  0.00000000000E+00  0.00000000000E+00  0.21644965725E+04  0.21644965725E+04  0.25500000920E-02 0.  1.
       -2   -1    0    0    0  501  0.00000000000E+00  0.00000000000E+00 -0.14950951903E+04  0.14950951903E+04  0.25500000920E-02 0. -1.
    10030    2    1    2    0    0  0.00000000000E+00  0.00000000000E+00  0.66940138226E+03  0.36595917628E+04  0.35978484765E+04 0.  0.
        3    1    3    3  502    0  0.12322919648E+04  0.13088373641E+03  0.16610938189E+04  0.20724156736E+04  0.10100000352E+00 0.  1.
       -3    1    3    3    0  502 -0.12322919648E+04 -0.13088373641E+03 -0.99169243659E+03  0.15871760892E+04  0.10100000352E+00 0. -1.
</event>
<event>
 5   0  0.1017794E-07  0.3597941E+04  0.7818609E-02  0.8090963E-01
        2   -1    0    0  501    0  0.00000000000E+00  0.00000000000E+00  0.18894055712E+04  0.18894055712E+04  0.25500000920E-02 0.  1.
       -2   -1    0    0    0  501  0.00000000000E+00  0.00000000000E+00 -0.17128640721E+04  0.17128640721E+04  0.25500000920E-02 0. -1.
    10030    2    1    2    0    0  0.00000000000E+00  0.00000000000E+00  0.17654149905E+03  0.36022696433E+04  0.35979410337E+04 0.  0.
        1    1    3    3  502    0 -0.14537374274E+04  0.37562423610E+03  0.10803457224E+04  0.18497548363E+04  0.50400001928E-02 0.  1.
       -1    1    3    3    0  502  0.14537374274E+04 -0.37562423610E+03 -0.90380422336E+03  0.17525148070E+04  0.50400001928E-02 0. -1.
</event>
<event>
 5   0  0.1021087E-07  0.3597525E+04  0.7818609E-02  0.8091059E-01
       -2   -1    0    0    0  501  0.00000000000E+00  0.00000000000E+00  0.11162273431E+04  0.11162273431E+04  0.25500000920E-02 0.  1.
        2   -1    0    0  501    0  0.00000000000E+00  0.00000000000E+00 -0.28986454714E+04  0.28986454714E+04  0.25500000920E-02 0. -1.
    10030    2    1    2    0    0  0.00000000000E+00  0.00000000000E+00 -0.17824181283E+04  0.40148728145E+04  0.35975254458E+04 0.  0.
        3    1    3    3  502    0  0.12538146041E+04  0.96164917925E+03  0.67992632799E+02  0.15815951485E+04  0.10100000352E+00 0.  1.
       -3    1    3    3    0  502 -0.12538146041E+04 -0.96164917925E+03 -0.18504107611E+04  0.24332776661E+04  0.10100000352E+00 0. -1.
</event>
<event>
 5   0  0.1044678E-07  0.3606617E+04  0.7818609E-02  0.8088978E-01
        2   -1    0    0  501    0  0.00000000000E+00  0.00000000000E+00  0.13870539790E+04  0.13870539790E+04  0.25500000920E-02 0. -1.
       -2   -1    0    0    0  501  0.00000000000E+00  0.00000000000E+00 -0.23444802627E+04  0.23444802627E+04  0.25500000920E-02 0.  1.
    10030    2    1    2    0    0  0.00000000000E+00  0.00000000000E+00 -0.95742628368E+03  0.37315342417E+04  0.36066165181E+04 0.  0.
        2    1    3    3  502    0 -0.18821830965E+03 -0.62510805039E+03 -0.22179276059E+04  0.23120097474E+04  0.25500000920E-02 0.  1.
       -2    1    3    3    0  502  0.18821830965E+03  0.62510805039E+03  0.12605013222E+04  0.14195244944E+04  0.25500000920E-02 0. -1.
</event>
<event>
 5   0  0.1017794E-07  0.3591921E+04  0.7818609E-02  0.8092345E-01
        2   -1    0    0  501    0  0.00000000000E+00  0.00000000000E+00  0.15673158531E+04  0.15673158531E+04  0.25500000920E-02 0. -1.
       -2   -1    0    0    0  501  0.00000000000E+00  0.00000000000E+00 -0.20579607872E+04  0.20579607872E+04  0.25500000920E-02 0.  1.
    10030    2    1    2    0    0  0.00000000000E+00  0.00000000000E+00 -0.49064493403E+03  0.36252766403E+04  0.35919212502E+04 0.  0.
        1    1    3    3  502    0 -0.39962158804E+03 -0.41518293923E+03  0.14714731887E+04  0.15802871992E+04  0.50400001928E-02 0. -1.
       -1    1    3    3    0  502  0.39962158804E+03  0.41518293923E+03 -0.19621181228E+04  0.20449894411E+04  0.50400001928E-02 0.  1.
</event>
<event>
 5   0  0.3279988E-08  0.3603569E+04  0.7818609E-02  0.8089675E-01
        1   -1    0    0  501    0  0.00000000000E+00  0.00000000000E+00  0.10215371160E+04  0.10215371160E+04  0.50400001928E-02 0.  1.
       -1   -1    0    0    0  501  0.00000000000E+00  0.00000000000E+00 -0.31779836227E+04  0.31779836227E+04  0.50400001928E-02 0. -1.
    10030    2    1    2    0    0  0.00000000000E+00  0.00000000000E+00 -0.21564465067E+04  0.41995207388E+04  0.36035694664E+04 0.  0.
        5    1    3    3  502    0 -0.47116346737E+03  0.95180587595E+03  0.61798306806E+03  0.12287614093E+04  0.46999998093E+01 0.  1.
       -5    1    3    3    0  502  0.47116346737E+03 -0.95180587595E+03 -0.27744295748E+04  0.29707593295E+04  0.46999998093E+01 0. -1.
</event>
<event>
 5   0  0.3279988E-08  0.3590046E+04  0.7818609E-02  0.8092776E-01
       -1   -1    0    0    0  501  0.00000000000E+00  0.00000000000E+00  0.19203465022E+04  0.19203465022E+04  0.50400001928E-02 0. -1.
        1   -1    0    0  501    0  0.00000000000E+00  0.00000000000E+00 -0.16778779826E+04  0.16778779826E+04  0.50400001928E-02 0.  1.
    10030    2    1    2    0    0  0.00000000000E+00  0.00000000000E+00  0.24246851967E+03  0.35982244848E+04  0.35900457463E+04 0.  0.
        5    1    3    3  502    0  0.30842248135E+03 -0.85792151211E+03 -0.14285520440E+04  0.16946789608E+04  0.46999998093E+01 0.  1.
       -5    1    3    3    0  502 -0.30842248135E+03  0.85792151211E+03  0.16710205636E+04  0.19035455240E+04  0.46999998093E+01 0. -1.
</event>
<event>
 5   0  0.1044678E-07  0.3593372E+04  0.7818609E-02  0.8092011E-01
       -2   -1    0    0    0  501  0.00000000000E+00  0.00000000000E+00  0.10131187143E+04  0.10131187143E+04  0.25500000920E-02 0. -1.
        2   -1    0    0  501    0  0.00000000000E+00  0.00000000000E+00 -0.31862814841E+04  0.31862814841E+04  0.25500000920E-02 0.  1.
    10030    2    1    2    0    0  0.00000000000E+00  0.00000000000E+00 -0.21731627698E+04  0.41994001983E+04  0.35933724552E+04 0.  0.
        2    1    3    3  502    0  0.12909047956E+04 -0.12353721542E+04 -0.13067779400E+04  0.22136504094E+04  0.25500000920E-02 0.  1.
       -2    1    3    3    0  502 -0.12909047956E+04  0.12353721542E+04 -0.86638482986E+03  0.19857497889E+04  0.25500000920E-02 0. -1.
</event>
<event>
 5   0  0.3212523E-08  0.3604102E+04  0.7818609E-02  0.8089553E-01
        1   -1    0    0  501    0  0.00000000000E+00  0.00000000000E+00  0.21470869565E+04  0.21470869565E+04  0.50400001928E-02 0.  1.
       -1   -1    0    0    0  501  0.00000000000E+00  0.00000000000E+00 -0.15124624288E+04  0.15124624288E+04  0.50400001928E-02 0. -1.
    10030    2    1    2    0    0  0.00000000000E+00  0.00000000000E+00  0.63462452770E+03  0.36595493853E+04  0.36041023033E+04 0.  0.
        3    1    3    3  502    0  0.11816408392E+04  0.12565623113E+04 -0.21240750799E+03  0.17379127926E+04  0.10100000352E+00 0. -1.
       -3    1    3    3    0  502 -0.11816408392E+04 -0.12565623113E+04  0.84703203569E+03  0.19216365927E+04  0.10100000352E+00 0.  1.
</event>
<event>
 5   0  0.3279988E-08  0.3595345E+04  0.7818609E-02  0.8091559E-01
        1   -1    0    0  501    0  0.00000000000E+00  0.00000000000E+00  0.18151568686E+04  0.18151568686E+04  0.50400001928E-02 0.  1.
       -1   -1    0    0    0  501  0.00000000000E+00  0.00000000000E+00 -0.17803570381E+04  0.17803570381E+04  0.50400001928E-02 0. -1.
    10030    2    1    2    0    0  0.00000000000E+00  0.00000000000E+00  0.34799830560E+02  0.35955139067E+04  0.35953454945E+04 0.  0.
        5    1    3    3  502    0 -0.75600085031E+03  0.82009610368E+03 -0.13924569968E+04  0.17841113987E+04  0.46999998093E+01 0. -1.
       -5    1    3    3    0  502  0.75600085031E+03 -0.82009610368E+03  0.14272568273E+04  0.18114025080E+04  0.46999998093E+01 0.  1.
</event>
<event>
 5   0  0.3202875E-08  0.3595476E+04  0.7818609E-02  0.8091529E-01
       -1   -1    0    0    0  501  0.00000000000E+00  0.00000000000E+00  0.17222448583E+04  0.17222448583E+04  0.50400001928E-02 0. -1.
        1   -1    0    0  501    0  0.00000000000E+00  0.00000000000E+00 -0.18765398811E+04  0.18765398811E+04  0.50400001928E-02 0.  1.
    10030    2    1    2    0    0  0.00000000000E+00  0.00000000000E+00 -0.15429502284E+03  0.35987847394E+04  0.35954755800E+04 0.  0.
        2    1    3    3  502    0 -0.43381470526E+02  0.42743809761E+03 -0.18243989793E+04  0.18743043816E+04  0.25500000920E-02 0.  1.
       -2    1    3    3    0  502  0.43381470526E+02 -0.42743809761E+03  0.16701039564E+04  0.17244803578E+04  0.25500000920E-02 0. -1.
</event>
<event>
 5   0  0.1021087E-07  0.3594584E+04  0.7818609E-02  0.8091733E-01
        2   -1    0    0  501    0  0.00000000000E+00  0.00000000000E+00  0.15053235394E+04  0.15053235394E+04  0.25500000920E-02 0. -1.
       -2   -1    0    0    0  501  0.00000000000E+00  0.00000000000E+00 -0.21458898169E+04  0.21458898169E+04  0.25500000920E-02 0.  1.
    10030    2    1    2    0    0  0.00000000000E+00  0.00000000000E+00 -0.64056627745E+03  0.36512133563E+04  0.35945839561E+04 0.  0.
        3    1    3    3  502    0 -0.17058722470E+04 -0.20485605066E+03 -0.85612814820E+03  0.19196149460E+04  0.10100000352E+00 0.  1.
       -3    1    3    3    0  502  0.17058722470E+04  0.20485605066E+03  0.21556187076E+03  0.17315984104E+04  0.10100000352E+00 0. -1.
</event>
<event>
 5   0  0.3202875E-08  0.3590532E+04  0.7818609E-02  0.8092664E-01
        3   -1    0    0  501    0  0.00000000000E+00  0.00000000000E+00  0.26566678225E+04  0.26566678244E+04  0.10100000352E+00 0.  1.
       -3   -1    0    0    0  501  0.00000000000E+00  0.00000000000E+00 -0.12131660253E+04  0.12131660295E+04  0.10100000352E+00 0. -1.
    10030    2    1    2    0    0  0.00000000000E+00  0.00000000000E+00  0.14435017971E+04  0.38698338539E+04  0.35905315232E+04 0.  0.
        4    1    3    3  502    0  0.15347405599E+03 -0.64482193582E+03 -0.10764539655E+04  0.12641615274E+04  0.12699999809E+01 0. -1.
       -4    1    3    3    0  502 -0.15347405599E+03  0.64482193582E+03  0.25199557626E+04  0.26056723265E+04  0.12699999809E+01 0.  1.
</event>
<event>
 5   0  0.1044678E-07  0.3602155E+04  0.7818609E-02  0.8089998E-01
        2   -1    0    0  501    0  0.00000000000E+00  0.00000000000E+00  0.11006384250E+04  0.11006384250E+04  0.25500000920E-02 0.  1.
       -2   -1    0    0    0  501  0.00000000000E+00  0.00000000000E+00 -0.29472709443E+04  0.29472709443E+04  0.25500000920E-02 0. -1.
    10030    2    1    2    0    0  0.00000000000E+00  0.00000000000E+00 -0.18466325192E+04  0.40479093693E+04  0.36021547164E+04 0.  0.
        2    1    3    3  502    0 -0.12354472677E+04 -0.12819644962E+04 -0.61738310722E+03  0.18843897744E+04  0.25500000920E-02 0.  1.
       -2    1    3    3    0  502  0.12354472677E+04  0.12819644962E+04 -0.12292494120E+04  0.21635195949E+04  0.25500000920E-02 0. -1.
</event>
<event>
 5   0  0.3202875E-08  0.3594613E+04  0.7818609E-02  0.8091727E-01
        1   -1    0    0  501    0  0.00000000000E+00  0.00000000000E+00  0.16495968574E+04  0.16495968574E+04  0.50400001928E-02 0. -1.
       -1   -1    0    0    0  501  0.00000000000E+00  0.00000000000E+00 -0.19582423766E+04  0.19582423766E+04  0.50400001928E-02 0.  1.
    10030    2    1    2    0    0  0.00000000000E+00  0.00000000000E+00 -0.30864551916E+03  0.36078392340E+04  0.35946128974E+04 0.  0.
        1    1    3    3  502    0 -0.15373119317E+04 -0.58476876598E+03  0.57293150299E+03  0.17417040484E+04  0.50400001928E-02 0. -1.
       -1    1    3    3    0  502  0.15373119317E+04  0.58476876598E+03 -0.88157702215E+03  0.18661351856E+04  0.50400001928E-02 0.  1.
</event>
<event>
 5   0  0.1021087E-07  0.3578388E+04  0.7818609E-02  0.8095460E-01
       -2   -1    0    0    0  501  0.00000000000E+00  0.00000000000E+00  0.18635300243E+04  0.18635300243E+04  0.25500000920E-02 0. -1.
        2   -1    0    0  501    0  0.00000000000E+00  0.00000000000E+00 -0.17178233486E+04  0.17178233486E+04  0.25500000920E-02 0.  1.
    10030    2    1    2    0    0  0.00000000000E+00  0.00000000000E+00  0.14570667578E+03  0.35813533729E+04  0.35783881212E+04 0.  0.
        3    1    3    3  502    0 -0.12753864279E+04  0.11256869380E+04 -0.48207321402E+03  0.17680996060E+04  0.10100000352E+00 0. -1.
       -3    1    3    3    0  502  0.12753864279E+04 -0.11256869380E+04  0.62777988980E+03  0.18132537669E+04  0.10100000352E+00 0.  1.
</event>
<event>
 5   0  0.3202875E-08  0.3597997E+04  0.7818609E-02  0.8090951E-01
        1   -1    0    0  501    0  0.00000000000E+00  0.00000000000E+00  0.20991988619E+04  0.20991988619E+04  0.50400001928E-02 0.  1.
       -1   -1    0    0    0  501  0.00000000000E+00  0.00000000000E+00 -0.15417292128E+04  0.15417292128E+04  0.50400001928E-02 0. -1.
    10030    2    1    2    0    0  0.00000000000E+00  0.00000000000E+00  0.55746964914E+03  0.36409280747E+04  0.35979973367E+04 0.  0.
        2    1    3    3  502    0 -0.34989424934E+03  0.88696810274E+03  0.18224725240E+04  0.20568287487E+04  0.25500000920E-02 0.  1.
       -2    1    3    3    0  502  0.34989424934E+03 -0.88696810274E+03 -0.12650028748E+04  0.15840993259E+04  0.25500000920E-02 0. -1.
</event>
<event>
 5   0  0.3212523E-08  0.3602596E+04  0.7818609E-02  0.8089897E-01
       -1   -1    0    0    0  501  0.00000000000E+00  0.00000000000E+00  0.15529487991E+04  0.15529487991E+04  0.50400001928E-02 0. -1.
        1   -1    0    0  501    0  0.00000000000E+00  0.00000000000E+00 -0.20893631696E+04  0.20893631697E+04  0.50400001928E-02 0.  1.
    10030    2    1    2    0    0  0.00000000000E+00  0.00000000000E+00 -0.53641437052E+03  0.36423119688E+04  0.36025957449E+04 0.  0.
        3    1    3    3  502    0  0.43690311446E+03  0.16595385120E+04  0.28529665482E+03  0.17396397890E+04  0.10100000352E+00 0. -1.
       -3    1    3    3    0  502 -0.43690311446E+03 -0.16595385120E+04 -0.82171102535E+03  0.19026721797E+04  0.10100000352E+00 0.  1.
</event>
<event>
 5   0  0.3279988E-08  0.3591097E+04  0.7818609E-02  0.8092534E-01
       -1   -1    0    0    0  501  0.00000000000E+00  0.00000000000E+00  0.10500854830E+04  0.10500854830E+04  0.50400001928E-02 0. -1.
        1   -1    0    0  501    0  0.00000000000E+00  0.00000000000E+00 -0.30702201910E+04  0.30702201910E+04  0.50400001928E-02 0.  1.
    10030    2    1    2    0    0  0.00000000000E+00  0.00000000000E+00 -0.20201347080E+04  0.41203056740E+04  0.35910965746E+04 0.  0.
        5    1    3    3  502    0  0.16105907462E+04  0.29299065123E+03 -0.18564210336E+04  0.24751095365E+04  0.46999998093E+01 0.  1.
       -5    1    3    3    0  502 -0.16105907462E+04 -0.29299065123E+03 -0.16371367443E+03  0.16451961375E+04  0.46999998093E+01 0. -1.
</event>
<event>
 5   0  0.3202875E-08  0.3605303E+04  0.7818609E-02  0.8089278E-01
       -1   -1    0    0    0  501  0.00000000000E+00  0.00000000000E+00  0.26084545548E+04  0.26084545548E+04  0.50400001928E-02 0. -1.
        1   -1    0    0  501    0  0.00000000000E+00  0.00000000000E+00 -0.12457768408E+04  0.12457768408E+04  0.50400001928E-02 0.  1.
    10030    2    1    2    0    0  0.00000000000E+00  0.00000000000E+00  0.13626777140E+04  0.38542313957E+04  0.36053029136E+04 0.  0.
        2    1    3    3  502    0  0.69320189486E+03  0.21765418056E+03 -0.10823101893E+04  0.13035710779E+04  0.25500000920E-02 0.  1.
       -2    1    3    3    0  502 -0.69320189486E+03 -0.21765418056E+03  0.24449879033E+04  0.25506603177E+04  0.25500000920E-02 0. -1.
</event>
<event>
 5   0  0.1029908E-07  0.3595857E+04  0.7818609E-02  0.8091441E-01
        2   -1    0    0  501    0  0.00000000000E+00  0.00000000000E+00  0.25836982702E+04  0.25836982702E+04  0.25500000920E-02 0.  1.
       -2   -1    0    0    0  501  0.00000000000E+00  0.00000000000E+00 -0.12511316149E+04  0.12511316149E+04  0.25500000920E-02 0. -1.
    10030    2    1    2    0    0  0.00000000000E+00  0.00000000000E+00  0.13325666552E+04  0.38348298851E+04  0.35958568321E+04 0.  0.
        4    1    3    3  502    0 -0.98584404390E+03  0.13786647851E+04  0.13061046538E+04  0.21397467252E+04  0.12699999809E+01 0.  1.
       -4    1    3    3    0  502  0.98584404390E+03 -0.13786647851E+04  0.26462001409E+02  0.16950831599E+04  0.12699999809E+01 0. -1.
</event>
<event>
 5   0  0.3215494E-08  0.3602553E+04  0.7818609E-02  0.8089907E-01
        1   -1    0    0  501    0  0.00000000000E+00  0.00000000000E+00  0.23839879115E+04  0.23839879115E+04  0.50400001928E-02 0. -1.
       -1   -1    0    0    0  501  0.00000000000E+00  0.00000000000E+00 -0.13609959535E+04  0.13609959535E+04  0.50400001928E-02 0.  1.
    10030    2    1    2    0    0  0.00000000000E+00  0.00000000000E+00  0.10229919581E+04  0.37449838650E+04  0.36025534837E+04 0.  0.
        4    1    3    3  502    0  0.23613563713E+03 -0.10140447496E+04 -0.10164979323E+04  0.14551001520E+04  0.12699999809E+01 0.  1.
       -4    1    3    3    0  502 -0.23613563713E+03  0.10140447496E+04  0.20394898903E+04  0.22898837130E+04  0.12699999809E+01 0. -1.
</event>
<event>
 5   0  0.3279988E-08  0.3514034E+04  0.7818609E-02  0.8110472E-01
       -1   -1    0    0    0  501  0.00000000000E+00  0.00000000000E+00  0.18391412567E+04  0.18391412567E+04  0.50400001928E-02 0.  1.
        1   -1    0    0  501    0  0.00000000000E+00  0.00000000000E+00 -0.16785601964E+04  0.16785601964E+04  0.50400001928E-02 0. -1.
    10030    2    1    2    0    0  0.00000000000E+00  0.00000000000E+00  0.16058106028E+03  0.35177014532E+04  0.35140343249E+04 0.  0.
        5    1    3    3  502    0 -0.56465269774E+03  0.32074271921E+03 -0.15540119389E+04  0.16842457532E+04  0.46999998093E+01 0. -1.
       -5    1    3    3    0  502  0.56465269774E+03 -0.32074271921E+03  0.17145929992E+04  0.18334557000E+04  0.46999998093E+01 0.  1.
</event>
<event>
 5   0  0.3202875E-08  0.3599029E+04  0.7818609E-02  0.8090714E-01
        1   -1    0    0  501    0  0.00000000000E+00  0.00000000000E+00  0.17339116316E+04  0.17339116316E+04  0.50400001928E-02 0.  1.
       -1   -1    0    0    0  501  0.00000000000E+00  0.00000000000E+00 -0.18675991056E+04  0.18675991056E+04  0.50400001928E-02 0. -1.
    10030    2    1    2    0    0  0.00000000000E+00  0.00000000000E+00 -0.13368747399E+03  0.36015107373E+04  0.35990286537E+04 0.  0.
        2    1    3    3  502    0  0.13464253297E+04  0.91349377691E+03 -0.83608693958E+03  0.18293095472E+04  0.25500000920E-02 0.  1.
       -2    1    3    3    0  502 -0.13464253297E+04 -0.91349377691E+03  0.70239946559E+03  0.17722011901E+04  0.25500000920E-02 0. -1.
</event>
<event>
 5   0  0.1017794E-07  0.3597319E+04  0.7818609E-02  0.8091106E-01
       -2   -1    0    0    0  501  0.00000000000E+00  0.00000000000E+00  0.16746271415E+04  0.16746271415E+04  0.25500000920E-02 0. -1.
        2   -1    0    0  501    0  0.00000000000E+00  0.00000000000E+00 -0.19318782499E+04  0.19318782499E+04  0.25500000920E-02 0.  1.
    10030    2    1    2    0    0  0.00000000000E+00  0.00000000000E+00 -0.25725110841E+03  0.36065053914E+04  0.35973188635E+04 0.  0.
        1    1    3    3  502    0  0.23115835322E+03 -0.11485258012E+04 -0.14968928715E+04  0.19008508540E+04  0.50400001928E-02 0.  1.
       -1    1    3    3    0  502 -0.23115835322E+03  0.11485258012E+04  0.12396417631E+04  0.17056545374E+04  0.50400001928E-02 0. -1.
</event>
<event>
 5   0  0.1021087E-07  0.3596663E+04  0.7818609E-02  0.8091257E-01
       -2   -1    0    0    0  501  0.00000000000E+00  0.00000000000E+00  0.15672997210E+04  0.15672997210E+04  0.25500000920E-02 0.  1.
        2   -1    0    0  501    0  0.00000000000E+00  0.00000000000E+00 -0.20634189795E+04  0.20634189795E+04  0.25500000920E-02 0. -1.
    10030    2    1    2    0    0  0.00000000000E+00  0.00000000000E+00 -0.49611925852E+03  0.36307187005E+04  0.35966628927E+04 0.  0.
        3    1    3    3  502    0  0.50828978007E+03  0.14040196979E+04  0.76361044941E+03  0.16771197755E+04  0.10100000352E+00 0.  1.
       -3    1    3    3    0  502 -0.50828978007E+03 -0.14040196979E+04 -0.12597297079E+04  0.19535989250E+04  0.10100000352E+00 0. -1.
</event>
<event>
 5   0  0.1021087E-07  0.3605395E+04  0.7818609E-02  0.8089257E-01
        2   -1    0    0  501    0  0.00000000000E+00  0.00000000000E+00  0.21249425462E+04  0.21249425462E+04  0.25500000920E-02 0. -1.
       -2   -1    0    0    0  501  0.00000000000E+00  0.00000000000E+00 -0.15293205807E+04  0.15293205807E+04  0.25500000920E-02 0.  1.
    10030    2    1    2    0    0  0.00000000000E+00  0.00000000000E+00  0.59562196552E+03  0.36542631268E+04  0.36053950511E+04 0.  0.
        3    1    3    3  502    0  0.97282859279E+03  0.12681797577E+04  0.11428033599E+04  0.19648600200E+04  0.10100000352E+00 0. -1.
       -3    1    3    3    0  502 -0.97282859279E+03 -0.12681797577E+04 -0.54718139438E+03  0.16894031068E+04  0.10100000352E+00 0.  1.
</event>
<event>
 5   0  0.3215494E-08  0.3602448E+04  0.7818609E-02  0.8089931E-01
        1   -1    0    0  501    0  0.00000000000E+00  0.00000000000E+00  0.24320989507E+04  0.24320989507E+04  0.50400001928E-02 0. -1.
       -1   -1    0    0    0  501  0.00000000000E+00  0.00000000000E+00 -0.13339951172E+04  0.13339951172E+04  0.50400001928E-02 0.  1.
    10030    2    1    2    0    0  0.00000000000E+00  0.00000000000E+00  0.10981038335E+04  0.37660940678E+04  0.36024481258E+04 0.  0.
        4    1    3    3  502    0  0.16296130884E+03  0.12864770977E+04  0.18559714613E+04  0.22641138199E+04  0.12699999809E+01 0. -1.
       -4    1    3    3    0  502 -0.16296130884E+03 -0.12864770977E+04 -0.75786762784E+03  0.15019802480E+04  0.12699999809E+01 0.  1.
</event>
<event>
 5   0  0.1017794E-07  0.3572717E+04  0.7818609E-02  0.8096770E-01
        2   -1    0    0  501    0  0.00000000000E+00  0.00000000000E+00  0.24733229138E+04  0.24733229138E+04  0.25500000920E-02 0.  1.
       -2   -1    0    0    0  501  0.00000000000E+00  0.00000000000E+00 -0.12901978961E+04  0.12901978961E+04  0.25500000920E-02 0. -1.
    10030    2    1    2    0    0  0.00000000000E+00  0.00000000000E+00  0.11831250177E+04  0.37635208099E+04  0.35727166245E+04 0.  0.
        1    1    3    3  502    0  0.16196654150E+04  0.14330423112E+03 -0.18769009786E+03  0.16367894587E+04  0.50400001928E-02 0. -1.
       -1    1    3    3    0  502 -0.16196654150E+04 -0.14330423112E+03  0.13708151155E+04  0.21267313512E+04  0.50400001928E-02 0.  1.
</event>
<event>
 5   0  0.3202875E-08  0.3599876E+04  0.7818609E-02  0.8090520E-01
       -1   -1    0    0    0  501  0.00000000000E+00  0.00000000000E+00  0.14855094470E+04  0.14855094470E+04  0.50400001928E-02 0. -1.
        1   -1    0    0  501    0  0.00000000000E+00  0.00000000000E+00 -0.21809199720E+04  0.21809199720E+04  0.50400001928E-02 0.  1.
    10030    2    1    2    0    0  0.00000000000E+00  0.00000000000E+00 -0.69541052493E+03  0.36664294190E+04  0.35998762321E+04 0.  0.
        2    1    3    3  502    0  0.17771201998E+04 -0.25878871274E+03 -0.22443283110E+03  0.18098336659E+04  0.25500000920E-02 0. -1.
       -2    1    3    3    0  502 -0.17771201998E+04  0.25878871274E+03 -0.47097769383E+03  0.18565957531E+04  0.25500000920E-02 0.  1.
</event>
<event>
 5   0  0.3212523E-08  0.3594097E+04  0.7818609E-02  0.8091845E-01
       -1   -1    0    0    0  501  0.00000000000E+00  0.00000000000E+00  0.19538510014E+04  0.19538510014E+04  0.50400001928E-02 0. -1.
        1   -1    0    0  501    0  0.00000000000E+00  0.00000000000E+00 -0.16528297362E+04  0.16528297362E+04  0.50400001928E-02 0.  1.
    10030    2    1    2    0    0  0.00000000000E+00  0.00000000000E+00  0.30102126518E+03  0.36066807376E+04  0.35940968463E+04 0.  0.
        3    1    3    3  502    0 -0.95281455153E+02 -0.10490304978E+04 -0.13105539509E+04  0.16813968031E+04  0.10100000352E+00 0.  1.
       -3    1    3    3    0  502  0.95281455153E+02  0.10490304978E+04  0.16115752161E+04  0.19252839345E+04  0.10100000352E+00 0. -1.
</event>
<event>
 5   0  0.3279988E-08  0.3560653E+04  0.7818609E-02  0.8099565E-01
        1   -1    0    0  501    0  0.00000000000E+00  0.00000000000E+00  0.30595763334E+04  0.30595763334E+04  0.50400001928E-02 0. -1.
       -1   -1    0    0    0  501  0.00000000000E+00  0.00000000000E+00 -0.10359481388E+04  0.10359481388E+04  0.50400001928E-02 0.  1.
    10030    2    1    2    0    0  0.00000000000E+00  0.00000000000E+00  0.20236281946E+04  0.40955244722E+04  0.35606529784E+04 0.  0.
        5    1    3    3  502    0  0.12794134584E+04 -0.12003805586E+04  0.13601762146E+04  0.22198904720E+04  0.46999998093E+01 0. -1.
       -5    1    3    3    0  502 -0.12794134584E+04  0.12003805586E+04  0.66345198001E+03  0.18756340002E+04  0.46999998093E+01 0.  1.
</event>
<event>
 5   0  0.1044678E-07  0.3593925E+04  0.7818609E-02  0.8091885E-01
       -2   -1    0    0    0  501  0.00000000000E+00  0.00000000000E+00  0.14240092724E+04  0.14240092724E+04  0.25500000920E-02 0. -1.
        2   -1    0    0  501    0  0.00000000000E+00  0.00000000000E+00 -0.22675938450E+04  0.22675938450E+04  0.25500000920E-02 0.  1.
    10030    2    1    2    0    0  0.00000000000E+00  0.00000000000E+00 -0.84358457263E+03  0.36916031174E+04  0.35939252420E+04 0.  0.
        2    1    3    3  502    0 -0.46465563976E+03 -0.14300031480E+04  0.58895396357E+03  0.16148314581E+04  0.25500000920E-02 0. -1.
       -2    1    3    3    0  502  0.46465563976E+03  0.14300031480E+04 -0.14325385362E+04  0.20767716593E+04  0.25500000920E-02 0.  1.
</event>
<event>
 5   0  0.1017794E-07  0.3604145E+04  0.7818609E-02  0.8089543E-01
        2   -1    0    0  501    0  0.00000000000E+00  0.00000000000E+00  0.23559130825E+04  0.23559130825E+04  0.25500000920E-02 0.  1.
       -2   -1    0    0    0  501  0.00000000000E+00  0.00000000000E+00 -0.13784320304E+04  0.13784320304E+04  0.25500000920E-02 0. -1.
    10030    2    1    2    0    0  0.00000000000E+00  0.00000000000E+00  0.97748105203E+03  0.37343451129E+04  0.36041454209E+04 0.  0.
        1    1    3    3  502    0 -0.66111111321E+03  0.15283301525E+04  0.12025434841E+04  0.20540135809E+04  0.50400001928E-02 0. -1.
       -1    1    3    3    0  502  0.66111111321E+03 -0.15283301525E+04 -0.22506243207E+03  0.16803315320E+04  0.50400001928E-02 0.  1.
</event>
<event>
 5   0  0.9905335E-08  0.3582947E+04  0.7818609E-02  0.8094409E-01
       -2   -1    0    0    0  501  0.00000000000E+00  0.00000000000E+00  0.16471464431E+04  0.16471464432E+04  0.25500000920E-02 0.  1.
        2   -1    0    0  501    0  0.00000000000E+00  0.00000000000E+00 -0.19484471102E+04  0.19484471102E+04  0.25500000920E-02 0. -1.
    10030    2    1    2    0    0  0.00000000000E+00  0.00000000000E+00 -0.30130066707E+03  0.35955935534E+04  0.35829472378E+04 0.  0.
        5    1    3    3  502    0 -0.86158486854E+03 -0.11163717870E+04  0.95812097353E+03  0.17048848473E+04  0.46999998093E+01 0.  1.
       -5    1    3    3    0  502  0.86158486854E+03  0.11163717870E+04 -0.12594216406E+04  0.18907087061E+04  0.46999998093E+01 0. -1.
</event>
<event>
 5   0  0.3202875E-08  0.3615250E+04  0.7818609E-02  0.8087007E-01
        1   -1    0    0  501    0  0.00000000000E+00  0.00000000000E+00  0.23626290861E+04  0.23626290861E+04  0.50400001928E-02 0. -1.
       -1   -1    0    0    0  501  0.00000000000E+00  0.00000000000E+00 -0.13829963627E+04  0.13829963628E+04  0.50400001928E-02 0.  1.
    10030    2    1    2    0    0  0.00000000000E+00  0.00000000000E+00  0.97963272332E+03  0.37456254488E+04  0.36152496083E+04 0.  0.
        2    1    3    3  502    0 -0.65475493205E+03  0.17031813485E+03  0.22265106988E+04  0.23270286161E+04  0.25500000920E-02 0. -1.
       -2    1    3    3    0  502  0.65475493205E+03 -0.17031813485E+03 -0.12468779755E+04  0.14185968328E+04  0.25500000920E-02 0.  1.
</event>
<event>
 5   0  0.1029908E-07  0.3596445E+04  0.7818609E-02  0.8091306E-01
       -2   -1    0    0    0  501  0.00000000000E+00  0.00000000000E+00  0.20858980517E+04  0.20858980517E+04  0.25500000920E-02 0. -1.
        2   -1    0    0  501    0  0.00000000000E+00  0.00000000000E+00 -0.15502216688E+04  0.15502216688E+04  0.25500000920E-02 0.  1.
    10030    2    1    2    0    0  0.00000000000E+00  0.00000000000E+00  0.53567638289E+03  0.36361197205E+04  0.35964451107E+04 0.  0.
        4    1    3    3  502    0  0.33051305352E+03  0.17664493811E+04  0.20373168093E+03  0.18086156322E+04  0.12699999809E+01 0.  1.
       -4    1    3    3    0  502 -0.33051305352E+03 -0.17664493811E+04  0.33194470196E+03  0.18275040882E+04  0.12699999809E+01 0. -1.
</event>
<event>
 5   0  0.1017794E-07  0.3604987E+04  0.7818609E-02  0.8089350E-01
       -2   -1    0    0    0  501  0.00000000000E+00  0.00000000000E+00  0.12837937904E+04  0.12837937904E+04  0.25500000920E-02 0. -1.
        2   -1    0    0  501    0  0.00000000000E+00  0.00000000000E+00 -0.25307670252E+04  0.25307670252E+04  0.25500000920E-02 0.  1.
    10030    2    1    2    0    0  0.00000000000E+00  0.00000000000E+00 -0.12469732348E+04  0.38145608156E+04  0.36049870967E+04 0.  0.
        1    1    3    3  502    0  0.11583810038E+03  0.16177388398E+04  0.20867104269E+03  0.16352495294E+04  0.50400001928E-02 0. -1.
       -1    1    3    3    0  502 -0.11583810038E+03 -0.16177388398E+04 -0.14556442775E+04  0.21793112861E+04  0.50400001928E-02 0.  1.
</event>
<event>
 5   0  0.3202875E-08  0.3601697E+04  0.7818609E-02  0.8090103E-01
       -1   -1    0    0    0  501  0.00000000000E+00  0.00000000000E+00  0.19322730770E+04  0.19322730770E+04  0.50400001928E-02 0.  1.
        1   -1    0    0  501    0  0.00000000000E+00  0.00000000000E+00 -0.16783629868E+04  0.16783629868E+04  0.50400001928E-02 0. -1.
    10030    2    1    2    0    0  0.00000000000E+00  0.00000000000E+00  0.25391009015E+03  0.36106360638E+04  0.36016971626E+04 0.  0.
        1    1    3    3  502    0  0.15284381620E+04 -0.62662662626E+03 -0.59195199645E+03  0.17547624654E+04  0.50400001928E-02 0. -1.
       -1    1    3    3    0  502 -0.15284381620E+04  0.62662662626E+03  0.84586208659E+03  0.18558735984E+04  0.50400001928E-02 0.  1.
</event>
<event>
 5   0  0.3279988E-08  0.3595094E+04  0.7818609E-02  0.8091616E-01
       -1   -1    0    0    0  501  0.00000000000E+00  0.00000000000E+00  0.23710555686E+04  0.23710555686E+04  0.50400001928E-02 0. -1.
        1   -1    0    0  501    0  0.00000000000E+00  0.00000000000E+00 -0.13627579640E+04  0.13627579640E+04  0.50400001928E-02 0.  1.
    10030    2    1    2    0    0  0.00000000000E+00  0.00000000000E+00  0.10082976046E+04  0.37338135326E+04  0.35950938008E+04 0.  0.
        5    1    3    3  502    0  0.15585735061E+04 -0.11514703675E+03  0.14265291382E+04  0.21159909466E+04  0.46999998093E+01 0. -1.
       -5    1    3    3    0  502 -0.15585735061E+04  0.11514703675E+03 -0.41823153357E+03  0.16178225860E+04  0.46999998093E+01 0.  1.
</event>
<event>
 5   0  0.9905335E-08  0.3610630E+04  0.7818609E-02  0.8088061E-01
       -2   -1    0    0    0  501  0.00000000000E+00  0.00000000000E+00  0.11958176839E+04  0.11958176839E+04  0.25500000920E-02 0.  1.
        2   -1    0    0  501    0  0.00000000000E+00  0.00000000000E+00 -0.27254674524E+04  0.27254674524E+04  0.25500000920E-02 0. -1.
    10030    2    1    2    0    0  0.00000000000E+00  0.00000000000E+00 -0.15296497686E+04  0.39212851363E+04  0.36106299596E+04 0.  0.
        5    1    3    3  502    0 -0.11494432845E+04 -0.12813697788E+04 -0.17394406943E+03  0.17301465266E+04  0.46999998093E+01 0.  1.
       -5    1    3    3    0  502  0.11494432845E+04  0.12813697788E+04 -0.13557056991E+04  0.21911386097E+04  0.46999998093E+01 0. -1.
</event>
<event>
 5   0  0.9905335E-08  0.3598017E+04  0.7818609E-02  0.8090946E-01
       -2   -1    0    0    0  501  0.00000000000E+00  0.00000000000E+00  0.17682494846E+04  0.17682494846E+04  0.25500000920E-02 0.  1.
        2   -1    0    0  501    0  0.00000000000E+00  0.00000000000E+00 -0.18303027426E+04  0.18303027426E+04  0.25500000920E-02 0. -1.
    10030    2    1    2    0    0  0.00000000000E+00  0.00000000000E+00 -0.62053257974E+02  0.35985522272E+04  0.35980171657E+04 0.  0.
        5    1    3    3  502    0  0.20920653089E+03 -0.13805944823E+04 -0.11654797941E+04  0.18188385683E+04  0.46999998093E+01 0. -1.
       -5    1    3    3    0  502 -0.20920653089E+03  0.13805944823E+04  0.11034265361E+04  0.17797136589E+04  0.46999998093E+01 0.  1.
</event>
<event>
 5   0  0.9905335E-08  0.3600349E+04  0.7818609E-02  0.8090412E-01
        2   -1    0    0  501    0  0.00000000000E+00  0.00000000000E+00  0.21445654446E+04  0.21445654446E+04  0.25500000920E-02 0. -1.
       -2   -1    0    0    0  501  0.00000000000E+00  0.00000000000E+00 -0.15110885221E+04  0.15110885221E+04  0.25500000920E-02 0.  1.
    10030    2    1    2    0    0  0.00000000000E+00  0.00000000000E+00  0.63347692252E+03  0.36556539666E+04  0.36003489987E+04 0.  0.
        5    1    3    3  502    0 -0.91761879920E+03  0.15194596654E+04  0.62104912001E+03  0.18805600323E+04  0.46999998093E+01 0. -1.
       -5    1    3    3    0  502  0.91761879920E+03 -0.15194596654E+04  0.12427802519E+02  0.17750939344E+04  0.46999998093E+01 0.  1.
</event>
<event>
 5   0  0.1029908E-07  0.3612262E+04  0.7818609E-02  0.8087689E-01
        2   -1    0    0  501    0  0.00000000000E+00  0.00000000000E+00  0.16873706797E+04  0.16873706797E+04  0.25500000920E-02 0. -1.
       -2   -1    0    0    0  501  0.00000000000E+00  0.00000000000E+00 -0.19332496421E+04  0.19332496421E+04  0.25500000920E-02 0.  1.
    10030    2    1    2    0    0  0.00000000000E+00  0.00000000000E+00 -0.24587896242E+03  0.36206203218E+04  0.36122617639E+04 0.  0.
        4    1    3    3  502    0  0.33672494878E+03 -0.47823556917E+03  0.15898194950E+04  0.16939954517E+04  0.12699999809E+01 0. -1.
       -4    1    3    3    0  502 -0.33672494878E+03  0.47823556917E+03 -0.18356984574E+04  0.19266248701E+04  0.12699999809E+01 0.  1.
</event>
<event>
 5   0  0.1029908E-07  0.3601634E+04  0.7818609E-02  0.8090118E-01
       -2   -1    0    0    0  501  0.00000000000E+00  0.00000000000E+00  0.26507703546E+04  0.26507703546E+04  0.25500000920E-02 0.  1.
        2   -1    0    0  501    0  0.00000000000E+00  0.00000000000E+00 -0.12233958224E+04  0.12233958224E+04  0.25500000920E-02 0. -1.
    10030    2    1    2    0    0  0.00000000000E+00  0.00000000000E+00  0.14273745323E+04  0.38741661770E+04  0.36016337281E+04 0.  0.
        4    1    3    3  502    0  0.63464590107E+03 -0.31967653819E+03 -0.10662026508E+04  0.12813111310E+04  0.12699999809E+01 0. -1.
       -4    1    3    3    0  502 -0.63464590107E+03  0.31967653819E+03  0.24935771831E+04  0.25928550460E+04  0.12699999809E+01 0.  1.
</event>
<event>
 5   0  0.3279988E-08  0.3603016E+04  0.7818609E-02  0.8089801E-01
       -1   -1    0    0    0  501  0.00000000000E+00  0.00000000000E+00  0.15387006139E+04  0.15387006139E+04  0.50400001928E-02 0.  1.
        1   -1    0    0  501    0  0.00000000000E+00  0.00000000000E+00 -0.21092022888E+04  0.21092022888E+04  0.50400001928E-02 0. -1.
    10030    2    1    2    0    0  0.00000000000E+00  0.00000000000E+00 -0.57050167493E+03  0.36479029028E+04  0.36030158793E+04 0.  0.
        5    1    3    3  502    0 -0.83649542002E+03  0.63921547039E+03 -0.17653413423E+04  0.20554252966E+04  0.46999998093E+01 0. -1.
       -5    1    3    3    0  502  0.83649542002E+03 -0.63921547039E+03  0.11948396674E+04  0.15924776061E+04  0.46999998093E+01 0.  1.
</event>
<event>
 5   0  0.1021087E-07  0.3601771E+04  0.7818609E-02  0.8090086E-01
       -2   -1    0    0    0  501  0.00000000000E+00  0.00000000000E+00  0.12957556220E+04  0.12957556220E+04  0.25500000920E-02 0. -1.
        2   -1    0    0  501    0  0.00000000000E+00  0.00000000000E+00 -0.25029316061E+04  0.25029316061E+04  0.25500000920E-02 0.  1.
    10030    2    1    2    0    0  0.00000000000E+00  0.00000000000E+00 -0.12071759841E+04  0.37986872282E+04  0.36017705092E+04 0.  0.
        3    1    3    3  502    0  0.16156490634E+04 -0.77597037331E+03 -0.41868685842E+03  0.18405843126E+04  0.10100000352E+00 0.  1.
       -3    1    3    3    0  502 -0.16156490634E+04  0.77597037331E+03 -0.78848912569E+03  0.19581029155E+04  0.10100000352E+00 0. -1.
</event>
<event>
 5   0  0.1044678E-07  0.3603375E+04  0.7818609E-02  0.8089719E-01
        2   -1    0    0  501    0  0.00000000000E+00  0.00000000000E+00  0.99909000352E+03  0.99909000352E+03  0.25500000920E-02 0.  1.
       -2   -1    0    0    0  501  0.00000000000E+00  0.00000000000E+00 -0.32490347613E+04  0.32490347613E+04  0.25500000920E-02 0. -1.
    10030    2    1    2    0    0  0.00000000000E+00  0.00000000000E+00 -0.22499447578E+04  0.42481247648E+04  0.36033751684E+04 0.  0.
        2    1    3    3  502    0  0.75157395424E+03 -0.31533308525E+03 -0.30192663630E+04  0.31273419599E+04  0.25500000920E-02 0. -1.
       -2    1    3    3    0  502 -0.75157395424E+03  0.31533308525E+03  0.76932160528E+03  0.11207828049E+04  0.25500000920E-02 0.  1.
</event>
<event>
 5   0  0.3212523E-08  0.3595046E+04  0.7818609E-02  0.8091627E-01
        1   -1    0    0  501    0  0.00000000000E+00  0.00000000000E+00  0.14224687805E+04  0.14224687805E+04  0.50400001928E-02 0.  1.
       -1   -1    0    0    0  501  0.00000000000E+00  0.00000000000E+00 -0.22714656451E+04  0.22714656451E+04  0.50400001928E-02 0. -1.
    10030    2    1    2    0    0  0.00000000000E+00  0.00000000000E+00 -0.84899686461E+03  0.36939344256E+04  0.35950460171E+04 0.  0.
        3    1    3    3  502    0 -0.13980276129E+04 -0.10436899899E+04 -0.86920709612E+03  0.19491770026E+04  0.10100000352E+00 0.  1.
       -3    1    3    3    0  502  0.13980276129E+04  0.10436899899E+04  0.20210231508E+02  0.17447574230E+04  0.10100000352E+00 0. -1.
</event>
<event>
 5   0  0.9905335E-08  0.3637144E+04  0.7818609E-02  0.8082036E-01
        2   -1    0    0  501    0  0.00000000000E+00  0.00000000000E+00  0.17876020610E+04  0.17876020610E+04  0.25500000920E-02 0. -1.
       -2   -1    0    0    0  501  0.00000000000E+00  0.00000000000E+00 -0.18500783402E+04  0.18500783402E+04  0.25500000920E-02 0.  1.
    10030    2    1    2    0    0  0.00000000000E+00  0.00000000000E+00 -0.62476279177E+02  0.36376804012E+04  0.36371438542E+04 0.  0.
        5    1    3    3  502    0  0.13969797068E+04 -0.83404420895E+02 -0.11927333415E+04  0.18387885992E+04  0.46999998093E+01 0.  1.
       -5    1    3    3    0  502 -0.13969797068E+04  0.83404420895E+02  0.11302570623E+04  0.17988918021E+04  0.46999998093E+01 0. -1.
</event>
<event>
 5   0  0.1044678E-07  0.3600221E+04  0.7818609E-02  0.8090441E-01
        2   -1    0    0  501    0  0.00000000000E+00  0.00000000000E+00  0.25985617518E+04  0.25985617518E+04  0.25500000920E-02 0. -1.
       -2   -1    0    0    0  501  0.00000000000E+00  0.00000000000E+00 -0.12469964412E+04  0.12469964412E+04  0.25500000920E-02 0.  1.
    10030    2    1    2    0    0  0.00000000000E+00  0.00000000000E+00  0.13515653106E+04  0.38455581929E+04  0.36002206913E+04 0.  0.
        2    1    3    3  502    0 -0.11539300448E+04  0.27765137291E+03 -0.76986897899E+03  0.14146883325E+04  0.25500000920E-02 0.  1.
       -2    1    3    3    0  502  0.11539300448E+04 -0.27765137291E+03  0.21214342896E+04  0.24308698604E+04  0.25500000920E-02 0. -1.
</event>
<event>
 5   0  0.3202875E-08  0.3604147E+04  0.7818609E-02  0.8089542E-01
       -1   -1    0    0    0  501  0.00000000000E+00  0.00000000000E+00  0.11707771600E+04  0.11707771601E+04  0.50400001928E-02 0. -1.
        1   -1    0    0  501    0  0.00000000000E+00  0.00000000000E+00 -0.27737718369E+04  0.27737718369E+04  0.50400001928E-02 0.  1.
    10030    2    1    2    0    0  0.00000000000E+00  0.00000000000E+00 -0.16029946768E+04  0.39445489969E+04  0.36041468970E+04 0.  0.
        1    1    3    3  502    0  0.14881710023E+04  0.93244285139E+03 -0.12438573452E+04  0.21520417511E+04  0.50400001928E-02 0.  1.
       -1    1    3    3    0  502 -0.14881710023E+04 -0.93244285139E+03 -0.35913733157E+03  0.17925072458E+04  0.50400001928E-02 0. -1.
</event>
<event>
 5   0  0.9905335E-08  0.3592177E+04  0.7818609E-02  0.8092286E-01
       -2   -1    0    0    0  501  0.00000000000E+00  0.00000000000E+00  0.15242996457E+04  0.15242996457E+04  0.25500000920E-02 0.  1.
        2   -1    0    0  501    0  0.00000000000E+00  0.00000000000E+00 -0.21163382747E+04  0.21163382747E+04  0.25500000920E-02 0. -1.
    10030    2    1    2    0    0  0.00000000000E+00  0.00000000000E+00 -0.59203862904E+03  0.36406379204E+04  0.35921768789E+04 0.  0.
        5    1    3    3  502    0  0.59814729616E+03  0.12654809692E+04  0.84463705440E+03  0.16348260198E+04  0.46999998093E+01 0.  1.
       -5    1    3    3    0  502 -0.59814729616E+03 -0.12654809692E+04 -0.14366756834E+04  0.20058119006E+04  0.46999998093E+01 0. -1.
</event>
<event>
 5   0  0.3202875E-08  0.3605509E+04  0.7818609E-02  0.8089231E-01
       -1   -1    0    0    0  501  0.00000000000E+00  0.00000000000E+00  0.18076554438E+04  0.18076554438E+04  0.50400001928E-02 0.  1.
        1   -1    0    0  501    0  0.00000000000E+00  0.00000000000E+00 -0.17978668445E+04  0.17978668445E+04  0.50400001928E-02 0. -1.
    10030    2    1    2    0    0  0.00000000000E+00  0.00000000000E+00  0.97885992444E+01  0.36055222883E+04  0.36055090008E+04 0.  0.
        2    1    3    3  502    0 -0.23689781281E+03 -0.17849605656E+04 -0.82963831531E+02  0.18025226189E+04  0.25500000920E-02 0.  1.
       -2    1    3    3    0  502  0.23689781281E+03  0.17849605656E+04  0.92752430775E+02  0.18029996694E+04  0.25500000920E-02 0. -1.
</event>
<event>
 5   0  0.1021087E-07  0.3590862E+04  0.7818609E-02  0.8092588E-01
       -2   -1    0    0    0  501  0.00000000000E+00  0.00000000000E+00  0.19207689621E+04  0.19207689621E+04  0.25500000920E-02 0.  1.
        2   -1    0    0  501    0  0.00000000000E+00  0.00000000000E+00 -0.16782719167E+04  0.16782719167E+04  0.25500000920E-02 0. -1.
    10030    2    1    2    0    0  0.00000000000E+00  0.00000000000E+00  0.24249704539E+03  0.35990408788E+04  0.35908620734E+04 0.  0.
        3    1    3    3  502    0 -0.55642485951E+03 -0.15024729073E+04 -0.69086803502E+03  0.17448014539E+04  0.10100000352E+00 0. -1.
       -3    1    3    3    0  502  0.55642485951E+03  0.15024729073E+04  0.93336508041E+03  0.18542394249E+04  0.10100000352E+00 0.  1.
</event>
<event>
 5   0  0.3202875E-08  0.3612546E+04  0.7818609E-02  0.8087624E-01
       -1   -1    0    0    0  501  0.00000000000E+00  0.00000000000E+00  0.10856126581E+04  0.10856126581E+04  0.50400001928E-02 0.  1.
        1   -1    0    0  501    0  0.00000000000E+00  0.00000000000E+00 -0.30053284215E+04  0.30053284215E+04  0.50400001928E-02 0. -1.
    10030    2    1    2    0    0  0.00000000000E+00  0.00000000000E+00 -0.19197157634E+04  0.40909410795E+04  0.36125462356E+04 0.  0.
        2    1    3    3  502    0  0.15639555976E+03 -0.15401085955E+04 -0.20138225425E+04  0.25400541904E+04  0.25500000920E-02 0. -1.
       -2    1    3    3    0  502 -0.15639555976E+03  0.15401085955E+04  0.94106779163E+02  0.15508868892E+04  0.25500000920E-02 0.  1.
</event>
<event>
 5   0  0.3279988E-08  0.3606114E+04  0.7818609E-02  0.8089093E-01
        1   -1    0    0  501    0  0.00000000000E+00  0.00000000000E+00  0.22207120735E+04  0.22207120735E+04  0.50400001928E-02 0. -1.
       -1   -1    0    0    0  501  0.00000000000E+00  0.00000000000E+00 -0.14639514579E+04  0.14639514579E+04  0.50400001928E-02 0.  1.
    10030    2    1    2    0    0  0.00000000000E+00  0.00000000000E+00  0.75676061556E+03  0.36846635314E+04  0.36061140734E+04 0.  0.
        5    1    3    3  502    0  0.91014245107E+03  0.11807065494E+04  0.14146536358E+04  0.20551628247E+04  0.46999998093E+01 0. -1.
       -5    1    3    3    0  502 -0.91014245107E+03 -0.11807065494E+04 -0.65789302020E+03  0.16295007067E+04  0.46999998093E+01 0.  1.
</event>
<event>
 5   0  0.1044678E-07  0.3599440E+04  0.7818609E-02  0.8090620E-01
       -2   -1    0    0    0  501  0.00000000000E+00  0.00000000000E+00  0.24988560419E+04  0.24988560419E+04  0.25500000920E-02 0.  1.
        2   -1    0    0  501    0  0.00000000000E+00  0.00000000000E+00 -0.12961898211E+04  0.12961898211E+04  0.25500000920E-02 0. -1.
    10030    2    1    2    0    0  0.00000000000E+00  0.00000000000E+00  0.12026662207E+04  0.37950458630E+04  0.35994398264E+04 0.  0.
        2    1    3    3  502    0  0.10762428667E+02  0.42405570218E+03  0.24453954150E+04  0.24819141412E+04  0.25500000920E-02 0.  1.
       -2    1    3    3    0  502 -0.10762428667E+02 -0.42405570218E+03 -0.12427291943E+04  0.13131317218E+04  0.25500000920E-02 0. -1.
</event>
<event>
 5   0  0.1017794E-07  0.3596909E+04  0.7818609E-02  0.8091200E-01
        2   -1    0    0  501    0  0.00000000000E+00  0.00000000000E+00  0.23632840373E+04  0.23632840373E+04  0.25500000920E-02 0. -1.
       -2   -1    0    0    0  501  0.00000000000E+00  0.00000000000E+00 -0.13686204462E+04  0.13686204462E+04  0.25500000920E-02 0.  1.
    10030    2    1    2    0    0  0.00000000000E+00  0.00000000000E+00  0.99466359106E+03  0.37319044835E+04  0.35969091474E+04 0.  0.
        1    1    3    3  502    0  0.49077841357E+03  0.13281777105E+04 -0.65312082893E+03  0.15593223846E+04  0.50400001928E-02 0.  1.
       -1    1    3    3    0  502 -0.49077841357E+03 -0.13281777105E+04  0.16477844200E+04  0.21725820989E+04  0.50400001928E-02 0. -1.
</event>
<event>
 5   0  0.3215494E-08  0.3592257E+04  0.7818609E-02  0.8092268E-01
        1   -1    0    0  501    0  0.00000000000E+00  0.00000000000E+00  0.17303536314E+04  0.17303536314E+04  0.50400001928E-02 0. -1.
       -1   -1    0    0    0  501  0.00000000000E+00  0.00000000000E+00 -0.18644036361E+04  0.18644036361E+04  0.50400001928E-02 0.  1.
    10030    2    1    2    0    0  0.00000000000E+00  0.00000000000E+00 -0.13405000467E+03  0.35947572674E+04  0.35922570075E+04 0.  0.
        4    1    3    3  502    0 -0.24966610818E+03 -0.16247025572E+04  0.65741562181E+03  0.17703639393E+04  0.12699999809E+01 0.  1.
       -4    1    3    3    0  502  0.24966610818E+03  0.16247025572E+04 -0.79146562649E+03  0.18243933281E+04  0.12699999809E+01 0. -1.
</event>
<event>
 5   0  0.3212523E-08  0.3598402E+04  0.7818609E-02  0.8090858E-01
        1   -1    0    0  501    0  0.00000000000E+00  0.00000000000E+00  0.29877086154E+04  0.29877086154E+04  0.50400001928E-02 0. -1.
       -1   -1    0    0    0  501  0.00000000000E+00  0.00000000000E+00 -0.10834808188E+04  0.10834808188E+04  0.50400001928E-02 0.  1.
    10030    2    1    2    0    0  0.00000000000E+00  0.00000000000E+00  0.19042277967E+04  0.40711894342E+04  0.35984024105E+04 0.  0.
        3    1    3    3  502    0  0.15214852420E+04 -0.38948523028E+02 -0.13348262859E+03  0.15278258904E+04  0.10100000352E+00 0.  1.
       -3    1    3    3    0  502 -0.15214852420E+04  0.38948523028E+02  0.20377104252E+04  0.25433635439E+04  0.10100000352E+00 0. -1.
</event>
<event>
 5   0  0.1044678E-07  0.3599824E+04  0.7818609E-02  0.8090532E-01
        2   -1    0    0  501    0  0.00000000000E+00  0.00000000000E+00  0.22581838680E+04  0.22581838680E+04  0.25500000920E-02 0. -1.
       -2   -1    0    0    0  501  0.00000000000E+00  0.00000000000E+00 -0.14346408170E+04  0.14346408170E+04  0.25500000920E-02 0.  1.
    10030    2    1    2    0    0  0.00000000000E+00  0.00000000000E+00  0.82354305101E+03  0.36928246851E+04  0.35998237454E+04 0.  0.
        2    1    3    3  502    0 -0.14159290736E+04 -0.87681018197E+03 -0.28853003655E+03  0.16902369120E+04  0.25500000920E-02 0.  1.
       -2    1    3    3    0  502  0.14159290736E+04  0.87681018197E+03  0.11120730876E+04  0.20025877731E+04  0.25500000920E-02 0. -1.
</event>
<event>
 5   0  0.3212523E-08  0.3601886E+04  0.7818609E-02  0.8090060E-01
        1   -1    0    0  501    0  0.00000000000E+00  0.00000000000E+00  0.24556716022E+04  0.24556716022E+04  0.50400001928E-02 0.  1.
       -1   -1    0    0    0  501  0.00000000000E+00  0.00000000000E+00 -0.13207772126E+04  0.13207772127E+04  0.50400001928E-02 0. -1.
    10030    2    1    2    0    0  0.00000000000E+00  0.00000000000E+00  0.11348943896E+04  0.37764488149E+04  0.36018856695E+04 0.  0.
        3    1    3    3  502    0  0.12349636845E+04 -0.10026588813E+04 -0.31782868578E+03  0.16221822394E+04  0.10100000352E+00 0. -1.
       -3    1    3    3    0  502 -0.12349636845E+04  0.10026588813E+04  0.14527230754E+04  0.21542665754E+04  0.10100000352E+00 0.  1.
</event>
<event>
 5   0  0.3202875E-08  0.3606497E+04  0.7818609E-02  0.8089005E-01
        1   -1    0    0  501    0  0.00000000000E+00  0.00000000000E+00  0.11494814816E+04  0.11494814816E+04  0.50400001928E-02 0.  1.
       -1   -1    0    0    0  501  0.00000000000E+00  0.00000000000E+00 -0.28288445444E+04  0.28288445444E+04  0.50400001928E-02 0. -1.
    10030    2    1    2    0    0  0.00000000000E+00  0.00000000000E+00 -0.16793630628E+04  0.39783260260E+04  0.36064965927E+04 0.  0.
        1    1    3    3  502    0 -0.11056425140E+04  0.14245189766E+04 -0.84208176996E+03  0.19901762211E+04  0.50400001928E-02 0.  1.
       -1    1    3    3    0  502  0.11056425140E+04 -0.14245189766E+04 -0.83728129284E+03  0.19881498050E+04  0.50400001928E-02 0. -1.
</event>
<event>
 5   0  0.3202875E-08  0.3600040E+04  0.7818609E-02  0.8090482E-01
       -1   -1    0    0    0  501  0.00000000000E+00  0.00000000000E+00  0.17015229300E+04  0.17015229300E+04  0.50400001928E-02 0.  1.
        1   -1    0    0  501    0  0.00000000000E+00  0.00000000000E+00 -0.19042193102E+04  0.19042193102E+04  0.50400001928E-02 0. -1.
    10030    2    1    2    0    0  0.00000000000E+00  0.00000000000E+00 -0.20269638026E+03  0.36057422402E+04  0.36000404554E+04 0.  0.
        2    1    3    3  502    0 -0.52378323852E+03  0.10864598575E+04 -0.14396264287E+04  0.18781022755E+04  0.25500000920E-02 0.  1.
       -2    1    3    3    0  502  0.52378323852E+03 -0.10864598575E+04  0.12369300484E+04  0.17276399647E+04  0.25500000920E-02 0. -1.
</event>
<event>
 5   0  0.1029908E-07  0.3599804E+04  0.7818609E-02  0.8090537E-01
       -2   -1    0    0    0  501  0.00000000000E+00  0.00000000000E+00  0.18927188860E+04  0.18927188860E+04  0.25500000920E-02 0. -1.
        2   -1    0    0  501    0  0.00000000000E+00  0.00000000000E+00 -0.17116365144E+04  0.17116365144E+04  0.25500000920E-02 0.  1.
    10030    2    1    2    0    0  0.00000000000E+00  0.00000000000E+00  0.18108237163E+03  0.36043554003E+04  0.35998037483E+04 0.  0.
        4    1    3    3  502    0  0.14565500510E+04 -0.50907646808E+03 -0.83742527506E+03  0.17555567794E+04  0.12699999809E+01 0.  1.
       -4    1    3    3    0  502 -0.14565500510E+04  0.50907646808E+03  0.10185076467E+04  0.18487986209E+04  0.12699999809E+01 0. -1.
</event>
<event>
 5   0  0.3202875E-08  0.3595076E+04  0.7818609E-02  0.8091621E-01
        1   -1    0    0  501    0  0.00000000000E+00  0.00000000000E+00  0.24694866790E+04  0.24694866790E+04  0.50400001928E-02 0. -1.
       -1   -1    0    0    0  501  0.00000000000E+00  0.00000000000E+00 -0.13084268634E+04  0.13084268635E+04  0.50400001928E-02 0.  1.
    10030    2    1    2    0    0  0.00000000000E+00  0.00000000000E+00  0.11610598156E+04  0.37779135425E+04  0.35950759156E+04 0.  0.
        2    1    3    3  502    0  0.20554974166E+03  0.83678665966E+03 -0.10772561650E+04  0.13794721654E+04  0.25500000920E-02 0.  1.
       -2    1    3    3    0  502 -0.20554974166E+03 -0.83678665966E+03  0.22383159806E+04  0.23984413770E+04  0.25500000920E-02 0. -1.
</event>
<event>
 5   0  0.1029908E-07  0.3605719E+04  0.7818609E-02  0.8089183E-01
        2   -1    0    0  501    0  0.00000000000E+00  0.00000000000E+00  0.18532410295E+04  0.18532410295E+04  0.25500000920E-02 0. -1.
       -2   -1    0    0    0  501  0.00000000000E+00  0.00000000000E+00 -0.17538478044E+04  0.17538478044E+04  0.25500000920E-02 0.  1.
    10030    2    1    2    0    0  0.00000000000E+00  0.00000000000E+00  0.99393225021E+02  0.36070888339E+04  0.36057191852E+04 0.  0.
        4    1    3    3  502    0  0.16203374969E+04  0.76661960555E+03 -0.14299502246E+03  0.17982348047E+04  0.12699999809E+01 0. -1.
       -4    1    3    3    0  502 -0.16203374969E+04 -0.76661960555E+03  0.24238824748E+03  0.18088540292E+04  0.12699999809E+01 0.  1.
</event>
<event>
 5   0  0.1017794E-07  0.3609946E+04  0.7818609E-02  0.8088217E-01
       -2   -1    0    0    0  501  0.00000000000E+00  0.00000000000E+00  0.15924668887E+04  0.15924668887E+04  0.25500000920E-02 0. -1.
        2   -1    0    0  501    0  0.00000000000E+00  0.00000000000E+00 -0.20458364871E+04  0.20458364871E+04  0.25500000920E-02 0.  1.
    10030    2    1    2    0    0  0.00000000000E+00  0.00000000000E+00 -0.45336959836E+03  0.36383033758E+04  0.36099456314E+04 0.  0.
        1    1    3    3  502    0 -0.10883561006E+03 -0.39014793854E+03 -0.19994410138E+04  0.20400551393E+04  0.50400001928E-02 0.  1.
       -1    1    3    3    0  502  0.10883561006E+03  0.39014793854E+03  0.15460714154E+04  0.15982482365E+04  0.50400001928E-02 0. -1.
</event>
<event>
 5   0  0.9905335E-08  0.3612422E+04  0.7818609E-02  0.8087652E-01
       -2   -1    0    0    0  501  0.00000000000E+00  0.00000000000E+00  0.12226463143E+04  0.12226463143E+04  0.25500000920E-02 0.  1.
        2   -1    0    0  501    0  0.00000000000E+00  0.00000000000E+00 -0.26683096874E+04  0.26683096874E+04  0.25500000920E-02 0. -1.
    10030    2    1    2    0    0  0.00000000000E+00  0.00000000000E+00 -0.14456633730E+04  0.38909560017E+04  0.36124224585E+04 0.  0.
        5    1    3    3  502    0  0.11742422776E+04  0.13090431777E+04 -0.27881123908E+03  0.17805046376E+04  0.46999998093E+01 0. -1.
       -5    1    3    3    0  502 -0.11742422776E+04 -0.13090431777E+04 -0.11668521340E+04  0.21104513641E+04  0.46999998093E+01 0.  1.
</event>
<event>
 5   0  0.1021087E-07  0.3577303E+04  0.7818609E-02  0.8095710E-01
       -2   -1    0    0    0  501  0.00000000000E+00  0.00000000000E+00  0.14372388318E+04  0.14372388318E+04  0.25500000920E-02 0. -1.
        2   -1    0    0  501    0  0.00000000000E+00  0.00000000000E+00 -0.22259870171E+04  0.22259870171E+04  0.25500000920E-02 0.  1.
    10030    2    1    2    0    0  0.00000000000E+00  0.00000000000E+00 -0.78874818527E+03  0.36632258489E+04  0.35773034426E+04 0.  0.
        3    1    3    3  502    0  0.18560855385E+03 -0.13791173473E+04  0.75638782164E+03  0.15838363993E+04  0.10100000352E+00 0. -1.
       -3    1    3    3    0  502 -0.18560855385E+03  0.13791173473E+04 -0.15451360069E+04  0.20793894496E+04  0.10100000352E+00 0.  1.
</event>
<event>
 5   0  0.1029908E-07  0.3650104E+04  0.7818609E-02  0.8079110E-01
       -2   -1    0    0    0  501  0.00000000000E+00  0.00000000000E+00  0.22490601317E+04  0.22490601317E+04  0.25500000920E-02 0. -1.
        2   -1    0    0  501    0  0.00000000000E+00  0.00000000000E+00 -0.14809811534E+04  0.14809811534E+04  0.25500000920E-02 0.  1.
    10030    2    1    2    0    0  0.00000000000E+00  0.00000000000E+00  0.76807897837E+03  0.37300412851E+04  0.36501044741E+04 0.  0.
        4    1    3    3  502    0  0.14965451756E+04 -0.29694503740E+03  0.14074660795E+04  0.20757615942E+04  0.12699999809E+01 0. -1.
       -4    1    3    3    0  502 -0.14965451756E+04  0.29694503740E+03 -0.63938710117E+03  0.16542796909E+04  0.12699999809E+01 0.  1.
</event>
<event>
 5   0  0.3212523E-08  0.3593800E+04  0.7818609E-02  0.8091913E-01
       -1   -1    0    0    0  501  0.00000000000E+00  0.00000000000E+00  0.12953060660E+04  0.12953060660E+04  0.50400001928E-02 0.  1.
        1   -1    0    0  501    0  0.00000000000E+00  0.00000000000E+00 -0.24927309885E+04  0.24927309885E+04  0.50400001928E-02 0. -1.
    10030    2    1    2    0    0  0.00000000000E+00  0.00000000000E+00 -0.11974249224E+04  0.37880370545E+04  0.35937999780E+04 0.  0.
        3    1    3    3  502    0  0.64392973086E+02  0.75345042856E+03 -0.23168477802E+04  0.24371330801E+04  0.10100000352E+00 0. -1.
       -3    1    3    3    0  502 -0.64392973086E+02 -0.75345042856E+03  0.11194228578E+04  0.13509039744E+04  0.10100000352E+00 0.  1.
</event>
<event>
 5   0  0.3202875E-08  0.3506253E+04  0.7818609E-02  0.8112310E-01
        1   -1    0    0  501    0  0.00000000000E+00  0.00000000000E+00  0.24353354440E+04  0.24353354440E+04  0.50400001928E-02 0.  1.
       -1   -1    0    0    0  501  0.00000000000E+00  0.00000000000E+00 -0.12620241406E+04  0.12620241406E+04  0.50400001928E-02 0. -1.
    10030    2    1    2    0    0  0.00000000000E+00  0.00000000000E+00  0.11733113034E+04  0.36973595846E+04  0.35062527695E+04 0.  0.
        2    1    3    3  502    0 -0.75828168538E+03  0.14282321486E+04 -0.12746582091E+03  0.16220621814E+04  0.25500000920E-02 0. -1.
       -2    1    3    3    0  502  0.75828168538E+03 -0.14282321486E+04  0.13007771243E+04  0.20752974032E+04  0.25500000920E-02 0.  1.
</event>
<event>
 5   0  0.3279988E-08  0.3597877E+04  0.7818609E-02  0.8090978E-01
       -1   -1    0    0    0  501  0.00000000000E+00  0.00000000000E+00  0.16132478870E+04  0.16132478870E+04  0.50400001928E-02 0. -1.
        1   -1    0    0  501    0  0.00000000000E+00  0.00000000000E+00 -0.20060027308E+04  0.20060027308E+04  0.50400001928E-02 0.  1.
    10030    2    1    2    0    0  0.00000000000E+00  0.00000000000E+00 -0.39275484379E+03  0.36192506178E+04  0.35978769666E+04 0.  0.
        5    1    3    3  502    0  0.15888037773E+04  0.28065000288E+03  0.60402249419E+03  0.17227672885E+04  0.46999998093E+01 0.  1.
       -5    1    3    3    0  502 -0.15888037773E+04 -0.28065000288E+03 -0.99677733798E+03  0.18964833293E+04  0.46999998093E+01 0. -1.
</event>
<event>
 5   0  0.1029908E-07  0.3598091E+04  0.7818609E-02  0.8090929E-01
       -2   -1    0    0    0  501  0.00000000000E+00  0.00000000000E+00  0.12409345394E+04  0.12409345394E+04  0.25500000920E-02 0. -1.
        2   -1    0    0  501    0  0.00000000000E+00  0.00000000000E+00 -0.26081674292E+04  0.26081674292E+04  0.25500000920E-02 0.  1.
    10030    2    1    2    0    0  0.00000000000E+00  0.00000000000E+00 -0.13672328899E+04  0.38491019686E+04  0.35980911869E+04 0.  0.
        4    1    3    3  502    0  0.10394893336E+04 -0.14126187139E+04 -0.11122344374E+04  0.20767996442E+04  0.12699999809E+01 0. -1.
       -4    1    3    3    0  502 -0.10394893336E+04  0.14126187139E+04 -0.25499845248E+03  0.17723023244E+04  0.12699999809E+01 0.  1.
</event>
<event>
 5   0  0.3202875E-08  0.3599014E+04  0.7818609E-02  0.8090718E-01
        1   -1    0    0  501    0  0.00000000000E+00  0.00000000000E+00  0.26727371031E+04  0.26727371031E+04  0.50400001928E-02 0.  1.
       -1   -1    0    0    0  501  0.00000000000E+00  0.00000000000E+00 -0.12115762171E+04  0.12115762171E+04  0.50400001928E-02 0. -1.
    10030    2    1    2    0    0  0.00000000000E+00  0.00000000000E+00  0.14611608860E+04  0.38843133202E+04  0.35990135919E+04 0.  0.
        1    1    3    3  502    0 -0.48968873876E+03  0.26415577918E+03  0.25775707038E+04  0.26369383894E+04  0.50400001928E-02 0.  1.
       -1    1    3    3    0  502  0.48968873876E+03 -0.26415577918E+03 -0.11164098178E+04  0.12473749308E+04  0.50400001928E-02 0. -1.
</event>
<event>
 5   0  0.3279988E-08  0.3598100E+04  0.7818609E-02  0.8090927E-01
        1   -1    0    0  501    0  0.00000000000E+00  0.00000000000E+00  0.23321029408E+04  0.23321029408E+04  0.50400001928E-02 0. -1.
       -1   -1    0    0    0  501  0.00000000000E+00  0.00000000000E+00 -0.13878378399E+04  0.13878378399E+04  0.50400001928E-02 0.  1.
    10030    2    1    2    0    0  0.00000000000E+00  0.00000000000E+00  0.94426510089E+03  0.37199407807E+04  0.35980998918E+04 0.  0.
        5    1    3    3  502    0  0.55186637338E+03 -0.93310423449E+03  0.19564793220E+04  0.22367551127E+04  0.46999998093E+01 0. -1.
       -5    1    3    3    0  502 -0.55186637338E+03  0.93310423449E+03 -0.10122142212E+04  0.14831856681E+04  0.46999998093E+01 0.  1.
</event>
<event>
 5   0  0.3202875E-08  0.3602790E+04  0.7818609E-02  0.8089853E-01
       -1   -1    0    0    0  501  0.00000000000E+00  0.00000000000E+00  0.17483866277E+04  0.17483866277E+04  0.50400001928E-02 0.  1.
        1   -1    0    0  501    0  0.00000000000E+00  0.00000000000E+00 -0.18560106206E+04  0.18560106206E+04  0.50400001928E-02 0. -1.
    10030    2    1    2    0    0  0.00000000000E+00  0.00000000000E+00 -0.10762399288E+03  0.36043972483E+04  0.36027901132E+04 0.  0.
        1    1    3    3  502    0  0.14416271234E+04 -0.97128149373E+03 -0.52661951905E+03  0.18163162227E+04  0.50400001928E-02 0. -1.
       -1    1    3    3    0  502 -0.14416271234E+04  0.97128149373E+03  0.41899552617E+03  0.17880810256E+04  0.50400001928E-02 0.  1.
</event>
<event>
 5   0  0.3202875E-08  0.3610618E+04  0.7818609E-02  0.8088064E-01
       -1   -1    0    0    0  501  0.00000000000E+00  0.00000000000E+00  0.15877240848E+04  0.15877240848E+04  0.50400001928E-02 0. -1.
        1   -1    0    0  501    0  0.00000000000E+00  0.00000000000E+00 -0.20527118327E+04  0.20527118328E+04  0.50400001928E-02 0.  1.
    10030    2    1    2    0    0  0.00000000000E+00  0.00000000000E+00 -0.46498774800E+03  0.36404359175E+04  0.36106176845E+04 0.  0.
        2    1    3    3  502    0 -0.16503984361E+03 -0.17758221833E+02  0.15800134869E+04  0.15887089486E+04  0.25500000920E-02 0. -1.
       -2    1    3    3    0  502  0.16503984361E+03  0.17758221833E+02 -0.20450012349E+04  0.20517269690E+04  0.25500000920E-02 0.  1.
</event>
<event>
 5   0  0.9905335E-08  0.3601175E+04  0.7818609E-02  0.8090223E-01
       -2   -1    0    0    0  501  0.00000000000E+00  0.00000000000E+00  0.20200775269E+04  0.20200775269E+04  0.25500000920E-02 0. -1.
        2   -1    0    0  501    0  0.00000000000E+00  0.00000000000E+00 -0.16049459500E+04  0.16049459500E+04  0.25500000920E-02 0.  1.
    10030    2    1    2    0    0  0.00000000000E+00  0.00000000000E+00  0.41513157693E+03  0.36250234769E+04  0.36011749446E+04 0.  0.
        5    1    3    3  502    0  0.48062089688E+03  0.76086885255E+03  0.17774370541E+04  0.19922907491E+04  0.46999998093E+01 0. -1.
       -5    1    3    3    0  502 -0.48062089688E+03 -0.76086885255E+03 -0.13623054772E+04  0.16327327278E+04  0.46999998093E+01 0.  1.
</event>
<event>
 5   0  0.1029908E-07  0.3600151E+04  0.7818609E-02  0.8090457E-01
       -2   -1    0    0    0  501  0.00000000000E+00  0.00000000000E+00  0.25836811175E+04  0.25836811175E+04  0.25500000920E-02 0.  1.
        2   -1    0    0  501    0  0.00000000000E+00  0.00000000000E+00 -0.12541302707E+04  0.12541302707E+04  0.25500000920E-02 0. -1.
    10030    2    1    2    0    0  0.00000000000E+00  0.00000000000E+00  0.13295508468E+04  0.38378113882E+04  0.36001514965E+04 0.  0.
        4    1    3    3  502    0 -0.84832689846E+03 -0.13102313278E+04 -0.29102144060E+03  0.15877845417E+04  0.12699999809E+01 0. -1.
       -4    1    3    3    0  502  0.84832689846E+03  0.13102313278E+04  0.16205722873E+04  0.22500268466E+04  0.12699999809E+01 0.  1.
</event>
<event>
 5   0  0.3212523E-08  0.3572716E+04  0.7818609E-02  0.8096770E-01
       -1   -1    0    0    0  501  0.00000000000E+00  0.00000000000E+00  0.17608595378E+04  0.17608595378E+04  0.50400001928E-02 0. -1.
        1   -1    0    0  501    0  0.00000000000E+00  0.00000000000E+00 -0.18122256738E+04  0.18122256738E+04  0.50400001928E-02 0.  1.
    10030    2    1    2    0    0  0.00000000000E+00  0.00000000000E+00 -0.51366136086E+02  0.35730852116E+04  0.35727159766E+04 0.  0.
        3    1    3    3  502    0  0.87260146224E+03 -0.11322886044E+04  0.10456718064E+04  0.17711409691E+04  0.10100000352E+00 0. -1.
       -3    1    3    3    0  502 -0.87260146224E+03  0.11322886044E+04 -0.10970379425E+04  0.18019442425E+04  0.10100000352E+00 0.  1.
</event>
<event>
 5   0  0.3202875E-08  0.3593887E+04  0.7818609E-02  0.8091893E-01
        1   -1    0    0  501    0  0.00000000000E+00  0.00000000000E+00  0.11215802290E+04  0.11215802290E+04  0.50400001928E-02 0.  1.
       -1   -1    0    0    0  501  0.00000000000E+00  0.00000000000E+00 -0.28789795608E+04  0.28789795608E+04  0.50400001928E-02 0. -1.
    10030    2    1    2    0    0  0.00000000000E+00  0.00000000000E+00 -0.17573993319E+04  0.40005597898E+04  0.35938873411E+04 0.  0.
        2    1    3    3  502    0 -0.75396748139E+03  0.76511246290E+03 -0.24822414102E+04  0.27046971110E+04  0.25500000920E-02 0. -1.
       -2    1    3    3    0  502  0.75396748139E+03 -0.76511246290E+03  0.72484207831E+03  0.12958626788E+04  0.25500000920E-02 0.  1.
</event>
<event>
 5   0  0.1029908E-07  0.3590862E+04  0.7818609E-02  0.8092588E-01
        2   -1    0    0  501    0  0.00000000000E+00  0.00000000000E+00  0.27963303112E+04  0.27963303112E+04  0.25500000920E-02 0.  1.
       -2   -1    0    0    0  501  0.00000000000E+00  0.00000000000E+00 -0.11527864818E+04  0.11527864818E+04  0.25500000920E-02 0. -1.
    10030    2    1    2    0    0  0.00000000000E+00  0.00000000000E+00  0.16435438294E+04  0.39491167930E+04  0.35908616133E+04 0.  0.
        4    1    3    3  502    0  0.84965369795E+03  0.14619083864E+04  0.15781525886E+03  0.16982328478E+04  0.12699999809E+01 0.  1.
       -4    1    3    3    0  502 -0.84965369795E+03 -0.14619083864E+04  0.14857285705E+04  0.22508839452E+04  0.12699999809E+01 0. -1.
</event>
<event>
 5   0  0.3202875E-08  0.3614115E+04  0.7818609E-02  0.8087266E-01
       -1   -1    0    0    0  501  0.00000000000E+00  0.00000000000E+00  0.16273815411E+04  0.16273815411E+04  0.50400001928E-02 0. -1.
        1   -1    0    0  501    0  0.00000000000E+00  0.00000000000E+00 -0.20065712720E+04  0.20065712720E+04  0.50400001928E-02 0.  1.
    10030    2    1    2    0    0  0.00000000000E+00  0.00000000000E+00 -0.37918973090E+03  0.36339528131E+04  0.36141151332E+04 0.  0.
        1    1    3    3  502    0 -0.18836195713E+03  0.17749319567E+04 -0.47326639469E+03  0.18465764967E+04  0.50400001928E-02 0.  1.
       -1    1    3    3    0  502  0.18836195713E+03 -0.17749319567E+04  0.94076663789E+02  0.17873763164E+04  0.50400001928E-02 0. -1.
</event>
<event>
 5   0  0.1017794E-07  0.3605274E+04  0.7818609E-02  0.8089285E-01
        2   -1    0    0  501    0  0.00000000000E+00  0.00000000000E+00  0.17685017756E+04  0.17685017756E+04  0.25500000920E-02 0. -1.
       -2   -1    0    0    0  501  0.00000000000E+00  0.00000000000E+00 -0.18374311541E+04  0.18374311541E+04  0.25500000920E-02 0.  1.
    10030    2    1    2    0    0  0.00000000000E+00  0.00000000000E+00 -0.68929378477E+02  0.36059329297E+04  0.36052740581E+04 0.  0.
        1    1    3    3  502    0  0.88147421296E+03 -0.21651315318E+03 -0.15921912963E+04  0.18327432602E+04  0.50400001928E-02 0.  1.
       -1    1    3    3    0  502 -0.88147421296E+03  0.21651315318E+03  0.15232619178E+04  0.17731896695E+04  0.50400001928E-02 0. -1.
</event>
<event>
 5   0  0.3202875E-08  0.3648320E+04  0.7818609E-02  0.8079512E-01
        1   -1    0    0  501    0  0.00000000000E+00  0.00000000000E+00  0.11234476798E+04  0.11234476798E+04  0.50400001928E-02 0.  1.
       -1   -1    0    0    0  501  0.00000000000E+00  0.00000000000E+00 -0.29619183412E+04  0.29619183412E+04  0.50400001928E-02 0. -1.
    10030    2    1    2    0    0  0.00000000000E+00  0.00000000000E+00 -0.18384706614E+04  0.40853660210E+04  0.36483203194E+04 0.  0.
        1    1    3    3  502    0 -0.21141277638E+02 -0.58938340467E+03  0.10137441107E+04  0.11728157884E+04  0.50400001928E-02 0.  1.
       -1    1    3    3    0  502  0.21141277638E+02  0.58938340467E+03 -0.28522147722E+04  0.29125502327E+04  0.50400001928E-02 0. -1.
</event>
<event>
 5   0  0.3202875E-08  0.3584314E+04  0.7818609E-02  0.8094094E-01
       -1   -1    0    0    0  501  0.00000000000E+00  0.00000000000E+00  0.21636654139E+04  0.21636654139E+04  0.50400001928E-02 0. -1.
        1   -1    0    0  501    0  0.00000000000E+00  0.00000000000E+00 -0.14844381462E+04  0.14844381462E+04  0.50400001928E-02 0.  1.
    10030    2    1    2    0    0  0.00000000000E+00  0.00000000000E+00  0.67922726768E+03  0.36481035601E+04  0.35843144259E+04 0.  0.
        1    1    3    3  502    0 -0.35580245791E+03  0.26599552058E+03 -0.14275108792E+04  0.14950372291E+04  0.50400001928E-02 0.  1.
       -1    1    3    3    0  502  0.35580245791E+03 -0.26599552058E+03  0.21067381469E+04  0.21530663310E+04  0.50400001928E-02 0. -1.
</event>
<event>
 5   0  0.9905335E-08  0.3595294E+04  0.7818609E-02  0.8091570E-01
        2   -1    0    0  501    0  0.00000000000E+00  0.00000000000E+00  0.18803991278E+04  0.18803991278E+04  0.25500000920E-02 0.  1.
       -2   -1    0    0    0  501  0.00000000000E+00  0.00000000000E+00 -0.17185368323E+04  0.17185368323E+04  0.25500000920E-02 0. -1.
    10030    2    1    2    0    0  0.00000000000E+00  0.00000000000E+00  0.16186229548E+03  0.35989359600E+04  0.35952942358E+04 0.  0.
        5    1    3    3  502    0  0.20652664656E+02  0.13240032647E+03  0.18753865254E+04  0.18801736858E+04  0.46999998093E+01 0.  1.
       -5    1    3    3    0  502 -0.20652664656E+02 -0.13240032647E+03 -0.17135242299E+04  0.17187622743E+04  0.46999998093E+01 0. -1.
</event>
<event>
 5   0  0.3202875E-08  0.3595500E+04  0.7818609E-02  0.8091523E-01
       -3   -1    0    0    0  501  0.00000000000E+00  0.00000000000E+00  0.16300363209E+04  0.16300363240E+04  0.10100000352E+00 0.  1.
        3   -1    0    0  501    0  0.00000000000E+00  0.00000000000E+00 -0.19827199984E+04  0.19827200010E+04  0.10100000352E+00 0. -1.
    10030    2    1    2    0    0  0.00000000000E+00  0.00000000000E+00 -0.35268367752E+03  0.36127563250E+04  0.35955003112E+04 0.  0.
        4    1    3    3  502    0  0.48962953689E+03  0.71215311693E+02 -0.19129581626E+04  0.19759097269E+04  0.12699999809E+01 0. -1.
       -4    1    3    3    0  502 -0.48962953689E+03 -0.71215311693E+02  0.15602744851E+04  0.16368465981E+04  0.12699999809E+01 0.  1.
</event>
<event>
 5   0  0.1021087E-07  0.3590792E+04  0.7818609E-02  0.8092604E-01
       -2   -1    0    0    0  501  0.00000000000E+00  0.00000000000E+00  0.13599251350E+04  0.13599251350E+04  0.25500000920E-02 0.  1.
        2   -1    0    0  501    0  0.00000000000E+00  0.00000000000E+00 -0.23703113456E+04  0.23703113456E+04  0.25500000920E-02 0. -1.
    10030    2    1    2    0    0  0.00000000000E+00  0.00000000000E+00 -0.10103862106E+04  0.37302364806E+04  0.35907915432E+04 0.  0.
        3    1    3    3  502    0 -0.64182112679E+03  0.55651990899E+03  0.11379380195E+04  0.14200534195E+04  0.10100000352E+00 0.  1.
       -3    1    3    3    0  502  0.64182112679E+03 -0.55651990899E+03 -0.21483242301E+04  0.23101830611E+04  0.10100000352E+00 0. -1.
</event>
<event>
 5   0  0.1029908E-07  0.3531396E+04  0.7818609E-02  0.8106389E-01
        2   -1    0    0  501    0  0.00000000000E+00  0.00000000000E+00  0.20441547928E+04  0.20441547928E+04  0.25500000920E-02 0. -1.
       -2   -1    0    0    0  501  0.00000000000E+00  0.00000000000E+00 -0.15251732739E+04  0.15251732739E+04  0.25500000920E-02 0.  1.
    10030    2    1    2    0    0  0.00000000000E+00  0.00000000000E+00  0.51898151894E+03  0.35693280667E+04  0.35313964704E+04 0.  0.
        4    1    3    3  502    0 -0.12136807976E+04  0.12539069295E+04  0.53142519962E+03  0.18242033938E+04  0.12699999809E+01 0. -1.
       -4    1    3    3    0  502  0.12136807976E+04 -0.12539069295E+04 -0.12443680674E+02  0.17451246730E+04  0.12699999809E+01 0.  1.
</event>
<event>
 5   0  0.1021087E-07  0.3603623E+04  0.7818609E-02  0.8089662E-01
       -2   -1    0    0    0  501  0.00000000000E+00  0.00000000000E+00  0.15233583368E+04  0.15233583368E+04  0.25500000920E-02 0.  1.
        2   -1    0    0  501    0  0.00000000000E+00  0.00000000000E+00 -0.21311626943E+04  0.21311626944E+04  0.25500000920E-02 0. -1.
    10030    2    1    2    0    0  0.00000000000E+00  0.00000000000E+00 -0.60780435755E+03  0.36545210312E+04  0.36036228757E+04 0.  0.
        3    1    3    3  502    0 -0.11922229007E+04 -0.30319545324E+03 -0.16390079122E+04  0.20493096092E+04  0.10100000352E+00 0. -1.
       -3    1    3    3    0  502  0.11922229007E+04  0.30319545324E+03  0.10312035547E+04  0.16052114220E+04  0.10100000352E+00 0.  1.
</event>
<event>
 5   0  0.1017794E-07  0.3635588E+04  0.7818609E-02  0.8082388E-01
        2   -1    0    0  501    0  0.00000000000E+00  0.00000000000E+00  0.20630597333E+04  0.20630597333E+04  0.25500000920E-02 0. -1.
       -2   -1    0    0    0  501  0.00000000000E+00  0.00000000000E+00 -0.16016866794E+04  0.16016866794E+04  0.25500000920E-02 0.  1.
    10030    2    1    2    0    0  0.00000000000E+00  0.00000000000E+00  0.46137305393E+03  0.36647464127E+04  0.36355881470E+04 0.  0.
        1    1    3    3  502    0 -0.32602208559E+03  0.86329986231E+03  0.18093885395E+04  0.20311238119E+04  0.50400001928E-02 0. -1.
       -1    1    3    3    0  502  0.32602208559E+03 -0.86329986231E+03 -0.13480154856E+04  0.16336226008E+04  0.50400001928E-02 0.  1.
</event>
<event>
 5   0  0.3202875E-08  0.3600575E+04  0.7818609E-02  0.8090360E-01
       -1   -1    0    0    0  501  0.00000000000E+00  0.00000000000E+00  0.14386092637E+04  0.14386092637E+04  0.50400001928E-02 0.  1.
        1   -1    0    0  501    0  0.00000000000E+00  0.00000000000E+00 -0.22528949619E+04  0.22528949619E+04  0.50400001928E-02 0. -1.
    10030    2    1    2    0    0  0.00000000000E+00  0.00000000000E+00 -0.81428569821E+03  0.36915042256E+04  0.36005752664E+04 0.  0.
        2    1    3    3  502    0 -0.99443314979E+03 -0.40409289449E+03 -0.18889265479E+04  0.21726094588E+04  0.25500000920E-02 0. -1.
       -2    1    3    3    0  502  0.99443314979E+03  0.40409289449E+03  0.10746408497E+04  0.15188947668E+04  0.25500000920E-02 0.  1.
</event>
<event>
 5   0  0.3215494E-08  0.3601229E+04  0.7818609E-02  0.8090210E-01
       -1   -1    0    0    0  501  0.00000000000E+00  0.00000000000E+00  0.13189604752E+04  0.13189604752E+04  0.50400001928E-02 0. -1.
        1   -1    0    0  501    0  0.00000000000E+00  0.00000000000E+00 -0.24581570709E+04  0.24581570709E+04  0.50400001928E-02 0.  1.
    10030    2    1    2    0    0  0.00000000000E+00  0.00000000000E+00 -0.11391965957E+04  0.37771175461E+04  0.36012286894E+04 0.  0.
        4    1    3    3  502    0 -0.10990424873E+04  0.67482428992E+03 -0.18875241865E+04  0.22860514821E+04  0.12699999809E+01 0.  1.
       -4    1    3    3    0  502  0.10990424873E+04 -0.67482428992E+03  0.74832759076E+03  0.14910660640E+04  0.12699999809E+01 0. -1.
</event>
<event>
 5   0  0.9905335E-08  0.3598656E+04  0.7818609E-02  0.8090800E-01
       -2   -1    0    0    0  501  0.00000000000E+00  0.00000000000E+00  0.19855263557E+04  0.19855263557E+04  0.25500000920E-02 0. -1.
        2   -1    0    0  501    0  0.00000000000E+00  0.00000000000E+00 -0.16305911078E+04  0.16305911078E+04  0.25500000920E-02 0.  1.
    10030    2    1    2    0    0  0.00000000000E+00  0.00000000000E+00  0.35493524795E+03  0.36161174635E+04  0.35986562047E+04 0.  0.
        5    1    3    3  502    0 -0.10483465828E+04 -0.14103014948E+04 -0.21116298097E+03  0.17699132065E+04  0.46999998093E+01 0.  1.
       -5    1    3    3    0  502  0.10483465828E+04  0.14103014948E+04  0.56609822892E+03  0.18462042570E+04  0.46999998093E+01 0. -1.
</event>
<event>
 5   0  0.3202875E-08  0.3592888E+04  0.7818609E-02  0.8092123E-01
       -1   -1    0    0    0  501  0.00000000000E+00  0.00000000000E+00  0.14420036690E+04  0.14420036690E+04  0.50400001928E-02 0.  1.
        1   -1    0    0  501    0  0.00000000000E+00  0.00000000000E+00 -0.22380043608E+04  0.22380043608E+04  0.50400001928E-02 0. -1.
    10030    2    1    2    0    0  0.00000000000E+00  0.00000000000E+00 -0.79600069179E+03  0.36800080298E+04  0.35928876962E+04 0.  0.
        1    1    3    3  502    0  0.75192670712E+03  0.62623946968E+01 -0.20690563274E+04  0.22014602146E+04  0.50400001928E-02 0. -1.
       -1    1    3    3    0  502 -0.75192670712E+03 -0.62623946968E+01  0.12730556356E+04  0.14785478152E+04  0.50400001928E-02 0.  1.
</event>
<event>
 5   0  0.3215494E-08  0.3611771E+04  0.7818609E-02  0.8087801E-01
       -1   -1    0    0    0  501  0.00000000000E+00  0.00000000000E+00  0.15737443095E+04  0.15737443095E+04  0.50400001928E-02 0.  1.
        1   -1    0    0  501    0  0.00000000000E+00  0.00000000000E+00 -0.20722700143E+04  0.20722700143E+04  0.50400001928E-02 0. -1.
    10030    2    1    2    0    0  0.00000000000E+00  0.00000000000E+00 -0.49852570477E+03  0.36460143238E+04  0.36117713896E+04 0.  0.
        4    1    3    3  502    0  0.12688180482E+04 -0.76095922753E+03 -0.12945818587E+04  0.19659353975E+04  0.12699999809E+01 0. -1.
       -4    1    3    3    0  502 -0.12688180482E+04  0.76095922753E+03  0.79605615393E+03  0.16800789263E+04  0.12699999809E+01 0.  1.
</event>
<event>
 5   0  0.3279988E-08  0.3619363E+04  0.7818609E-02  0.8086071E-01
       -1   -1    0    0    0  501  0.00000000000E+00  0.00000000000E+00  0.14541067245E+04  0.14541067245E+04  0.50400001928E-02 0. -1.
        1   -1    0    0  501    0  0.00000000000E+00  0.00000000000E+00 -0.22522053177E+04  0.22522053177E+04  0.50400001928E-02 0.  1.
    10030    2    1    2    0    0  0.00000000000E+00  0.00000000000E+00 -0.79809859325E+03  0.37063120422E+04  0.36193628707E+04 0.  0.
        5    1    3    3  502    0  0.15672324679E+04  0.11260002089E+03 -0.13184080918E+04  0.20511261199E+04  0.46999998093E+01 0.  1.
       -5    1    3    3    0  502 -0.15672324679E+04 -0.11260002089E+03  0.52030949851E+03  0.16551859223E+04  0.46999998093E+01 0. -1.
</event>
<event>
 5   0  0.1029908E-07  0.3617182E+04  0.7818609E-02  0.8086567E-01
       -2   -1    0    0    0  501  0.00000000000E+00  0.00000000000E+00  0.27705251802E+04  0.27705251802E+04  0.25500000920E-02 0.  1.
        2   -1    0    0  501    0  0.00000000000E+00  0.00000000000E+00 -0.11806432618E+04  0.11806432618E+04  0.25500000920E-02 0. -1.
    10030    2    1    2    0    0  0.00000000000E+00  0.00000000000E+00  0.15898819184E+04  0.39511684421E+04  0.36171822657E+04 0.  0.
        4    1    3    3  502    0  0.16705454722E+04 -0.64291190212E+03  0.51231910590E+03  0.18618620700E+04  0.12699999809E+01 0. -1.
       -4    1    3    3    0  502 -0.16705454722E+04  0.64291190212E+03  0.10775628125E+04  0.20893063721E+04  0.12699999809E+01 0.  1.
</event>
<event>
 5   0  0.3202875E-08  0.3596363E+04  0.7818609E-02  0.8091325E-01
       -1   -1    0    0    0  501  0.00000000000E+00  0.00000000000E+00  0.29878885348E+04  0.29878885348E+04  0.50400001928E-02 0. -1.
        1   -1    0    0  501    0  0.00000000000E+00  0.00000000000E+00 -0.10821879319E+04  0.10821879319E+04  0.50400001928E-02 0.  1.
    10030    2    1    2    0    0  0.00000000000E+00  0.00000000000E+00  0.19057006029E+04  0.40700764666E+04  0.35963631152E+04 0.  0.
        1    1    3    3  502    0  0.10910345581E+04  0.13160584912E+04  0.15840727659E+04  0.23305906734E+04  0.50400001928E-02 0. -1.
       -1    1    3    3    0  502 -0.10910345581E+04 -0.13160584912E+04  0.32162783698E+03  0.17394857932E+04  0.50400001928E-02 0.  1.
</event>
<event>
 5   0  0.1044678E-07  0.3600783E+04  0.7818609E-02  0.8090312E-01
        2   -1    0    0  501    0  0.00000000000E+00  0.00000000000E+00  0.25145439814E+04  0.25145439814E+04  0.25500000920E-02 0. -1.
       -2   -1    0    0    0  501  0.00000000000E+00  0.00000000000E+00 -0.12890644133E+04  0.12890644133E+04  0.25500000920E-02 0.  1.
    10030    2    1    2    0    0  0.00000000000E+00  0.00000000000E+00  0.12254795681E+04  0.38036083947E+04  0.36007827827E+04 0.  0.
        2    1    3    3  502    0 -0.23637848138E+03 -0.54698734166E+03 -0.11818804478E+04  0.13235978737E+04  0.25500000920E-02 0.  1.
       -2    1    3    3    0  502  0.23637848138E+03  0.54698734166E+03  0.24073600158E+04  0.24800105210E+04  0.25500000920E-02 0. -1.
</event>
<event>
 5   0  0.9905335E-08  0.3605040E+04  0.7818609E-02  0.8089338E-01
       -2   -1    0    0    0  501  0.00000000000E+00  0.00000000000E+00  0.15529163896E+04  0.15529163896E+04  0.25500000920E-02 0. -1.
        2   -1    0    0  501    0  0.00000000000E+00  0.00000000000E+00 -0.20922426511E+04  0.20922426511E+04  0.25500000920E-02 0.  1.
    10030    2    1    2    0    0  0.00000000000E+00  0.00000000000E+00 -0.53932626153E+03  0.36451590407E+04  0.36050397523E+04 0.  0.
        5    1    3    3  502    0  0.21172770962E+03  0.10783610683E+04  0.11750004114E+04  0.16088316486E+04  0.46999998093E+01 0. -1.
       -5    1    3    3    0  502 -0.21172770962E+03 -0.10783610683E+04 -0.17143266729E+04  0.20363273922E+04  0.46999998093E+01 0.  1.
</event>
<event>
 5   0  0.3212523E-08  0.3601712E+04  0.7818609E-02  0.8090100E-01
       -1   -1    0    0    0  501  0.00000000000E+00  0.00000000000E+00  0.17319246363E+04  0.17319246363E+04  0.50400001928E-02 0.  1.
        1   -1    0    0  501    0  0.00000000000E+00  0.00000000000E+00 -0.18725313114E+04  0.18725313114E+04  0.50400001928E-02 0. -1.
    10030    2    1    2    0    0  0.00000000000E+00  0.00000000000E+00 -0.14060667509E+03  0.36044559478E+04  0.36017124319E+04 0.  0.
        3    1    3    3  502    0  0.12213849247E+04 -0.40456344150E+03 -0.13312751794E+04  0.18514173829E+04  0.10100000352E+00 0. -1.
       -3    1    3    3    0  502 -0.12213849247E+04  0.40456344150E+03  0.11906685043E+04  0.17530385648E+04  0.10100000352E+00 0.  1.
</event>
<event>
 5   0  0.3279988E-08  0.3603483E+04  0.7818609E-02  0.8089694E-01
       -1   -1    0    0    0  501  0.00000000000E+00  0.00000000000E+00  0.12258388911E+04  0.12258388911E+04  0.50400001928E-02 0.  1.
        1   -1    0    0  501    0  0.00000000000E+00  0.00000000000E+00 -0.26482054618E+04  0.26482054618E+04  0.50400001928E-02 0. -1.
    10030    2    1    2    0    0  0.00000000000E+00  0.00000000000E+00 -0.14223665707E+04  0.38740443529E+04  0.36034834517E+04 0.  0.
        5    1    3    3  502    0  0.46191047546E+03 -0.16191019159E+04 -0.14007457225E+04  0.21901970164E+04  0.46999998093E+01 0. -1.
       -5    1    3    3    0  502 -0.46191047546E+03  0.16191019159E+04 -0.21620848217E+02  0.16838473365E+04  0.46999998093E+01 0.  1.
</event>
<event>
 5   0  0.1044678E-07  0.3595833E+04  0.7818609E-02  0.8091447E-01
       -2   -1    0    0    0  501  0.00000000000E+00  0.00000000000E+00  0.21156695130E+04  0.21156695130E+04  0.25500000920E-02 0. -1.
        2   -1    0    0  501    0  0.00000000000E+00  0.00000000000E+00 -0.15278865306E+04  0.15278865306E+04  0.25500000920E-02 0.  1.
    10030    2    1    2    0    0  0.00000000000E+00  0.00000000000E+00  0.58778298236E+03  0.36435560435E+04  0.35958325612E+04 0.  0.
        2    1    3    3  502    0  0.30021405489E+03 -0.14224580160E+04  0.13657529201E+04  0.19946920376E+04  0.25500000920E-02 0. -1.
       -2    1    3    3    0  502 -0.30021405489E+03  0.14224580160E+04 -0.77796993773E+03  0.16488640060E+04  0.25500000920E-02 0.  1.
</event>
<event>
 5   0  0.3215494E-08  0.3599255E+04  0.7818609E-02  0.8090662E-01
        1   -1    0    0  501    0  0.00000000000E+00  0.00000000000E+00  0.18820618963E+04  0.18820618963E+04  0.50400001928E-02 0. -1.
       -1   -1    0    0    0  501  0.00000000000E+00  0.00000000000E+00 -0.17208032967E+04  0.17208032967E+04  0.50400001928E-02 0.  1.
    10030    2    1    2    0    0  0.00000000000E+00  0.00000000000E+00  0.16125859958E+03  0.36028651931E+04  0.35992545428E+04 0.  0.
        4    1    3    3  502    0 -0.12297568140E+04  0.78930889709E+03  0.11320859733E+04  0.18484941494E+04  0.12699999809E+01 0. -1.
       -4    1    3    3    0  502  0.12297568140E+04 -0.78930889709E+03 -0.97082737368E+03  0.17543710437E+04  0.12699999809E+01 0.  1.
</event>
<event>
 5   0  0.1021087E-07  0.3596623E+04  0.7818609E-02  0.8091266E-01
       -2   -1    0    0    0  501  0.00000000000E+00  0.00000000000E+00  0.24741135800E+04  0.24741135800E+04  0.25500000920E-02 0.  1.
        2   -1    0    0  501    0  0.00000000000E+00  0.00000000000E+00 -0.13071042041E+04  0.13071042041E+04  0.25500000920E-02 0. -1.
    10030    2    1    2    0    0  0.00000000000E+00  0.00000000000E+00  0.11670093759E+04  0.37812177841E+04  0.35966230061E+04 0.  0.
        3    1    3    3  502    0 -0.38507529267E+03  0.14549123418E+03  0.24239152374E+04  0.24586207045E+04  0.10100000352E+00 0.  1.
       -3    1    3    3    0  502  0.38507529267E+03 -0.14549123418E+03 -0.12569058615E+04  0.13225970797E+04  0.10100000352E+00 0. -1.
</event>
<event>
 5   0  0.9905335E-08  0.3600421E+04  0.7818609E-02  0.8090395E-01
        2   -1    0    0  501    0  0.00000000000E+00  0.00000000000E+00  0.31579436812E+04  0.31579436812E+04  0.25500000920E-02 0.  1.
       -2   -1    0    0    0  501  0.00000000000E+00  0.00000000000E+00 -0.10262240862E+04  0.10262240862E+04  0.25500000920E-02 0. -1.
    10030    2    1    2    0    0  0.00000000000E+00  0.00000000000E+00  0.21317195950E+04  0.41841677674E+04  0.36004210135E+04 0.  0.
        5    1    3    3  502    0 -0.24158937212E+03 -0.28912916033E+03  0.31116015141E+04  0.31343336084E+04  0.46999998093E+01 0.  1.
       -5    1    3    3    0  502  0.24158937212E+03  0.28912916033E+03 -0.97988191911E+03  0.10498341590E+04  0.46999998093E+01 0. -1.
</event>
<event>
 5   0  0.1017794E-07  0.3592899E+04  0.7818609E-02  0.8092120E-01
        2   -1    0    0  501    0  0.00000000000E+00  0.00000000000E+00  0.27074651545E+04  0.27074651545E+04  0.25500000920E-02 0. -1.
       -2   -1    0    0    0  501  0.00000000000E+00  0.00000000000E+00 -0.11919750559E+04  0.11919750559E+04  0.25500000920E-02 0.  1.
    10030    2    1    2    0    0  0.00000000000E+00  0.00000000000E+00  0.15154900986E+04  0.38994402104E+04  0.35928990684E+04 0.  0.
        1    1    3    3  502    0  0.10388059464E+04  0.10033346071E+04  0.19172762064E+04  0.24003637599E+04  0.50400001928E-02 0. -1.
       -1    1    3    3    0  502 -0.10388059464E+04 -0.10033346071E+04 -0.40178610779E+03  0.14990764505E+04  0.50400001928E-02 0.  1.
</event>
<event>
 5   0  0.3202875E-08  0.3599379E+04  0.7818609E-02  0.8090634E-01
        1   -1    0    0  501    0  0.00000000000E+00  0.00000000000E+00  0.12946623410E+04  0.12946623410E+04  0.50400001928E-02 0.  1.
       -1   -1    0    0    0  501  0.00000000000E+00  0.00000000000E+00 -0.25017196756E+04  0.25017196757E+04  0.50400001928E-02 0. -1.
    10030    2    1    2    0    0  0.00000000000E+00  0.00000000000E+00 -0.12070573346E+04  0.37963820167E+04  0.35993789753E+04 0.  0.
        1    1    3    3  502    0 -0.61385019427E+03 -0.59947036451E+01  0.11808201019E+04  0.13308584112E+04  0.50400001928E-02 0.  1.
       -1    1    3    3    0  502  0.61385019427E+03  0.59947036451E+01 -0.23878774365E+04  0.24655236055E+04  0.50400001928E-02 0. -1.
</event>
<event>
 5   0  0.1017794E-07  0.3599755E+04  0.7818609E-02  0.8090548E-01
        2   -1    0    0  501    0  0.00000000000E+00  0.00000000000E+00  0.23073165258E+04  0.23073165258E+04  0.25500000920E-02 0.  1.
       -2   -1    0    0    0  501  0.00000000000E+00  0.00000000000E+00 -0.14040375990E+04  0.14040375990E+04  0.25500000920E-02 0. -1.
    10030    2    1    2    0    0  0.00000000000E+00  0.00000000000E+00  0.90327892676E+03  0.37113541248E+04  0.35997550778E+04 0.  0.
        1    1    3    3  502    0  0.14640183717E+04 -0.98214989738E+03  0.82564018421E+03  0.19467023212E+04  0.50400001928E-02 0.  1.
       -1    1    3    3    0  502 -0.14640183717E+04  0.98214989738E+03  0.77638742549E+02  0.17646518036E+04  0.50400001928E-02 0. -1.
</event>
<event>
 5   0  0.3202875E-08  0.3601631E+04  0.7818609E-02  0.8090118E-01
        1   -1    0    0  501    0  0.00000000000E+00  0.00000000000E+00  0.22402318644E+04  0.22402318644E+04  0.50400001928E-02 0. -1.
       -1   -1    0    0    0  501  0.00000000000E+00  0.00000000000E+00 -0.14475894800E+04  0.14475894800E+04  0.50400001928E-02 0.  1.
    10030    2    1    2    0    0  0.00000000000E+00  0.00000000000E+00  0.79264238434E+03  0.36878213444E+04  0.36016307860E+04 0.  0.
        1    1    3    3  502    0  0.91565787444E+02 -0.82877701781E+03  0.20306640148E+04  0.21951883700E+04  0.50400001928E-02 0. -1.
       -1    1    3    3    0  502 -0.91565787444E+02  0.82877701781E+03 -0.12380216305E+04  0.14926329744E+04  0.50400001928E-02 0.  1.
</event>
<event>
 5   0  0.1029908E-07  0.3596533E+04  0.7818609E-02  0.8091286E-01
        2   -1    0    0  501    0  0.00000000000E+00  0.00000000000E+00  0.21792481182E+04  0.21792481182E+04  0.25500000920E-02 0. -1.
       -2   -1    0    0    0  501  0.00000000000E+00  0.00000000000E+00 -0.14838890841E+04  0.14838890841E+04  0.25500000920E-02 0.  1.
    10030    2    1    2    0    0  0.00000000000E+00  0.00000000000E+00  0.69535903411E+03  0.36631372023E+04  0.35965330495E+04 0.  0.
        4    1    3    3  502    0 -0.11781478383E+04  0.12737033902E+04 -0.13373447644E+03  0.17401836622E+04  0.12699999809E+01 0.  1.
       -4    1    3    3    0  502  0.11781478383E+04 -0.12737033902E+04  0.82909351055E+03  0.19229535401E+04  0.12699999809E+01 0. -1.
</event>
<event>
 5   0  0.3202875E-08  0.3599358E+04  0.7818609E-02  0.8090639E-01
       -1   -1    0    0    0  501  0.00000000000E+00  0.00000000000E+00  0.14166994301E+04  0.14166994301E+04  0.50400001928E-02 0. -1.
        1   -1    0    0  501    0  0.00000000000E+00  0.00000000000E+00 -0.22861899260E+04  0.22861899260E+04  0.50400001928E-02 0.  1.
    10030    2    1    2    0    0  0.00000000000E+00  0.00000000000E+00 -0.86949049597E+03  0.37028893561E+04  0.35993577012E+04 0.  0.
        1    1    3    3  502    0  0.12252873269E+04  0.41808360396E+03  0.85130061089E+03  0.15494630242E+04  0.50400001928E-02 0. -1.
       -1    1    3    3    0  502 -0.12252873269E+04 -0.41808360396E+03 -0.17207911069E+04  0.21534263319E+04  0.50400001928E-02 0.  1.
</event>
<event>
 5   0  0.9905335E-08  0.3610013E+04  0.7818609E-02  0.8088202E-01
       -2   -1    0    0    0  501  0.00000000000E+00  0.00000000000E+00  0.22688146425E+04  0.22688146425E+04  0.25500000920E-02 0.  1.
        2   -1    0    0  501    0  0.00000000000E+00  0.00000000000E+00 -0.14360135187E+04  0.14360135187E+04  0.25500000920E-02 0. -1.
    10030    2    1    2    0    0  0.00000000000E+00  0.00000000000E+00  0.83280112378E+03  0.37048281612E+04  0.36100130183E+04 0.  0.
        5    1    3    3  502    0  0.12078923843E+04  0.10622267059E+04 -0.42406984235E+03  0.16634863715E+04  0.46999998093E+01 0. -1.
       -5    1    3    3    0  502 -0.12078923843E+04 -0.10622267059E+04  0.12568709661E+04  0.20413417897E+04  0.46999998093E+01 0.  1.
</event>
<event>
 5   0  0.9905335E-08  0.3627536E+04  0.7818609E-02  0.8084213E-01
        2   -1    0    0  501    0  0.00000000000E+00  0.00000000000E+00  0.23881693810E+04  0.23881693810E+04  0.25500000920E-02 0. -1.
       -2   -1    0    0    0  501  0.00000000000E+00  0.00000000000E+00 -0.13775212553E+04  0.13775212553E+04  0.25500000920E-02 0.  1.
    10030    2    1    2    0    0  0.00000000000E+00  0.00000000000E+00  0.10106481258E+04  0.37656906363E+04  0.36275358488E+04 0.  0.
        5    1    3    3  502    0  0.42976420898E+03  0.12585300201E+04  0.17856397810E+04  0.22264605553E+04  0.46999998093E+01 0. -1.
       -5    1    3    3    0  502 -0.42976420898E+03 -0.12585300201E+04 -0.77499165526E+03  0.15392300810E+04  0.46999998093E+01 0.  1.
</event>
<event>
 5   0  0.1044678E-07  0.3602689E+04  0.7818609E-02  0.8089876E-01
        2   -1    0    0  501    0  0.00000000000E+00  0.00000000000E+00  0.24883525721E+04  0.24883525721E+04  0.25500000920E-02 0.  1.
       -2   -1    0    0    0  501  0.00000000000E+00  0.00000000000E+00 -0.13040120268E+04  0.13040120268E+04  0.25500000920E-02 0. -1.
    10030    2    1    2    0    0  0.00000000000E+00  0.00000000000E+00  0.11843405453E+04  0.37923645990E+04  0.36026888187E+04 0.  0.
        2    1    3    3  502    0  0.46898051132E+03 -0.17289521479E+04  0.79084892577E+03  0.19582288613E+04  0.25500000920E-02 0. -1.
       -2    1    3    3    0  502 -0.46898051132E+03  0.17289521479E+04  0.39349161951E+03  0.18341357377E+04  0.25500000920E-02 0.  1.
</event>
<event>
 5   0  0.1044678E-07  0.3601771E+04  0.7818609E-02  0.8090086E-01
       -2   -1    0    0    0  501  0.00000000000E+00  0.00000000000E+00  0.18249550125E+04  0.18249550125E+04  0.25500000920E-02 0. -1.
        2   -1    0    0  501    0  0.00000000000E+00  0.00000000000E+00 -0.17771332033E+04  0.17771332033E+04  0.25500000920E-02 0.  1.
    10030    2    1    2    0    0  0.00000000000E+00  0.00000000000E+00  0.47821809270E+02  0.36020882158E+04  0.36017707574E+04 0.  0.
        2    1    3    3  502    0  0.78370082269E+03 -0.15300682748E+04 -0.51269229484E+03  0.17939200914E+04  0.25500000920E-02 0.  1.
       -2    1    3    3    0  502 -0.78370082269E+03  0.15300682748E+04  0.56051410411E+03  0.18081681244E+04  0.25500000920E-02 0. -1.
</event>
<event>
 5   0  0.1017794E-07  0.3597443E+04  0.7818609E-02  0.8091078E-01
        2   -1    0    0  501    0  0.00000000000E+00  0.00000000000E+00  0.14290467031E+04  0.14290467031E+04  0.25500000920E-02 0.  1.
       -2   -1    0    0    0  501  0.00000000000E+00  0.00000000000E+00 -0.22640262768E+04  0.22640262768E+04  0.25500000920E-02 0. -1.
    10030    2    1    2    0    0  0.00000000000E+00  0.00000000000E+00 -0.83497957379E+03  0.36930729799E+04  0.35974431401E+04 0.  0.
        1    1    3    3  502    0  0.32080775036E+03  0.10374268842E+04  0.10545837124E+04  0.15137103287E+04  0.50400001928E-02 0. -1.
       -1    1    3    3    0  502 -0.32080775036E+03 -0.10374268842E+04 -0.18895632862E+04  0.21793626512E+04  0.50400001928E-02 0.  1.
</event>
<event>
 5   0  0.3279988E-08  0.3604359E+04  0.7818609E-02  0.8089494E-01
        1   -1    0    0  501    0  0.00000000000E+00  0.00000000000E+00  0.25989490185E+04  0.25989490185E+04  0.50400001928E-02 0. -1.
       -1   -1    0    0    0  501  0.00000000000E+00  0.00000000000E+00 -0.12496782741E+04  0.12496782741E+04  0.50400001928E-02 0.  1.
    10030    2    1    2    0    0  0.00000000000E+00  0.00000000000E+00  0.13492707444E+04  0.38486272926E+04  0.36043585415E+04 0.  0.
        5    1    3    3  502    0  0.95644107356E+03  0.15217036923E+04  0.53351837832E+03  0.18748401544E+04  0.46999998093E+01 0.  1.
       -5    1    3    3    0  502 -0.95644107356E+03 -0.15217036923E+04  0.81575236607E+03  0.19737871383E+04  0.46999998093E+01 0. -1.
</event>
<event>
 5   0  0.3212523E-08  0.3599123E+04  0.7818609E-02  0.8090693E-01
       -1   -1    0    0    0  501  0.00000000000E+00  0.00000000000E+00  0.24762325365E+04  0.24762325365E+04  0.50400001928E-02 0. -1.
        1   -1    0    0  501    0  0.00000000000E+00  0.00000000000E+00 -0.13078018507E+04  0.13078018507E+04  0.50400001928E-02 0.  1.
    10030    2    1    2    0    0  0.00000000000E+00  0.00000000000E+00  0.11684306859E+04  0.37840343872E+04  0.35991229454E+04 0.  0.
        3    1    3    3  502    0 -0.30367025788E+02 -0.94375764337E+03 -0.10264242099E+04  0.13946853819E+04  0.10100000352E+00 0.  1.
       -3    1    3    3    0  502  0.30367025788E+02  0.94375764337E+03  0.21948548957E+04  0.23893490053E+04  0.10100000352E+00 0. -1.
</event>
<event>
 5   0  0.1021087E-07  0.3600356E+04  0.7818609E-02  0.8090410E-01
       -2   -1    0    0    0  501  0.00000000000E+00  0.00000000000E+00  0.18706186509E+04  0.18706186509E+04  0.25500000920E-02 0. -1.
        2   -1    0    0  501    0  0.00000000000E+00  0.00000000000E+00 -0.17323896486E+04  0.17323896486E+04  0.25500000920E-02 0.  1.
    10030    2    1    2    0    0  0.00000000000E+00  0.00000000000E+00  0.13822900233E+03  0.36030082995E+04  0.36003557532E+04 0.  0.
        3    1    3    3  502    0  0.67161483862E+03  0.83990790629E+03  0.15138292381E+04  0.18569304658E+04  0.10100000352E+00 0. -1.
       -3    1    3    3    0  502 -0.67161483862E+03 -0.83990790629E+03 -0.13756002358E+04  0.17460778337E+04  0.10100000352E+00 0.  1.
</event>
<event>
 5   0  0.3202875E-08  0.3604477E+04  0.7818609E-02  0.8089467E-01
       -1   -1    0    0    0  501  0.00000000000E+00  0.00000000000E+00  0.15033121317E+04  0.15033121317E+04  0.50400001928E-02 0.  1.
        1   -1    0    0  501    0  0.00000000000E+00  0.00000000000E+00 -0.21606054630E+04  0.21606054630E+04  0.50400001928E-02 0. -1.
    10030    2    1    2    0    0  0.00000000000E+00  0.00000000000E+00 -0.65729333129E+03  0.36639175947E+04  0.36044774403E+04 0.  0.
        1    1    3    3  502    0 -0.27754273674E+03  0.10196722473E+04  0.11553262612E+04  0.15657395161E+04  0.50400001928E-02 0.  1.
       -1    1    3    3    0  502  0.27754273674E+03 -0.10196722473E+04 -0.18126195925E+04  0.20981780786E+04  0.50400001928E-02 0. -1.
</event>
<event>
 5   0  0.1044678E-07  0.3599574E+04  0.7818609E-02  0.8090589E-01
       -2   -1    0    0    0  501  0.00000000000E+00  0.00000000000E+00  0.17494490339E+04  0.17494490339E+04  0.25500000920E-02 0. -1.
        2   -1    0    0  501    0  0.00000000000E+00  0.00000000000E+00 -0.18515732918E+04  0.18515732918E+04  0.25500000920E-02 0.  1.
    10030    2    1    2    0    0  0.00000000000E+00  0.00000000000E+00 -0.10212425787E+03  0.36010223257E+04  0.35995739229E+04 0.  0.
        2    1    3    3  502    0  0.62230144661E+03 -0.16863839233E+04  0.38881108080E+02  0.17979603910E+04  0.25500000920E-02 0. -1.
       -2    1    3    3    0  502 -0.62230144661E+03  0.16863839233E+04 -0.14100536595E+03  0.18030619347E+04  0.25500000920E-02 0.  1.
</event>
<event>
 5   0  0.3215494E-08  0.3553601E+04  0.7818609E-02  0.8101203E-01
       -1   -1    0    0    0  501  0.00000000000E+00  0.00000000000E+00  0.16604634781E+04  0.16604634781E+04  0.50400001928E-02 0. -1.
        1   -1    0    0  501    0  0.00000000000E+00  0.00000000000E+00 -0.19012880460E+04  0.19012880460E+04  0.50400001928E-02 0.  1.
    10030    2    1    2    0    0  0.00000000000E+00  0.00000000000E+00 -0.24082456793E+03  0.35617515240E+04  0.35536006313E+04 0.  0.
        4    1    3    3  502    0 -0.95994405343E+03 -0.54510170806E+03 -0.15158662083E+04  0.18752281013E+04  0.12699999809E+01 0.  1.
       -4    1    3    3    0  502  0.95994405343E+03  0.54510170806E+03  0.12750416403E+04  0.16865234227E+04  0.12699999809E+01 0. -1.
</event>
<event>
 5   0  0.3202875E-08  0.3599517E+04  0.7818609E-02  0.8090602E-01
       -1   -1    0    0    0  501  0.00000000000E+00  0.00000000000E+00  0.15780224359E+04  0.15780224359E+04  0.50400001928E-02 0. -1.
        1   -1    0    0  501    0  0.00000000000E+00  0.00000000000E+00 -0.20526519137E+04  0.20526519137E+04  0.50400001928E-02 0.  1.
    10030    2    1    2    0    0  0.00000000000E+00  0.00000000000E+00 -0.47462947780E+03  0.36306743496E+04  0.35995170637E+04 0.  0.
        1    1    3    3  502    0 -0.10689365009E+04 -0.67270934579E+03  0.10559567282E+04  0.16462708521E+04  0.50400001928E-02 0. -1.
       -1    1    3    3    0  502  0.10689365009E+04  0.67270934579E+03 -0.15305862060E+04  0.19844034975E+04  0.50400001928E-02 0.  1.
</event>
<event>
 5   0  0.3202875E-08  0.3599629E+04  0.7818609E-02  0.8090577E-01
        1   -1    0    0  501    0  0.00000000000E+00  0.00000000000E+00  0.10840064100E+04  0.10840064100E+04  0.50400001928E-02 0.  1.
       -1   -1    0    0    0  501  0.00000000000E+00  0.00000000000E+00 -0.29882959985E+04  0.29882959985E+04  0.50400001928E-02 0. -1.
    10030    2    1    2    0    0  0.00000000000E+00  0.00000000000E+00 -0.19042895885E+04  0.40723024085E+04  0.35996288794E+04 0.  0.
        2    1    3    3  502    0 -0.17850440892E+04  0.39379371856E+02 -0.12086281161E+04  0.21560879060E+04  0.25500000920E-02 0. -1.
       -2    1    3    3    0  502  0.17850440892E+04 -0.39379371856E+02 -0.69566147240E+03  0.19162145025E+04  0.25500000920E-02 0.  1.
</event>
<event>
 5   0  0.3279988E-08  0.3594887E+04  0.7818609E-02  0.8091664E-01
        1   -1    0    0  501    0  0.00000000000E+00  0.00000000000E+00  0.19833861932E+04  0.19833861932E+04  0.50400001928E-02 0.  1.
       -1   -1    0    0    0  501  0.00000000000E+00  0.00000000000E+00 -0.16289333236E+04  0.16289333236E+04  0.50400001928E-02 0. -1.
    10030    2    1    2    0    0  0.00000000000E+00  0.00000000000E+00  0.35445286960E+03  0.36123195168E+04  0.35948874050E+04 0.  0.
        5    1    3    3  502    0  0.10794755642E+04  0.14081642228E+04 -0.11154805018E+03  0.17778242404E+04  0.46999998093E+01 0. -1.
       -5    1    3    3    0  502 -0.10794755642E+04 -0.14081642228E+04  0.46600091978E+03  0.18344952765E+04  0.46999998093E+01 0.  1.
</event>
<event>
 5   0  0.1029908E-07  0.3599289E+04  0.7818609E-02  0.8090655E-01
        2   -1    0    0  501    0  0.00000000000E+00  0.00000000000E+00  0.25432365011E+04  0.25432365011E+04  0.25500000920E-02 0.  1.
       -2   -1    0    0    0  501  0.00000000000E+00  0.00000000000E+00 -0.12734642013E+04  0.12734642013E+04  0.25500000920E-02 0. -1.
    10030    2    1    2    0    0  0.00000000000E+00  0.00000000000E+00  0.12697722998E+04  0.38167007024E+04  0.35992891741E+04 0.  0.
        4    1    3    3  502    0  0.17225103662E+03 -0.16685929130E+04 -0.56287676512E+02  0.16784047915E+04  0.12699999809E+01 0. -1.
       -4    1    3    3    0  502 -0.17225103662E+03  0.16685929130E+04  0.13260599763E+04  0.21382959109E+04  0.12699999809E+01 0.  1.
</event>
<event>
 5   0  0.1029908E-07  0.3696136E+04  0.7818609E-02  0.8068819E-01
       -2   -1    0    0    0  501  0.00000000000E+00  0.00000000000E+00  0.27083954863E+04  0.27083954863E+04  0.25500000920E-02 0. -1.
        2   -1    0    0  501    0  0.00000000000E+00  0.00000000000E+00 -0.12610254247E+04  0.12610254247E+04  0.25500000920E-02 0.  1.
    10030    2    1    2    0    0  0.00000000000E+00  0.00000000000E+00  0.14473700616E+04  0.39694209109E+04  0.36961361275E+04 0.  0.
        4    1    3    3  502    0  0.18204766889E+04 -0.25120916375E+03  0.93334384381E+03  0.20611583545E+04  0.12699999809E+01 0. -1.
       -4    1    3    3    0  502 -0.18204766889E+04  0.25120916375E+03  0.51402621779E+03  0.19082625564E+04  0.12699999809E+01 0.  1.
</event>
<event>
 5   0  0.3202875E-08  0.3616950E+04  0.7818609E-02  0.8086620E-01
        1   -1    0    0  501    0  0.00000000000E+00  0.00000000000E+00  0.28884074966E+04  0.28884074966E+04  0.50400001928E-02 0.  1.
       -1   -1    0    0    0  501  0.00000000000E+00  0.00000000000E+00 -0.11323132675E+04  0.11323132675E+04  0.50400001928E-02 0. -1.
    10030    2    1    2    0    0  0.00000000000E+00  0.00000000000E+00  0.17560942291E+04  0.40207207641E+04  0.36169501685E+04 0.  0.
        2    1    3    3  502    0 -0.76727157131E+03  0.15884130510E+04  0.43503603051E+03  0.18168703951E+04  0.25500000920E-02 0.  1.
       -2    1    3    3    0  502  0.76727157131E+03 -0.15884130510E+04  0.13210581986E+04  0.22038503690E+04  0.25500000920E-02 0. -1.
</event>
<event>
 5   0  0.1029908E-07  0.3597404E+04  0.7818609E-02  0.8091087E-01
       -2   -1    0    0    0  501  0.00000000000E+00  0.00000000000E+00  0.27999653119E+04  0.27999653119E+04  0.25500000920E-02 0.  1.
        2   -1    0    0  501    0  0.00000000000E+00  0.00000000000E+00 -0.11554891436E+04  0.11554891436E+04  0.25500000920E-02 0. -1.
    10030    2    1    2    0    0  0.00000000000E+00  0.00000000000E+00  0.16444761683E+04  0.39554544555E+04  0.35974043534E+04 0.  0.
        4    1    3    3  502    0 -0.19714136600E+03  0.11027264219E+04 -0.72511672808E+03  0.13344160378E+04  0.12699999809E+01 0. -1.
       -4    1    3    3    0  502  0.19714136600E+03 -0.11027264219E+04  0.23695928964E+04  0.26210384177E+04  0.12699999809E+01 0.  1.
</event>
<event>
 5   0  0.1017794E-07  0.3598692E+04  0.7818609E-02  0.8090791E-01
        2   -1    0    0  501    0  0.00000000000E+00  0.00000000000E+00  0.22374662051E+04  0.22374662051E+04  0.25500000920E-02 0.  1.
       -2   -1    0    0    0  501  0.00000000000E+00  0.00000000000E+00 -0.14470148600E+04  0.14470148600E+04  0.25500000920E-02 0. -1.
    10030    2    1    2    0    0  0.00000000000E+00  0.00000000000E+00  0.79045134507E+03  0.36844810650E+04  0.35986924556E+04 0.  0.
        1    1    3    3  502    0 -0.15558262037E+04  0.20728894463E+03 -0.50556804907E+03  0.16489884581E+04  0.50400001928E-02 0. -1.
       -1    1    3    3    0  502  0.15558262037E+04 -0.20728894463E+03  0.12960193941E+04  0.20354926069E+04  0.50400001928E-02 0.  1.
</event>
<event>
 5   0  0.1029908E-07  0.3593669E+04  0.7818609E-02  0.8091943E-01
       -2   -1    0    0    0  501  0.00000000000E+00  0.00000000000E+00  0.11821923568E+04  0.11821923568E+04  0.25500000920E-02 0.  1.
        2   -1    0    0  501    0  0.00000000000E+00  0.00000000000E+00 -0.27310396876E+04  0.27310396876E+04  0.25500000920E-02 0. -1.
    10030    2    1    2    0    0  0.00000000000E+00  0.00000000000E+00 -0.15488473307E+04  0.39132320444E+04  0.35936690136E+04 0.  0.
        4    1    3    3  502    0 -0.10030971600E+04  0.57267536739E+03  0.72436116329E+03  0.13634007835E+04  0.12699999809E+01 0.  1.
       -4    1    3    3    0  502  0.10030971600E+04 -0.57267536739E+03 -0.22732084940E+04  0.25498312609E+04  0.12699999809E+01 0. -1.
</event>
<event>
 5   0  0.3279988E-08  0.3594950E+04  0.7818609E-02  0.8091649E-01
       -1   -1    0    0    0  501  0.00000000000E+00  0.00000000000E+00  0.15926148768E+04  0.15926148768E+04  0.50400001928E-02 0. -1.
        1   -1    0    0  501    0  0.00000000000E+00  0.00000000000E+00 -0.20286869501E+04  0.20286869501E+04  0.50400001928E-02 0.  1.
    10030    2    1    2    0    0  0.00000000000E+00  0.00000000000E+00 -0.43607207329E+03  0.36213018269E+04  0.35949503568E+04 0.  0.
        5    1    3    3  502    0 -0.17767811564E+04  0.26282122425E+03 -0.14774883368E+03  0.18021870273E+04  0.46999998093E+01 0. -1.
       -5    1    3    3    0  502  0.17767811564E+04 -0.26282122425E+03 -0.28832323962E+03  0.18191147996E+04  0.46999998093E+01 0.  1.
</event>
<event>
 5   0  0.9905335E-08  0.3619963E+04  0.7818609E-02  0.8085934E-01
       -2   -1    0    0    0  501  0.00000000000E+00  0.00000000000E+00  0.11872394863E+04  0.11872394863E+04  0.25500000920E-02 0.  1.
        2   -1    0    0  501    0  0.00000000000E+00  0.00000000000E+00 -0.27593699570E+04  0.27593699570E+04  0.25500000920E-02 0. -1.
    10030    2    1    2    0    0  0.00000000000E+00  0.00000000000E+00 -0.15721304706E+04  0.39466094433E+04  0.36199629668E+04 0.  0.
        5    1    3    3  502    0  0.23413119251E+03  0.94539644795E+03 -0.24493143953E+04  0.26358594340E+04  0.46999998093E+01 0. -1.
       -5    1    3    3    0  502 -0.23413119251E+03 -0.94539644795E+03  0.87718392466E+03  0.13107500093E+04  0.46999998093E+01 0.  1.
</event>
<event>
 5   0  0.3279988E-08  0.3594257E+04  0.7818609E-02  0.8091809E-01
       -1   -1    0    0    0  501  0.00000000000E+00  0.00000000000E+00  0.34781332284E+04  0.34781332284E+04  0.50400001928E-02 0.  1.
        1   -1    0    0  501    0  0.00000000000E+00  0.00000000000E+00 -0.92856428513E+03  0.92856428514E+03  0.50400001928E-02 0. -1.
    10030    2    1    2    0    0  0.00000000000E+00  0.00000000000E+00  0.25495689433E+04  0.44066975135E+04  0.35942566936E+04 0.  0.
        5    1    3    3  502    0  0.16265747218E+04 -0.63324729303E+03  0.75044580241E+03  0.18999838032E+04  0.46999998093E+01 0. -1.
       -5    1    3    3    0  502 -0.16265747218E+04  0.63324729303E+03  0.17991231409E+04  0.25067137104E+04  0.46999998093E+01 0.  1.
</event>
<event>
 5   0  0.3212523E-08  0.3596457E+04  0.7818609E-02  0.8091304E-01
       -1   -1    0    0    0  501  0.00000000000E+00  0.00000000000E+00  0.15274631540E+04  0.15274631540E+04  0.50400001928E-02 0. -1.
        1   -1    0    0  501    0  0.00000000000E+00  0.00000000000E+00 -0.21169906450E+04  0.21169906450E+04  0.50400001928E-02 0.  1.
    10030    2    1    2    0    0  0.00000000000E+00  0.00000000000E+00 -0.58952749101E+03  0.36444537990E+04  0.35964567050E+04 0.  0.
        3    1    3    3  502    0 -0.60915987053E+03  0.14606817928E+04 -0.11599486042E+04  0.19621793553E+04  0.10100000352E+00 0.  1.
       -3    1    3    3    0  502  0.60915987053E+03 -0.14606817928E+04  0.57042111321E+03  0.16822744438E+04  0.10100000352E+00 0. -1.
</event>
<event>
 5   0  0.9905335E-08  0.3606783E+04  0.7818609E-02  0.8088940E-01
       -2   -1    0    0    0  501  0.00000000000E+00  0.00000000000E+00  0.13243000232E+04  0.13243000232E+04  0.25500000920E-02 0.  1.
        2   -1    0    0  501    0  0.00000000000E+00  0.00000000000E+00 -0.24558038288E+04  0.24558038288E+04  0.25500000920E-02 0. -1.
    10030    2    1    2    0    0  0.00000000000E+00  0.00000000000E+00 -0.11315038056E+04  0.37801038520E+04  0.36067830916E+04 0.  0.
        5    1    3    3  502    0  0.92094839554E+03  0.80737767478E+03 -0.19530661317E+04  0.23053186465E+04  0.46999998093E+01 0. -1.
       -5    1    3    3    0  502 -0.92094839554E+03 -0.80737767478E+03  0.82156232604E+03  0.14747852056E+04  0.46999998093E+01 0.  1.
</event>
<event>
 5   0  0.3202875E-08  0.3604885E+04  0.7818609E-02  0.8089374E-01
       -1   -1    0    0    0  501  0.00000000000E+00  0.00000000000E+00  0.12307809647E+04  0.12307809647E+04  0.50400001928E-02 0.  1.
        1   -1    0    0  501    0  0.00000000000E+00  0.00000000000E+00 -0.26396246476E+04  0.26396246476E+04  0.50400001928E-02 0. -1.
    10030    2    1    2    0    0  0.00000000000E+00  0.00000000000E+00 -0.14088436829E+04  0.38704056123E+04  0.36048854462E+04 0.  0.
        1    1    3    3  502    0  0.28329168394E+03  0.12133033068E+04 -0.21028312942E+04  0.24442296423E+04  0.50400001928E-02 0. -1.
       -1    1    3    3    0  502 -0.28329168394E+03 -0.12133033068E+04  0.69398761129E+03  0.14261759699E+04  0.50400001928E-02 0.  1.
</event>
<event>
 5   0  0.3215494E-08  0.3582722E+04  0.7818609E-02  0.8094461E-01
       -1   -1    0    0    0  501  0.00000000000E+00  0.00000000000E+00  0.12593868010E+04  0.12593868010E+04  0.50400001928E-02 0. -1.
        1   -1    0    0  501    0  0.00000000000E+00  0.00000000000E+00 -0.25480455168E+04  0.25480455168E+04  0.50400001928E-02 0.  1.
    10030    2    1    2    0    0  0.00000000000E+00  0.00000000000E+00 -0.12886587157E+04  0.38074323178E+04  0.35827223684E+04 0.  0.
        4    1    3    3  502    0  0.11847157246E+04 -0.95264142011E+03 -0.16513354943E+04  0.22445461793E+04  0.12699999809E+01 0.  1.
       -4    1    3    3    0  502 -0.11847157246E+04  0.95264142011E+03  0.36267677856E+03  0.15628861385E+04  0.12699999809E+01 0. -1.
</event>
<event>
 5   0  0.3279988E-08  0.3656615E+04  0.7818609E-02  0.8077645E-01
       -1   -1    0    0    0  501  0.00000000000E+00  0.00000000000E+00  0.13027423152E+04  0.13027423152E+04  0.50400001928E-02 0. -1.
        1   -1    0    0  501    0  0.00000000000E+00  0.00000000000E+00 -0.25659012489E+04  0.25659012489E+04  0.50400001928E-02 0.  1.
    10030    2    1    2    0    0  0.00000000000E+00  0.00000000000E+00 -0.12631589338E+04  0.38686435641E+04  0.36566149010E+04 0.  0.
        5    1    3    3  502    0  0.34532084915E+02 -0.39511893711E+03 -0.25198305824E+04  0.25508586189E+04  0.46999998093E+01 0.  1.
       -5    1    3    3    0  502 -0.34532084915E+02  0.39511893711E+03  0.12566716487E+04  0.13177849452E+04  0.46999998093E+01 0. -1.
</event>
<event>
 5   0  0.3202875E-08  0.3598828E+04  0.7818609E-02  0.8090760E-01
       -1   -1    0    0    0  501  0.00000000000E+00  0.00000000000E+00  0.13861293841E+04  0.13861293841E+04  0.50400001928E-02 0.  1.
        1   -1    0    0  501    0  0.00000000000E+00  0.00000000000E+00 -0.23359230084E+04  0.23359230084E+04  0.50400001928E-02 0. -1.
    10030    2    1    2    0    0  0.00000000000E+00  0.00000000000E+00 -0.94979362436E+03  0.37220523925E+04  0.35988284321E+04 0.  0.
        1    1    3    3  502    0  0.33679252784E+03  0.13707425023E+04 -0.16291417161E+04  0.21555665023E+04  0.50400001928E-02 0. -1.
       -1    1    3    3    0  502 -0.33679252784E+03 -0.13707425023E+04  0.67934809176E+03  0.15664858902E+04  0.50400001928E-02 0.  1.
</event>
<event>
 5   0  0.3202875E-08  0.3597799E+04  0.7818609E-02  0.8090996E-01
       -1   -1    0    0    0  501  0.00000000000E+00  0.00000000000E+00  0.26422498468E+04  0.26422498468E+04  0.50400001928E-02 0. -1.
        1   -1    0    0  501    0  0.00000000000E+00  0.00000000000E+00 -0.12247287925E+04  0.12247287925E+04  0.50400001928E-02 0.  1.
    10030    2    1    2    0    0  0.00000000000E+00  0.00000000000E+00  0.14175210543E+04  0.38669786394E+04  0.35977990297E+04 0.  0.
        1    1    3    3  502    0 -0.21559619384E+02 -0.13210582969E+03 -0.12193688515E+04  0.12266935899E+04  0.50400001928E-02 0.  1.
       -1    1    3    3    0  502  0.21559619384E+02  0.13210582969E+03  0.26368899058E+04  0.26402850495E+04  0.50400001928E-02 0. -1.
</event>
<event>
 5   0  0.1029908E-07  0.3604083E+04  0.7818609E-02  0.8089557E-01
       -2   -1    0    0    0  501  0.00000000000E+00  0.00000000000E+00  0.19215485393E+04  0.19215485393E+04  0.25500000920E-02 0.  1.
        2   -1    0    0  501    0  0.00000000000E+00  0.00000000000E+00 -0.16899671837E+04  0.16899671837E+04  0.25500000920E-02 0. -1.
    10030    2    1    2    0    0  0.00000000000E+00  0.00000000000E+00  0.23158135562E+03  0.36115157230E+04  0.36040832251E+04 0.  0.
        4    1    3    3  502    0 -0.75744810407E+03  0.59354822675E+03  0.16425222788E+04  0.19036565282E+04  0.12699999809E+01 0.  1.
       -4    1    3    3    0  502  0.75744810407E+03 -0.59354822675E+03 -0.14109409232E+04  0.17078591949E+04  0.12699999809E+01 0. -1.
</event>
<event>
 5   0  0.3215494E-08  0.3601717E+04  0.7818609E-02  0.8090098E-01
        1   -1    0    0  501    0  0.00000000000E+00  0.00000000000E+00  0.15701817722E+04  0.15701817722E+04  0.50400001928E-02 0. -1.
       -1   -1    0    0    0  501  0.00000000000E+00  0.00000000000E+00 -0.20654245344E+04  0.20654245345E+04  0.50400001928E-02 0.  1.
    10030    2    1    2    0    0  0.00000000000E+00  0.00000000000E+00 -0.49524276229E+03  0.36356063066E+04  0.36017173436E+04 0.  0.
        4    1    3    3  502    0  0.15104307591E+04 -0.96614144374E+03 -0.77932606833E+02  0.17946881265E+04  0.12699999809E+01 0. -1.
       -4    1    3    3    0  502 -0.15104307591E+04  0.96614144374E+03 -0.41731015545E+03  0.18409181801E+04  0.12699999809E+01 0.  1.
</event>
<event>
 5   0  0.3202875E-08  0.3601475E+04  0.7818609E-02  0.8090154E-01
       -1   -1    0    0    0  501  0.00000000000E+00  0.00000000000E+00  0.18301825009E+04  0.18301825009E+04  0.50400001928E-02 0.  1.
        1   -1    0    0  501    0  0.00000000000E+00  0.00000000000E+00 -0.17717659103E+04  0.17717659103E+04  0.50400001928E-02 0. -1.
    10030    2    1    2    0    0  0.00000000000E+00  0.00000000000E+00  0.58416590578E+02  0.36019484112E+04  0.36014746784E+04 0.  0.
        1    1    3    3  502    0  0.72104841886E+03  0.16381677712E+04  0.22709916469E+03  0.18041836102E+04  0.50400001928E-02 0. -1.
       -1    1    3    3    0  502 -0.72104841886E+03 -0.16381677712E+04 -0.16868257411E+03  0.17977648010E+04  0.50400001928E-02 0.  1.
</event>
<event>
 5   0  0.3212523E-08  0.3597448E+04  0.7818609E-02  0.8091076E-01
        1   -1    0    0  501    0  0.00000000000E+00  0.00000000000E+00  0.15226814450E+04  0.15226814450E+04  0.50400001928E-02 0. -1.
       -1   -1    0    0    0  501  0.00000000000E+00  0.00000000000E+00 -0.21248099228E+04  0.21248099228E+04  0.50400001928E-02 0.  1.
    10030    2    1    2    0    0  0.00000000000E+00  0.00000000000E+00 -0.60212847781E+03  0.36474913678E+04  0.35974483421E+04 0.  0.
        3    1    3    3  502    0 -0.57357926627E+03  0.37685405499E+03 -0.19868402600E+04  0.21020338681E+04  0.10100000352E+00 0.  1.
       -3    1    3    3    0  502  0.57357926627E+03 -0.37685405499E+03  0.13847117822E+04  0.15454574997E+04  0.10100000352E+00 0. -1.
</event>
<event>
 5   0  0.3279988E-08  0.3603816E+04  0.7818609E-02  0.8089618E-01
        1   -1    0    0  501    0  0.00000000000E+00  0.00000000000E+00  0.18195453037E+04  0.18195453037E+04  0.50400001928E-02 0. -1.
       -1   -1    0    0    0  501  0.00000000000E+00  0.00000000000E+00 -0.17844411857E+04  0.17844411857E+04  0.50400001928E-02 0.  1.
    10030    2    1    2    0    0  0.00000000000E+00  0.00000000000E+00  0.35104118001E+02  0.36039864895E+04  0.36038155221E+04 0.  0.
        5    1    3    3  502    0  0.15883261632E+04  0.67325402248E+03  0.53795978788E+03  0.18070622022E+04  0.46999998093E+01 0. -1.
       -5    1    3    3    0  502 -0.15883261632E+04 -0.67325402248E+03 -0.50285566988E+03  0.17969242872E+04  0.46999998093E+01 0.  1.
</event>
<event>
 5   0  0.1029908E-07  0.3601693E+04  0.7818609E-02  0.8090104E-01
       -2   -1    0    0    0  501  0.00000000000E+00  0.00000000000E+00  0.29663512877E+04  0.29663512877E+04  0.25500000920E-02 0. -1.
        2   -1    0    0  501    0  0.00000000000E+00  0.00000000000E+00 -0.10932783695E+04  0.10932783695E+04  0.25500000920E-02 0.  1.
    10030    2    1    2    0    0  0.00000000000E+00  0.00000000000E+00  0.18730729182E+04  0.40596296572E+04  0.36016927682E+04 0.  0.
        4    1    3    3  502    0 -0.71215026857E+03  0.74806266000E+03  0.25993293906E+04  0.27970110193E+04  0.12699999809E+01 0. -1.
       -4    1    3    3    0  502  0.71215026857E+03 -0.74806266000E+03 -0.72625647235E+03  0.12626186379E+04  0.12699999809E+01 0.  1.
</event>
<event>
 5   0  0.3202875E-08  0.3600023E+04  0.7818609E-02  0.8090486E-01
       -1   -1    0    0    0  501  0.00000000000E+00  0.00000000000E+00  0.15154069294E+04  0.15154069294E+04  0.50400001928E-02 0.  1.
        1   -1    0    0  501    0  0.00000000000E+00  0.00000000000E+00 -0.21380667949E+04  0.21380667949E+04  0.50400001928E-02 0. -1.
    10030    2    1    2    0    0  0.00000000000E+00  0.00000000000E+00 -0.62265986554E+03  0.36534737243E+04  0.36000229091E+04 0.  0.
        2    1    3    3  502    0  0.14405104187E+04 -0.11584808080E+03 -0.14003657410E+04  0.20123407397E+04  0.25500000920E-02 0. -1.
       -2    1    3    3    0  502 -0.14405104187E+04  0.11584808080E+03  0.77770587544E+03  0.16411329845E+04  0.25500000920E-02 0.  1.
</event>
<event>
 5   0  0.3215494E-08  0.3597836E+04  0.7818609E-02  0.8090987E-01
       -1   -1    0    0    0  501  0.00000000000E+00  0.00000000000E+00  0.13496223649E+04  0.13496223649E+04  0.50400001928E-02 0.  1.
        1   -1    0    0  501    0  0.00000000000E+00  0.00000000000E+00 -0.23977868737E+04  0.23977868737E+04  0.50400001928E-02 0. -1.
    10030    2    1    2    0    0  0.00000000000E+00  0.00000000000E+00 -0.10481645088E+04  0.37474092386E+04  0.35978364560E+04 0.  0.
        4    1    3    3  502    0  0.72061735508E+03 -0.31774040730E+03 -0.22086818464E+04  0.23448934838E+04  0.12699999809E+01 0. -1.
       -4    1    3    3    0  502 -0.72061735508E+03  0.31774040730E+03  0.11605173376E+04  0.14025157548E+04  0.12699999809E+01 0.  1.
</event>
<event>
 5   0  0.1029908E-07  0.3613671E+04  0.7818609E-02  0.8087367E-01
       -2   -1    0    0    0  501  0.00000000000E+00  0.00000000000E+00  0.25399325867E+04  0.25399325867E+04  0.25500000920E-02 0.  1.
        2   -1    0    0  501    0  0.00000000000E+00  0.00000000000E+00 -0.12853308166E+04  0.12853308166E+04  0.25500000920E-02 0. -1.
    10030    2    1    2    0    0  0.00000000000E+00  0.00000000000E+00  0.12546017701E+04  0.38252634033E+04  0.36136705029E+04 0.  0.
        4    1    3    3  502    0  0.13825650345E+04 -0.22399392711E+03 -0.58102416563E+03  0.15163278168E+04  0.12699999809E+01 0. -1.
       -4    1    3    3    0  502 -0.13825650345E+04  0.22399392711E+03  0.18356259357E+04  0.23089355865E+04  0.12699999809E+01 0.  1.
</event>
<event>
 5   0  0.9905335E-08  0.3601677E+04  0.7818609E-02  0.8090108E-01
        2   -1    0    0  501    0  0.00000000000E+00  0.00000000000E+00  0.23854216024E+04  0.23854216024E+04  0.25500000920E-02 0.  1.
       -2   -1    0    0    0  501  0.00000000000E+00  0.00000000000E+00 -0.13595163650E+04  0.13595163650E+04  0.25500000920E-02 0. -1.
    10030    2    1    2    0    0  0.00000000000E+00  0.00000000000E+00  0.10259052373E+04  0.37449379674E+04  0.36016772237E+04 0.  0.
        5    1    3    3  502    0 -0.13809826487E+04  0.88414544472E+03  0.12869899061E+04  0.20845122576E+04  0.46999998093E+01 0.  1.
       -5    1    3    3    0  502  0.13809826487E+04 -0.88414544472E+03 -0.26108466879E+03  0.16604257098E+04  0.46999998093E+01 0. -1.
</event>
<event>
 5   0  0.3215494E-08  0.3601894E+04  0.7818609E-02  0.8090058E-01
       -1   -1    0    0    0  501  0.00000000000E+00  0.00000000000E+00  0.17736240209E+04  0.17736240209E+04  0.50400001928E-02 0. -1.
        1   -1    0    0  501    0  0.00000000000E+00  0.00000000000E+00 -0.18286905631E+04  0.18286905631E+04  0.50400001928E-02 0.  1.
    10030    2    1    2    0    0  0.00000000000E+00  0.00000000000E+00 -0.55066542199E+02  0.36023145840E+04  0.36018936739E+04 0.  0.
        4    1    3    3  502    0 -0.54909398972E+03  0.14918931148E+04  0.81882717725E+03  0.17882194593E+04  0.12699999809E+01 0. -1.
       -4    1    3    3    0  502  0.54909398972E+03 -0.14918931148E+04 -0.87389371945E+03  0.18140951247E+04  0.12699999809E+01 0.  1.
</event>
<event>
 5   0  0.1029908E-07  0.3598742E+04  0.7818609E-02  0.8090780E-01
       -2   -1    0    0    0  501  0.00000000000E+00  0.00000000000E+00  0.13808156006E+04  0.13808156006E+04  0.25500000920E-02 0. -1.
        2   -1    0    0  501    0  0.00000000000E+00  0.00000000000E+00 -0.23448001725E+04  0.23448001725E+04  0.25500000920E-02 0.  1.
    10030    2    1    2    0    0  0.00000000000E+00  0.00000000000E+00 -0.96398457192E+03  0.37256157731E+04  0.35987423684E+04 0.  0.
        4    1    3    3  502    0 -0.38811513182E+01 -0.36122476163E+03 -0.23068729618E+04  0.23349866952E+04  0.12699999809E+01 0.  1.
       -4    1    3    3    0  502  0.38811513182E+01  0.36122476163E+03  0.13428883899E+04  0.13906290779E+04  0.12699999809E+01 0. -1.
</event>
<event>
 5   0  0.1021087E-07  0.3615509E+04  0.7818609E-02  0.8086948E-01
        2   -1    0    0  501    0  0.00000000000E+00  0.00000000000E+00  0.10136774370E+04  0.10136774370E+04  0.25500000920E-02 0. -1.
       -2   -1    0    0    0  501  0.00000000000E+00  0.00000000000E+00 -0.32238810090E+04  0.32238810090E+04  0.25500000920E-02 0.  1.
    10030    2    1    2    0    0  0.00000000000E+00  0.00000000000E+00 -0.22102035720E+04  0.42375584459E+04  0.36155085055E+04 0.  0.
        3    1    3    3  502    0  0.11302520012E+04  0.40363703922E+03 -0.26895748711E+04  0.29452004080E+04  0.10100000352E+00 0.  1.
       -3    1    3    3    0  502 -0.11302520012E+04 -0.40363703922E+03  0.47937129912E+03  0.12923580379E+04  0.10100000352E+00 0. -1.
</event>
<event>
 5   0  0.3279988E-08  0.3542696E+04  0.7818609E-02  0.8103746E-01
       -1   -1    0    0    0  501  0.00000000000E+00  0.00000000000E+00  0.23957827459E+04  0.23957827459E+04  0.50400001928E-02 0.  1.
        1   -1    0    0  501    0  0.00000000000E+00  0.00000000000E+00 -0.13096650550E+04  0.13096650551E+04  0.50400001928E-02 0. -1.
    10030    2    1    2    0    0  0.00000000000E+00  0.00000000000E+00  0.10861176909E+04  0.37054478010E+04  0.35426955510E+04 0.  0.
        5    1    3    3  502    0 -0.12869054902E+04 -0.91361319000E+03  0.13842679723E+04  0.20992938600E+04  0.46999998093E+01 0.  1.
       -5    1    3    3    0  502  0.12869054902E+04  0.91361319000E+03 -0.29815028146E+03  0.16061539409E+04  0.46999998093E+01 0. -1.
</event>
<event>
 5   0  0.1044678E-07  0.3597425E+04  0.7818609E-02  0.8091082E-01
       -2   -1    0    0    0  501  0.00000000000E+00  0.00000000000E+00  0.23633981932E+04  0.23633981932E+04  0.25500000920E-02 0.  1.
        2   -1    0    0  501    0  0.00000000000E+00  0.00000000000E+00 -0.13689467393E+04  0.13689467394E+04  0.25500000920E-02 0. -1.
    10030    2    1    2    0    0  0.00000000000E+00  0.00000000000E+00  0.99445145382E+03  0.37323449325E+04  0.35974247735E+04 0.  0.
        2    1    3    3  502    0 -0.65213389443E+03  0.16744781531E+04  0.41546306043E+03  0.18443875016E+04  0.25500000920E-02 0.  1.
       -2    1    3    3    0  502  0.65213389443E+03 -0.16744781531E+04  0.57898839339E+03  0.18879574309E+04  0.25500000920E-02 0. -1.
</event>
<event>
 5   0  0.3202875E-08  0.3589763E+04  0.7818609E-02  0.8092841E-01
       -3   -1    0    0    0  501  0.00000000000E+00  0.00000000000E+00  0.19700771982E+04  0.19700772008E+04  0.10100000352E+00 0. -1.
        3   -1    0    0  501    0  0.00000000000E+00  0.00000000000E+00 -0.16352655701E+04  0.16352655732E+04  0.10100000352E+00 0.  1.
    10030    2    1    2    0    0  0.00000000000E+00  0.00000000000E+00  0.33481162814E+03  0.36053427740E+04  0.35897629019E+04 0.  0.
        5    1    3    3  502    0  0.45294440282E+03 -0.17222466729E+04 -0.57810812898E+02  0.17817565530E+04  0.46999998093E+01 0.  1.
       -5    1    3    3    0  502 -0.45294440282E+03  0.17222466729E+04  0.39262244103E+03  0.18235862210E+04  0.46999998093E+01 0. -1.
</event>
<event>
 5   0  0.1044678E-07  0.3578030E+04  0.7818609E-02  0.8095543E-01
        2   -1    0    0  501    0  0.00000000000E+00  0.00000000000E+00  0.15778076755E+04  0.15778076755E+04  0.25500000920E-02 0.  1.
       -2   -1    0    0    0  501  0.00000000000E+00  0.00000000000E+00 -0.20284952183E+04  0.20284952183E+04  0.25500000920E-02 0. -1.
    10030    2    1    2    0    0  0.00000000000E+00  0.00000000000E+00 -0.45068754273E+03  0.36063028938E+04  0.35780303661E+04 0.  0.
        2    1    3    3  502    0 -0.10363976162E+04 -0.41742505176E+03  0.11829122811E+04  0.16271586148E+04  0.25500000920E-02 0.  1.
       -2    1    3    3    0  502  0.10363976162E+04  0.41742505176E+03 -0.16335998239E+04  0.19791442791E+04  0.25500000920E-02 0. -1.
</event>
<event>
 5   0  0.3212523E-08  0.3603734E+04  0.7818609E-02  0.8089637E-01
       -1   -1    0    0    0  501  0.00000000000E+00  0.00000000000E+00  0.28028075312E+04  0.28028075312E+04  0.50400001928E-02 0.  1.
        1   -1    0    0  501    0  0.00000000000E+00  0.00000000000E+00 -0.11583829959E+04  0.11583829959E+04  0.50400001928E-02 0. -1.
    10030    2    1    2    0    0  0.00000000000E+00  0.00000000000E+00  0.16444245353E+04  0.39611905271E+04  0.36037339441E+04 0.  0.
        3    1    3    3  502    0  0.12164236059E+03  0.63087180161E+03 -0.10281955486E+04  0.12124282207E+04  0.10100000352E+00 0. -1.
       -3    1    3    3    0  502 -0.12164236059E+03 -0.63087180161E+03  0.26726200839E+04  0.27487623064E+04  0.10100000352E+00 0.  1.
</event>
<event>
 5   0  0.1021087E-07  0.3567244E+04  0.7818609E-02  0.8098036E-01
        2   -1    0    0  501    0  0.00000000000E+00  0.00000000000E+00  0.19233535397E+04  0.19233535397E+04  0.25500000920E-02 0. -1.
       -2   -1    0    0    0  501  0.00000000000E+00  0.00000000000E+00 -0.16540421926E+04  0.16540421926E+04  0.25500000920E-02 0.  1.
    10030    2    1    2    0    0  0.00000000000E+00  0.00000000000E+00  0.26931134709E+03  0.35773957324E+04  0.35672442619E+04 0.  0.
        3    1    3    3  502    0 -0.99531645306E+02  0.17079686065E+04 -0.37100594910E+03  0.17506309530E+04  0.10100000352E+00 0.  1.
       -3    1    3    3    0  502  0.99531645306E+02 -0.17079686065E+04  0.64031729619E+03  0.18267647794E+04  0.10100000352E+00 0. -1.
</event>
<event>
 5   0  0.3215494E-08  0.3596019E+04  0.7818609E-02  0.8091404E-01
       -1   -1    0    0    0  501  0.00000000000E+00  0.00000000000E+00  0.21192147773E+04  0.21192147773E+04  0.50400001928E-02 0. -1.
        1   -1    0    0  501    0  0.00000000000E+00  0.00000000000E+00 -0.15254883223E+04  0.15254883224E+04  0.50400001928E-02 0.  1.
    10030    2    1    2    0    0  0.00000000000E+00  0.00000000000E+00  0.59372645491E+03  0.36447030996E+04  0.35960185735E+04 0.  0.
        4    1    3    3  502    0  0.16754059899E+03  0.10822208240E+04 -0.11484738850E+04  0.15869044211E+04  0.12699999809E+01 0.  1.
       -4    1    3    3    0  502 -0.16754059899E+03 -0.10822208240E+04  0.17422003399E+04  0.20577986785E+04  0.12699999809E+01 0. -1.
</event>
<event>
 5   0  0.3212523E-08  0.3607897E+04  0.7818609E-02  0.8088685E-01
       -1   -1    0    0    0  501  0.00000000000E+00  0.00000000000E+00  0.14814840501E+04  0.14814840501E+04  0.50400001928E-02 0. -1.
        1   -1    0    0  501    0  0.00000000000E+00  0.00000000000E+00 -0.21966014071E+04  0.21966014071E+04  0.50400001928E-02 0.  1.
    10030    2    1    2    0    0  0.00000000000E+00  0.00000000000E+00 -0.71511735697E+03  0.36780854572E+04  0.36078968660E+04 0.  0.
        3    1    3    3  502    0 -0.91636754328E+03  0.65524435185E+03  0.10788067551E+04  0.15597751954E+04  0.10100000352E+00 0. -1.
       -3    1    3    3    0  502  0.91636754328E+03 -0.65524435185E+03 -0.17939241121E+04  0.21183102618E+04  0.10100000352E+00 0.  1.
</event>
<event>
 5   0  0.1044678E-07  0.3600584E+04  0.7818609E-02  0.8090358E-01
        2   -1    0    0  501    0  0.00000000000E+00  0.00000000000E+00  0.26713104992E+04  0.26713104992E+04  0.25500000920E-02 0. -1.
       -2   -1    0    0    0  501  0.00000000000E+00  0.00000000000E+00 -0.12132816630E+04  0.12132816630E+04  0.25500000920E-02 0.  1.
    10030    2    1    2    0    0  0.00000000000E+00  0.00000000000E+00  0.14580288362E+04  0.38845921621E+04  0.36005844219E+04 0.  0.
        2    1    3    3  502    0 -0.24482735759E+03  0.44955407112E+03  0.25911384808E+04  0.26412190224E+04  0.25500000920E-02 0. -1.
       -2    1    3    3    0  502  0.24482735759E+03 -0.44955407112E+03 -0.11331096446E+04  0.12433731397E+04  0.25500000920E-02 0.  1.
</event>
<event>
 5   0  0.3279988E-08  0.3603317E+04  0.7818609E-02  0.8089732E-01
       -1   -1    0    0    0  501  0.00000000000E+00  0.00000000000E+00  0.12710655275E+04  0.12710655275E+04  0.50400001928E-02 0.  1.
        1   -1    0    0  501    0  0.00000000000E+00  0.00000000000E+00 -0.25537424174E+04  0.25537424174E+04  0.50400001928E-02 0. -1.
    10030    2    1    2    0    0  0.00000000000E+00  0.00000000000E+00 -0.12826768899E+04  0.38248079448E+04  0.36033173342E+04 0.  0.
        5    1    3    3  502    0  0.84795263919E+03 -0.97965795774E+03 -0.19701675182E+04  0.23580363721E+04  0.46999998093E+01 0. -1.
       -5    1    3    3    0  502 -0.84795263919E+03  0.97965795774E+03  0.68749062834E+03  0.14667715727E+04  0.46999998093E+01 0.  1.
</event>
<event>
 5   0  0.1029908E-07  0.3632167E+04  0.7818609E-02  0.8083163E-01
        2   -1    0    0  501    0  0.00000000000E+00  0.00000000000E+00  0.15770450433E+04  0.15770450433E+04  0.25500000920E-02 0. -1.
       -2   -1    0    0    0  501  0.00000000000E+00  0.00000000000E+00 -0.20913534995E+04  0.20913534995E+04  0.25500000920E-02 0.  1.
    10030    2    1    2    0    0  0.00000000000E+00  0.00000000000E+00 -0.51430845619E+03  0.36683985428E+04  0.36321666648E+04 0.  0.
        4    1    3    3  502    0 -0.37720614141E+03  0.16746969007E+04 -0.85574066172E+03  0.19181209231E+04  0.12699999809E+01 0.  1.
       -4    1    3    3    0  502  0.37720614141E+03 -0.16746969007E+04  0.34143220553E+03  0.17502776198E+04  0.12699999809E+01 0. -1.
</event>
<event>
 5   0  0.1021087E-07  0.3598843E+04  0.7818609E-02  0.8090757E-01
       -2   -1    0    0    0  501  0.00000000000E+00  0.00000000000E+00  0.27180040139E+04  0.27180040140E+04  0.25500000920E-02 0. -1.
        2   -1    0    0  501    0  0.00000000000E+00  0.00000000000E+00 -0.11912852890E+04  0.11912852890E+04  0.25500000920E-02 0.  1.
    10030    2    1    2    0    0  0.00000000000E+00  0.00000000000E+00  0.15267187250E+04  0.39092893029E+04  0.35988432570E+04 0.  0.
        3    1    3    3  502    0 -0.64432849674E+03  0.85033202596E+03 -0.81067035069E+03  0.13399291749E+04  0.10100000352E+00 0.  1.
       -3    1    3    3    0  502  0.64432849674E+03 -0.85033202596E+03  0.23373890757E+04  0.25693601280E+04  0.10100000352E+00 0. -1.
</event>
<event>
 5   0  0.9905335E-08  0.3576835E+04  0.7818609E-02  0.8095819E-01
       -2   -1    0    0    0  501  0.00000000000E+00  0.00000000000E+00  0.17194403989E+04  0.17194403989E+04  0.25500000920E-02 0. -1.
        2   -1    0    0  501    0  0.00000000000E+00  0.00000000000E+00 -0.18601612887E+04  0.18601612887E+04  0.25500000920E-02 0.  1.
    10030    2    1    2    0    0  0.00000000000E+00  0.00000000000E+00 -0.14072088975E+03  0.35796016876E+04  0.35768346164E+04 0.  0.
        5    1    3    3  502    0 -0.13099939921E+03 -0.12591737171E+04  0.11938408803E+04  0.17401027067E+04  0.46999998093E+01 0. -1.
       -5    1    3    3    0  502  0.13099939921E+03  0.12591737171E+04 -0.13345617701E+04  0.18394989808E+04  0.46999998093E+01 0.  1.
</event>
<event>
 5   0  0.3215494E-08  0.3586756E+04  0.7818609E-02  0.8093532E-01
        1   -1    0    0  501    0  0.00000000000E+00  0.00000000000E+00  0.26915148447E+04  0.26915148447E+04  0.50400001928E-02 0. -1.
       -1   -1    0    0    0  501  0.00000000000E+00  0.00000000000E+00 -0.11949418769E+04  0.11949418769E+04  0.50400001928E-02 0.  1.
    10030    2    1    2    0    0  0.00000000000E+00  0.00000000000E+00  0.14965729678E+04  0.38864567217E+04  0.35867555258E+04 0.  0.
        4    1    3    3  502    0 -0.55891683428E+02  0.12076188359E+04  0.21836365574E+04  0.24959441823E+04  0.12699999809E+01 0. -1.
       -4    1    3    3    0  502  0.55891683428E+02 -0.12076188359E+04 -0.68706358961E+03  0.13905125394E+04  0.12699999809E+01 0.  1.
</event>
<event>
 5   0  0.3212523E-08  0.3598596E+04  0.7818609E-02  0.8090813E-01
       -1   -1    0    0    0  501  0.00000000000E+00  0.00000000000E+00  0.11704791456E+04  0.11704791456E+04  0.50400001928E-02 0.  1.
        1   -1    0    0  501    0  0.00000000000E+00  0.00000000000E+00 -0.27659385797E+04  0.27659385797E+04  0.50400001928E-02 0. -1.
    10030    2    1    2    0    0  0.00000000000E+00  0.00000000000E+00 -0.15954594341E+04  0.39364177254E+04  0.35985960738E+04 0.  0.
        3    1    3    3  502    0 -0.13253514406E+03  0.17710890046E+04 -0.48229945753E+03  0.18403626282E+04  0.10100000352E+00 0. -1.
       -3    1    3    3    0  502  0.13253514406E+03 -0.17710890046E+04 -0.11131599766E+04  0.20960550971E+04  0.10100000352E+00 0.  1.
</event>
<event>
 5   0  0.3279988E-08  0.3599763E+04  0.7818609E-02  0.8090546E-01
       -1   -1    0    0    0  501  0.00000000000E+00  0.00000000000E+00  0.15290509264E+04  0.15290509264E+04  0.50400001928E-02 0.  1.
        1   -1    0    0  501    0  0.00000000000E+00  0.00000000000E+00 -0.21186820086E+04  0.21186820086E+04  0.50400001928E-02 0. -1.
    10030    2    1    2    0    0  0.00000000000E+00  0.00000000000E+00 -0.58963108217E+03  0.36477329350E+04  0.35997625966E+04 0.  0.
        5    1    3    3  502    0  0.13115472946E+04 -0.25246227620E+03 -0.15173995597E+04  0.20214888129E+04  0.46999998093E+01 0. -1.
       -5    1    3    3    0  502 -0.13115472946E+04  0.25246227620E+03  0.92776847749E+03  0.16262441221E+04  0.46999998093E+01 0.  1.
</event>
<event>
 5   0  0.1029908E-07  0.3602034E+04  0.7818609E-02  0.8090026E-01
        2   -1    0    0  501    0  0.00000000000E+00  0.00000000000E+00  0.16320812621E+04  0.16320812621E+04  0.25500000920E-02 0. -1.
       -2   -1    0    0    0  501  0.00000000000E+00  0.00000000000E+00 -0.19874393047E+04  0.19874393047E+04  0.25500000920E-02 0.  1.
    10030    2    1    2    0    0  0.00000000000E+00  0.00000000000E+00 -0.35535804268E+03  0.36195205668E+04  0.36020341191E+04 0.  0.
        4    1    3    3  502    0  0.11691591974E+04 -0.74860322225E+02 -0.15522097640E+04  0.19447092484E+04  0.12699999809E+01 0.  1.
       -4    1    3    3    0  502 -0.11691591974E+04  0.74860322225E+02  0.11968517213E+04  0.16748113184E+04  0.12699999809E+01 0. -1.
</event>
<event>
 5   0  0.1017794E-07  0.3587692E+04  0.7818609E-02  0.8093317E-01
       -2   -1    0    0    0  501  0.00000000000E+00  0.00000000000E+00  0.28089129077E+04  0.28089129077E+04  0.25500000920E-02 0.  1.
        2   -1    0    0  501    0  0.00000000000E+00  0.00000000000E+00 -0.11455976489E+04  0.11455976489E+04  0.25500000920E-02 0. -1.
    10030    2    1    2    0    0  0.00000000000E+00  0.00000000000E+00  0.16633152588E+04  0.39545105565E+04  0.35876923073E+04 0.  0.
        1    1    3    3  502    0 -0.14673695906E+04  0.33667478894E+03 -0.24344550789E+03  0.15250538168E+04  0.50400001928E-02 0. -1.
       -1    1    3    3    0  502  0.14673695906E+04 -0.33667478894E+03  0.19067607666E+04  0.24294567397E+04  0.50400001928E-02 0.  1.
</event>
<event>
 5   0  0.9905335E-08  0.3646638E+04  0.7818609E-02  0.8079891E-01
       -2   -1    0    0    0  501  0.00000000000E+00  0.00000000000E+00  0.19306995806E+04  0.19306995806E+04  0.25500000920E-02 0.  1.
        2   -1    0    0  501    0  0.00000000000E+00  0.00000000000E+00 -0.17219105235E+04  0.17219105235E+04  0.25500000920E-02 0. -1.
    10030    2    1    2    0    0  0.00000000000E+00  0.00000000000E+00  0.20878905711E+03  0.36526101041E+04  0.36466378628E+04 0.  0.
        5    1    3    3  502    0  0.57222024682E+03  0.15066085579E+03  0.18318451006E+04  0.19250488998E+04  0.46999998093E+01 0.  1.
       -5    1    3    3    0  502 -0.57222024682E+03 -0.15066085579E+03 -0.16230560435E+04  0.17275612043E+04  0.46999998093E+01 0. -1.
</event>
<event>
 5   0  0.1029908E-07  0.3600392E+04  0.7818609E-02  0.8090402E-01
       -2   -1    0    0    0  501  0.00000000000E+00  0.00000000000E+00  0.12036259947E+04  0.12036259947E+04  0.25500000920E-02 0.  1.
        2   -1    0    0  501    0  0.00000000000E+00  0.00000000000E+00 -0.26924519521E+04  0.26924519521E+04  0.25500000920E-02 0. -1.
    10030    2    1    2    0    0  0.00000000000E+00  0.00000000000E+00 -0.14888259574E+04  0.38960779468E+04  0.36003917337E+04 0.  0.
        4    1    3    3  502    0 -0.18381860500E+03  0.19614357617E+03 -0.26706102327E+04  0.26841054767E+04  0.12699999809E+01 0. -1.
       -4    1    3    3    0  502  0.18381860500E+03 -0.19614357617E+03  0.11817842753E+04  0.12119724701E+04  0.12699999809E+01 0.  1.
</event>
<event>
 5   0  0.1044678E-07  0.3597715E+04  0.7818609E-02  0.8091015E-01
        2   -1    0    0  501    0  0.00000000000E+00  0.00000000000E+00  0.26707409853E+04  0.26707409853E+04  0.25500000920E-02 0. -1.
       -2   -1    0    0    0  501  0.00000000000E+00  0.00000000000E+00 -0.12116066848E+04  0.12116066848E+04  0.25500000920E-02 0.  1.
    10030    2    1    2    0    0  0.00000000000E+00  0.00000000000E+00  0.14591343004E+04  0.38823476701E+04  0.35977146253E+04 0.  0.
        2    1    3    3  502    0 -0.67406556412E+03  0.12672792783E+04 -0.44042762034E+03  0.15014451847E+04  0.25500000920E-02 0.  1.
       -2    1    3    3    0  502  0.67406556412E+03 -0.12672792783E+04  0.18995619208E+04  0.23809024854E+04  0.25500000920E-02 0. -1.
</event>
<event>
 5   0  0.9905335E-08  0.3591158E+04  0.7818609E-02  0.8092520E-01
       -2   -1    0    0    0  501  0.00000000000E+00  0.00000000000E+00  0.15339058055E+04  0.15339058055E+04  0.25500000920E-02 0. -1.
        2   -1    0    0  501    0  0.00000000000E+00  0.00000000000E+00 -0.21018916249E+04  0.21018916249E+04  0.25500000920E-02 0.  1.
    10030    2    1    2    0    0  0.00000000000E+00  0.00000000000E+00 -0.56798581942E+03  0.36357974305E+04  0.35911579002E+04 0.  0.
        5    1    3    3  502    0 -0.73220608114E+03  0.90913127314E+03  0.10973110663E+04  0.16021108212E+04  0.46999998093E+01 0. -1.
       -5    1    3    3    0  502  0.73220608114E+03 -0.90913127314E+03 -0.16652968858E+04  0.20336866093E+04  0.46999998093E+01 0.  1.
</event>
<event>
 5   0  0.9905335E-08  0.3612640E+04  0.7818609E-02  0.8087602E-01
        2   -1    0    0  501    0  0.00000000000E+00  0.00000000000E+00  0.17835460386E+04  0.17835460386E+04  0.25500000920E-02 0.  1.
       -2   -1    0    0    0  501  0.00000000000E+00  0.00000000000E+00 -0.18293851552E+04  0.18293851552E+04  0.25500000920E-02 0. -1.
    10030    2    1    2    0    0  0.00000000000E+00  0.00000000000E+00 -0.45839116638E+02  0.36129311938E+04  0.36126403898E+04 0.  0.
        5    1    3    3  502    0  0.10181736804E+04 -0.12280183630E+04  0.82453511349E+03  0.17957135035E+04  0.46999998093E+01 0.  1.
       -5    1    3    3    0  502 -0.10181736804E+04  0.12280183630E+04 -0.87037423013E+03  0.18172176903E+04  0.46999998093E+01 0. -1.
</event>
<event>
 5   0  0.3202875E-08  0.3605167E+04  0.7818609E-02  0.8089309E-01
        1   -1    0    0  501    0  0.00000000000E+00  0.00000000000E+00  0.23118760983E+04  0.23118760983E+04  0.50400001928E-02 0.  1.
       -1   -1    0    0    0  501  0.00000000000E+00  0.00000000000E+00 -0.14054849669E+04  0.14054849669E+04  0.50400001928E-02 0. -1.
    10030    2    1    2    0    0  0.00000000000E+00  0.00000000000E+00  0.90639113146E+03  0.37173610652E+04  0.36051669041E+04 0.  0.
        2    1    3    3  502    0  0.14886461505E+04 -0.42172231315E+03 -0.50045981308E+03  0.16261540810E+04  0.25500000920E-02 0. -1.
       -2    1    3    3    0  502 -0.14886461505E+04  0.42172231315E+03  0.14068509445E+04  0.20912069842E+04  0.25500000920E-02 0.  1.
</event>
<event>
 5   0  0.3202875E-08  0.3585614E+04  0.7818609E-02  0.8093795E-01
       -1   -1    0    0    0  501  0.00000000000E+00  0.00000000000E+00  0.11618846530E+04  0.11618846530E+04  0.50400001928E-02 0.  1.
        1   -1    0    0  501    0  0.00000000000E+00  0.00000000000E+00 -0.27663301719E+04  0.27663301719E+04  0.50400001928E-02 0. -1.
    10030    2    1    2    0    0  0.00000000000E+00  0.00000000000E+00 -0.16044455189E+04  0.39282148249E+04  0.35856137950E+04 0.  0.
        2    1    3    3  502    0  0.75303958012E+03  0.14565742286E+04 -0.80598488750E+01  0.16397384102E+04  0.25500000920E-02 0.  1.
       -2    1    3    3    0  502 -0.75303958012E+03 -0.14565742286E+04 -0.15963856701E+04  0.22884764146E+04  0.25500000920E-02 0. -1.
</event>
<event>
 5   0  0.3202875E-08  0.3600729E+04  0.7818609E-02  0.8090325E-01
       -1   -1    0    0    0  501  0.00000000000E+00  0.00000000000E+00  0.12115542211E+04  0.12115542211E+04  0.50400001928E-02 0. -1.
        1   -1    0    0  501    0  0.00000000000E+00  0.00000000000E+00 -0.26753344311E+04  0.26753344311E+04  0.50400001928E-02 0.  1.
    10030    2    1    2    0    0  0.00000000000E+00  0.00000000000E+00 -0.14637802100E+04  0.38868886522E+04  0.36007292167E+04 0.  0.
        2    1    3    3  502    0 -0.32572471292E+03  0.23351647499E+03  0.11627877008E+04  0.12299194160E+04  0.25500000920E-02 0. -1.
       -2    1    3    3    0  502  0.32572471292E+03 -0.23351647499E+03 -0.26265679108E+04  0.26569692363E+04  0.25500000920E-02 0.  1.
</event>
<event>
 5   0  0.3279988E-08  0.3602132E+04  0.7818609E-02  0.8090004E-01
        1   -1    0    0  501    0  0.00000000000E+00  0.00000000000E+00  0.18671716192E+04  0.18671716192E+04  0.50400001928E-02 0. -1.
       -1   -1    0    0    0  501  0.00000000000E+00  0.00000000000E+00 -0.17373004544E+04  0.17373004544E+04  0.50400001928E-02 0.  1.
    10030    2    1    2    0    0  0.00000000000E+00  0.00000000000E+00  0.12987116483E+03  0.36044720736E+04  0.36021316480E+04 0.  0.
        5    1    3    3  502    0  0.11218096531E+04 -0.87253438153E+03 -0.10421479680E+04  0.17623471911E+04  0.46999998093E+01 0.  1.
       -5    1    3    3    0  502 -0.11218096531E+04  0.87253438153E+03  0.11720191328E+04  0.18421248825E+04  0.46999998093E+01 0. -1.
</event>
<event>
 5   0  0.1021087E-07  0.3589854E+04  0.7818609E-02  0.8092820E-01
       -2   -1    0    0    0  501  0.00000000000E+00  0.00000000000E+00  0.21342646476E+04  0.21342646476E+04  0.25500000920E-02 0.  1.
        2   -1    0    0  501    0  0.00000000000E+00  0.00000000000E+00 -0.15095419750E+04  0.15095419750E+04  0.25500000920E-02 0. -1.
    10030    2    1    2    0    0  0.00000000000E+00  0.00000000000E+00  0.62472267259E+03  0.36438066226E+04  0.35898535187E+04 0.  0.
        3    1    3    3  502    0  0.82206549468E+02  0.17177379601E+04  0.83426849934E+03  0.19113831525E+04  0.10100000352E+00 0.  1.
       -3    1    3    3    0  502 -0.82206549468E+02 -0.17177379601E+04 -0.20954582674E+03  0.17324234702E+04  0.10100000352E+00 0. -1.
</event>
<event>
 5   0  0.3212523E-08  0.3625619E+04  0.7818609E-02  0.8084649E-01
       -1   -1    0    0    0  501  0.00000000000E+00  0.00000000000E+00  0.17654250554E+04  0.17654250554E+04  0.50400001928E-02 0.  1.
        1   -1    0    0  501    0  0.00000000000E+00  0.00000000000E+00 -0.18614652779E+04  0.18614652779E+04  0.50400001928E-02 0. -1.
    10030    2    1    2    0    0  0.00000000000E+00  0.00000000000E+00 -0.96040222490E+02  0.36268903333E+04  0.36256185355E+04 0.  0.
        3    1    3    3  502    0  0.10433905973E+04 -0.91948005229E+03 -0.12112564257E+04  0.18442477176E+04  0.10100000352E+00 0. -1.
       -3    1    3    3    0  502 -0.10433905973E+04  0.91948005229E+03  0.11152162032E+04  0.17826426156E+04  0.10100000352E+00 0.  1.
</event>
<event>
 5   0  0.3202875E-08  0.3604563E+04  0.7818609E-02  0.8089447E-01
        1   -1    0    0  501    0  0.00000000000E+00  0.00000000000E+00  0.25917940836E+04  0.25917940836E+04  0.50400001928E-02 0. -1.
       -1   -1    0    0    0  501  0.00000000000E+00  0.00000000000E+00 -0.12532702059E+04  0.12532702059E+04  0.50400001928E-02 0.  1.
    10030    2    1    2    0    0  0.00000000000E+00  0.00000000000E+00  0.13385238777E+04  0.38450642896E+04  0.36045628334E+04 0.  0.
        2    1    3    3  502    0 -0.79657614685E+03  0.13056935529E+04 -0.34768172405E+03  0.15685189808E+04  0.25500000920E-02 0.  1.
       -2    1    3    3    0  502  0.79657614685E+03 -0.13056935529E+04  0.16862056017E+04  0.22765453088E+04  0.25500000920E-02 0. -1.
</event>
<event>
 5   0  0.3279988E-08  0.3603571E+04  0.7818609E-02  0.8089674E-01
       -1   -1    0    0    0  501  0.00000000000E+00  0.00000000000E+00  0.14037466990E+04  0.14037466991E+04  0.50400001928E-02 0. -1.
        1   -1    0    0  501    0  0.00000000000E+00  0.00000000000E+00 -0.23126904237E+04  0.23126904237E+04  0.50400001928E-02 0.  1.
    10030    2    1    2    0    0  0.00000000000E+00  0.00000000000E+00 -0.90894372465E+03  0.37164371228E+04  0.36035713109E+04 0.  0.
        5    1    3    3  502    0 -0.73575164415E+03 -0.95034931229E+03  0.92992574006E+03  0.15196309648E+04  0.46999998093E+01 0. -1.
       -5    1    3    3    0  502  0.73575164415E+03  0.95034931229E+03 -0.18388694647E+04  0.21968061579E+04  0.46999998093E+01 0.  1.
</event>
<event>
 5   0  0.1044678E-07  0.3591542E+04  0.7818609E-02  0.8092432E-01
       -2   -1    0    0    0  501  0.00000000000E+00  0.00000000000E+00  0.10857735366E+04  0.10857735366E+04  0.25500000920E-02 0. -1.
        2   -1    0    0  501    0  0.00000000000E+00  0.00000000000E+00 -0.29700423396E+04  0.29700423396E+04  0.25500000920E-02 0.  1.
    10030    2    1    2    0    0  0.00000000000E+00  0.00000000000E+00 -0.18842688030E+04  0.40558158763E+04  0.35915419391E+04 0.  0.
        2    1    3    3  502    0 -0.94961838994E+03 -0.12725781634E+04  0.50811455503E+01  0.15878463674E+04  0.25500000920E-02 0. -1.
       -2    1    3    3    0  502  0.94961838994E+03  0.12725781634E+04 -0.18893499485E+04  0.24679695088E+04  0.25500000920E-02 0.  1.
</event>
<event>
 5   0  0.1029908E-07  0.3612750E+04  0.7818609E-02  0.8087577E-01
        2   -1    0    0  501    0  0.00000000000E+00  0.00000000000E+00  0.17601440170E+04  0.17601440170E+04  0.25500000920E-02 0.  1.
       -2   -1    0    0    0  501  0.00000000000E+00  0.00000000000E+00 -0.18538199113E+04  0.18538199113E+04  0.25500000920E-02 0. -1.
    10030    2    1    2    0    0  0.00000000000E+00  0.00000000000E+00 -0.93675894224E+02  0.36139639283E+04  0.36127496595E+04 0.  0.
        4    1    3    3  502    0 -0.13769477444E+03 -0.17960195454E+04  0.88641521643E+02  0.18034702633E+04  0.12699999809E+01 0. -1.
       -4    1    3    3    0  502  0.13769477444E+03  0.17960195454E+04 -0.18231741587E+03  0.18104936651E+04  0.12699999809E+01 0.  1.
</event>
<event>
 5   0  0.3212523E-08  0.3598819E+04  0.7818609E-02  0.8090762E-01
       -1   -1    0    0    0  501  0.00000000000E+00  0.00000000000E+00  0.13747317110E+04  0.13747317110E+04  0.50400001928E-02 0. -1.
        1   -1    0    0  501    0  0.00000000000E+00  0.00000000000E+00 -0.23552778608E+04  0.23552778608E+04  0.50400001928E-02 0.  1.
    10030    2    1    2    0    0  0.00000000000E+00  0.00000000000E+00 -0.98054614981E+03  0.37300095719E+04  0.35988193417E+04 0.  0.
        3    1    3    3  502    0  0.14285259771E+04  0.13702225634E+03 -0.16153928841E+04  0.21607766535E+04  0.10100000352E+00 0.  1.
       -3    1    3    3    0  502 -0.14285259771E+04 -0.13702225634E+03  0.63484673427E+03  0.15692329184E+04  0.10100000352E+00 0. -1.
</event>
<event>
 5   0  0.1044678E-07  0.3595055E+04  0.7818609E-02  0.8091625E-01
        2   -1    0    0  501    0  0.00000000000E+00  0.00000000000E+00  0.22778535820E+04  0.22778535820E+04  0.25500000920E-02 0.  1.
       -2   -1    0    0    0  501  0.00000000000E+00  0.00000000000E+00 -0.14184870593E+04  0.14184870593E+04  0.25500000920E-02 0. -1.
    10030    2    1    2    0    0  0.00000000000E+00  0.00000000000E+00  0.85936652267E+03  0.36963406413E+04  0.35950553983E+04 0.  0.
        2    1    3    3  502    0  0.10494370726E+03 -0.87729227168E+03  0.20391774182E+04  0.22223634839E+04  0.25500000920E-02 0.  1.
       -2    1    3    3    0  502 -0.10494370726E+03  0.87729227168E+03 -0.11798108955E+04  0.14739771575E+04  0.25500000920E-02 0. -1.
</event>
<event>
 5   0  0.3279988E-08  0.3501001E+04  0.7818609E-02  0.8113553E-01
       -1   -1    0    0    0  501  0.00000000000E+00  0.00000000000E+00  0.14265956931E+04  0.14265956931E+04  0.50400001928E-02 0. -1.
        1   -1    0    0  501    0  0.00000000000E+00  0.00000000000E+00 -0.21479464940E+04  0.21479464940E+04  0.50400001928E-02 0.  1.
    10030    2    1    2    0    0  0.00000000000E+00  0.00000000000E+00 -0.72135080090E+03  0.35745421872E+04  0.35010005527E+04 0.  0.
        5    1    3    3  502    0  0.15986070380E+04  0.70924172318E+03 -0.43749443235E+03  0.18027733502E+04  0.46999998093E+01 0.  1.
       -5    1    3    3    0  502 -0.15986070380E+04 -0.70924172318E+03 -0.28385636855E+03  0.17717688370E+04  0.46999998093E+01 0. -1.
</event>
<event>
 5   0  0.3202875E-08  0.3599093E+04  0.7818609E-02  0.8090699E-01
        1   -1    0    0  501    0  0.00000000000E+00  0.00000000000E+00  0.12439414822E+04  0.12439414822E+04  0.50400001928E-02 0.  1.
       -1   -1    0    0    0  501  0.00000000000E+00  0.00000000000E+00 -0.26033118745E+04  0.26033118745E+04  0.50400001928E-02 0. -1.
    10030    2    1    2    0    0  0.00000000000E+00  0.00000000000E+00 -0.13593703923E+04  0.38472533567E+04  0.35990930146E+04 0.  0.
        1    1    3    3  502    0 -0.79445847596E+03  0.12264821047E+04  0.44293964104E+03  0.15269637025E+04  0.50400001928E-02 0.  1.
       -1    1    3    3    0  502  0.79445847596E+03 -0.12264821047E+04 -0.18023100333E+04  0.23202896542E+04  0.50400001928E-02 0. -1.
</event>
<event>
 5   0  0.3215494E-08  0.3612266E+04  0.7818609E-02  0.8087688E-01
        1   -1    0    0  501    0  0.00000000000E+00  0.00000000000E+00  0.18396459891E+04  0.18396459892E+04  0.50400001928E-02 0. -1.
       -1   -1    0    0    0  501  0.00000000000E+00  0.00000000000E+00 -0.17732300484E+04  0.17732300484E+04  0.50400001928E-02 0.  1.
    10030    2    1    2    0    0  0.00000000000E+00  0.00000000000E+00  0.66415940716E+02  0.36128760376E+04  0.36122655198E+04 0.  0.
        4    1    3    3  502    0  0.11161361252E+03  0.38387978344E+03 -0.17284223505E+04  0.17740537538E+04  0.12699999809E+01 0.  1.
       -4    1    3    3    0  502 -0.11161361252E+03 -0.38387978344E+03  0.17948382913E+04  0.18388222838E+04  0.12699999809E+01 0. -1.
</event>
<event>
 5   0  0.3279988E-08  0.3586978E+04  0.7818609E-02  0.8093481E-01
       -1   -1    0    0    0  501  0.00000000000E+00  0.00000000000E+00  0.31055799747E+04  0.31055799747E+04  0.50400001928E-02 0.  1.
        1   -1    0    0  501    0  0.00000000000E+00  0.00000000000E+00 -0.10357492466E+04  0.10357492466E+04  0.50400001928E-02 0. -1.
    10030    2    1    2    0    0  0.00000000000E+00  0.00000000000E+00  0.20698307281E+04  0.41413292213E+04  0.35869776242E+04 0.  0.
        5    1    3    3  502    0  0.18666967188E+03  0.76111795277E+03 -0.82760463649E+03  0.11397796404E+04  0.46999998093E+01 0. -1.
       -5    1    3    3    0  502 -0.18666967188E+03 -0.76111795277E+03  0.28974353646E+04  0.30015495809E+04  0.46999998093E+01 0.  1.
</event>
<event>
 5   0  0.3202875E-08  0.3610912E+04  0.7818609E-02  0.8087997E-01
       -1   -1    0    0    0  501  0.00000000000E+00  0.00000000000E+00  0.12193411193E+04  0.12193411193E+04  0.50400001928E-02 0. -1.
        1   -1    0    0  501    0  0.00000000000E+00  0.00000000000E+00 -0.26733061130E+04  0.26733061130E+04  0.50400001928E-02 0.  1.
    10030    2    1    2    0    0  0.00000000000E+00  0.00000000000E+00 -0.14539649937E+04  0.38926472323E+04  0.36109123878E+04 0.  0.
        1    1    3    3  502    0 -0.14352750450E+04  0.75109929350E+03 -0.15863687944E+04  0.22673179211E+04  0.50400001928E-02 0.  1.
       -1    1    3    3    0  502  0.14352750450E+04 -0.75109929350E+03  0.13240380077E+03  0.16253293112E+04  0.50400001928E-02 0. -1.
</event>
<event>
 5   0  0.1021087E-07  0.3610775E+04  0.7818609E-02  0.8088028E-01
        2   -1    0    0  501    0  0.00000000000E+00  0.00000000000E+00  0.20982144617E+04  0.20982144617E+04  0.25500000920E-02 0.  1.
       -2   -1    0    0    0  501  0.00000000000E+00  0.00000000000E+00 -0.15534273069E+04  0.15534273069E+04  0.25500000920E-02 0. -1.
    10030    2    1    2    0    0  0.00000000000E+00  0.00000000000E+00  0.54478715482E+03  0.36516417686E+04  0.36107747869E+04 0.  0.
        3    1    3    3  502    0 -0.32035961118E+03 -0.22524421603E+03 -0.15099547086E+04  0.15599129686E+04  0.10100000352E+00 0. -1.
       -3    1    3    3    0  502  0.32035961118E+03  0.22524421603E+03  0.20547418634E+04  0.20917288000E+04  0.10100000352E+00 0.  1.
</event>
<event>
 5   0  0.1021087E-07  0.3596046E+04  0.7818609E-02  0.8091398E-01
        2   -1    0    0  501    0  0.00000000000E+00  0.00000000000E+00  0.16050247578E+04  0.16050247578E+04  0.25500000920E-02 0.  1.
       -2   -1    0    0    0  501  0.00000000000E+00  0.00000000000E+00 -0.20142288366E+04  0.20142288366E+04  0.25500000920E-02 0. -1.
    10030    2    1    2    0    0  0.00000000000E+00  0.00000000000E+00 -0.40920407883E+03  0.36192535944E+04  0.35960462459E+04 0.  0.
        3    1    3    3  502    0  0.45455459455E+03  0.17293844831E+04 -0.14980815572E+02  0.17881876313E+04  0.10100000352E+00 0.  1.
       -3    1    3    3    0  502 -0.45455459455E+03 -0.17293844831E+04 -0.39422326326E+03  0.18310659631E+04  0.10100000352E+00 0. -1.
</event>
<event>
 5   0  0.3279988E-08  0.3609901E+04  0.7818609E-02  0.8088227E-01
       -1   -1    0    0    0  501  0.00000000000E+00  0.00000000000E+00  0.24553471739E+04  0.24553471739E+04  0.50400001928E-02 0.  1.
        1   -1    0    0  501    0  0.00000000000E+00  0.00000000000E+00 -0.13268376776E+04  0.13268376777E+04  0.50400001928E-02 0. -1.
    10030    2    1    2    0    0  0.00000000000E+00  0.00000000000E+00  0.11285094962E+04  0.37821848515E+04  0.36099014624E+04 0.  0.
        5    1    3    3  502    0  0.21155785803E+03 -0.93560544196E+03  0.21661820140E+04  0.23690675123E+04  0.46999998093E+01 0.  1.
       -5    1    3    3    0  502 -0.21155785803E+03  0.93560544196E+03 -0.10376725177E+04  0.14131173392E+04  0.46999998093E+01 0. -1.
</event>
<event>
 5   0  0.3212523E-08  0.3601309E+04  0.7818609E-02  0.8090192E-01
        1   -1    0    0  501    0  0.00000000000E+00  0.00000000000E+00  0.17591272777E+04  0.17591272778E+04  0.50400001928E-02 0.  1.
       -1   -1    0    0    0  501  0.00000000000E+00  0.00000000000E+00 -0.18431624183E+04  0.18431624183E+04  0.50400001928E-02 0. -1.
    10030    2    1    2    0    0  0.00000000000E+00  0.00000000000E+00 -0.84035140569E+02  0.36022896961E+04  0.36013093660E+04 0.  0.
        3    1    3    3  502    0  0.10125783435E+04  0.23683493881E+02  0.14471729315E+04  0.17664046290E+04  0.10100000352E+00 0.  1.
       -3    1    3    3    0  502 -0.10125783435E+04 -0.23683493881E+02 -0.15312080720E+04  0.18358850671E+04  0.10100000352E+00 0. -1.
</event>
<event>
 5   0  0.3212523E-08  0.3586533E+04  0.7818609E-02  0.8093584E-01
       -1   -1    0    0    0  501  0.00000000000E+00  0.00000000000E+00  0.20752311396E+04  0.20752311396E+04  0.50400001928E-02 0.  1.
        1   -1    0    0  501    0  0.00000000000E+00  0.00000000000E+00 -0.15496125560E+04  0.15496125560E+04  0.50400001928E-02 0. -1.
    10030    2    1    2    0    0  0.00000000000E+00  0.00000000000E+00  0.52561858362E+03  0.36248436956E+04  0.35865327159E+04 0.  0.
        3    1    3    3  502    0  0.46306935268E+03  0.15456258538E+04 -0.52811740074E+03  0.16977339322E+04  0.10100000352E+00 0. -1.
       -3    1    3    3    0  502 -0.46306935268E+03 -0.15456258538E+04  0.10537359844E+04  0.19271097634E+04  0.10100000352E+00 0.  1.
</event>
<event>
 5   0  0.1044678E-07  0.3593719E+04  0.7818609E-02  0.8091932E-01
       -2   -1    0    0    0  501  0.00000000000E+00  0.00000000000E+00  0.27571574414E+04  0.27571574415E+04  0.25500000920E-02 0.  1.
        2   -1    0    0  501    0  0.00000000000E+00  0.00000000000E+00 -0.11710260698E+04  0.11710260698E+04  0.25500000920E-02 0. -1.
    10030    2    1    2    0    0  0.00000000000E+00  0.00000000000E+00  0.15861313716E+04  0.39281835113E+04  0.35937185436E+04 0.  0.
        2    1    3    3  502    0 -0.26327681305E+03 -0.12923523883E+04 -0.54084343919E+03  0.14254827258E+04  0.25500000920E-02 0. -1.
       -2    1    3    3    0  502  0.26327681305E+03  0.12923523883E+04  0.21269748108E+04  0.25027007855E+04  0.25500000920E-02 0.  1.
</event>
<event>
 5   0  0.1044678E-07  0.3602568E+04  0.7818609E-02  0.8089904E-01
        2   -1    0    0  501    0  0.00000000000E+00  0.00000000000E+00  0.12458938142E+04  0.12458938142E+04  0.25500000920E-02 0. -1.
       -2   -1    0    0    0  501  0.00000000000E+00  0.00000000000E+00 -0.26042534669E+04  0.26042534669E+04  0.25500000920E-02 0.  1.
    10030    2    1    2    0    0  0.00000000000E+00  0.00000000000E+00 -0.13583596527E+04  0.38501472812E+04  0.36025675762E+04 0.  0.
        2    1    3    3  502    0 -0.48825945609E+03  0.15813848191E+04  0.80627482086E+02  0.16570081573E+04  0.25500000920E-02 0. -1.
       -2    1    3    3    0  502  0.48825945609E+03 -0.15813848191E+04 -0.14389871348E+04  0.21931391239E+04  0.25500000920E-02 0.  1.
</event>
<event>
 5   0  0.3215494E-08  0.3605430E+04  0.7818609E-02  0.8089249E-01
        1   -1    0    0  501    0  0.00000000000E+00  0.00000000000E+00  0.20093094679E+04  0.20093094679E+04  0.50400001928E-02 0. -1.
       -1   -1    0    0    0  501  0.00000000000E+00  0.00000000000E+00 -0.16173626643E+04  0.16173626643E+04  0.50400001928E-02 0.  1.
    10030    2    1    2    0    0  0.00000000000E+00  0.00000000000E+00  0.39194680364E+03  0.36266721322E+04  0.36054304122E+04 0.  0.
        4    1    3    3  502    0  0.52223546866E+03 -0.12474686612E+04 -0.10030529843E+04  0.16837532027E+04  0.12699999809E+01 0.  1.
       -4    1    3    3    0  502 -0.52223546866E+03  0.12474686612E+04  0.13949997879E+04  0.19429189295E+04  0.12699999809E+01 0. -1.
</event>
<event>
 5   0  0.1017794E-07  0.3591980E+04  0.7818609E-02  0.8092331E-01
       -2   -1    0    0    0  501  0.00000000000E+00  0.00000000000E+00  0.24943249362E+04  0.24943249362E+04  0.25500000920E-02 0.  1.
        2   -1    0    0  501    0  0.00000000000E+00  0.00000000000E+00 -0.12931672226E+04  0.12931672226E+04  0.25500000920E-02 0. -1.
    10030    2    1    2    0    0  0.00000000000E+00  0.00000000000E+00  0.12011577137E+04  0.37874921588E+04  0.35919795378E+04 0.  0.
        1    1    3    3  502    0 -0.93048270032E+03 -0.68544914128E+03  0.20501581403E+04  0.23534627639E+04  0.50400001928E-02 0.  1.
       -1    1    3    3    0  502  0.93048270032E+03  0.68544914128E+03 -0.84900042668E+03  0.14340293949E+04  0.50400001928E-02 0. -1.
</event>
<event>
 5   0  0.9905335E-08  0.3580543E+04  0.7818609E-02  0.8094963E-01
        2   -1    0    0  501    0  0.00000000000E+00  0.00000000000E+00  0.26763418766E+04  0.26763418766E+04  0.25500000920E-02 0.  1.
       -2   -1    0    0    0  501  0.00000000000E+00  0.00000000000E+00 -0.11975567423E+04  0.11975567423E+04  0.25500000920E-02 0. -1.
    10030    2    1    2    0    0  0.00000000000E+00  0.00000000000E+00  0.14787851343E+04  0.38738986189E+04  0.35805425617E+04 0.  0.
        5    1    3    3  502    0  0.82749523997E+02 -0.12839091798E+04 -0.60750411387E+03  0.14227978086E+04  0.46999998093E+01 0. -1.
       -5    1    3    3    0  502 -0.82749523997E+02  0.12839091798E+04  0.20862892482E+04  0.24511008104E+04  0.46999998093E+01 0.  1.
</event>
<event>
 5   0  0.9905335E-08  0.3595937E+04  0.7818609E-02  0.8091423E-01
        2   -1    0    0  501    0  0.00000000000E+00  0.00000000000E+00  0.21852623526E+04  0.21852623526E+04  0.25500000920E-02 0. -1.
       -2   -1    0    0    0  501  0.00000000000E+00  0.00000000000E+00 -0.14793144805E+04  0.14793144805E+04  0.25500000920E-02 0.  1.
    10030    2    1    2    0    0  0.00000000000E+00  0.00000000000E+00  0.70594787203E+03  0.36645768331E+04  0.35959367302E+04 0.  0.
        5    1    3    3  502    0 -0.60019377169E+03  0.66171942906E+03  0.19430660999E+04  0.21386054159E+04  0.46999998093E+01 0. -1.
       -5    1    3    3    0  502  0.60019377169E+03 -0.66171942906E+03 -0.12371182279E+04  0.15259714172E+04  0.46999998093E+01 0.  1.
</event>
<event>
 5   0  0.1044678E-07  0.3608326E+04  0.7818609E-02  0.8088587E-01
       -2   -1    0    0    0  501  0.00000000000E+00  0.00000000000E+00  0.13278012205E+04  0.13278012205E+04  0.25500000920E-02 0.  1.
        2   -1    0    0  501    0  0.00000000000E+00  0.00000000000E+00 -0.24514240714E+04  0.24514240714E+04  0.25500000920E-02 0. -1.
    10030    2    1    2    0    0  0.00000000000E+00  0.00000000000E+00 -0.11236228510E+04  0.37792252919E+04  0.36083258578E+04 0.  0.
        2    1    3    3  502    0  0.94720772074E+03 -0.72896405756E+03  0.85364499972E+03  0.14687752888E+04  0.25500000920E-02 0.  1.
       -2    1    3    3    0  502 -0.94720772074E+03  0.72896405756E+03 -0.19772678507E+04  0.23104500031E+04  0.25500000920E-02 0. -1.
</event>
<event>
 5   0  0.3202875E-08  0.3608692E+04  0.7818609E-02  0.8088503E-01
       -3   -1    0    0    0  501  0.00000000000E+00  0.00000000000E+00  0.17421042242E+04  0.17421042272E+04  0.10100000352E+00 0. -1.
        3   -1    0    0  501    0  0.00000000000E+00  0.00000000000E+00 -0.18688119823E+04  0.18688119850E+04  0.10100000352E+00 0.  1.
    10030    2    1    2    0    0  0.00000000000E+00  0.00000000000E+00 -0.12670775802E+03  0.36109162121E+04  0.36086924273E+04 0.  0.
        4    1    3    3  502    0 -0.30630645357E+03  0.10413859073E+04  0.13788376620E+04  0.17548513221E+04  0.12699999809E+01 0. -1.
       -4    1    3    3    0  502  0.30630645357E+03 -0.10413859073E+04 -0.15055454200E+04  0.18560648901E+04  0.12699999809E+01 0.  1.
</event>
<event>
 5   0  0.1021087E-07  0.3592949E+04  0.7818609E-02  0.8092109E-01
        2   -1    0    0  501    0  0.00000000000E+00  0.00000000000E+00  0.17509901321E+04  0.17509901321E+04  0.25500000920E-02 0.  1.
       -2   -1    0    0    0  501  0.00000000000E+00  0.00000000000E+00 -0.18431401419E+04  0.18431401419E+04  0.25500000920E-02 0. -1.
    10030    2    1    2    0    0  0.00000000000E+00  0.00000000000E+00 -0.92150009768E+02  0.35941302740E+04  0.35929487614E+04 0.  0.
        3    1    3    3  502    0  0.11415693485E+04 -0.85484044335E+03  0.10467069634E+04  0.17690472686E+04  0.10100000352E+00 0.  1.
       -3    1    3    3    0  502 -0.11415693485E+04  0.85484044335E+03 -0.11388569732E+04  0.18250830054E+04  0.10100000352E+00 0. -1.
</event>
<event>
 5   0  0.3212523E-08  0.3598308E+04  0.7818609E-02  0.8090879E-01
       -1   -1    0    0    0  501  0.00000000000E+00  0.00000000000E+00  0.21270684768E+04  0.21270684768E+04  0.50400001928E-02 0. -1.
        1   -1    0    0  501    0  0.00000000000E+00  0.00000000000E+00 -0.15217915798E+04  0.15217915798E+04  0.50400001928E-02 0.  1.
    10030    2    1    2    0    0  0.00000000000E+00  0.00000000000E+00  0.60527689701E+03  0.36488600566E+04  0.35983078788E+04 0.  0.
        3    1    3    3  502    0 -0.80678816803E+03 -0.14666066473E+04 -0.36625933711E+03  0.17134725320E+04  0.10100000352E+00 0. -1.
       -3    1    3    3    0  502  0.80678816803E+03  0.14666066473E+04  0.97153623412E+03  0.19353875246E+04  0.10100000352E+00 0.  1.
</event>
<event>
 5   0  0.1029908E-07  0.3597264E+04  0.7818609E-02  0.8091119E-01
       -2   -1    0    0    0  501  0.00000000000E+00  0.00000000000E+00  0.13489964415E+04  0.13489964415E+04  0.25500000920E-02 0. -1.
        2   -1    0    0  501    0  0.00000000000E+00  0.00000000000E+00 -0.23981355053E+04  0.23981355053E+04  0.25500000920E-02 0.  1.
    10030    2    1    2    0    0  0.00000000000E+00  0.00000000000E+00 -0.10491390638E+04  0.37471319468E+04  0.35972635505E+04 0.  0.
        4    1    3    3  502    0  0.65737520930E+03  0.17012853293E+03 -0.22594880311E+04  0.23593163542E+04  0.12699999809E+01 0.  1.
       -4    1    3    3    0  502 -0.65737520930E+03 -0.17012853293E+03  0.12103489673E+04  0.13878155926E+04  0.12699999809E+01 0. -1.
</event>
<event>
 5   0  0.3215494E-08  0.3605769E+04  0.7818609E-02  0.8089172E-01
        1   -1    0    0  501    0  0.00000000000E+00  0.00000000000E+00  0.18247232225E+04  0.18247232225E+04  0.50400001928E-02 0. -1.
       -1   -1    0    0    0  501  0.00000000000E+00  0.00000000000E+00 -0.17813067866E+04  0.17813067866E+04  0.50400001928E-02 0.  1.
    10030    2    1    2    0    0  0.00000000000E+00  0.00000000000E+00  0.43416435915E+02  0.36060300090E+04  0.36057686336E+04 0.  0.
        4    1    3    3  502    0 -0.89638440181E+03  0.83689568725E+03 -0.12999362382E+04  0.17871024659E+04  0.12699999809E+01 0.  1.
       -4    1    3    3    0  502  0.89638440181E+03 -0.83689568725E+03  0.13433526742E+04  0.18189275431E+04  0.12699999809E+01 0. -1.
</event>
<event>
 5   0  0.3202875E-08  0.3610700E+04  0.7818609E-02  0.8088045E-01
       -1   -1    0    0    0  501  0.00000000000E+00  0.00000000000E+00  0.15459972442E+04  0.15459972442E+04  0.50400001928E-02 0. -1.
        1   -1    0    0  501    0  0.00000000000E+00  0.00000000000E+00 -0.21082107747E+04  0.21082107747E+04  0.50400001928E-02 0.  1.
    10030    2    1    2    0    0  0.00000000000E+00  0.00000000000E+00 -0.56221353054E+03  0.36542080190E+04  0.36106996818E+04 0.  0.
        1    1    3    3  502    0  0.22809895591E+03 -0.15873531716E+04  0.55808262896E+03  0.16979915918E+04  0.50400001928E-02 0. -1.
       -1    1    3    3    0  502 -0.22809895591E+03  0.15873531716E+04 -0.11202961595E+04  0.19562164272E+04  0.50400001928E-02 0.  1.
</event>
<event>
 5   0  0.9905335E-08  0.3609314E+04  0.7818609E-02  0.8088362E-01
       -2   -1    0    0    0  501  0.00000000000E+00  0.00000000000E+00  0.27867137149E+04  0.27867137149E+04  0.25500000920E-02 0. -1.
        2   -1    0    0  501    0  0.00000000000E+00  0.00000000000E+00 -0.11686835647E+04  0.11686835647E+04  0.25500000920E-02 0.  1.
    10030    2    1    2    0    0  0.00000000000E+00  0.00000000000E+00  0.16180301502E+04  0.39553972796E+04  0.36093137952E+04 0.  0.
        5    1    3    3  502    0  0.11200901158E+04 -0.63276197175E+03 -0.57795216716E+03  0.14103334280E+04  0.46999998093E+01 0.  1.
       -5    1    3    3    0  502 -0.11200901158E+04  0.63276197175E+03  0.21959823174E+04  0.25450638516E+04  0.46999998093E+01 0. -1.
</event>
<event>
 5   0  0.3279988E-08  0.3591743E+04  0.7818609E-02  0.8092386E-01
       -1   -1    0    0    0  501  0.00000000000E+00  0.00000000000E+00  0.13724919621E+04  0.13724919621E+04  0.50400001928E-02 0.  1.
        1   -1    0    0  501    0  0.00000000000E+00  0.00000000000E+00 -0.23498524241E+04  0.23498524241E+04  0.50400001928E-02 0. -1.
    10030    2    1    2    0    0  0.00000000000E+00  0.00000000000E+00 -0.97736046198E+03  0.37223443862E+04  0.35917425098E+04 0.  0.
        5    1    3    3  502    0 -0.77669652930E+03  0.91402741363E+03 -0.18738534876E+04  0.22248713659E+04  0.46999998093E+01 0. -1.
       -5    1    3    3    0  502  0.77669652930E+03 -0.91402741363E+03  0.89649302566E+03  0.14974730203E+04  0.46999998093E+01 0.  1.
</event>
<event>
 5   0  0.1021087E-07  0.3604392E+04  0.7818609E-02  0.8089486E-01
       -2   -1    0    0    0  501  0.00000000000E+00  0.00000000000E+00  0.14076317568E+04  0.14076317568E+04  0.25500000920E-02 0.  1.
        2   -1    0    0  501    0  0.00000000000E+00  0.00000000000E+00 -0.23073574747E+04  0.23073574747E+04  0.25500000920E-02 0. -1.
    10030    2    1    2    0    0  0.00000000000E+00  0.00000000000E+00 -0.89972571784E+03  0.37149892315E+04  0.36043915745E+04 0.  0.
        3    1    3    3  502    0 -0.34649624733E+03  0.25563302682E+03 -0.22535606204E+04  0.22943285235E+04  0.10100000352E+00 0. -1.
       -3    1    3    3    0  502  0.34649624733E+03 -0.25563302682E+03  0.13538349025E+04  0.14206607080E+04  0.10100000352E+00 0.  1.
</event>
<event>
 5   0  0.1017794E-07  0.3599990E+04  0.7818609E-02  0.8090494E-01
        2   -1    0    0  501    0  0.00000000000E+00  0.00000000000E+00  0.11560251522E+04  0.11560251522E+04  0.25500000920E-02 0.  1.
       -2   -1    0    0    0  501  0.00000000000E+00  0.00000000000E+00 -0.28026913108E+04  0.28026913108E+04  0.25500000920E-02 0. -1.
    10030    2    1    2    0    0  0.00000000000E+00  0.00000000000E+00 -0.16466661587E+04  0.39587164630E+04  0.35999898050E+04 0.  0.
        1    1    3    3  502    0 -0.12169422562E+04 -0.11916882069E+03  0.62921304992E+03  0.13751577091E+04  0.50400001928E-02 0.  1.
       -1    1    3    3    0  502  0.12169422562E+04  0.11916882069E+03 -0.22758792086E+04  0.25835587539E+04  0.50400001928E-02 0. -1.
</event>
<event>
 5   0  0.3202875E-08  0.3597566E+04  0.7818609E-02  0.8091050E-01
       -1   -1    0    0    0  501  0.00000000000E+00  0.00000000000E+00  0.12939759584E+04  0.12939759584E+04  0.50400001928E-02 0. -1.
        1   -1    0    0  501    0  0.00000000000E+00  0.00000000000E+00 -0.25005253588E+04  0.25005253588E+04  0.50400001928E-02 0.  1.
    10030    2    1    2    0    0  0.00000000000E+00  0.00000000000E+00 -0.12065494004E+04  0.37945013172E+04  0.35975656757E+04 0.  0.
        2    1    3    3  502    0  0.13314422734E+04 -0.44808403638E+03  0.58165662690E+03  0.15204743545E+04  0.25500000920E-02 0. -1.
       -2    1    3    3    0  502 -0.13314422734E+04  0.44808403638E+03 -0.17882060273E+04  0.22740269627E+04  0.25500000920E-02 0.  1.
</event>
<event>
 5   0  0.3202875E-08  0.3600489E+04  0.7818609E-02  0.8090380E-01
        1   -1    0    0  501    0  0.00000000000E+00  0.00000000000E+00  0.13756199314E+04  0.13756199314E+04  0.50400001928E-02 0.  1.
       -1   -1    0    0    0  501  0.00000000000E+00  0.00000000000E+00 -0.23559417912E+04  0.23559417912E+04  0.50400001928E-02 0. -1.
    10030    2    1    2    0    0  0.00000000000E+00  0.00000000000E+00 -0.98032185988E+03  0.37315617226E+04  0.36004891252E+04 0.  0.
        2    1    3    3  502    0  0.57272856633E+03 -0.95994231034E+03 -0.19526932052E+04  0.22500040008E+04  0.25500000920E-02 0. -1.
       -2    1    3    3    0  502 -0.57272856633E+03  0.95994231034E+03  0.97237134534E+03  0.14815577218E+04  0.25500000920E-02 0.  1.
</event>
<event>
 5   0  0.1021087E-07  0.3597831E+04  0.7818609E-02  0.8090989E-01
       -2   -1    0    0    0  501  0.00000000000E+00  0.00000000000E+00  0.17182135002E+04  0.17182135002E+04  0.25500000920E-02 0. -1.
        2   -1    0    0  501    0  0.00000000000E+00  0.00000000000E+00 -0.18834083858E+04  0.18834083858E+04  0.25500000920E-02 0.  1.
    10030    2    1    2    0    0  0.00000000000E+00  0.00000000000E+00 -0.16519488550E+03  0.36016218860E+04  0.35978314107E+04 0.  0.
        3    1    3    3  502    0  0.17977021747E+04 -0.59770936122E+02 -0.54424749650E+02  0.17995187516E+04  0.10100000352E+00 0. -1.
       -3    1    3    3    0  502 -0.17977021747E+04  0.59770936122E+02 -0.11077013585E+03  0.18021031344E+04  0.10100000352E+00 0.  1.
</event>
<event>
 5   0  0.9905335E-08  0.3599343E+04  0.7818609E-02  0.8090642E-01
       -2   -1    0    0    0  501  0.00000000000E+00  0.00000000000E+00  0.10597509514E+04  0.10597509514E+04  0.25500000920E-02 0. -1.
        2   -1    0    0  501    0  0.00000000000E+00  0.00000000000E+00 -0.30562057320E+04  0.30562057320E+04  0.25500000920E-02 0.  1.
    10030    2    1    2    0    0  0.00000000000E+00  0.00000000000E+00 -0.19964547806E+04  0.41159566834E+04  0.35993426800E+04 0.  0.
        5    1    3    3  502    0 -0.79477593672E+02 -0.15374866412E+04 -0.20639906813E+04  0.25749294131E+04  0.46999998093E+01 0.  1.
       -5    1    3    3    0  502  0.79477593672E+02  0.15374866412E+04  0.67535900700E+02  0.15410272703E+04  0.46999998093E+01 0. -1.
</event>
<event>
 5   0  0.3215494E-08  0.3594558E+04  0.7818609E-02  0.8091739E-01
        1   -1    0    0  501    0  0.00000000000E+00  0.00000000000E+00  0.29386600020E+04  0.29386600020E+04  0.50400001928E-02 0.  1.
       -1   -1    0    0    0  501  0.00000000000E+00  0.00000000000E+00 -0.10992125267E+04  0.10992125267E+04  0.50400001928E-02 0. -1.
    10030    2    1    2    0    0  0.00000000000E+00  0.00000000000E+00  0.18394474753E+04  0.40378725286E+04  0.35945580456E+04 0.  0.
        4    1    3    3  502    0  0.82745273527E+02  0.91481629183E+03 -0.81562001166E+03  0.12284027208E+04  0.12699999809E+01 0. -1.
       -4    1    3    3    0  502 -0.82745273527E+02 -0.91481629183E+03  0.26550674869E+04  0.28094698079E+04  0.12699999809E+01 0.  1.
</event>
<event>
 5   0  0.3215494E-08  0.3605981E+04  0.7818609E-02  0.8089123E-01
       -1   -1    0    0    0  501  0.00000000000E+00  0.00000000000E+00  0.14306246717E+04  0.14306246717E+04  0.50400001928E-02 0. -1.
        1   -1    0    0  501    0  0.00000000000E+00  0.00000000000E+00 -0.22722760499E+04  0.22722760499E+04  0.50400001928E-02 0.  1.
    10030    2    1    2    0    0  0.00000000000E+00  0.00000000000E+00 -0.84165137822E+03  0.37029007216E+04  0.36059806865E+04 0.  0.
        4    1    3    3  502    0  0.16505798267E+03  0.13249581987E+03 -0.22594738072E+04  0.22693661622E+04  0.12699999809E+01 0.  1.
       -4    1    3    3    0  502 -0.16505798267E+03 -0.13249581987E+03  0.14178224290E+04  0.14335345594E+04  0.12699999809E+01 0. -1.
</event>
<event>
 5   0  0.3202875E-08  0.3610858E+04  0.7818609E-02  0.8088009E-01
        1   -1    0    0  501    0  0.00000000000E+00  0.00000000000E+00  0.13705515481E+04  0.13705515481E+04  0.50400001928E-02 0. -1.
       -1   -1    0    0    0  501  0.00000000000E+00  0.00000000000E+00 -0.23782934405E+04  0.23782934405E+04  0.50400001928E-02 0.  1.
    10030    2    1    2    0    0  0.00000000000E+00  0.00000000000E+00 -0.10077418924E+04  0.37488449886E+04  0.36108579350E+04 0.  0.
        1    1    3    3  502    0  0.17663455548E+04 -0.30359412812E+03 -0.72997237681E+03  0.19352017167E+04  0.50400001928E-02 0.  1.
       -1    1    3    3    0  502 -0.17663455548E+04  0.30359412812E+03 -0.27776951559E+03  0.18136432718E+04  0.50400001928E-02 0. -1.
</event>
<event>
 5   0  0.3202875E-08  0.3597307E+04  0.7818609E-02  0.8091109E-01
       -1   -1    0    0    0  501  0.00000000000E+00  0.00000000000E+00  0.29799289820E+04  0.29799289820E+04  0.50400001928E-02 0.  1.
        1   -1    0    0  501    0  0.00000000000E+00  0.00000000000E+00 -0.10856479560E+04  0.10856479560E+04  0.50400001928E-02 0. -1.
    10030    2    1    2    0    0  0.00000000000E+00  0.00000000000E+00  0.18942810260E+04  0.40655769380E+04  0.35973066637E+04 0.  0.
        1    1    3    3  502    0  0.12073100776E+03  0.11783247870E+04 -0.58261733745E+03  0.13200258489E+04  0.50400001928E-02 0. -1.
       -1    1    3    3    0  502 -0.12073100776E+03 -0.11783247870E+04  0.24768983634E+04  0.27455510891E+04  0.50400001928E-02 0.  1.
</event>
<event>
 5   0  0.3202875E-08  0.3594168E+04  0.7818609E-02  0.8091829E-01
        1   -1    0    0  501    0  0.00000000000E+00  0.00000000000E+00  0.22988851247E+04  0.22988851247E+04  0.50400001928E-02 0. -1.
       -1   -1    0    0    0  501  0.00000000000E+00  0.00000000000E+00 -0.14048158837E+04  0.14048158837E+04  0.50400001928E-02 0.  1.
    10030    2    1    2    0    0  0.00000000000E+00  0.00000000000E+00  0.89406924100E+03  0.37037010085E+04  0.35941676856E+04 0.  0.
        2    1    3    3  502    0 -0.18577706060E+03 -0.16351060938E+04 -0.29706935986E+03  0.16722246437E+04  0.25500000920E-02 0.  1.
       -2    1    3    3    0  502  0.18577706060E+03  0.16351060938E+04  0.11911386009E+04  0.20314763648E+04  0.25500000920E-02 0. -1.
</event>
<event>
 5   0  0.3279988E-08  0.3593851E+04  0.7818609E-02  0.8091902E-01
       -1   -1    0    0    0  501  0.00000000000E+00  0.00000000000E+00  0.10748484545E+04  0.10748484545E+04  0.50400001928E-02 0. -1.
        1   -1    0    0  501    0  0.00000000000E+00  0.00000000000E+00 -0.30040903458E+04  0.30040903458E+04  0.50400001928E-02 0.  1.
    10030    2    1    2    0    0  0.00000000000E+00  0.00000000000E+00 -0.19292418913E+04  0.40789388004E+04  0.35938513411E+04 0.  0.
        5    1    3    3  502    0 -0.20356547572E+03 -0.10679534468E+04  0.65921206949E+03  0.12714346660E+04  0.46999998093E+01 0. -1.
       -5    1    3    3    0  502  0.20356547572E+03  0.10679534468E+04 -0.25884539608E+04  0.28075041344E+04  0.46999998093E+01 0.  1.
</event>
<event>
 5   0  0.3202875E-08  0.3603357E+04  0.7818609E-02  0.8089723E-01
        1   -1    0    0  501    0  0.00000000000E+00  0.00000000000E+00  0.13256851859E+04  0.13256851860E+04  0.50400001928E-02 0.  1.
       -1   -1    0    0    0  501  0.00000000000E+00  0.00000000000E+00 -0.24485800445E+04  0.24485800446E+04  0.50400001928E-02 0. -1.
    10030    2    1    2    0    0  0.00000000000E+00  0.00000000000E+00 -0.11228948586E+04  0.37742652305E+04  0.36033574853E+04 0.  0.
        2    1    3    3  502    0  0.46299563755E+03 -0.14746105322E+04 -0.15312145189E+04  0.21756514162E+04  0.25500000920E-02 0. -1.
       -2    1    3    3    0  502 -0.46299563755E+03  0.14746105322E+04  0.40831966028E+03  0.15986138143E+04  0.25500000920E-02 0.  1.
</event>
<event>
 5   0  0.1017794E-07  0.3597842E+04  0.7818609E-02  0.8090986E-01
       -2   -1    0    0    0  501  0.00000000000E+00  0.00000000000E+00  0.12861680763E+04  0.12861680763E+04  0.25500000920E-02 0.  1.
        2   -1    0    0  501    0  0.00000000000E+00  0.00000000000E+00 -0.25160917684E+04  0.25160917684E+04  0.25500000920E-02 0. -1.
    10030    2    1    2    0    0  0.00000000000E+00  0.00000000000E+00 -0.12299236920E+04  0.38022598447E+04  0.35978420808E+04 0.  0.
        1    1    3    3  502    0  0.32438073457E+03  0.76014060381E+03  0.10736581751E+04  0.13549090285E+04  0.50400001928E-02 0.  1.
       -1    1    3    3    0  502 -0.32438073457E+03 -0.76014060381E+03 -0.23035818672E+04  0.24473508162E+04  0.50400001928E-02 0. -1.
</event>
<event>
 5   0  0.1017794E-07  0.3606460E+04  0.7818609E-02  0.8089014E-01
        2   -1    0    0  501    0  0.00000000000E+00  0.00000000000E+00  0.18682312577E+04  0.18682312577E+04  0.25500000920E-02 0.  1.
       -2   -1    0    0    0  501  0.00000000000E+00  0.00000000000E+00 -0.17404899597E+04  0.17404899597E+04  0.25500000920E-02 0. -1.
    10030    2    1    2    0    0  0.00000000000E+00  0.00000000000E+00  0.12774129808E+03  0.36087212174E+04  0.36064596193E+04 0.  0.
        1    1    3    3  502    0 -0.11867342758E+03 -0.17880800346E+04 -0.13706402664E+03  0.17972479350E+04  0.50400001928E-02 0. -1.
       -1    1    3    3    0  502  0.11867342758E+03  0.17880800346E+04  0.26480532472E+03  0.18114732823E+04  0.50400001928E-02 0.  1.
</event>
<event>
 5   0  0.1044678E-07  0.3596795E+04  0.7818609E-02  0.8091226E-01
       -2   -1    0    0    0  501  0.00000000000E+00  0.00000000000E+00  0.14272765607E+04  0.14272765607E+04  0.25500000920E-02 0. -1.
        2   -1    0    0  501    0  0.00000000000E+00  0.00000000000E+00 -0.22660180496E+04  0.22660180496E+04  0.25500000920E-02 0.  1.
    10030    2    1    2    0    0  0.00000000000E+00  0.00000000000E+00 -0.83874148887E+03  0.36932946104E+04  0.35967954896E+04 0.  0.
        2    1    3    3  502    0  0.12401354710E+04 -0.11524096086E+04  0.20374670463E+03  0.17051382971E+04  0.25500000920E-02 0. -1.
       -2    1    3    3    0  502 -0.12401354710E+04  0.11524096086E+04 -0.10424881935E+04  0.19881563133E+04  0.25500000920E-02 0.  1.
</event>
<event>
 5   0  0.3215494E-08  0.3615332E+04  0.7818609E-02  0.8086989E-01
       -1   -1    0    0    0  501  0.00000000000E+00  0.00000000000E+00  0.17846494634E+04  0.17846494634E+04  0.50400001928E-02 0. -1.
        1   -1    0    0  501    0  0.00000000000E+00  0.00000000000E+00 -0.18309798782E+04  0.18309798782E+04  0.50400001928E-02 0.  1.
    10030    2    1    2    0    0  0.00000000000E+00  0.00000000000E+00 -0.46330414852E+02  0.36156293416E+04  0.36153324921E+04 0.  0.
        4    1    3    3  502    0  0.18752516462E+03  0.14985861635E+04  0.97025892747E+03  0.17950850052E+04  0.12699999809E+01 0. -1.
       -4    1    3    3    0  502 -0.18752516462E+03 -0.14985861635E+04 -0.10165893423E+04  0.18205443364E+04  0.12699999809E+01 0.  1.
</event>
<event>
 5   0  0.3215494E-08  0.3606880E+04  0.7818609E-02  0.8088918E-01
        1   -1    0    0  501    0  0.00000000000E+00  0.00000000000E+00  0.10105839189E+04  0.10105839189E+04  0.50400001928E-02 0.  1.
       -1   -1    0    0    0  501  0.00000000000E+00  0.00000000000E+00 -0.32183334446E+04  0.32183334446E+04  0.50400001928E-02 0. -1.
    10030    2    1    2    0    0  0.00000000000E+00  0.00000000000E+00 -0.22077495257E+04  0.42289173635E+04  0.36068801060E+04 0.  0.
        4    1    3    3  502    0 -0.17422117140E+04  0.39171296772E+03 -0.80806715436E+03  0.19600292968E+04  0.12699999809E+01 0.  1.
       -4    1    3    3    0  502  0.17422117140E+04 -0.39171296772E+03 -0.13996823714E+04  0.22688880667E+04  0.12699999809E+01 0. -1.
</event>
<event>
 5   0  0.3202875E-08  0.3599348E+04  0.7818609E-02  0.8090641E-01
        1   -1    0    0  501    0  0.00000000000E+00  0.00000000000E+00  0.17281624275E+04  0.17281624275E+04  0.50400001928E-02 0.  1.
       -1   -1    0    0    0  501  0.00000000000E+00  0.00000000000E+00 -0.18741452062E+04  0.18741452062E+04  0.50400001928E-02 0. -1.
    10030    2    1    2    0    0  0.00000000000E+00  0.00000000000E+00 -0.14598277864E+03  0.36023076337E+04  0.35993484572E+04 0.  0.
        1    1    3    3  502    0 -0.35974405574E+03  0.61153984641E+03 -0.17282648516E+04  0.18682334347E+04  0.50400001928E-02 0. -1.
       -1    1    3    3    0  502  0.35974405574E+03 -0.61153984641E+03  0.15822820729E+04  0.17340741990E+04  0.50400001928E-02 0.  1.
</event>
<event>
 5   0  0.3202875E-08  0.3649118E+04  0.7818609E-02  0.8079332E-01
        1   -1    0    0  501    0  0.00000000000E+00  0.00000000000E+00  0.31108231146E+04  0.31108231146E+04  0.50400001928E-02 0. -1.
       -1   -1    0    0    0  501  0.00000000000E+00  0.00000000000E+00 -0.10701396324E+04  0.10701396324E+04  0.50400001928E-02 0.  1.
    10030    2    1    2    0    0  0.00000000000E+00  0.00000000000E+00  0.20406834822E+04  0.41809627470E+04  0.36491177588E+04 0.  0.
        2    1    3    3  502    0 -0.64735780707E+03  0.62440578214E+03  0.28391792165E+04  0.29782366149E+04  0.25500000920E-02 0. -1.
       -2    1    3    3    0  502  0.64735780707E+03 -0.62440578214E+03 -0.79849573427E+03  0.12027261321E+04  0.25500000920E-02 0.  1.
</event>
<event>
 5   0  0.3202875E-08  0.3599183E+04  0.7818609E-02  0.8090679E-01
        1   -1    0    0  501    0  0.00000000000E+00  0.00000000000E+00  0.18416086017E+04  0.18416086017E+04  0.50400001928E-02 0. -1.
       -1   -1    0    0    0  501  0.00000000000E+00  0.00000000000E+00 -0.17585333432E+04  0.17585333432E+04  0.50400001928E-02 0.  1.
    10030    2    1    2    0    0  0.00000000000E+00  0.00000000000E+00  0.83075258552E+02  0.36001419449E+04  0.35991833136E+04 0.  0.
        2    1    3    3  502    0  0.21764212582E+03 -0.12368384951E+04 -0.12477558613E+04  0.17703198150E+04  0.25500000920E-02 0.  1.
       -2    1    3    3    0  502 -0.21764212582E+03  0.12368384951E+04  0.13308311198E+04  0.18298221300E+04  0.25500000920E-02 0. -1.
</event>
<event>
 5   0  0.1021087E-07  0.3599408E+04  0.7818609E-02  0.8090627E-01
       -2   -1    0    0    0  501  0.00000000000E+00  0.00000000000E+00  0.18459536707E+04  0.18459536707E+04  0.25500000920E-02 0.  1.
        2   -1    0    0  501    0  0.00000000000E+00  0.00000000000E+00 -0.17546126516E+04  0.17546126516E+04  0.25500000920E-02 0. -1.
    10030    2    1    2    0    0  0.00000000000E+00  0.00000000000E+00  0.91341019080E+02  0.36005663223E+04  0.35994075429E+04 0.  0.
        3    1    3    3  502    0 -0.38126965318E+03  0.87651514768E+03  0.15710510299E+04  0.18389797991E+04  0.10100000352E+00 0.  1.
       -3    1    3    3    0  502  0.38126965318E+03 -0.87651514768E+03 -0.14797100109E+04  0.17615865233E+04  0.10100000352E+00 0. -1.
</event>
<event>
 5   0  0.1017794E-07  0.3598146E+04  0.7818609E-02  0.8090916E-01
       -2   -1    0    0    0  501  0.00000000000E+00  0.00000000000E+00  0.23764533151E+04  0.23764533151E+04  0.25500000920E-02 0.  1.
        2   -1    0    0  501    0  0.00000000000E+00  0.00000000000E+00 -0.13619726341E+04  0.13619726341E+04  0.25500000920E-02 0. -1.
    10030    2    1    2    0    0  0.00000000000E+00  0.00000000000E+00  0.10144806810E+04  0.37384259492E+04  0.35981464013E+04 0.  0.
        1    1    3    3  502    0 -0.16468513388E+04  0.70400187558E+03  0.68394874596E+03  0.19171655798E+04  0.50400001928E-02 0.  1.
       -1    1    3    3    0  502  0.16468513388E+04 -0.70400187558E+03  0.33053193502E+03  0.18212603694E+04  0.50400001928E-02 0. -1.
</event>
<event>
 5   0  0.1021087E-07  0.3602542E+04  0.7818609E-02  0.8089910E-01
        2   -1    0    0  501    0  0.00000000000E+00  0.00000000000E+00  0.19429502460E+04  0.19429502460E+04  0.25500000920E-02 0.  1.
       -2   -1    0    0    0  501  0.00000000000E+00  0.00000000000E+00 -0.16699229853E+04  0.16699229853E+04  0.25500000920E-02 0. -1.
    10030    2    1    2    0    0  0.00000000000E+00  0.00000000000E+00  0.27302726071E+03  0.36128732312E+04  0.36025420330E+04 0.  0.
        3    1    3    3  502    0  0.55883073928E+03 -0.17053409295E+04  0.29219341398E+03  0.18182014416E+04  0.10100000352E+00 0.  1.
       -3    1    3    3    0  502 -0.55883073928E+03  0.17053409295E+04 -0.19166153272E+02  0.17946717896E+04  0.10100000352E+00 0. -1.
</event>
<event>
 5   0  0.3202875E-08  0.3603743E+04  0.7818609E-02  0.8089635E-01
       -1   -1    0    0    0  501  0.00000000000E+00  0.00000000000E+00  0.31738643668E+04  0.31738643668E+04  0.50400001928E-02 0. -1.
        1   -1    0    0  501    0  0.00000000000E+00  0.00000000000E+00 -0.10229613433E+04  0.10229613433E+04  0.50400001928E-02 0.  1.
    10030    2    1    2    0    0  0.00000000000E+00  0.00000000000E+00  0.21509030235E+04  0.41968257101E+04  0.36037428077E+04 0.  0.
        1    1    3    3  502    0  0.24496501018E+03  0.39202592530E+03  0.31036329958E+04  0.31378702897E+04  0.50400001928E-02 0. -1.
       -1    1    3    3    0  502 -0.24496501018E+03 -0.39202592530E+03 -0.95272997225E+03  0.10589554204E+04  0.50400001928E-02 0.  1.
</event>
<event>
 5   0  0.1044678E-07  0.3599539E+04  0.7818609E-02  0.8090597E-01
        2   -1    0    0  501    0  0.00000000000E+00  0.00000000000E+00  0.19294581300E+04  0.19294581300E+04  0.25500000920E-02 0.  1.
       -2   -1    0    0    0  501  0.00000000000E+00  0.00000000000E+00 -0.16787975575E+04  0.16787975575E+04  0.25500000920E-02 0. -1.
    10030    2    1    2    0    0  0.00000000000E+00  0.00000000000E+00  0.25066057249E+03  0.36082556875E+04  0.35995386349E+04 0.  0.
        2    1    3    3  502    0  0.15271071258E+04 -0.59979639531E+03 -0.61629765554E+03  0.17526079681E+04  0.25500000920E-02 0.  1.
       -2    1    3    3    0  502 -0.15271071258E+04  0.59979639531E+03  0.86695822803E+03  0.18556477194E+04  0.25500000920E-02 0. -1.
</event>
<event>
 5   0  0.1044678E-07  0.3598086E+04  0.7818609E-02  0.8090930E-01
       -2   -1    0    0    0  501  0.00000000000E+00  0.00000000000E+00  0.18062572961E+04  0.18062572961E+04  0.25500000920E-02 0. -1.
        2   -1    0    0  501    0  0.00000000000E+00  0.00000000000E+00 -0.17918573603E+04  0.17918573603E+04  0.25500000920E-02 0.  1.
    10030    2    1    2    0    0  0.00000000000E+00  0.00000000000E+00  0.14399935846E+02  0.35981146564E+04  0.35980858415E+04 0.  0.
        2    1    3    3  502    0 -0.41167255335E+03  0.16218947076E+04  0.66791601053E+03  0.18017015654E+04  0.25500000920E-02 0. -1.
       -2    1    3    3    0  502  0.41167255335E+03 -0.16218947076E+04 -0.65351607468E+03  0.17964130910E+04  0.25500000920E-02 0.  1.
</event>
<event>
 5   0  0.3202875E-08  0.3611649E+04  0.7818609E-02  0.8087829E-01
        1   -1    0    0  501    0  0.00000000000E+00  0.00000000000E+00  0.12023826904E+04  0.12023826904E+04  0.50400001928E-02 0. -1.
       -1   -1    0    0    0  501  0.00000000000E+00  0.00000000000E+00 -0.27121164643E+04  0.27121164643E+04  0.50400001928E-02 0.  1.
    10030    2    1    2    0    0  0.00000000000E+00  0.00000000000E+00 -0.15097337740E+04  0.39144991547E+04  0.36116488705E+04 0.  0.
        1    1    3    3  502    0  0.51784805988E+03  0.17075517072E+04 -0.10558241014E+04  0.20733219670E+04  0.50400001928E-02 0.  1.
       -1    1    3    3    0  502 -0.51784805988E+03 -0.17075517072E+04 -0.45390967258E+03  0.18411771877E+04  0.50400001928E-02 0. -1.
</event>
<event>
 5   0  0.3215494E-08  0.3601667E+04  0.7818609E-02  0.8090110E-01
        1   -1    0    0  501    0  0.00000000000E+00  0.00000000000E+00  0.19024945091E+04  0.19024945091E+04  0.50400001928E-02 0.  1.
       -1   -1    0    0    0  501  0.00000000000E+00  0.00000000000E+00 -0.17046051168E+04  0.17046051168E+04  0.50400001928E-02 0. -1.
    10030    2    1    2    0    0  0.00000000000E+00  0.00000000000E+00  0.19788939225E+03  0.36070996259E+04  0.36016673222E+04 0.  0.
        4    1    3    3  502    0  0.88291157189E+03  0.65188259431E+03  0.15288644227E+04  0.18819967579E+04  0.12699999809E+01 0.  1.
       -4    1    3    3    0  502 -0.88291157189E+03 -0.65188259431E+03 -0.13309750305E+04  0.17251028680E+04  0.12699999809E+01 0. -1.
</event>
<event>
 5   0  0.3279988E-08  0.3598961E+04  0.7818609E-02  0.8090730E-01
       -1   -1    0    0    0  501  0.00000000000E+00  0.00000000000E+00  0.14299033918E+04  0.14299033918E+04  0.50400001928E-02 0. -1.
        1   -1    0    0  501    0  0.00000000000E+00  0.00000000000E+00 -0.22645795142E+04  0.22645795142E+04  0.50400001928E-02 0.  1.
    10030    2    1    2    0    0  0.00000000000E+00  0.00000000000E+00 -0.83467612233E+03  0.36944829060E+04  0.35989609214E+04 0.  0.
        5    1    3    3  502    0 -0.16321000188E+04 -0.41568974697E+03 -0.10678442450E+04  0.19942070752E+04  0.46999998093E+01 0. -1.
       -5    1    3    3    0  502  0.16321000188E+04  0.41568974697E+03  0.23316812271E+03  0.17002758308E+04  0.46999998093E+01 0.  1.
</event>
<event>
 5   0  0.1029908E-07  0.3632130E+04  0.7818609E-02  0.8083171E-01
        2   -1    0    0  501    0  0.00000000000E+00  0.00000000000E+00  0.15413171470E+04  0.15413171470E+04  0.25500000920E-02 0.  1.
       -2   -1    0    0    0  501  0.00000000000E+00  0.00000000000E+00 -0.21397881358E+04  0.21397881358E+04  0.25500000920E-02 0. -1.
    10030    2    1    2    0    0  0.00000000000E+00  0.00000000000E+00 -0.59847098887E+03  0.36811052828E+04  0.36321300332E+04 0.  0.
        4    1    3    3  502    0  0.64604258920E+03 -0.16447881521E+04 -0.72368012755E+03  0.19095584915E+04  0.12699999809E+01 0.  1.
       -4    1    3    3    0  502 -0.64604258920E+03  0.16447881521E+04  0.12520913868E+03  0.17715467913E+04  0.12699999809E+01 0. -1.
</event>
<event>
 5   0  0.3279988E-08  0.3601843E+04  0.7818609E-02  0.8090070E-01
        1   -1    0    0  501    0  0.00000000000E+00  0.00000000000E+00  0.23679923640E+04  0.23679923640E+04  0.50400001928E-02 0. -1.
       -1   -1    0    0    0  501  0.00000000000E+00  0.00000000000E+00 -0.13696486821E+04  0.13696486821E+04  0.50400001928E-02 0.  1.
    10030    2    1    2    0    0  0.00000000000E+00  0.00000000000E+00  0.99834368189E+03  0.37376410462E+04  0.36018426510E+04 0.  0.
        5    1    3    3  502    0  0.11793921542E+04 -0.10578172276E+04 -0.38947501768E+03  0.16314582495E+04  0.46999998093E+01 0.  1.
       -5    1    3    3    0  502 -0.11793921542E+04  0.10578172276E+04  0.13878186996E+04  0.21061827967E+04  0.46999998093E+01 0. -1.
</event>
<event>
 5   0  0.1021087E-07  0.3587295E+04  0.7818609E-02  0.8093408E-01
       -2   -1    0    0    0  501  0.00000000000E+00  0.00000000000E+00  0.14494960954E+04  0.14494960954E+04  0.25500000920E-02 0. -1.
        2   -1    0    0  501    0  0.00000000000E+00  0.00000000000E+00 -0.22195102374E+04  0.22195102374E+04  0.25500000920E-02 0.  1.
    10030    2    1    2    0    0  0.00000000000E+00  0.00000000000E+00 -0.77001414199E+03  0.36690063328E+04  0.35872950382E+04 0.  0.
        3    1    3    3  502    0 -0.81640614391E+03  0.53202022576E+03 -0.19251649767E+04  0.21577360149E+04  0.10100000352E+00 0.  1.
       -3    1    3    3    0  502  0.81640614391E+03 -0.53202022576E+03  0.11551508347E+04  0.15112703178E+04  0.10100000352E+00 0. -1.
</event>
<event>
 5   0  0.3279988E-08  0.3593326E+04  0.7818609E-02  0.8092022E-01
       -1   -1    0    0    0  501  0.00000000000E+00  0.00000000000E+00  0.16750322898E+04  0.16750322898E+04  0.50400001928E-02 0.  1.
        1   -1    0    0  501    0  0.00000000000E+00  0.00000000000E+00 -0.19271260976E+04  0.19271260976E+04  0.50400001928E-02 0. -1.
    10030    2    1    2    0    0  0.00000000000E+00  0.00000000000E+00 -0.25209380775E+03  0.36021583874E+04  0.35933262808E+04 0.  0.
        5    1    3    3  502    0  0.24995663681E+03 -0.15359837450E+04  0.77407544366E+03  0.17380849426E+04  0.46999998093E+01 0.  1.
       -5    1    3    3    0  502 -0.24995663681E+03  0.15359837450E+04 -0.10261692514E+04  0.18640734448E+04  0.46999998093E+01 0. -1.
</event>
<event>
 5   0  0.3212523E-08  0.3597749E+04  0.7818609E-02  0.8091008E-01
       -1   -1    0    0    0  501  0.00000000000E+00  0.00000000000E+00  0.17685573462E+04  0.17685573463E+04  0.50400001928E-02 0. -1.
        1   -1    0    0  501    0  0.00000000000E+00  0.00000000000E+00 -0.18297113275E+04  0.18297113275E+04  0.50400001928E-02 0.  1.
    10030    2    1    2    0    0  0.00000000000E+00  0.00000000000E+00 -0.61153981213E+02  0.35982686737E+04  0.35977489683E+04 0.  0.
        3    1    3    3  502    0  0.65632500784E+03 -0.12706910755E+04 -0.11218492071E+04  0.18176809343E+04  0.10100000352E+00 0.  1.
       -3    1    3    3    0  502 -0.65632500784E+03  0.12706910755E+04  0.10606952259E+04  0.17805877394E+04  0.10100000352E+00 0. -1.
</event>
<event>
 5   0  0.3212523E-08  0.3613241E+04  0.7818609E-02  0.8087465E-01
        1   -1    0    0  501    0  0.00000000000E+00  0.00000000000E+00  0.19067015983E+04  0.19067015983E+04  0.50400001928E-02 0. -1.
       -1   -1    0    0    0  501  0.00000000000E+00  0.00000000000E+00 -0.17117924498E+04  0.17117924498E+04  0.50400001928E-02 0.  1.
    10030    2    1    2    0    0  0.00000000000E+00  0.00000000000E+00  0.19490914853E+03  0.36184940482E+04  0.36132408722E+04 0.  0.
        3    1    3    3  502    0  0.17956093112E+04  0.56868039770E+02  0.28860013414E+03  0.18195430251E+04  0.10100000352E+00 0.  1.
       -3    1    3    3    0  502 -0.17956093112E+04 -0.56868039770E+02 -0.93690985606E+02  0.17989510231E+04  0.10100000352E+00 0. -1.
</event>
<event>
 5   0  0.3202875E-08  0.3601852E+04  0.7818609E-02  0.8090068E-01
        3   -1    0    0  501    0  0.00000000000E+00  0.00000000000E+00  0.15252226376E+04  0.15252226409E+04  0.10100000352E+00 0.  1.
       -3   -1    0    0    0  501  0.00000000000E+00  0.00000000000E+00 -0.21264667657E+04  0.21264667681E+04  0.10100000352E+00 0. -1.
    10030    2    1    2    0    0  0.00000000000E+00  0.00000000000E+00 -0.60124412815E+03  0.36516894091E+04  0.36018524454E+04 0.  0.
        4    1    3    3  502    0 -0.68564283801E+03  0.63580689536E+03  0.12598225165E+04  0.15689202961E+04  0.12699999809E+01 0.  1.
       -4    1    3    3    0  502  0.68564283801E+03 -0.63580689536E+03 -0.18610666446E+04  0.20827691130E+04  0.12699999809E+01 0. -1.
</event>
<event>
 5   0  0.1029908E-07  0.3603238E+04  0.7818609E-02  0.8089750E-01
       -2   -1    0    0    0  501  0.00000000000E+00  0.00000000000E+00  0.15509666412E+04  0.15509666412E+04  0.25500000920E-02 0. -1.
        2   -1    0    0  501    0  0.00000000000E+00  0.00000000000E+00 -0.20927789474E+04  0.20927789474E+04  0.25500000920E-02 0.  1.
    10030    2    1    2    0    0  0.00000000000E+00  0.00000000000E+00 -0.54181230621E+03  0.36437455886E+04  0.36032376190E+04 0.  0.
        4    1    3    3  502    0  0.12372131367E+04  0.11804210575E+04 -0.84450287646E+03  0.19071646337E+04  0.12699999809E+01 0. -1.
       -4    1    3    3    0  502 -0.12372131367E+04 -0.11804210575E+04  0.30269057025E+03  0.17365809549E+04  0.12699999809E+01 0.  1.
</event>
<event>
 5   0  0.1021087E-07  0.3600198E+04  0.7818609E-02  0.8090446E-01
       -2   -1    0    0    0  501  0.00000000000E+00  0.00000000000E+00  0.20117359538E+04  0.20117359538E+04  0.25500000920E-02 0.  1.
        2   -1    0    0  501    0  0.00000000000E+00  0.00000000000E+00 -0.16107266190E+04  0.16107266190E+04  0.25500000920E-02 0. -1.
    10030    2    1    2    0    0  0.00000000000E+00  0.00000000000E+00  0.40100933472E+03  0.36224625728E+04  0.36001981341E+04 0.  0.
        3    1    3    3  502    0  0.10861749984E+04 -0.13637946790E+04  0.65120847684E+03  0.18611245375E+04  0.10100000352E+00 0.  1.
       -3    1    3    3    0  502 -0.10861749984E+04  0.13637946790E+04 -0.25019914211E+03  0.17613380353E+04  0.10100000352E+00 0. -1.
</event>
<event>
 5   0  0.1044678E-07  0.3594736E+04  0.7818609E-02  0.8091699E-01
       -2   -1    0    0    0  501  0.00000000000E+00  0.00000000000E+00  0.19217376574E+04  0.19217376574E+04  0.25500000920E-02 0.  1.
        2   -1    0    0  501    0  0.00000000000E+00  0.00000000000E+00 -0.16810470934E+04  0.16810470934E+04  0.25500000920E-02 0. -1.
    10030    2    1    2    0    0  0.00000000000E+00  0.00000000000E+00  0.24069056398E+03  0.36027847507E+04  0.35947358752E+04 0.  0.
        2    1    3    3  502    0 -0.11366793406E+03  0.85238317834E+03  0.17021865550E+04  0.19070701481E+04  0.25500000920E-02 0.  1.
       -2    1    3    3    0  502  0.11366793406E+03 -0.85238317834E+03 -0.14614959910E+04  0.16957146026E+04  0.25500000920E-02 0. -1.
</event>
<event>
 5   0  0.1017794E-07  0.3598930E+04  0.7818609E-02  0.8090737E-01
       -2   -1    0    0    0  501  0.00000000000E+00  0.00000000000E+00  0.16293632180E+04  0.16293632180E+04  0.25500000920E-02 0. -1.
        2   -1    0    0  501    0  0.00000000000E+00  0.00000000000E+00 -0.19873244913E+04  0.19873244913E+04  0.25500000920E-02 0.  1.
    10030    2    1    2    0    0  0.00000000000E+00  0.00000000000E+00 -0.35796127329E+03  0.36166877094E+04  0.35989295233E+04 0.  0.
        1    1    3    3  502    0 -0.16883077691E+04 -0.54886222426E+03 -0.47443912003E+03  0.18375868260E+04  0.50400001928E-02 0. -1.
       -1    1    3    3    0  502  0.16883077691E+04  0.54886222426E+03  0.11647784674E+03  0.17791008834E+04  0.50400001928E-02 0.  1.
</event>
<event>
 5   0  0.9905335E-08  0.3597329E+04  0.7818609E-02  0.8091104E-01
       -2   -1    0    0    0  501  0.00000000000E+00  0.00000000000E+00  0.15887908576E+04  0.15887908576E+04  0.25500000920E-02 0. -1.
        2   -1    0    0  501    0  0.00000000000E+00  0.00000000000E+00 -0.20362616958E+04  0.20362616958E+04  0.25500000920E-02 0.  1.
    10030    2    1    2    0    0  0.00000000000E+00  0.00000000000E+00 -0.44747083820E+03  0.36250525533E+04  0.35973289902E+04 0.  0.
        5    1    3    3  502    0  0.69784622662E+03 -0.14525798860E+02 -0.18942115066E+04  0.20187272418E+04  0.46999998093E+01 0.  1.
       -5    1    3    3    0  502 -0.69784622662E+03  0.14525798860E+02  0.14467406684E+04  0.16063253116E+04  0.46999998093E+01 0. -1.
</event>
<event>
 5   0  0.1021087E-07  0.3600962E+04  0.7818609E-02  0.8090271E-01
        2   -1    0    0  501    0  0.00000000000E+00  0.00000000000E+00  0.19024315222E+04  0.19024315222E+04  0.25500000920E-02 0.  1.
       -2   -1    0    0    0  501  0.00000000000E+00  0.00000000000E+00 -0.17039942685E+04  0.17039942685E+04  0.25500000920E-02 0. -1.
    10030    2    1    2    0    0  0.00000000000E+00  0.00000000000E+00  0.19843725367E+03  0.36064257907E+04  0.36009623214E+04 0.  0.
        3    1    3    3  502    0  0.70786283576E+03  0.54047962747E+03 -0.14679380338E+04  0.17169828488E+04  0.10100000352E+00 0. -1.
       -3    1    3    3    0  502 -0.70786283576E+03 -0.54047962747E+03  0.16663752874E+04  0.18894429419E+04  0.10100000352E+00 0.  1.
</event>
<event>
 5   0  0.3212523E-08  0.3599516E+04  0.7818609E-02  0.8090603E-01
        1   -1    0    0  501    0  0.00000000000E+00  0.00000000000E+00  0.16169726909E+04  0.16169726909E+04  0.50400001928E-02 0.  1.
       -1   -1    0    0    0  501  0.00000000000E+00  0.00000000000E+00 -0.20032051275E+04  0.20032051275E+04  0.50400001928E-02 0. -1.
    10030    2    1    2    0    0  0.00000000000E+00  0.00000000000E+00 -0.38623243663E+03  0.36201778185E+04  0.35995155149E+04 0.  0.
        3    1    3    3  502    0  0.12881567691E+04  0.27142790096E+03 -0.14273964344E+04  0.19417727876E+04  0.10100000352E+00 0. -1.
       -3    1    3    3    0  502 -0.12881567691E+04 -0.27142790096E+03  0.10411639978E+04  0.16784050309E+04  0.10100000352E+00 0.  1.
</event>
<event>
 5   0  0.3212523E-08  0.3599044E+04  0.7818609E-02  0.8090711E-01
        1   -1    0    0  501    0  0.00000000000E+00  0.00000000000E+00  0.22450731210E+04  0.22450731210E+04  0.50400001928E-02 0. -1.
       -1   -1    0    0    0  501  0.00000000000E+00  0.00000000000E+00 -0.14423933740E+04  0.14423933740E+04  0.50400001928E-02 0.  1.
    10030    2    1    2    0    0  0.00000000000E+00  0.00000000000E+00  0.80267974702E+03  0.36874664949E+04  0.35990435361E+04 0.  0.
        3    1    3    3  502    0  0.71728762749E+03 -0.82495471924E+03  0.18658732245E+04  0.21625297060E+04  0.10100000352E+00 0.  1.
       -3    1    3    3    0  502 -0.71728762749E+03  0.82495471924E+03 -0.10631934775E+04  0.15249367889E+04  0.10100000352E+00 0. -1.
</event>
<event>
 5   0  0.3279988E-08  0.3599058E+04  0.7818609E-02  0.8090708E-01
        1   -1    0    0  501    0  0.00000000000E+00  0.00000000000E+00  0.25424384691E+04  0.25424384691E+04  0.50400001928E-02 0. -1.
       -1   -1    0    0    0  501  0.00000000000E+00  0.00000000000E+00 -0.12737002387E+04  0.12737002387E+04  0.50400001928E-02 0.  1.
    10030    2    1    2    0    0  0.00000000000E+00  0.00000000000E+00  0.12687382305E+04  0.38161387078E+04  0.35990579239E+04 0.  0.
        5    1    3    3  502    0  0.63021947316E+03  0.38428783083E+03 -0.11057863716E+04  0.13295259722E+04  0.46999998093E+01 0.  1.
       -5    1    3    3    0  502 -0.63021947316E+03 -0.38428783083E+03  0.23745246020E+04  0.24866127356E+04  0.46999998093E+01 0. -1.
</event>
<event>
 5   0  0.3212523E-08  0.3599421E+04  0.7818609E-02  0.8090624E-01
        1   -1    0    0  501    0  0.00000000000E+00  0.00000000000E+00  0.23337040706E+04  0.23337040706E+04  0.50400001928E-02 0. -1.
       -1   -1    0    0    0  501  0.00000000000E+00  0.00000000000E+00 -0.13879040956E+04  0.13879040956E+04  0.50400001928E-02 0.  1.
    10030    2    1    2    0    0  0.00000000000E+00  0.00000000000E+00  0.94579997500E+03  0.37216081663E+04  0.35994207521E+04 0.  0.
        3    1    3    3  502    0 -0.32009682289E+03  0.13315818025E+04  0.16801781416E+04  0.21676186635E+04  0.10100000352E+00 0. -1.
       -3    1    3    3    0  502  0.32009682289E+03 -0.13315818025E+04 -0.73437816657E+03  0.15539895027E+04  0.10100000352E+00 0.  1.
</event>
<event>
 5   0  0.1044678E-07  0.3702693E+04  0.7818609E-02  0.8067365E-01
        2   -1    0    0  501    0  0.00000000000E+00  0.00000000000E+00  0.14867418320E+04  0.14867418320E+04  0.25500000920E-02 0.  1.
       -2   -1    0    0    0  501  0.00000000000E+00  0.00000000000E+00 -0.23053660261E+04  0.23053660261E+04  0.25500000920E-02 0. -1.
    10030    2    1    2    0    0  0.00000000000E+00  0.00000000000E+00 -0.81862419404E+03  0.37921078581E+04  0.37026931329E+04 0.  0.
        2    1    3    3  502    0  0.13964936930E+03 -0.18048963311E+04 -0.80640105152E+03  0.19817758118E+04  0.25500000920E-02 0.  1.
       -2    1    3    3    0  502 -0.13964936930E+03  0.18048963311E+04 -0.12223142519E+02  0.18103320462E+04  0.25500000920E-02 0. -1.
</event>
<event>
 5   0  0.1021087E-07  0.3596833E+04  0.7818609E-02  0.8091217E-01
       -2   -1    0    0    0  501  0.00000000000E+00  0.00000000000E+00  0.26004618866E+04  0.26004618866E+04  0.25500000920E-02 0. -1.
        2   -1    0    0  501    0  0.00000000000E+00  0.00000000000E+00 -0.12437416589E+04  0.12437416589E+04  0.25500000920E-02 0.  1.
    10030    2    1    2    0    0  0.00000000000E+00  0.00000000000E+00  0.13567202277E+04  0.38442035455E+04  0.35968334856E+04 0.  0.
        3    1    3    3  502    0  0.11228835110E+04 -0.26922515221E+03 -0.79521322626E+03  0.14020391034E+04  0.10100000352E+00 0.  1.
       -3    1    3    3    0  502 -0.11228835110E+04  0.26922515221E+03  0.21519334540E+04  0.24421644421E+04  0.10100000352E+00 0. -1.
</event>
<event>
 5   0  0.3212523E-08  0.3626639E+04  0.7818609E-02  0.8084417E-01
        1   -1    0    0  501    0  0.00000000000E+00  0.00000000000E+00  0.15267526142E+04  0.15267526142E+04  0.50400001928E-02 0.  1.
       -1   -1    0    0    0  501  0.00000000000E+00  0.00000000000E+00 -0.21536736268E+04  0.21536736268E+04  0.50400001928E-02 0. -1.
    10030    2    1    2    0    0  0.00000000000E+00  0.00000000000E+00 -0.62692101259E+03  0.36804262410E+04  0.36266385758E+04 0.  0.
        3    1    3    3  502    0 -0.14211933388E+03 -0.16870910111E+04  0.34551816623E+03  0.17279631935E+04  0.10100000352E+00 0.  1.
       -3    1    3    3    0  502  0.14211933388E+03  0.16870910111E+04 -0.97243917882E+03  0.19524630474E+04  0.10100000352E+00 0. -1.
</event>
<event>
 5   0  0.3202875E-08  0.3595341E+04  0.7818609E-02  0.8091560E-01
        1   -1    0    0  501    0  0.00000000000E+00  0.00000000000E+00  0.20065332801E+04  0.20065332801E+04  0.50400001928E-02 0.  1.
       -1   -1    0    0    0  501  0.00000000000E+00  0.00000000000E+00 -0.16105489600E+04  0.16105489600E+04  0.50400001928E-02 0. -1.
    10030    2    1    2    0    0  0.00000000000E+00  0.00000000000E+00  0.39598432003E+03  0.36170822401E+04  0.35953414789E+04 0.  0.
        2    1    3    3  502    0 -0.15914607511E+04 -0.80942052918E+03  0.40832857367E+03  0.18315679456E+04  0.25500000920E-02 0.  1.
       -2    1    3    3    0  502  0.15914607511E+04  0.80942052918E+03 -0.12344253637E+02  0.17855142945E+04  0.25500000920E-02 0. -1.
</event>
<event>
 5   0  0.1044678E-07  0.3618106E+04  0.7818609E-02  0.8086357E-01
       -2   -1    0    0    0  501  0.00000000000E+00  0.00000000000E+00  0.23583487655E+04  0.23583487655E+04  0.25500000920E-02 0. -1.
        2   -1    0    0  501    0  0.00000000000E+00  0.00000000000E+00 -0.13876963925E+04  0.13876963925E+04  0.25500000920E-02 0.  1.
    10030    2    1    2    0    0  0.00000000000E+00  0.00000000000E+00  0.97065237303E+03  0.37460451580E+04  0.36181056227E+04 0.  0.
        2    1    3    3  502    0 -0.44434274873E+03 -0.72202367049E+03  0.21399331667E+04  0.23017542477E+04  0.25500000920E-02 0. -1.
       -2    1    3    3    0  502  0.44434274873E+03  0.72202367049E+03 -0.11692807937E+04  0.14442909103E+04  0.25500000920E-02 0.  1.
</event>
<event>
 5   0  0.3215494E-08  0.3603970E+04  0.7818609E-02  0.8089583E-01
        1   -1    0    0  501    0  0.00000000000E+00  0.00000000000E+00  0.17795929905E+04  0.17795929906E+04  0.50400001928E-02 0.  1.
       -1   -1    0    0    0  501  0.00000000000E+00  0.00000000000E+00 -0.18246590414E+04  0.18246590414E+04  0.50400001928E-02 0. -1.
    10030    2    1    2    0    0  0.00000000000E+00  0.00000000000E+00 -0.45066050828E+02  0.36042520319E+04  0.36039702774E+04 0.  0.
        4    1    3    3  502    0  0.89159479241E+03 -0.15427479658E+04 -0.29113597974E+03  0.18054845143E+04  0.12699999809E+01 0.  1.
       -4    1    3    3    0  502 -0.89159479241E+03  0.15427479658E+04  0.24606992891E+03  0.17987675176E+04  0.12699999809E+01 0. -1.
</event>
<event>
 5   0  0.1017794E-07  0.3591875E+04  0.7818609E-02  0.8092355E-01
       -2   -1    0    0    0  501  0.00000000000E+00  0.00000000000E+00  0.16577696749E+04  0.16577696749E+04  0.25500000920E-02 0. -1.
        2   -1    0    0  501    0  0.00000000000E+00  0.00000000000E+00 -0.19456213847E+04  0.19456213847E+04  0.25500000920E-02 0.  1.
    10030    2    1    2    0    0  0.00000000000E+00  0.00000000000E+00 -0.28785170975E+03  0.36033910596E+04  0.35918753488E+04 0.  0.
        1    1    3    3  502    0 -0.94173724555E+03 -0.13625795915E+04  0.55248988708E+03  0.17460633603E+04  0.50400001928E-02 0. -1.
       -1    1    3    3    0  502  0.94173724555E+03  0.13625795915E+04 -0.84034159683E+03  0.18573276992E+04  0.50400001928E-02 0.  1.
</event>
<event>
 5   0  0.3215494E-08  0.3604884E+04  0.7818609E-02  0.8089374E-01
       -1   -1    0    0    0  501  0.00000000000E+00  0.00000000000E+00  0.12248767539E+04  0.12248767539E+04  0.50400001928E-02 0.  1.
        1   -1    0    0  501    0  0.00000000000E+00  0.00000000000E+00 -0.26523468741E+04  0.26523468741E+04  0.50400001928E-02 0. -1.
    10030    2    1    2    0    0  0.00000000000E+00  0.00000000000E+00 -0.14274701202E+04  0.38772236280E+04  0.36048844804E+04 0.  0.
        4    1    3    3  502    0 -0.14710469585E+03 -0.31783317242E+03 -0.26153983369E+04  0.26387436007E+04  0.12699999809E+01 0. -1.
       -4    1    3    3    0  502  0.14710469585E+03  0.31783317242E+03  0.11879282167E+04  0.12384800272E+04  0.12699999809E+01 0.  1.
</event>
<event>
 5   0  0.3212523E-08  0.3597432E+04  0.7818609E-02  0.8091080E-01
       -1   -1    0    0    0  501  0.00000000000E+00  0.00000000000E+00  0.20257806333E+04  0.20257806333E+04  0.50400001928E-02 0.  1.
        1   -1    0    0  501    0  0.00000000000E+00  0.00000000000E+00 -0.15971021405E+04  0.15971021405E+04  0.50400001928E-02 0. -1.
    10030    2    1    2    0    0  0.00000000000E+00  0.00000000000E+00  0.42867849280E+03  0.36228827738E+04  0.35974316314E+04 0.  0.
        3    1    3    3  502    0  0.12484435828E+04  0.85531894864E+03  0.11934297297E+04  0.19272925085E+04  0.10100000352E+00 0.  1.
       -3    1    3    3    0  502 -0.12484435828E+04 -0.85531894864E+03 -0.76475123692E+03  0.16955902653E+04  0.10100000352E+00 0. -1.
</event>
<event>
 5   0  0.3202875E-08  0.3607963E+04  0.7818609E-02  0.8088670E-01
       -1   -1    0    0    0  501  0.00000000000E+00  0.00000000000E+00  0.13844814731E+04  0.13844814731E+04  0.50400001928E-02 0. -1.
        1   -1    0    0  501    0  0.00000000000E+00  0.00000000000E+00 -0.23505911733E+04  0.23505911733E+04  0.50400001928E-02 0.  1.
    10030    2    1    2    0    0  0.00000000000E+00  0.00000000000E+00 -0.96610970021E+03  0.37350726464E+04  0.36079633758E+04 0.  0.
        2    1    3    3  502    0 -0.23865140896E+03  0.98017878113E+03  0.10651750883E+04  0.14670729043E+04  0.25500000920E-02 0. -1.
       -2    1    3    3    0  502  0.23865140896E+03 -0.98017878113E+03 -0.20312847885E+04  0.22679997420E+04  0.25500000920E-02 0.  1.
</event>
<event>
 5   0  0.1017794E-07  0.3596520E+04  0.7818609E-02  0.8091289E-01
       -2   -1    0    0    0  501  0.00000000000E+00  0.00000000000E+00  0.29446729700E+04  0.29446729700E+04  0.25500000920E-02 0.  1.
        2   -1    0    0  501    0  0.00000000000E+00  0.00000000000E+00 -0.10981659253E+04  0.10981659253E+04  0.25500000920E-02 0. -1.
    10030    2    1    2    0    0  0.00000000000E+00  0.00000000000E+00  0.18465070447E+04  0.40428388952E+04  0.35965202720E+04 0.  0.
        1    1    3    3  502    0 -0.91160622910E+03 -0.91264617852E+03 -0.48514246243E+03  0.13781553515E+04  0.50400001928E-02 0. -1.
       -1    1    3    3    0  502  0.91160622910E+03  0.91264617852E+03  0.23316495071E+04  0.26646835437E+04  0.50400001928E-02 0.  1.
</event>
<event>
 5   0  0.9905335E-08  0.3600134E+04  0.7818609E-02  0.8090461E-01
       -2   -1    0    0    0  501  0.00000000000E+00  0.00000000000E+00  0.12039569955E+04  0.12039569955E+04  0.25500000920E-02 0.  1.
        2   -1    0    0  501    0  0.00000000000E+00  0.00000000000E+00 -0.26913262560E+04  0.26913262560E+04  0.25500000920E-02 0. -1.
    10030    2    1    2    0    0  0.00000000000E+00  0.00000000000E+00 -0.14873692605E+04  0.38952832515E+04  0.36001339271E+04 0.  0.
        5    1    3    3  502    0 -0.15405214529E+04  0.92911472128E+03 -0.81001707283E+03  0.19729699087E+04  0.46999998093E+01 0. -1.
       -5    1    3    3    0  502  0.15405214529E+04 -0.92911472128E+03 -0.67735218762E+03  0.19223133429E+04  0.46999998093E+01 0.  1.
</event>
<event>
 5   0  0.3279988E-08  0.3589384E+04  0.7818609E-02  0.8092928E-01
       -1   -1    0    0    0  501  0.00000000000E+00  0.00000000000E+00  0.13725752983E+04  0.13725752983E+04  0.50400001928E-02 0.  1.
        1   -1    0    0  501    0  0.00000000000E+00  0.00000000000E+00 -0.23466246062E+04  0.23466246062E+04  0.50400001928E-02 0. -1.
    10030    2    1    2    0    0  0.00000000000E+00  0.00000000000E+00 -0.97404930793E+03  0.37191999045E+04  0.35893837738E+04 0.  0.
        5    1    3    3  502    0 -0.11642909258E+04 -0.20878773686E+03 -0.18855546156E+04  0.22258715097E+04  0.46999998093E+01 0. -1.
       -5    1    3    3    0  502  0.11642909258E+04  0.20878773686E+03  0.91150530771E+03  0.14933283949E+04  0.46999998093E+01 0.  1.
</event>
<event>
 5   0  0.1029908E-07  0.3605150E+04  0.7818609E-02  0.8089313E-01
        2   -1    0    0  501    0  0.00000000000E+00  0.00000000000E+00  0.16050474935E+04  0.16050474935E+04  0.25500000920E-02 0.  1.
       -2   -1    0    0    0  501  0.00000000000E+00  0.00000000000E+00 -0.20244117927E+04  0.20244117927E+04  0.25500000920E-02 0. -1.
    10030    2    1    2    0    0  0.00000000000E+00  0.00000000000E+00 -0.41936429917E+03  0.36294592862E+04  0.36051502458E+04 0.  0.
        4    1    3    3  502    0  0.39479051498E+03 -0.88021902190E+03 -0.17426544993E+04  0.19918562684E+04  0.12699999809E+01 0. -1.
       -4    1    3    3    0  502 -0.39479051498E+03  0.88021902190E+03  0.13232902001E+04  0.16376030178E+04  0.12699999809E+01 0.  1.
</event>
<event>
 5   0  0.3202875E-08  0.3600225E+04  0.7818609E-02  0.8090440E-01
        1   -1    0    0  501    0  0.00000000000E+00  0.00000000000E+00  0.22012401300E+04  0.22012401300E+04  0.50400001928E-02 0. -1.
       -1   -1    0    0    0  501  0.00000000000E+00  0.00000000000E+00 -0.14720812111E+04  0.14720812111E+04  0.50400001928E-02 0.  1.
    10030    2    1    2    0    0  0.00000000000E+00  0.00000000000E+00  0.72915891898E+03  0.36733213411E+04  0.36002245688E+04 0.  0.
        1    1    3    3  502    0  0.11113074361E+04 -0.13815807490E+04  0.47406776148E+02  0.17737014929E+04  0.50400001928E-02 0.  1.
       -1    1    3    3    0  502 -0.11113074361E+04  0.13815807490E+04  0.68175214283E+03  0.18996198482E+04  0.50400001928E-02 0. -1.
</event>
<event>
 5   0  0.3279988E-08  0.3619648E+04  0.7818609E-02  0.8086006E-01
       -1   -1    0    0    0  501  0.00000000000E+00  0.00000000000E+00  0.12599013902E+04  0.12599013902E+04  0.50400001928E-02 0.  1.
        1   -1    0    0  501    0  0.00000000000E+00  0.00000000000E+00 -0.25997771642E+04  0.25997771643E+04  0.50400001928E-02 0. -1.
    10030    2    1    2    0    0  0.00000000000E+00  0.00000000000E+00 -0.13398757740E+04  0.38596785545E+04  0.36196479738E+04 0.  0.
        5    1    3    3  502    0 -0.28497673013E+03  0.58802915894E+03  0.11297167026E+04  0.13050946121E+04  0.46999998093E+01 0.  1.
       -5    1    3    3    0  502  0.28497673013E+03 -0.58802915894E+03 -0.24695924766E+04  0.25545839424E+04  0.46999998093E+01 0. -1.
</event>
<event>
 5   0  0.3202875E-08  0.3602880E+04  0.7818609E-02  0.8089832E-01
        1   -1    0    0  501    0  0.00000000000E+00  0.00000000000E+00  0.13501819168E+04  0.13501819168E+04  0.50400001928E-02 0.  1.
       -1   -1    0    0    0  501  0.00000000000E+00  0.00000000000E+00 -0.24035172384E+04  0.24035172384E+04  0.50400001928E-02 0. -1.
    10030    2    1    2    0    0  0.00000000000E+00  0.00000000000E+00 -0.10533353216E+04  0.37536991552E+04  0.36028796883E+04 0.  0.
        2    1    3    3  502    0  0.13750660627E+04 -0.34982840981E+03 -0.16830857224E+04  0.22013550695E+04  0.25500000920E-02 0. -1.
       -2    1    3    3    0  502 -0.13750660627E+04  0.34982840981E+03  0.62975040083E+03  0.15523440857E+04  0.25500000920E-02 0.  1.
</event>
<event>
 5   0  0.3202875E-08  0.3599255E+04  0.7818609E-02  0.8090662E-01
        1   -1    0    0  501    0  0.00000000000E+00  0.00000000000E+00  0.18946865703E+04  0.18946865703E+04  0.50400001928E-02 0.  1.
       -1   -1    0    0    0  501  0.00000000000E+00  0.00000000000E+00 -0.17093377144E+04  0.17093377144E+04  0.50400001928E-02 0. -1.
    10030    2    1    2    0    0  0.00000000000E+00  0.00000000000E+00  0.18534885597E+03  0.36040242847E+04  0.35992550405E+04 0.  0.
        2    1    3    3  502    0 -0.69573353261E+03  0.11274402859E+04  0.13122753936E+04  0.18647341514E+04  0.25500000920E-02 0.  1.
       -2    1    3    3    0  502  0.69573353261E+03 -0.11274402859E+04 -0.11269265377E+04  0.17392901333E+04  0.25500000920E-02 0. -1.
</event>
<event>
 5   0  0.3202875E-08  0.3595930E+04  0.7818609E-02  0.8091425E-01
        3   -1    0    0  501    0  0.00000000000E+00  0.00000000000E+00  0.13138727748E+04  0.13138727787E+04  0.10100000352E+00 0.  1.
       -3   -1    0    0    0  501  0.00000000000E+00  0.00000000000E+00 -0.24604199654E+04  0.24604199674E+04  0.10100000352E+00 0. -1.
    10030    2    1    2    0    0  0.00000000000E+00  0.00000000000E+00 -0.11465471905E+04  0.37742927461E+04  0.35959303766E+04 0.  0.
        4    1    3    3  502    0  0.74281262452E+03 -0.10613405845E+04  0.73534916946E+03  0.14896155361E+04  0.12699999809E+01 0.  1.
       -4    1    3    3    0  502 -0.74281262452E+03  0.10613405845E+04 -0.18818963600E+04  0.22846772100E+04  0.12699999809E+01 0. -1.
</event>
<event>
 5   0  0.3202875E-08  0.3600398E+04  0.7818609E-02  0.8090401E-01
        3   -1    0    0  501    0  0.00000000000E+00  0.00000000000E+00  0.13819370075E+04  0.13819370112E+04  0.10100000352E+00 0. -1.
       -3   -1    0    0    0  501  0.00000000000E+00  0.00000000000E+00 -0.23450533071E+04  0.23450533093E+04  0.10100000352E+00 0.  1.
    10030    2    1    2    0    0  0.00000000000E+00  0.00000000000E+00 -0.96311629956E+03  0.37269903205E+04  0.36003977339E+04 0.  0.
        2    1    3    3  502    0  0.10626378384E+04 -0.12254340634E+04  0.32681432252E+03  0.16545982656E+04  0.25500000920E-02 0. -1.
       -2    1    3    3    0  502 -0.10626378384E+04  0.12254340634E+04 -0.12899306221E+04  0.20723920549E+04  0.25500000920E-02 0.  1.
</event>
<event>
 5   0  0.3202875E-08  0.3605412E+04  0.7818609E-02  0.8089253E-01
        1   -1    0    0  501    0  0.00000000000E+00  0.00000000000E+00  0.20961827072E+04  0.20961827072E+04  0.50400001928E-02 0. -1.
       -1   -1    0    0    0  501  0.00000000000E+00  0.00000000000E+00 -0.15503172740E+04  0.15503172740E+04  0.50400001928E-02 0.  1.
    10030    2    1    2    0    0  0.00000000000E+00  0.00000000000E+00  0.54586543321E+03  0.36464999811E+04  0.36054116327E+04 0.  0.
        2    1    3    3  502    0  0.14021474077E+04  0.72619569851E+03 -0.60667435613E+03  0.16915765782E+04  0.25500000920E-02 0.  1.
       -2    1    3    3    0  502 -0.14021474077E+04 -0.72619569851E+03  0.11525397893E+04  0.19549234030E+04  0.25500000920E-02 0. -1.
</event>
<event>
 5   0  0.3202875E-08  0.3598952E+04  0.7818609E-02  0.8090732E-01
        1   -1    0    0  501    0  0.00000000000E+00  0.00000000000E+00  0.25781613122E+04  0.25781613122E+04  0.50400001928E-02 0. -1.
       -1   -1    0    0    0  501  0.00000000000E+00  0.00000000000E+00 -0.12559780402E+04  0.12559780402E+04  0.50400001928E-02 0.  1.
    10030    2    1    2    0    0  0.00000000000E+00  0.00000000000E+00  0.13221832719E+04  0.38341393524E+04  0.35989520654E+04 0.  0.
        2    1    3    3  502    0  0.12139700371E+04 -0.11549028446E+04 -0.37983541988E+02  0.16759971900E+04  0.25500000920E-02 0.  1.
       -2    1    3    3    0  502 -0.12139700371E+04  0.11549028446E+04  0.13601668139E+04  0.21581421624E+04  0.25500000920E-02 0. -1.
</event>
<event>
 5   0  0.3202875E-08  0.3572055E+04  0.7818609E-02  0.8096923E-01
        1   -1    0    0  501    0  0.00000000000E+00  0.00000000000E+00  0.14209400467E+04  0.14209400468E+04  0.50400001928E-02 0.  1.
       -1   -1    0    0    0  501  0.00000000000E+00  0.00000000000E+00 -0.22449178583E+04  0.22449178583E+04  0.50400001928E-02 0. -1.
    10030    2    1    2    0    0  0.00000000000E+00  0.00000000000E+00 -0.82397781151E+03  0.36658579050E+04  0.35720546953E+04 0.  0.
        2    1    3    3  502    0 -0.55693607288E+03  0.14401085644E+04  0.50924948066E+03  0.16258614640E+04  0.25500000920E-02 0.  1.
       -2    1    3    3    0  502  0.55693607288E+03 -0.14401085644E+04 -0.13332272922E+04  0.20399964410E+04  0.25500000920E-02 0. -1.
</event>
<event>
 5   0  0.1017794E-07  0.3599689E+04  0.7818609E-02  0.8090563E-01
        2   -1    0    0  501    0  0.00000000000E+00  0.00000000000E+00  0.23405189770E+04  0.23405189770E+04  0.25500000920E-02 0. -1.
       -2   -1    0    0    0  501  0.00000000000E+00  0.00000000000E+00 -0.13840692730E+04  0.13840692730E+04  0.25500000920E-02 0.  1.
    10030    2    1    2    0    0  0.00000000000E+00  0.00000000000E+00  0.95644970398E+03  0.37245882500E+04  0.35996890971E+04 0.  0.
        1    1    3    3  502    0 -0.98137545788E+03  0.11549933927E+04  0.14826450719E+04  0.21202226147E+04  0.50400001928E-02 0. -1.
       -1    1    3    3    0  502  0.98137545788E+03 -0.11549933927E+04 -0.52619536790E+03  0.16043656353E+04  0.50400001928E-02 0.  1.
</event>
<event>
 5   0  0.3279988E-08  0.3601013E+04  0.7818609E-02  0.8090260E-01
        1   -1    0    0  501    0  0.00000000000E+00  0.00000000000E+00  0.26453194976E+04  0.26453194976E+04  0.50400001928E-02 0. -1.
       -1   -1    0    0    0  501  0.00000000000E+00  0.00000000000E+00 -0.12254943651E+04  0.12254943651E+04  0.50400001928E-02 0.  1.
    10030    2    1    2    0    0  0.00000000000E+00  0.00000000000E+00  0.14198251325E+04  0.38708138627E+04  0.36010132675E+04 0.  0.
        5    1    3    3  502    0 -0.41563264734E+03 -0.14866944803E+04 -0.28622960676E+03  0.15700192524E+04  0.46999998093E+01 0.  1.
       -5    1    3    3    0  502  0.41563264734E+03  0.14866944803E+04  0.17060547393E+04  0.23007946103E+04  0.46999998093E+01 0. -1.
</event>
<event>
 5   0  0.3202875E-08  0.3600237E+04  0.7818609E-02  0.8090437E-01
        1   -1    0    0  501    0  0.00000000000E+00  0.00000000000E+00  0.11547030285E+04  0.11547030285E+04  0.50400001928E-02 0. -1.
       -1   -1    0    0    0  501  0.00000000000E+00  0.00000000000E+00 -0.28062854861E+04  0.28062854861E+04  0.50400001928E-02 0.  1.
    10030    2    1    2    0    0  0.00000000000E+00  0.00000000000E+00 -0.16515824577E+04  0.39609885146E+04  0.36002368531E+04 0.  0.
        2    1    3    3  502    0 -0.13973445619E+04 -0.50078015743E+03 -0.19462021479E+04  0.24476632512E+04  0.25500000920E-02 0.  1.
       -2    1    3    3    0  502  0.13973445619E+04  0.50078015743E+03  0.29461969028E+03  0.15133252634E+04  0.25500000920E-02 0. -1.
</event>
<event>
 5   0  0.3202875E-08  0.3595334E+04  0.7818609E-02  0.8091561E-01
        1   -1    0    0  501    0  0.00000000000E+00  0.00000000000E+00  0.11029876292E+04  0.11029876292E+04  0.50400001928E-02 0.  1.
       -1   -1    0    0    0  501  0.00000000000E+00  0.00000000000E+00 -0.29298660877E+04  0.29298660877E+04  0.50400001928E-02 0. -1.
    10030    2    1    2    0    0  0.00000000000E+00  0.00000000000E+00 -0.18268784585E+04  0.40328537169E+04  0.35953336702E+04 0.  0.
        1    1    3    3  502    0 -0.13684195593E+03  0.15440328427E+04 -0.19346358773E+04  0.24790278574E+04  0.50400001928E-02 0. -1.
       -1    1    3    3    0  502  0.13684195593E+03 -0.15440328427E+04  0.10775741875E+03  0.15538258595E+04  0.50400001928E-02 0.  1.
</event>
<event>
 5   0  0.9905335E-08  0.3538581E+04  0.7818609E-02  0.8104707E-01
       -2   -1    0    0    0  501  0.00000000000E+00  0.00000000000E+00  0.12736813530E+04  0.12736813530E+04  0.25500000920E-02 0. -1.
        2   -1    0    0  501    0  0.00000000000E+00  0.00000000000E+00 -0.24577483221E+04  0.24577483221E+04  0.25500000920E-02 0.  1.
    10030    2    1    2    0    0  0.00000000000E+00  0.00000000000E+00 -0.11840669692E+04  0.37314296751E+04  0.35385806240E+04 0.  0.
        5    1    3    3  502    0  0.43485331838E+03 -0.10253294977E+04 -0.20417176873E+04  0.23257323991E+04  0.46999998093E+01 0.  1.
       -5    1    3    3    0  502 -0.43485331838E+03  0.10253294977E+04  0.85765071818E+03  0.14056972760E+04  0.46999998093E+01 0. -1.
</event>
<event>
 5   0  0.9905335E-08  0.3602071E+04  0.7818609E-02  0.8090018E-01
        2   -1    0    0  501    0  0.00000000000E+00  0.00000000000E+00  0.25734737934E+04  0.25734737934E+04  0.25500000920E-02 0.  1.
       -2   -1    0    0    0  501  0.00000000000E+00  0.00000000000E+00 -0.12604475034E+04  0.12604475034E+04  0.25500000920E-02 0. -1.
    10030    2    1    2    0    0  0.00000000000E+00  0.00000000000E+00  0.13130262899E+04  0.38339212968E+04  0.36020708588E+04 0.  0.
        5    1    3    3  502    0 -0.90804602449E+03 -0.65989062529E+03 -0.84258235432E+03  0.14035563166E+04  0.46999998093E+01 0. -1.
       -5    1    3    3    0  502  0.90804602449E+03  0.65989062529E+03  0.21556086443E+04  0.24303649802E+04  0.46999998093E+01 0.  1.
</event>
<event>
 5   0  0.1029908E-07  0.3607139E+04  0.7818609E-02  0.8088858E-01
       -2   -1    0    0    0  501  0.00000000000E+00  0.00000000000E+00  0.10937970348E+04  0.10937970348E+04  0.25500000920E-02 0.  1.
        2   -1    0    0  501    0  0.00000000000E+00  0.00000000000E+00 -0.29739181691E+04  0.29739181691E+04  0.25500000920E-02 0. -1.
    10030    2    1    2    0    0  0.00000000000E+00  0.00000000000E+00 -0.18801211343E+04  0.40677152039E+04  0.36071389632E+04 0.  0.
        4    1    3    3  502    0 -0.79953275489E+03 -0.82929859826E+03  0.62489289675E+03  0.13105271979E+04  0.12699999809E+01 0.  1.
       -4    1    3    3    0  502  0.79953275489E+03  0.82929859826E+03 -0.25050140311E+04  0.27571880059E+04  0.12699999809E+01 0. -1.
</event>
<event>
 5   0  0.3279988E-08  0.3594121E+04  0.7818609E-02  0.8091840E-01
        1   -1    0    0  501    0  0.00000000000E+00  0.00000000000E+00  0.19980632826E+04  0.19980632826E+04  0.50400001928E-02 0. -1.
       -1   -1    0    0    0  501  0.00000000000E+00  0.00000000000E+00 -0.16162779856E+04  0.16162779856E+04  0.50400001928E-02 0.  1.
    10030    2    1    2    0    0  0.00000000000E+00  0.00000000000E+00  0.38178529696E+03  0.36143412682E+04  0.35941205864E+04 0.  0.
        5    1    3    3  502    0 -0.68671642355E+03 -0.16567212890E+04  0.75799058678E+02  0.17950132209E+04  0.46999998093E+01 0.  1.
       -5    1    3    3    0  502  0.68671642355E+03  0.16567212890E+04  0.30598623828E+03  0.18193280473E+04  0.46999998093E+01 0. -1.
</event>
<event>
 5   0  0.1044678E-07  0.3548710E+04  0.7818609E-02  0.8102342E-01
       -2   -1    0    0    0  501  0.00000000000E+00  0.00000000000E+00  0.18865450039E+04  0.18865450039E+04  0.25500000920E-02 0.  1.
        2   -1    0    0  501    0  0.00000000000E+00  0.00000000000E+00 -0.16688369291E+04  0.16688369291E+04  0.25500000920E-02 0. -1.
    10030    2    1    2    0    0  0.00000000000E+00  0.00000000000E+00  0.21770807479E+03  0.35553819330E+04  0.35487101718E+04 0.  0.
        2    1    3    3  502    0  0.14300996044E+04 -0.63477828879E+03  0.94721132715E+03  0.18290264221E+04  0.25500000920E-02 0.  1.
       -2    1    3    3    0  502 -0.14300996044E+04  0.63477828879E+03 -0.72950325236E+03  0.17263555108E+04  0.25500000920E-02 0. -1.
</event>
<event>
 5   0  0.3202875E-08  0.3584057E+04  0.7818609E-02  0.8094153E-01
        1   -1    0    0  501    0  0.00000000000E+00  0.00000000000E+00  0.18476791418E+04  0.18476791418E+04  0.50400001928E-02 0. -1.
       -1   -1    0    0    0  501  0.00000000000E+00  0.00000000000E+00 -0.17380542433E+04  0.17380542433E+04  0.50400001928E-02 0.  1.
    10030    2    1    2    0    0  0.00000000000E+00  0.00000000000E+00  0.10962489848E+03  0.35857333851E+04  0.35840572388E+04 0.  0.
        2    1    3    3  502    0  0.13374016569E+04  0.78628305804E+03  0.95216130534E+03  0.18203009066E+04  0.25500000920E-02 0. -1.
       -2    1    3    3    0  502 -0.13374016569E+04 -0.78628305804E+03 -0.84253640686E+03  0.17654324785E+04  0.25500000920E-02 0.  1.
</event>
<event>
 5   0  0.1044678E-07  0.3594974E+04  0.7818609E-02  0.8091644E-01
        2   -1    0    0  501    0  0.00000000000E+00  0.00000000000E+00  0.18030122722E+04  0.18030122722E+04  0.25500000920E-02 0. -1.
       -2   -1    0    0    0  501  0.00000000000E+00  0.00000000000E+00 -0.17919787916E+04  0.17919787916E+04  0.25500000920E-02 0.  1.
    10030    2    1    2    0    0  0.00000000000E+00  0.00000000000E+00  0.11033480603E+02  0.35949910638E+04  0.35949741322E+04 0.  0.
        2    1    3    3  502    0  0.66734959504E+03 -0.30667624546E+02 -0.16632223040E+04  0.17923739615E+04  0.25500000920E-02 0.  1.
       -2    1    3    3    0  502 -0.66734959504E+03  0.30667624546E+02  0.16742557847E+04  0.18026171023E+04  0.25500000920E-02 0. -1.
</event>
<event>
 5   0  0.3279988E-08  0.3608776E+04  0.7818609E-02  0.8088484E-01
       -1   -1    0    0    0  501  0.00000000000E+00  0.00000000000E+00  0.10807989623E+04  0.10807989624E+04  0.50400001928E-02 0.  1.
        1   -1    0    0  501    0  0.00000000000E+00  0.00000000000E+00 -0.30124162273E+04  0.30124162273E+04  0.50400001928E-02 0. -1.
    10030    2    1    2    0    0  0.00000000000E+00  0.00000000000E+00 -0.19316172650E+04  0.40932151897E+04  0.36087761541E+04 0.  0.
        5    1    3    3  502    0  0.83333249928E+03  0.15184710325E+04 -0.39237596033E+03  0.17760006518E+04  0.46999998093E+01 0.  1.
       -5    1    3    3    0  502 -0.83333249928E+03 -0.15184710325E+04 -0.15392413047E+04  0.23172145379E+04  0.46999998093E+01 0. -1.
</event>
<event>
 5   0  0.1029908E-07  0.3601501E+04  0.7818609E-02  0.8090148E-01
       -2   -1    0    0    0  501  0.00000000000E+00  0.00000000000E+00  0.22822762662E+04  0.22822762662E+04  0.25500000920E-02 0. -1.
        2   -1    0    0  501    0  0.00000000000E+00  0.00000000000E+00 -0.14208191713E+04  0.14208191714E+04  0.25500000920E-02 0.  1.
    10030    2    1    2    0    0  0.00000000000E+00  0.00000000000E+00  0.86145709486E+03  0.37030954376E+04  0.36015007279E+04 0.  0.
        4    1    3    3  502    0  0.15002305177E+04  0.20691997597E+00  0.14548208908E+04  0.20897839808E+04  0.12699999809E+01 0. -1.
       -4    1    3    3    0  502 -0.15002305177E+04 -0.20691997597E+00 -0.59336379599E+03  0.16133114567E+04  0.12699999809E+01 0.  1.
</event>
<event>
 5   0  0.3202875E-08  0.3593490E+04  0.7818609E-02  0.8091985E-01
        1   -1    0    0  501    0  0.00000000000E+00  0.00000000000E+00  0.17791757537E+04  0.17791757537E+04  0.50400001928E-02 0. -1.
       -1   -1    0    0    0  501  0.00000000000E+00  0.00000000000E+00 -0.18144874375E+04  0.18144874375E+04  0.50400001928E-02 0.  1.
    10030    2    1    2    0    0  0.00000000000E+00  0.00000000000E+00 -0.35311683811E+02  0.35936631912E+04  0.35934896990E+04 0.  0.
        1    1    3    3  502    0 -0.38233853740E+03 -0.12621590790E+04  0.12026750733E+04  0.17848405054E+04  0.50400001928E-02 0. -1.
       -1    1    3    3    0  502  0.38233853740E+03  0.12621590790E+04 -0.12379867571E+04  0.18088226858E+04  0.50400001928E-02 0.  1.
</event>
<event>
 5   0  0.3279988E-08  0.3599380E+04  0.7818609E-02  0.8090634E-01
        1   -1    0    0  501    0  0.00000000000E+00  0.00000000000E+00  0.18582821358E+04  0.18582821358E+04  0.50400001928E-02 0. -1.
       -1   -1    0    0    0  501  0.00000000000E+00  0.00000000000E+00 -0.17429456313E+04  0.17429456313E+04  0.50400001928E-02 0.  1.
    10030    2    1    2    0    0  0.00000000000E+00  0.00000000000E+00  0.11533650449E+03  0.36012277671E+04  0.35993803524E+04 0.  0.
        5    1    3    3  502    0  0.16674967888E+03 -0.17417877580E+04  0.47887434195E+03  0.18141038490E+04  0.46999998093E+01 0. -1.
       -5    1    3    3    0  502 -0.16674967888E+03  0.17417877580E+04 -0.36353783746E+03  0.17871239181E+04  0.46999998093E+01 0.  1.
</event>
<event>
 5   0  0.3202875E-08  0.3600982E+04  0.7818609E-02  0.8090267E-01
       -1   -1    0    0    0  501  0.00000000000E+00  0.00000000000E+00  0.14981117939E+04  0.14981117939E+04  0.50400001928E-02 0. -1.
        1   -1    0    0  501    0  0.00000000000E+00  0.00000000000E+00 -0.21639024634E+04  0.21639024634E+04  0.50400001928E-02 0.  1.
    10030    2    1    2    0    0  0.00000000000E+00  0.00000000000E+00 -0.66579066953E+03  0.36620142573E+04  0.36009819779E+04 0.  0.
        1    1    3    3  502    0 -0.98174093800E+01  0.80092659320E+03 -0.19727352707E+04  0.21291463635E+04  0.50400001928E-02 0.  1.
       -1    1    3    3    0  502  0.98174093800E+01 -0.80092659320E+03  0.13069446011E+04  0.15328678938E+04  0.50400001928E-02 0. -1.
</event>
<event>
 5   0  0.1044678E-07  0.3591606E+04  0.7818609E-02  0.8092417E-01
        2   -1    0    0  501    0  0.00000000000E+00  0.00000000000E+00  0.16576583439E+04  0.16576583439E+04  0.25500000920E-02 0.  1.
       -2   -1    0    0    0  501  0.00000000000E+00  0.00000000000E+00 -0.19454606958E+04  0.19454606958E+04  0.25500000920E-02 0. -1.
    10030    2    1    2    0    0  0.00000000000E+00  0.00000000000E+00 -0.28780235192E+03  0.36031190397E+04  0.35916064123E+04 0.  0.
        2    1    3    3  502    0  0.13569177716E+02  0.93497429699E+03  0.13941629522E+04  0.16787052737E+04  0.25500000920E-02 0.  1.
       -2    1    3    3    0  502 -0.13569177716E+02 -0.93497429699E+03 -0.16819653041E+04  0.19244137660E+04  0.25500000920E-02 0. -1.
</event>
<event>
 5   0  0.1021087E-07  0.3599278E+04  0.7818609E-02  0.8090657E-01
       -2   -1    0    0    0  501  0.00000000000E+00  0.00000000000E+00  0.17904920095E+04  0.17904920095E+04  0.25500000920E-02 0. -1.
        2   -1    0    0  501    0  0.00000000000E+00  0.00000000000E+00 -0.18088328076E+04  0.18088328076E+04  0.25500000920E-02 0.  1.
    10030    2    1    2    0    0  0.00000000000E+00  0.00000000000E+00 -0.18340798091E+02  0.35993248171E+04  0.35992780879E+04 0.  0.
        3    1    3    3  502    0 -0.15768018068E+04  0.85682969586E+03 -0.14422626307E+03  0.18003506022E+04  0.10100000352E+00 0. -1.
       -3    1    3    3    0  502  0.15768018068E+04 -0.85682969586E+03  0.12588546498E+03  0.17989742149E+04  0.10100000352E+00 0.  1.
</event>
<event>
 5   0  0.3279988E-08  0.3601821E+04  0.7818609E-02  0.8090075E-01
        1   -1    0    0  501    0  0.00000000000E+00  0.00000000000E+00  0.19644212168E+04  0.19644212169E+04  0.50400001928E-02 0. -1.
       -1   -1    0    0    0  501  0.00000000000E+00  0.00000000000E+00 -0.16510099234E+04  0.16510099234E+04  0.50400001928E-02 0.  1.
    10030    2    1    2    0    0  0.00000000000E+00  0.00000000000E+00  0.31341129342E+03  0.36154311403E+04  0.36018211632E+04 0.  0.
        5    1    3    3  502    0  0.10350428651E+03  0.94650373023E+03  0.16911001980E+04  0.19407278064E+04  0.46999998093E+01 0. -1.
       -5    1    3    3    0  502 -0.10350428651E+03 -0.94650373023E+03 -0.13776889046E+04  0.16747033339E+04  0.46999998093E+01 0.  1.
</event>
<event>
 5   0  0.9905335E-08  0.3602721E+04  0.7818609E-02  0.8089869E-01
       -2   -1    0    0    0  501  0.00000000000E+00  0.00000000000E+00  0.98512932930E+03  0.98512932931E+03  0.25500000920E-02 0.  1.
        2   -1    0    0  501    0  0.00000000000E+00  0.00000000000E+00 -0.32938823733E+04  0.32938823733E+04  0.25500000920E-02 0. -1.
    10030    2    1    2    0    0  0.00000000000E+00  0.00000000000E+00 -0.23087530440E+04  0.42790117026E+04  0.36027212677E+04 0.  0.
        5    1    3    3  502    0  0.11942670923E+04 -0.55331630055E+03  0.30629525790E+03  0.13513962006E+04  0.46999998093E+01 0.  1.
       -5    1    3    3    0  502 -0.11942670923E+04  0.55331630055E+03 -0.26150483019E+04  0.29276155020E+04  0.46999998093E+01 0. -1.
</event>
<event>
 5   0  0.9905335E-08  0.3590631E+04  0.7818609E-02  0.8092641E-01
        2   -1    0    0  501    0  0.00000000000E+00  0.00000000000E+00  0.17912547303E+04  0.17912547303E+04  0.25500000920E-02 0.  1.
       -2   -1    0    0    0  501  0.00000000000E+00  0.00000000000E+00 -0.17993852331E+04  0.17993852331E+04  0.25500000920E-02 0. -1.
    10030    2    1    2    0    0  0.00000000000E+00  0.00000000000E+00 -0.81305028673E+01  0.35906399634E+04  0.35906307582E+04 0.  0.
        5    1    3    3  502    0  0.38328038039E+03  0.31375236999E+03 -0.17296973353E+04  0.17992274346E+04  0.46999998093E+01 0. -1.
       -5    1    3    3    0  502 -0.38328038039E+03 -0.31375236999E+03  0.17215668325E+04  0.17914125288E+04  0.46999998093E+01 0.  1.
</event>
<event>
 5   0  0.9905335E-08  0.3593061E+04  0.7818609E-02  0.8092083E-01
        2   -1    0    0  501    0  0.00000000000E+00  0.00000000000E+00  0.23492233819E+04  0.23492233819E+04  0.25500000920E-02 0. -1.
       -2   -1    0    0    0  501  0.00000000000E+00  0.00000000000E+00 -0.13738675551E+04  0.13738675551E+04  0.25500000920E-02 0.  1.
    10030    2    1    2    0    0  0.00000000000E+00  0.00000000000E+00  0.97535582674E+03  0.37230909370E+04  0.35930609704E+04 0.  0.
        5    1    3    3  502    0 -0.87724155693E+03 -0.28960134402E+03  0.20842427120E+04  0.22798051365E+04  0.46999998093E+01 0. -1.
       -5    1    3    3    0  502  0.87724155693E+03  0.28960134402E+03 -0.11088868853E+04  0.14432858005E+04  0.46999998093E+01 0.  1.
</event>
<event>
 5   0  0.3202875E-08  0.3599893E+04  0.7818609E-02  0.8090516E-01
        1   -1    0    0  501    0  0.00000000000E+00  0.00000000000E+00  0.14523451799E+04  0.14523451799E+04  0.50400001928E-02 0.  1.
       -1   -1    0    0    0  501  0.00000000000E+00  0.00000000000E+00 -0.22307422646E+04  0.22307422646E+04  0.50400001928E-02 0. -1.
    10030    2    1    2    0    0  0.00000000000E+00  0.00000000000E+00 -0.77839708467E+03  0.36830874445E+04  0.35998932071E+04 0.  0.
        1    1    3    3  502    0 -0.50773028708E+03  0.13141995791E+04  0.75691194732E+03  0.15993205664E+04  0.50400001928E-02 0.  1.
       -1    1    3    3    0  502  0.50773028708E+03 -0.13141995791E+04 -0.15353090320E+04  0.20837668780E+04  0.50400001928E-02 0. -1.
</event>
<event>
 5   0  0.1029908E-07  0.3598300E+04  0.7818609E-02  0.8090881E-01
       -2   -1    0    0    0  501  0.00000000000E+00  0.00000000000E+00  0.14990487109E+04  0.14990487109E+04  0.25500000920E-02 0.  1.
        2   -1    0    0  501    0  0.00000000000E+00  0.00000000000E+00 -0.21593293392E+04  0.21593293392E+04  0.25500000920E-02 0. -1.
    10030    2    1    2    0    0  0.00000000000E+00  0.00000000000E+00 -0.66028062836E+03  0.36583780501E+04  0.35982995219E+04 0.  0.
        4    1    3    3  502    0  0.89006721779E+03 -0.62414866265E+03  0.11273771878E+04  0.15661296695E+04  0.12699999809E+01 0.  1.
       -4    1    3    3    0  502 -0.89006721779E+03  0.62414866265E+03 -0.17876578162E+04  0.20922483806E+04  0.12699999809E+01 0. -1.
</event>
<event>
 5   0  0.3202875E-08  0.3601379E+04  0.7818609E-02  0.8090176E-01
        1   -1    0    0  501    0  0.00000000000E+00  0.00000000000E+00  0.14968874477E+04  0.14968874477E+04  0.50400001928E-02 0.  1.
       -1   -1    0    0    0  501  0.00000000000E+00  0.00000000000E+00 -0.21661497705E+04  0.21661497705E+04  0.50400001928E-02 0. -1.
    10030    2    1    2    0    0  0.00000000000E+00  0.00000000000E+00 -0.66926232274E+03  0.36630372182E+04  0.36013788478E+04 0.  0.
        1    1    3    3  502    0 -0.11175092628E+04 -0.86442915830E+03 -0.14701760900E+04  0.20389905487E+04  0.50400001928E-02 0. -1.
       -1    1    3    3    0  502  0.11175092628E+04  0.86442915830E+03  0.80091376722E+03  0.16240466695E+04  0.50400001928E-02 0.  1.
</event>
<event>
 5   0  0.3212523E-08  0.3597808E+04  0.7818609E-02  0.8090994E-01
        1   -1    0    0  501    0  0.00000000000E+00  0.00000000000E+00  0.15309606595E+04  0.15309606596E+04  0.50400001928E-02 0. -1.
       -1   -1    0    0    0  501  0.00000000000E+00  0.00000000000E+00 -0.21137422438E+04  0.21137422438E+04  0.50400001928E-02 0.  1.
    10030    2    1    2    0    0  0.00000000000E+00  0.00000000000E+00 -0.58278158421E+03  0.36447029033E+04  0.35978083438E+04 0.  0.
        3    1    3    3  502    0 -0.50953444697E+03  0.23562753146E+03  0.14399526838E+04  0.15455126748E+04  0.10100000352E+00 0. -1.
       -3    1    3    3    0  502  0.50953444697E+03 -0.23562753146E+03 -0.20227342680E+04  0.20991902285E+04  0.10100000352E+00 0.  1.
</event>
<event>
 5   0  0.3215494E-08  0.3591723E+04  0.7818609E-02  0.8092390E-01
        1   -1    0    0  501    0  0.00000000000E+00  0.00000000000E+00  0.20851905285E+04  0.20851905285E+04  0.50400001928E-02 0. -1.
       -1   -1    0    0    0  501  0.00000000000E+00  0.00000000000E+00 -0.15466784510E+04  0.15466784510E+04  0.50400001928E-02 0.  1.
    10030    2    1    2    0    0  0.00000000000E+00  0.00000000000E+00  0.53851207743E+03  0.36318689795E+04  0.35917234062E+04 0.  0.
        4    1    3    3  502    0 -0.10190426108E+04  0.74082241359E+03 -0.10248343433E+04  0.16240544126E+04  0.12699999809E+01 0.  1.
       -4    1    3    3    0  502  0.10190426108E+04 -0.74082241359E+03  0.15633464207E+04  0.20078145669E+04  0.12699999809E+01 0. -1.
</event>
<event>
 5   0  0.1029908E-07  0.3612028E+04  0.7818609E-02  0.8087742E-01
        2   -1    0    0  501    0  0.00000000000E+00  0.00000000000E+00  0.15140590689E+04  0.15140590689E+04  0.25500000920E-02 0.  1.
       -2   -1    0    0    0  501  0.00000000000E+00  0.00000000000E+00 -0.21542661721E+04  0.21542661721E+04  0.25500000920E-02 0. -1.
    10030    2    1    2    0    0  0.00000000000E+00  0.00000000000E+00 -0.64020710319E+03  0.36683252410E+04  0.36120278154E+04 0.  0.
        4    1    3    3  502    0  0.12834243663E+03 -0.18007724030E+04 -0.37018331040E+03  0.18429026899E+04  0.12699999809E+01 0. -1.
       -4    1    3    3    0  502 -0.12834243663E+03  0.18007724030E+04 -0.27002379279E+03  0.18254225511E+04  0.12699999809E+01 0.  1.
</event>
<event>
 5   0  0.3215494E-08  0.3518314E+04  0.7818609E-02  0.8109463E-01
        1   -1    0    0  501    0  0.00000000000E+00  0.00000000000E+00  0.18638891110E+04  0.18638891110E+04  0.50400001928E-02 0.  1.
       -1   -1    0    0    0  501  0.00000000000E+00  0.00000000000E+00 -0.16603100406E+04  0.16603100406E+04  0.50400001928E-02 0. -1.
    10030    2    1    2    0    0  0.00000000000E+00  0.00000000000E+00  0.20357907047E+03  0.35241991516E+04  0.35183142586E+04 0.  0.
        4    1    3    3  502    0  0.10839797143E+04  0.13004276575E+04 -0.37703521822E+03  0.17344397603E+04  0.12699999809E+01 0.  1.
       -4    1    3    3    0  502 -0.10839797143E+04 -0.13004276575E+04  0.58061428870E+03  0.17897593913E+04  0.12699999809E+01 0. -1.
</event>
<event>
 5   0  0.3212523E-08  0.3607724E+04  0.7818609E-02  0.8088725E-01
        1   -1    0    0  501    0  0.00000000000E+00  0.00000000000E+00  0.14988620894E+04  0.14988620894E+04  0.50400001928E-02 0.  1.
       -1   -1    0    0    0  501  0.00000000000E+00  0.00000000000E+00 -0.21709250303E+04  0.21709250303E+04  0.50400001928E-02 0. -1.
    10030    2    1    2    0    0  0.00000000000E+00  0.00000000000E+00 -0.67206294092E+03  0.36697871198E+04  0.36077235077E+04 0.  0.
        3    1    3    3  502    0  0.10279155499E+04 -0.99304466257E+03 -0.14554951911E+04  0.20399054736E+04  0.10100000352E+00 0. -1.
       -3    1    3    3    0  502 -0.10279155499E+04  0.99304466257E+03  0.78343225023E+03  0.16298816462E+04  0.10100000352E+00 0.  1.
</event>
<event>
 5   0  0.1017794E-07  0.3509653E+04  0.7818609E-02  0.8111506E-01
       -2   -1    0    0    0  501  0.00000000000E+00  0.00000000000E+00  0.13431096906E+04  0.13431096906E+04  0.25500000920E-02 0. -1.
        2   -1    0    0  501    0  0.00000000000E+00  0.00000000000E+00 -0.22927514591E+04  0.22927514591E+04  0.25500000920E-02 0.  1.
    10030    2    1    2    0    0  0.00000000000E+00  0.00000000000E+00 -0.94964176856E+03  0.36358611497E+04  0.35096533748E+04 0.  0.
        1    1    3    3  502    0  0.44305210244E+02 -0.45864904063E+02  0.13419089548E+04  0.13434233078E+04  0.50400001928E-02 0. -1.
       -1    1    3    3    0  502 -0.44305210244E+02  0.45864904063E+02 -0.22915507233E+04  0.22924378418E+04  0.50400001928E-02 0.  1.
</event>
<event>
 5   0  0.9905335E-08  0.3605364E+04  0.7818609E-02  0.8089264E-01
       -2   -1    0    0    0  501  0.00000000000E+00  0.00000000000E+00  0.14891941653E+04  0.14891941653E+04  0.25500000920E-02 0. -1.
        2   -1    0    0  501    0  0.00000000000E+00  0.00000000000E+00 -0.21821619454E+04  0.21821619454E+04  0.25500000920E-02 0.  1.
    10030    2    1    2    0    0  0.00000000000E+00  0.00000000000E+00 -0.69296778009E+03  0.36713561107E+04  0.36053642461E+04 0.  0.
        5    1    3    3  502    0  0.14041724745E+04  0.82350634992E+03  0.44214470749E+03  0.16868245549E+04  0.46999998093E+01 0.  1.
       -5    1    3    3    0  502 -0.14041724745E+04 -0.82350634992E+03 -0.11351124876E+04  0.19845315558E+04  0.46999998093E+01 0. -1.
</event>
<event>
 5   0  0.3215494E-08  0.3601325E+04  0.7818609E-02  0.8090188E-01
       -1   -1    0    0    0  501  0.00000000000E+00  0.00000000000E+00  0.15403654181E+04  0.15403654181E+04  0.50400001928E-02 0.  1.
        1   -1    0    0  501    0  0.00000000000E+00  0.00000000000E+00 -0.21049458818E+04  0.21049458818E+04  0.50400001928E-02 0. -1.
    10030    2    1    2    0    0  0.00000000000E+00  0.00000000000E+00 -0.56458046372E+03  0.36453113000E+04  0.36013252246E+04 0.  0.
        4    1    3    3  502    0  0.17143389873E+04  0.24688479081E+03  0.21614052988E+03  0.17454594252E+04  0.12699999809E+01 0.  1.
       -4    1    3    3    0  502 -0.17143389873E+04 -0.24688479081E+03 -0.78072099361E+03  0.18998518748E+04  0.12699999809E+01 0. -1.
</event>
<event>
 5   0  0.1029908E-07  0.3597932E+04  0.7818609E-02  0.8090966E-01
        2   -1    0    0  501    0  0.00000000000E+00  0.00000000000E+00  0.31122992684E+04  0.31122992684E+04  0.25500000920E-02 0.  1.
       -2   -1    0    0    0  501  0.00000000000E+00  0.00000000000E+00 -0.10398351080E+04  0.10398351080E+04  0.25500000920E-02 0. -1.
    10030    2    1    2    0    0  0.00000000000E+00  0.00000000000E+00  0.20724641604E+04  0.41521343764E+04  0.35979316535E+04 0.  0.
        4    1    3    3  502    0  0.14093229403E+03  0.15782561720E+04  0.20192100330E+04  0.25667031824E+04  0.12699999809E+01 0.  1.
       -4    1    3    3    0  502 -0.14093229403E+03 -0.15782561720E+04  0.53254127404E+02  0.15854311940E+04  0.12699999809E+01 0. -1.
</event>
<event>
 5   0  0.1044678E-07  0.3596219E+04  0.7818609E-02  0.8091358E-01
        2   -1    0    0  501    0  0.00000000000E+00  0.00000000000E+00  0.18392061154E+04  0.18392061154E+04  0.25500000920E-02 0.  1.
       -2   -1    0    0    0  501  0.00000000000E+00  0.00000000000E+00 -0.17579307644E+04  0.17579307644E+04  0.25500000920E-02 0. -1.
    10030    2    1    2    0    0  0.00000000000E+00  0.00000000000E+00  0.81275351049E+02  0.35971368798E+04  0.35962185764E+04 0.  0.
        2    1    3    3  502    0 -0.10413588681E+04  0.12594215299E+04  0.79091329346E+03  0.18155205094E+04  0.25500000920E-02 0.  1.
       -2    1    3    3    0  502  0.10413588681E+04 -0.12594215299E+04 -0.70963794241E+03  0.17816163704E+04  0.25500000920E-02 0. -1.
</event>
<event>
 5   0  0.3202875E-08  0.3601949E+04  0.7818609E-02  0.8090046E-01
        1   -1    0    0  501    0  0.00000000000E+00  0.00000000000E+00  0.34401279587E+04  0.34401279588E+04  0.50400001928E-02 0. -1.
       -1   -1    0    0    0  501  0.00000000000E+00  0.00000000000E+00 -0.94284523875E+03  0.94284523876E+03  0.50400001928E-02 0.  1.
    10030    2    1    2    0    0  0.00000000000E+00  0.00000000000E+00  0.24972827200E+04  0.43829731975E+04  0.36019485097E+04 0.  0.
        1    1    3    3  502    0 -0.89896009074E+03  0.46767451852E+03 -0.56303582190E+03  0.11592489106E+04  0.50400001928E-02 0.  1.
       -1    1    3    3    0  502  0.89896009074E+03 -0.46767451852E+03  0.30603185419E+04  0.32237242869E+04  0.50400001928E-02 0. -1.
</event>
<event>
 5   0  0.1044678E-07  0.3595749E+04  0.7818609E-02  0.8091466E-01
       -2   -1    0    0    0  501  0.00000000000E+00  0.00000000000E+00  0.12636060192E+04  0.12636060192E+04  0.25500000920E-02 0.  1.
        2   -1    0    0  501    0  0.00000000000E+00  0.00000000000E+00 -0.25580389606E+04  0.25580389606E+04  0.25500000920E-02 0. -1.
    10030    2    1    2    0    0  0.00000000000E+00  0.00000000000E+00 -0.12944329414E+04  0.38216449798E+04  0.35957493951E+04 0.  0.
        2    1    3    3  502    0  0.47898432238E+03 -0.71353834290E+03 -0.23255988259E+04  0.24793089454E+04  0.25500000920E-02 0. -1.
       -2    1    3    3    0  502 -0.47898432238E+03  0.71353834290E+03  0.10311658845E+04  0.13423360344E+04  0.25500000920E-02 0.  1.
</event>
<event>
 5   0  0.3202875E-08  0.3614324E+04  0.7818609E-02  0.8087218E-01
       -1   -1    0    0    0  501  0.00000000000E+00  0.00000000000E+00  0.24938160465E+04  0.24938160465E+04  0.50400001928E-02 0. -1.
        1   -1    0    0  501    0  0.00000000000E+00  0.00000000000E+00 -0.13095734632E+04  0.13095734632E+04  0.50400001928E-02 0.  1.
    10030    2    1    2    0    0  0.00000000000E+00  0.00000000000E+00  0.11842425833E+04  0.38033895096E+04  0.36143244550E+04 0.  0.
        2    1    3    3  502    0  0.26516089348E+03  0.16595653951E+04  0.12912287734E+04  0.21193723942E+04  0.25500000920E-02 0. -1.
       -2    1    3    3    0  502 -0.26516089348E+03 -0.16595653951E+04 -0.10698619007E+03  0.16840171154E+04  0.25500000920E-02 0.  1.
</event>
<event>
 5   0  0.3202875E-08  0.3601507E+04  0.7818609E-02  0.8090147E-01
       -1   -1    0    0    0  501  0.00000000000E+00  0.00000000000E+00  0.23762303479E+04  0.23762303479E+04  0.50400001928E-02 0. -1.
        1   -1    0    0  501    0  0.00000000000E+00  0.00000000000E+00 -0.13646462094E+04  0.13646462094E+04  0.50400001928E-02 0.  1.
    10030    2    1    2    0    0  0.00000000000E+00  0.00000000000E+00  0.10115841385E+04  0.37408765573E+04  0.36015073160E+04 0.  0.
        1    1    3    3  502    0 -0.83390964438E+03 -0.10691069185E+03 -0.11482757063E+04  0.14231557500E+04  0.50400001928E-02 0.  1.
       -1    1    3    3    0  502  0.83390964438E+03  0.10691069185E+03  0.21598598449E+04  0.23177208073E+04  0.50400001928E-02 0. -1.
</event>
<event>
 5   0  0.1017794E-07  0.3601569E+04  0.7818609E-02  0.8090132E-01
        2   -1    0    0  501    0  0.00000000000E+00  0.00000000000E+00  0.11204827371E+04  0.11204827371E+04  0.25500000920E-02 0. -1.
       -2   -1    0    0    0  501  0.00000000000E+00  0.00000000000E+00 -0.28941315831E+04  0.28941315831E+04  0.25500000920E-02 0.  1.
    10030    2    1    2    0    0  0.00000000000E+00  0.00000000000E+00 -0.17736488460E+04  0.40146143202E+04  0.36015688125E+04 0.  0.
        1    1    3    3  502    0  0.81800760517E+03  0.56944507862E+03  0.78498751158E+03  0.12687038792E+04  0.50400001928E-02 0. -1.
       -1    1    3    3    0  502 -0.81800760517E+03 -0.56944507862E+03 -0.25586363576E+04  0.27459104410E+04  0.50400001928E-02 0.  1.
</event>
<event>
 5   0  0.1044678E-07  0.3595495E+04  0.7818609E-02  0.8091524E-01
        2   -1    0    0  501    0  0.00000000000E+00  0.00000000000E+00  0.22155525377E+04  0.22155525377E+04  0.25500000920E-02 0.  1.
       -2   -1    0    0    0  501  0.00000000000E+00  0.00000000000E+00 -0.14587317511E+04  0.14587317511E+04  0.25500000920E-02 0. -1.
    10030    2    1    2    0    0  0.00000000000E+00  0.00000000000E+00  0.75682078659E+03  0.36742842887E+04  0.35954954222E+04 0.  0.
        2    1    3    3  502    0 -0.90395325856E+03 -0.13847019302E+04  0.10991062416E+04  0.19855894489E+04  0.25500000920E-02 0. -1.
       -2    1    3    3    0  502  0.90395325856E+03  0.13847019302E+04 -0.34228545505E+03  0.16886948398E+04  0.25500000920E-02 0.  1.
</event>
<event>
 5   0  0.3202875E-08  0.3573731E+04  0.7818609E-02  0.8096536E-01
       -1   -1    0    0    0  501  0.00000000000E+00  0.00000000000E+00  0.14284437827E+04  0.14284437827E+04  0.50400001928E-02 0. -1.
        1   -1    0    0  501    0  0.00000000000E+00  0.00000000000E+00 -0.22352210043E+04  0.22352210043E+04  0.50400001928E-02 0.  1.
    10030    2    1    2    0    0  0.00000000000E+00  0.00000000000E+00 -0.80677722155E+03  0.36636647870E+04  0.35737305699E+04 0.  0.
        1    1    3    3  502    0  0.98248964151E+03 -0.79513746637E+02  0.11245133900E+04  0.14953724271E+04  0.50400001928E-02 0. -1.
       -1    1    3    3    0  502 -0.98248964151E+03  0.79513746637E+02 -0.19312906115E+04  0.21682923598E+04  0.50400001928E-02 0.  1.
</event>
<event>
 5   0  0.3202875E-08  0.3591247E+04  0.7818609E-02  0.8092500E-01
       -1   -1    0    0    0  501  0.00000000000E+00  0.00000000000E+00  0.11682909554E+04  0.11682909554E+04  0.50400001928E-02 0.  1.
        1   -1    0    0  501    0  0.00000000000E+00  0.00000000000E+00 -0.27598126225E+04  0.27598126225E+04  0.50400001928E-02 0. -1.
    10030    2    1    2    0    0  0.00000000000E+00  0.00000000000E+00 -0.15915216671E+04  0.39281035778E+04  0.35912472069E+04 0.  0.
        2    1    3    3  502    0  0.17914925364E+04 -0.93262732123E+02 -0.88133397495E+03  0.19987228473E+04  0.25500000920E-02 0. -1.
       -2    1    3    3    0  502 -0.17914925364E+04  0.93262732123E+02 -0.71018769216E+03  0.19293807305E+04  0.25500000920E-02 0.  1.
</event>
<event>
 5   0  0.1017794E-07  0.3607822E+04  0.7818609E-02  0.8088702E-01
        2   -1    0    0  501    0  0.00000000000E+00  0.00000000000E+00  0.23129382320E+04  0.23129382320E+04  0.25500000920E-02 0. -1.
       -2   -1    0    0    0  501  0.00000000000E+00  0.00000000000E+00 -0.14069096648E+04  0.14069096648E+04  0.25500000920E-02 0.  1.
    10030    2    1    2    0    0  0.00000000000E+00  0.00000000000E+00  0.90602856720E+03  0.37198478967E+04  0.36078221423E+04 0.  0.
        1    1    3    3  502    0 -0.13214769612E+04  0.79080096653E+03  0.14215588526E+04  0.20958284994E+04  0.50400001928E-02 0. -1.
       -1    1    3    3    0  502  0.13214769612E+04 -0.79080096653E+03 -0.51553028536E+03  0.16240193973E+04  0.50400001928E-02 0.  1.
</event>
<event>
 5   0  0.3202875E-08  0.3596520E+04  0.7818609E-02  0.8091289E-01
        1   -1    0    0  501    0  0.00000000000E+00  0.00000000000E+00  0.31524378002E+04  0.31524378002E+04  0.50400001928E-02 0. -1.
       -1   -1    0    0    0  501  0.00000000000E+00  0.00000000000E+00 -0.10257899517E+04  0.10257899518E+04  0.50400001928E-02 0.  1.
    10030    2    1    2    0    0  0.00000000000E+00  0.00000000000E+00  0.21266478484E+04  0.41782277519E+04  0.35965199952E+04 0.  0.
        2    1    3    3  502    0 -0.62458708710E+03 -0.16804631012E+02 -0.89563174232E+03  0.10920382973E+04  0.25500000920E-02 0.  1.
       -2    1    3    3    0  502  0.62458708710E+03  0.16804631012E+02  0.30222795907E+04  0.30861894546E+04  0.25500000920E-02 0. -1.
</event>
<event>
 5   0  0.3212523E-08  0.3604133E+04  0.7818609E-02  0.8089546E-01
        1   -1    0    0  501    0  0.00000000000E+00  0.00000000000E+00  0.21353230283E+04  0.21353230283E+04  0.50400001928E-02 0. -1.
       -1   -1    0    0    0  501  0.00000000000E+00  0.00000000000E+00 -0.15208211321E+04  0.15208211321E+04  0.50400001928E-02 0.  1.
    10030    2    1    2    0    0  0.00000000000E+00  0.00000000000E+00  0.61450189619E+03  0.36561441604E+04  0.36041333967E+04 0.  0.
        3    1    3    3  502    0  0.64758666641E+02  0.11979039250E+04  0.16713783066E+04  0.20573460945E+04  0.10100000352E+00 0. -1.
       -3    1    3    3    0  502 -0.64758666641E+02 -0.11979039250E+04 -0.10568764104E+04  0.15987980659E+04  0.10100000352E+00 0.  1.
</event>
<event>
 5   0  0.1017794E-07  0.3590037E+04  0.7818609E-02  0.8092778E-01
        2   -1    0    0  501    0  0.00000000000E+00  0.00000000000E+00  0.15680630495E+04  0.15680630495E+04  0.25500000920E-02 0.  1.
       -2   -1    0    0    0  501  0.00000000000E+00  0.00000000000E+00 -0.20548222811E+04  0.20548222811E+04  0.25500000920E-02 0. -1.
    10030    2    1    2    0    0  0.00000000000E+00  0.00000000000E+00 -0.48675923162E+03  0.36228853306E+04  0.35900367086E+04 0.  0.
        1    1    3    3  502    0  0.91747515728E+03  0.79209565157E+03 -0.15794707779E+04  0.19909555806E+04  0.50400001928E-02 0. -1.
       -1    1    3    3    0  502 -0.91747515728E+03 -0.79209565157E+03  0.10927115463E+04  0.16319297500E+04  0.50400001928E-02 0.  1.
</event>
<event>
 5   0  0.1029908E-07  0.3584978E+04  0.7818609E-02  0.8093941E-01
        2   -1    0    0  501    0  0.00000000000E+00  0.00000000000E+00  0.28854521779E+04  0.28854521779E+04  0.25500000920E-02 0. -1.
       -2   -1    0    0    0  501  0.00000000000E+00  0.00000000000E+00 -0.11135226069E+04  0.11135226069E+04  0.25500000920E-02 0.  1.
    10030    2    1    2    0    0  0.00000000000E+00  0.00000000000E+00  0.17719295710E+04  0.39989747847E+04  0.35849776742E+04 0.  0.
        4    1    3    3  502    0 -0.84604441239E+02 -0.61742330174E+03  0.27607182312E+04  0.28301830700E+04  0.12699999809E+01 0. -1.
       -4    1    3    3    0  502  0.84604441239E+02  0.61742330174E+03 -0.98878866016E+03  0.11687917147E+04  0.12699999809E+01 0.  1.
</event>
<event>
 5   0  0.1029908E-07  0.3599143E+04  0.7818609E-02  0.8090688E-01
        2   -1    0    0  501    0  0.00000000000E+00  0.00000000000E+00  0.22839490692E+04  0.22839490692E+04  0.25500000920E-02 0.  1.
       -2   -1    0    0    0  501  0.00000000000E+00  0.00000000000E+00 -0.14179201522E+04  0.14179201522E+04  0.25500000920E-02 0. -1.
    10030    2    1    2    0    0  0.00000000000E+00  0.00000000000E+00  0.86602891702E+03  0.37018692215E+04  0.35991429046E+04 0.  0.
        4    1    3    3  502    0  0.41240273439E+03  0.16043950318E+04 -0.29011439377E+03  0.16817631843E+04  0.12699999809E+01 0. -1.
       -4    1    3    3    0  502 -0.41240273439E+03 -0.16043950318E+04  0.11561433108E+04  0.20201060372E+04  0.12699999809E+01 0.  1.
</event>
<event>
 5   0  0.1021087E-07  0.3598845E+04  0.7818609E-02  0.8090756E-01
       -2   -1    0    0    0  501  0.00000000000E+00  0.00000000000E+00  0.16929148128E+04  0.16929148128E+04  0.25500000920E-02 0.  1.
        2   -1    0    0  501    0  0.00000000000E+00  0.00000000000E+00 -0.19126311235E+04  0.19126311235E+04  0.25500000920E-02 0. -1.
    10030    2    1    2    0    0  0.00000000000E+00  0.00000000000E+00 -0.21971631071E+03  0.36055459362E+04  0.35988451260E+04 0.  0.
        3    1    3    3  502    0 -0.13680316934E+04  0.54297875782E+02  0.10599899787E+04  0.17314842588E+04  0.10100000352E+00 0.  1.
       -3    1    3    3    0  502  0.13680316934E+04 -0.54297875782E+02 -0.12797062894E+04  0.18740616774E+04  0.10100000352E+00 0. -1.
</event>
<event>
 5   0  0.3202875E-08  0.3596814E+04  0.7818609E-02  0.8091222E-01
       -1   -1    0    0    0  501  0.00000000000E+00  0.00000000000E+00  0.28959829147E+04  0.28959829147E+04  0.50400001928E-02 0.  1.
        1   -1    0    0  501    0  0.00000000000E+00  0.00000000000E+00 -0.11168118364E+04  0.11168118364E+04  0.50400001928E-02 0. -1.
    10030    2    1    2    0    0  0.00000000000E+00  0.00000000000E+00  0.17791710783E+04  0.40127947510E+04  0.35968141442E+04 0.  0.
        1    1    3    3  502    0 -0.10272393780E+04 -0.67949735990E+03 -0.57244317736E+03  0.13581710471E+04  0.50400001928E-02 0. -1.
       -1    1    3    3    0  502  0.10272393780E+04  0.67949735990E+03  0.23516142557E+04  0.26546237039E+04  0.50400001928E-02 0.  1.
</event>
<event>
 5   0  0.1044678E-07  0.3512210E+04  0.7818609E-02  0.8110902E-01
        2   -1    0    0  501    0  0.00000000000E+00  0.00000000000E+00  0.20975518808E+04  0.20975518808E+04  0.25500000920E-02 0. -1.
       -2   -1    0    0    0  501  0.00000000000E+00  0.00000000000E+00 -0.14702397755E+04  0.14702397755E+04  0.25500000920E-02 0.  1.
    10030    2    1    2    0    0  0.00000000000E+00  0.00000000000E+00  0.62731210535E+03  0.35677916563E+04  0.35122096785E+04 0.  0.
        2    1    3    3  502    0 -0.27529906247E+03  0.14551672165E+04  0.12723083739E+04  0.19524522529E+04  0.25500000920E-02 0. -1.
       -2    1    3    3    0  502  0.27529906247E+03 -0.14551672165E+04 -0.64499626855E+03  0.16153394034E+04  0.25500000920E-02 0.  1.
</event>
<event>
 5   0  0.1017794E-07  0.3571926E+04  0.7818609E-02  0.8096953E-01
        2   -1    0    0  501    0  0.00000000000E+00  0.00000000000E+00  0.11410699326E+04  0.11410699326E+04  0.25500000920E-02 0.  1.
       -2   -1    0    0    0  501  0.00000000000E+00  0.00000000000E+00 -0.27953278108E+04  0.27953278108E+04  0.25500000920E-02 0. -1.
    10030    2    1    2    0    0  0.00000000000E+00  0.00000000000E+00 -0.16542578782E+04  0.39363977434E+04  0.35719263804E+04 0.  0.
        1    1    3    3  502    0 -0.90545190363E+03  0.30885241585E+03  0.83487829847E+03  0.12697459344E+04  0.50400001928E-02 0.  1.
       -1    1    3    3    0  502  0.90545190363E+03 -0.30885241585E+03 -0.24891361767E+04  0.26666518091E+04  0.50400001928E-02 0. -1.
</event>
<event>
 5   0  0.3202875E-08  0.3599294E+04  0.7818609E-02  0.8090653E-01
        1   -1    0    0  501    0  0.00000000000E+00  0.00000000000E+00  0.28585381521E+04  0.28585381522E+04  0.50400001928E-02 0. -1.
       -1   -1    0    0    0  501  0.00000000000E+00  0.00000000000E+00 -0.11330019821E+04  0.11330019821E+04  0.50400001928E-02 0.  1.
    10030    2    1    2    0    0  0.00000000000E+00  0.00000000000E+00  0.17255361701E+04  0.39915401342E+04  0.35992940376E+04 0.  0.
        2    1    3    3  502    0  0.87999783834E+03 -0.26908104942E+03 -0.85236284109E+03  0.12543218166E+04  0.25500000920E-02 0.  1.
       -2    1    3    3    0  502 -0.87999783834E+03  0.26908104942E+03  0.25778990112E+04  0.27372183177E+04  0.25500000920E-02 0. -1.
</event>
<event>
 5   0  0.3202875E-08  0.3593495E+04  0.7818609E-02  0.8091983E-01
       -1   -1    0    0    0  501  0.00000000000E+00  0.00000000000E+00  0.10891341439E+04  0.10891341439E+04  0.50400001928E-02 0.  1.
        1   -1    0    0  501    0  0.00000000000E+00  0.00000000000E+00 -0.29640987062E+04  0.29640987062E+04  0.50400001928E-02 0. -1.
    10030    2    1    2    0    0  0.00000000000E+00  0.00000000000E+00 -0.18749645623E+04  0.40532328501E+04  0.35934947374E+04 0.  0.
        2    1    3    3  502    0 -0.69506262819E+03  0.78485116339E+02  0.92925356299E+03  0.11630924963E+04  0.25500000920E-02 0.  1.
       -2    1    3    3    0  502  0.69506262819E+03 -0.78485116339E+02 -0.28042181253E+04  0.28901403538E+04  0.25500000920E-02 0. -1.
</event>
<event>
 5   0  0.1017794E-07  0.3612882E+04  0.7818609E-02  0.8087547E-01
        2   -1    0    0  501    0  0.00000000000E+00  0.00000000000E+00  0.24440024692E+04  0.24440024692E+04  0.25500000920E-02 0.  1.
       -2   -1    0    0    0  501  0.00000000000E+00  0.00000000000E+00 -0.13351988251E+04  0.13351988251E+04  0.25500000920E-02 0. -1.
    10030    2    1    2    0    0  0.00000000000E+00  0.00000000000E+00  0.11088036441E+04  0.37792012943E+04  0.36128820770E+04 0.  0.
        1    1    3    3  502    0  0.34911012342E+03 -0.81109257445E+03 -0.10940512473E+04  0.14059506301E+04  0.50400001928E-02 0. -1.
       -1    1    3    3    0  502 -0.34911012342E+03  0.81109257445E+03  0.22028548914E+04  0.23732506642E+04  0.50400001928E-02 0.  1.
</event>
<event>
 5   0  0.1029908E-07  0.3599073E+04  0.7818609E-02  0.8090704E-01
       -2   -1    0    0    0  501  0.00000000000E+00  0.00000000000E+00  0.10687997195E+04  0.10687997195E+04  0.25500000920E-02 0. -1.
        2   -1    0    0  501    0  0.00000000000E+00  0.00000000000E+00 -0.30298769919E+04  0.30298769919E+04  0.25500000920E-02 0.  1.
    10030    2    1    2    0    0  0.00000000000E+00  0.00000000000E+00 -0.19610772724E+04  0.40986767114E+04  0.35990730356E+04 0.  0.
        4    1    3    3  502    0  0.11394132913E+04  0.13543913413E+04 -0.13507698751E+04  0.22264813995E+04  0.12699999809E+01 0.  1.
       -4    1    3    3    0  502 -0.11394132913E+04 -0.13543913413E+04 -0.61030739732E+03  0.18721953119E+04  0.12699999809E+01 0. -1.
</event>
<event>
 5   0  0.1029908E-07  0.3593457E+04  0.7818609E-02  0.8091992E-01
       -2   -1    0    0    0  501  0.00000000000E+00  0.00000000000E+00  0.21844779680E+04  0.21844779680E+04  0.25500000920E-02 0. -1.
        2   -1    0    0  501    0  0.00000000000E+00  0.00000000000E+00 -0.14778051021E+04  0.14778051021E+04  0.25500000920E-02 0.  1.
    10030    2    1    2    0    0  0.00000000000E+00  0.00000000000E+00  0.70667286590E+03  0.36622830702E+04  0.35934566571E+04 0.  0.
        4    1    3    3  502    0  0.69621219548E+03 -0.16531047423E+04  0.24759780387E+03  0.18107382460E+04  0.12699999809E+01 0.  1.
       -4    1    3    3    0  502 -0.69621219548E+03  0.16531047423E+04  0.45907506203E+03  0.18515448241E+04  0.12699999809E+01 0. -1.
</event>
<event>
 5   0  0.3212523E-08  0.3600968E+04  0.7818609E-02  0.8090270E-01
        1   -1    0    0  501    0  0.00000000000E+00  0.00000000000E+00  0.20263137474E+04  0.20263137474E+04  0.50400001928E-02 0.  1.
       -1   -1    0    0    0  501  0.00000000000E+00  0.00000000000E+00 -0.15998223158E+04  0.15998223158E+04  0.50400001928E-02 0. -1.
    10030    2    1    2    0    0  0.00000000000E+00  0.00000000000E+00  0.42649143156E+03  0.36261360632E+04  0.36009676210E+04 0.  0.
        3    1    3    3  502    0  0.57662993923E+03 -0.90882641882E+01 -0.15043006857E+04  0.16110571829E+04  0.10100000352E+00 0. -1.
       -3    1    3    3    0  502 -0.57662993923E+03  0.90882641882E+01  0.19307921173E+04  0.20150788803E+04  0.10100000352E+00 0.  1.
</event>
<event>
 5   0  0.3279988E-08  0.3604232E+04  0.7818609E-02  0.8089523E-01
       -1   -1    0    0    0  501  0.00000000000E+00  0.00000000000E+00  0.19614791843E+04  0.19614791843E+04  0.50400001928E-02 0.  1.
        1   -1    0    0  501    0  0.00000000000E+00  0.00000000000E+00 -0.16557007686E+04  0.16557007686E+04  0.50400001928E-02 0. -1.
    10030    2    1    2    0    0  0.00000000000E+00  0.00000000000E+00  0.30577841570E+03  0.36171799529E+04  0.36042322861E+04 0.  0.
        5    1    3    3  502    0 -0.16663350136E+04 -0.65155348173E+03 -0.63305610675E+02  0.17903139410E+04  0.46999998093E+01 0.  1.
       -5    1    3    3    0  502  0.16663350136E+04  0.65155348173E+03  0.36908402637E+03  0.18268660119E+04  0.46999998093E+01 0. -1.
</event>
<event>
 5   0  0.1044678E-07  0.3596713E+04  0.7818609E-02  0.8091245E-01
        2   -1    0    0  501    0  0.00000000000E+00  0.00000000000E+00  0.15181310375E+04  0.15181310375E+04  0.25500000920E-02 0.  1.
       -2   -1    0    0    0  501  0.00000000000E+00  0.00000000000E+00 -0.21303078568E+04  0.21303078568E+04  0.25500000920E-02 0. -1.
    10030    2    1    2    0    0  0.00000000000E+00  0.00000000000E+00 -0.61217681932E+03  0.36484388943E+04  0.35967132089E+04 0.  0.
        2    1    3    3  502    0 -0.33480187880E+03  0.16358690642E+04 -0.98346931253E+03  0.19378781649E+04  0.25500000920E-02 0. -1.
       -2    1    3    3    0  502  0.33480187880E+03 -0.16358690642E+04  0.37129249321E+03  0.17105607294E+04  0.25500000920E-02 0.  1.
</event>
<event>
 5   0  0.3202875E-08  0.3601000E+04  0.7818609E-02  0.8090263E-01
       -1   -1    0    0    0  501  0.00000000000E+00  0.00000000000E+00  0.14618939681E+04  0.14618939681E+04  0.50400001928E-02 0.  1.
        1   -1    0    0  501    0  0.00000000000E+00  0.00000000000E+00 -0.22175345233E+04  0.22175345233E+04  0.50400001928E-02 0. -1.
    10030    2    1    2    0    0  0.00000000000E+00  0.00000000000E+00 -0.75564055514E+03  0.36794284914E+04  0.36010000521E+04 0.  0.
        2    1    3    3  502    0  0.18359825348E+03  0.17678879498E+04 -0.84044468418E+02  0.17793818011E+04  0.25500000920E-02 0. -1.
       -2    1    3    3    0  502 -0.18359825348E+03 -0.17678879498E+04 -0.67159608672E+03  0.19000466903E+04  0.25500000920E-02 0.  1.
</event>
<event>
 5   0  0.3202875E-08  0.3589461E+04  0.7818609E-02  0.8092910E-01
        1   -1    0    0  501    0  0.00000000000E+00  0.00000000000E+00  0.14764994528E+04  0.14764994529E+04  0.50400001928E-02 0. -1.
       -1   -1    0    0    0  501  0.00000000000E+00  0.00000000000E+00 -0.21815495319E+04  0.21815495319E+04  0.50400001928E-02 0.  1.
    10030    2    1    2    0    0  0.00000000000E+00  0.00000000000E+00 -0.70505007902E+03  0.36580489847E+04  0.35894605111E+04 0.  0.
        2    1    3    3  502    0 -0.91828880675E+03  0.41485536124E+03  0.11610128633E+04  0.15373061413E+04  0.25500000920E-02 0. -1.
       -2    1    3    3    0  502  0.91828880675E+03 -0.41485536124E+03 -0.18660629423E+04  0.21207428434E+04  0.25500000920E-02 0.  1.
</event>
<event>
 5   0  0.3202875E-08  0.3605475E+04  0.7818609E-02  0.8089239E-01
       -1   -1    0    0    0  501  0.00000000000E+00  0.00000000000E+00  0.31445198134E+04  0.31445198134E+04  0.50400001928E-02 0. -1.
        1   -1    0    0  501    0  0.00000000000E+00  0.00000000000E+00 -0.10335002603E+04  0.10335002603E+04  0.50400001928E-02 0.  1.
    10030    2    1    2    0    0  0.00000000000E+00  0.00000000000E+00  0.21110195531E+04  0.41780200737E+04  0.36054747514E+04 0.  0.
        1    1    3    3  502    0 -0.80047211411E+02 -0.17935523932E+04  0.12445904691E+04  0.21845464469E+04  0.50400001928E-02 0.  1.
       -1    1    3    3    0  502  0.80047211411E+02  0.17935523932E+04  0.86642908402E+03  0.19934736268E+04  0.50400001928E-02 0. -1.
</event>
<event>
 5   0  0.1044678E-07  0.3602568E+04  0.7818609E-02  0.8089904E-01
        2   -1    0    0  501    0  0.00000000000E+00  0.00000000000E+00  0.23200011823E+04  0.23200011823E+04  0.25500000920E-02 0.  1.
       -2   -1    0    0    0  501  0.00000000000E+00  0.00000000000E+00 -0.13985441207E+04  0.13985441207E+04  0.25500000920E-02 0. -1.
    10030    2    1    2    0    0  0.00000000000E+00  0.00000000000E+00  0.92145706160E+03  0.37185453031E+04  0.36025679806E+04 0.  0.
        2    1    3    3  502    0 -0.45143836726E+02 -0.16284834790E+04  0.12539925633E+04  0.20558438064E+04  0.25500000920E-02 0.  1.
       -2    1    3    3    0  502  0.45143836726E+02  0.16284834790E+04 -0.33253550174E+03  0.16627014967E+04  0.25500000920E-02 0. -1.
</event>
<event>
 5   0  0.1029908E-07  0.3568420E+04  0.7818609E-02  0.8097764E-01
       -2   -1    0    0    0  501  0.00000000000E+00  0.00000000000E+00  0.21924486269E+04  0.21924486269E+04  0.25500000920E-02 0. -1.
        2   -1    0    0  501    0  0.00000000000E+00  0.00000000000E+00 -0.14519866723E+04  0.14519866723E+04  0.25500000920E-02 0.  1.
    10030    2    1    2    0    0  0.00000000000E+00  0.00000000000E+00  0.74046195465E+03  0.36444352992E+04  0.35684204831E+04 0.  0.
        4    1    3    3  502    0 -0.14657914418E+04  0.10131744823E+04  0.46348592925E+03  0.18411648220E+04  0.12699999809E+01 0. -1.
       -4    1    3    3    0  502  0.14657914418E+04 -0.10131744823E+04  0.27697602540E+03  0.18032704772E+04  0.12699999809E+01 0.  1.
</event>
<event>
 5   0  0.3212523E-08  0.3591745E+04  0.7818609E-02  0.8092385E-01
       -1   -1    0    0    0  501  0.00000000000E+00  0.00000000000E+00  0.16830271685E+04  0.16830271685E+04  0.50400001928E-02 0.  1.
        1   -1    0    0  501    0  0.00000000000E+00  0.00000000000E+00 -0.19162844495E+04  0.19162844495E+04  0.50400001928E-02 0. -1.
    10030    2    1    2    0    0  0.00000000000E+00  0.00000000000E+00 -0.23325728098E+03  0.35993116180E+04  0.35917454203E+04 0.  0.
        3    1    3    3  502    0  0.13792497318E+04 -0.97671235166E+03 -0.72524808694E+03  0.18390980503E+04  0.10100000352E+00 0.  1.
       -3    1    3    3    0  502 -0.13792497318E+04  0.97671235166E+03  0.49199080596E+03  0.17602135677E+04  0.10100000352E+00 0. -1.
</event>
<event>
 5   0  0.1017794E-07  0.3603069E+04  0.7818609E-02  0.8089789E-01
        2   -1    0    0  501    0  0.00000000000E+00  0.00000000000E+00  0.27244567494E+04  0.27244567494E+04  0.25500000920E-02 0.  1.
       -2   -1    0    0    0  501  0.00000000000E+00  0.00000000000E+00 -0.11912565347E+04  0.11912565347E+04  0.25500000920E-02 0. -1.
    10030    2    1    2    0    0  0.00000000000E+00  0.00000000000E+00  0.15332002147E+04  0.39157132840E+04  0.36030691951E+04 0.  0.
        1    1    3    3  502    0  0.56614008181E+03  0.15936761886E+04  0.14411067389E+04  0.22219601750E+04  0.50400001928E-02 0.  1.
       -1    1    3    3    0  502 -0.56614008181E+03 -0.15936761886E+04  0.92093475749E+02  0.16937531091E+04  0.50400001928E-02 0. -1.
</event>
<event>
 5   0  0.3202875E-08  0.3598476E+04  0.7818609E-02  0.8090841E-01
       -1   -1    0    0    0  501  0.00000000000E+00  0.00000000000E+00  0.23935229158E+04  0.23935229158E+04  0.50400001928E-02 0. -1.
        1   -1    0    0  501    0  0.00000000000E+00  0.00000000000E+00 -0.13525074404E+04  0.13525074404E+04  0.50400001928E-02 0.  1.
    10030    2    1    2    0    0  0.00000000000E+00  0.00000000000E+00  0.10410154754E+04  0.37460303563E+04  0.35984760955E+04 0.  0.
        2    1    3    3  502    0 -0.27887755271E+03 -0.31448928052E+02  0.23705976031E+04  0.23871520103E+04  0.25500000920E-02 0. -1.
       -2    1    3    3    0  502  0.27887755271E+03  0.31448928052E+02 -0.13295821278E+04  0.13588783459E+04  0.25500000920E-02 0.  1.
</event>
<event>
 5   0  0.3202875E-08  0.3594465E+04  0.7818609E-02  0.8091761E-01
        1   -1    0    0  501    0  0.00000000000E+00  0.00000000000E+00  0.23399431893E+04  0.23399431893E+04  0.50400001928E-02 0. -1.
       -1   -1    0    0    0  501  0.00000000000E+00  0.00000000000E+00 -0.13803945916E+04  0.13803945916E+04  0.50400001928E-02 0.  1.
    10030    2    1    2    0    0  0.00000000000E+00  0.00000000000E+00  0.95954859771E+03  0.37203377808E+04  0.35944651469E+04 0.  0.
        1    1    3    3  502    0 -0.10304721275E+04 -0.12247136073E+04 -0.36631685836E+03  0.16419452690E+04  0.50400001928E-02 0. -1.
       -1    1    3    3    0  502  0.10304721275E+04  0.12247136073E+04  0.13258654561E+04  0.20783925118E+04  0.50400001928E-02 0.  1.
</event>
<event>
 5   0  0.3212523E-08  0.3599571E+04  0.7818609E-02  0.8090590E-01
        1   -1    0    0  501    0  0.00000000000E+00  0.00000000000E+00  0.16572840018E+04  0.16572840018E+04  0.50400001928E-02 0. -1.
       -1   -1    0    0    0  501  0.00000000000E+00  0.00000000000E+00 -0.19545402254E+04  0.19545402254E+04  0.50400001928E-02 0.  1.
    10030    2    1    2    0    0  0.00000000000E+00  0.00000000000E+00 -0.29725622356E+03  0.36118242272E+04  0.35995712225E+04 0.  0.
        3    1    3    3  502    0 -0.16502553619E+04 -0.10376764335E+03 -0.86176376898E+03  0.18646037882E+04  0.10100000352E+00 0. -1.
       -3    1    3    3    0  502  0.16502553619E+04  0.10376764335E+03  0.56450754542E+03  0.17472204390E+04  0.10100000352E+00 0.  1.
</event>
<event>
 5   0  0.3202875E-08  0.3593569E+04  0.7818609E-02  0.8091966E-01
       -1   -1    0    0    0  501  0.00000000000E+00  0.00000000000E+00  0.17705030635E+04  0.17705030635E+04  0.50400001928E-02 0. -1.
        1   -1    0    0  501    0  0.00000000000E+00  0.00000000000E+00 -0.18234558741E+04  0.18234558741E+04  0.50400001928E-02 0.  1.
    10030    2    1    2    0    0  0.00000000000E+00  0.00000000000E+00 -0.52952810571E+02  0.35939589376E+04  0.35935688173E+04 0.  0.
        1    1    3    3  502    0 -0.17042963070E+04 -0.15567476715E+03  0.52091625384E+03  0.17889142738E+04  0.50400001928E-02 0. -1.
       -1    1    3    3    0  502  0.17042963070E+04  0.15567476715E+03 -0.57386906441E+03  0.18050446638E+04  0.50400001928E-02 0.  1.
</event>
<event>
 5   0  0.3202875E-08  0.3575523E+04  0.7818609E-02  0.8096122E-01
        1   -1    0    0  501    0  0.00000000000E+00  0.00000000000E+00  0.18620393637E+04  0.18620393637E+04  0.50400001928E-02 0. -1.
       -1   -1    0    0    0  501  0.00000000000E+00  0.00000000000E+00 -0.17164461959E+04  0.17164461959E+04  0.50400001928E-02 0.  1.
    10030    2    1    2    0    0  0.00000000000E+00  0.00000000000E+00  0.14559316777E+03  0.35784855596E+04  0.35755225534E+04 0.  0.
        1    1    3    3  502    0 -0.15350211570E+04  0.84605612220E+03 -0.27961659896E+03  0.17749046050E+04  0.50400001928E-02 0.  1.
       -1    1    3    3    0  502  0.15350211570E+04 -0.84605612220E+03  0.42520976673E+03  0.18035809547E+04  0.50400001928E-02 0. -1.
</event>
<event>
 5   0  0.3202875E-08  0.3603823E+04  0.7818609E-02  0.8089616E-01
       -1   -1    0    0    0  501  0.00000000000E+00  0.00000000000E+00  0.17639932233E+04  0.17639932233E+04  0.50400001928E-02 0.  1.
        1   -1    0    0  501    0  0.00000000000E+00  0.00000000000E+00 -0.18406452478E+04  0.18406452478E+04  0.50400001928E-02 0. -1.
    10030    2    1    2    0    0  0.00000000000E+00  0.00000000000E+00 -0.76652024434E+02  0.36046384711E+04  0.36038233828E+04 0.  0.
        2    1    3    3  502    0 -0.25743098963E+03 -0.13330919984E+04  0.11466278621E+04  0.17771213928E+04  0.25500000920E-02 0.  1.
       -2    1    3    3    0  502  0.25743098963E+03  0.13330919984E+04 -0.12232798865E+04  0.18275170783E+04  0.25500000920E-02 0. -1.
</event>
<event>
 5   0  0.3202875E-08  0.3602293E+04  0.7818609E-02  0.8089967E-01
       -1   -1    0    0    0  501  0.00000000000E+00  0.00000000000E+00  0.16932657084E+04  0.16932657084E+04  0.50400001928E-02 0.  1.
        1   -1    0    0  501    0  0.00000000000E+00  0.00000000000E+00 -0.19159003358E+04  0.19159003358E+04  0.50400001928E-02 0. -1.
    10030    2    1    2    0    0  0.00000000000E+00  0.00000000000E+00 -0.22263462741E+03  0.36091660442E+04  0.36022927918E+04 0.  0.
        1    1    3    3  502    0  0.43515918375E+03  0.12872290759E+04 -0.12958616597E+04  0.18776526969E+04  0.50400001928E-02 0. -1.
       -1    1    3    3    0  502 -0.43515918375E+03 -0.12872290759E+04  0.10732270323E+04  0.17315133473E+04  0.50400001928E-02 0.  1.
</event>
<event>
 5   0  0.1044678E-07  0.3598075E+04  0.7818609E-02  0.8090933E-01
       -2   -1    0    0    0  501  0.00000000000E+00  0.00000000000E+00  0.10965663789E+04  0.10965663789E+04  0.25500000920E-02 0.  1.
        2   -1    0    0  501    0  0.00000000000E+00  0.00000000000E+00 -0.29515188455E+04  0.29515188455E+04  0.25500000920E-02 0. -1.
    10030    2    1    2    0    0  0.00000000000E+00  0.00000000000E+00 -0.18549524666E+04  0.40480852244E+04  0.35980752258E+04 0.  0.
        2    1    3    3  502    0  0.10854068161E+04 -0.13719959594E+04 -0.13995437982E+04  0.22403579429E+04  0.25500000920E-02 0. -1.
       -2    1    3    3    0  502 -0.10854068161E+04  0.13719959594E+04 -0.45540866833E+03  0.18077272815E+04  0.25500000920E-02 0.  1.
</event>
<event>
 5   0  0.3202875E-08  0.3601446E+04  0.7818609E-02  0.8090160E-01
        1   -1    0    0  501    0  0.00000000000E+00  0.00000000000E+00  0.25411039787E+04  0.25411039787E+04  0.50400001928E-02 0.  1.
       -1   -1    0    0    0  501  0.00000000000E+00  0.00000000000E+00 -0.12760611027E+04  0.12760611027E+04  0.50400001928E-02 0. -1.
    10030    2    1    2    0    0  0.00000000000E+00  0.00000000000E+00  0.12650428760E+04  0.38171650813E+04  0.36014463456E+04 0.  0.
        2    1    3    3  502    0 -0.31146789951E+03 -0.13969383361E+04  0.17907501853E+04  0.22924299757E+04  0.25500000920E-02 0.  1.
       -2    1    3    3    0  502  0.31146789951E+03  0.13969383361E+04 -0.52570730925E+03  0.15247351056E+04  0.25500000920E-02 0. -1.
</event>
<event>
 5   0  0.3279988E-08  0.3596963E+04  0.7818609E-02  0.8091188E-01
       -1   -1    0    0    0  501  0.00000000000E+00  0.00000000000E+00  0.26495877211E+04  0.26495877211E+04  0.50400001928E-02 0.  1.
        1   -1    0    0  501    0  0.00000000000E+00  0.00000000000E+00 -0.12207694163E+04  0.12207694163E+04  0.50400001928E-02 0. -1.
    10030    2    1    2    0    0  0.00000000000E+00  0.00000000000E+00  0.14288183048E+04  0.38703571374E+04  0.35969629721E+04 0.  0.
        5    1    3    3  502    0 -0.39785329086E+03 -0.16401808741E+04  0.13829490094E+04  0.21819831790E+04  0.46999998093E+01 0.  1.
       -5    1    3    3    0  502  0.39785329086E+03  0.16401808741E+04  0.45869295371E+02  0.16883739583E+04  0.46999998093E+01 0. -1.
</event>
<event>
 5   0  0.1017794E-07  0.3601260E+04  0.7818609E-02  0.8090203E-01
       -2   -1    0    0    0  501  0.00000000000E+00  0.00000000000E+00  0.15562370794E+04  0.15562370794E+04  0.25500000920E-02 0.  1.
        2   -1    0    0  501    0  0.00000000000E+00  0.00000000000E+00 -0.20834020653E+04  0.20834020653E+04  0.25500000920E-02 0. -1.
    10030    2    1    2    0    0  0.00000000000E+00  0.00000000000E+00 -0.52716498589E+03  0.36396391446E+04  0.36012595270E+04 0.  0.
        1    1    3    3  502    0 -0.18895489402E+03  0.74245406308E+03 -0.19104656760E+04  0.20583539752E+04  0.50400001928E-02 0. -1.
       -1    1    3    3    0  502  0.18895489402E+03 -0.74245406308E+03  0.13833006901E+04  0.15812851695E+04  0.50400001928E-02 0.  1.
</event>
<event>
 5   0  0.1017794E-07  0.3658297E+04  0.7818609E-02  0.8077267E-01
       -2   -1    0    0    0  501  0.00000000000E+00  0.00000000000E+00  0.17682940130E+04  0.17682940130E+04  0.25500000920E-02 0.  1.
        2   -1    0    0  501    0  0.00000000000E+00  0.00000000000E+00 -0.18920977482E+04  0.18920977482E+04  0.25500000920E-02 0. -1.
    10030    2    1    2    0    0  0.00000000000E+00  0.00000000000E+00 -0.12380373520E+03  0.36603917612E+04  0.36582974839E+04 0.  0.
        1    1    3    3  502    0  0.63868513227E+03 -0.72964991138E+03  0.14899461790E+04  0.17777084429E+04  0.50400001928E-02 0.  1.
       -1    1    3    3    0  502 -0.63868513227E+03  0.72964991138E+03 -0.16137499142E+04  0.18826833183E+04  0.50400001928E-02 0. -1.
</event>
<event>
 5   0  0.1044678E-07  0.3600964E+04  0.7818609E-02  0.8090271E-01
       -2   -1    0    0    0  501  0.00000000000E+00  0.00000000000E+00  0.13619808629E+04  0.13619808629E+04  0.25500000920E-02 0.  1.
        2   -1    0    0  501    0  0.00000000000E+00  0.00000000000E+00 -0.23801625457E+04  0.23801625457E+04  0.25500000920E-02 0. -1.
    10030    2    1    2    0    0  0.00000000000E+00  0.00000000000E+00 -0.10181816828E+04  0.37421434086E+04  0.36009642252E+04 0.  0.
        2    1    3    3  502    0  0.14622345078E+04 -0.24675917699E+03 -0.15702600428E+04  0.21598000947E+04  0.25500000920E-02 0. -1.
       -2    1    3    3    0  502 -0.14622345078E+04  0.24675917699E+03  0.55207836003E+03  0.15823433138E+04  0.25500000920E-02 0.  1.
</event>
<event>
 5   0  0.9905335E-08  0.3599036E+04  0.7818609E-02  0.8090713E-01
        2   -1    0    0  501    0  0.00000000000E+00  0.00000000000E+00  0.23939197516E+04  0.23939197516E+04  0.25500000920E-02 0.  1.
       -2   -1    0    0    0  501  0.00000000000E+00  0.00000000000E+00 -0.13527040698E+04  0.13527040698E+04  0.25500000920E-02 0. -1.
    10030    2    1    2    0    0  0.00000000000E+00  0.00000000000E+00  0.10412156818E+04  0.37466238214E+04  0.35990359769E+04 0.  0.
        5    1    3    3  502    0  0.10766055964E+04  0.14386873090E+04  0.62122604485E+03  0.19012744863E+04  0.46999998093E+01 0. -1.
       -5    1    3    3    0  502 -0.10766055964E+04 -0.14386873090E+04  0.41998963698E+03  0.18453493351E+04  0.46999998093E+01 0.  1.
</event>
<event>
 5   0  0.3215494E-08  0.3598876E+04  0.7818609E-02  0.8090749E-01
        1   -1    0    0  501    0  0.00000000000E+00  0.00000000000E+00  0.16683152876E+04  0.16683152876E+04  0.50400001928E-02 0. -1.
       -1   -1    0    0    0  501  0.00000000000E+00  0.00000000000E+00 -0.19408663259E+04  0.19408663259E+04  0.50400001928E-02 0.  1.
    10030    2    1    2    0    0  0.00000000000E+00  0.00000000000E+00 -0.27255103829E+03  0.36091816135E+04  0.35988759149E+04 0.  0.
        4    1    3    3  502    0  0.10658569753E+04  0.37013726525E+03  0.12694955270E+04  0.16984325695E+04  0.12699999809E+01 0. -1.
       -4    1    3    3    0  502 -0.10658569753E+04 -0.37013726525E+03 -0.15420465653E+04  0.19107490441E+04  0.12699999809E+01 0.  1.
</event>
<event>
 5   0  0.1017794E-07  0.3600715E+04  0.7818609E-02  0.8090328E-01
       -2   -1    0    0    0  501  0.00000000000E+00  0.00000000000E+00  0.30163361213E+04  0.30163361213E+04  0.25500000920E-02 0. -1.
        2   -1    0    0  501    0  0.00000000000E+00  0.00000000000E+00 -0.10745774279E+04  0.10745774279E+04  0.25500000920E-02 0.  1.
    10030    2    1    2    0    0  0.00000000000E+00  0.00000000000E+00  0.19417586934E+04  0.40909135492E+04  0.36007147684E+04 0.  0.
        1    1    3    3  502    0  0.12446320419E+03  0.13150160135E+04  0.23607490199E+04  0.27051606496E+04  0.50400001928E-02 0. -1.
       -1    1    3    3    0  502 -0.12446320419E+03 -0.13150160135E+04 -0.41899032653E+03  0.13857528996E+04  0.50400001928E-02 0.  1.
</event>
<event>
 5   0  0.3202875E-08  0.3604587E+04  0.7818609E-02  0.8089442E-01
       -1   -1    0    0    0  501  0.00000000000E+00  0.00000000000E+00  0.15200251929E+04  0.15200251929E+04  0.50400001928E-02 0. -1.
        1   -1    0    0  501    0  0.00000000000E+00  0.00000000000E+00 -0.21369790562E+04  0.21369790562E+04  0.50400001928E-02 0.  1.
    10030    2    1    2    0    0  0.00000000000E+00  0.00000000000E+00 -0.61695386332E+03  0.36570042491E+04  0.36045870787E+04 0.  0.
        1    1    3    3  502    0 -0.13467175147E+04 -0.18815544168E+03  0.89160700113E+03  0.16260423054E+04  0.50400001928E-02 0. -1.
       -1    1    3    3    0  502  0.13467175147E+04  0.18815544168E+03 -0.15085608644E+04  0.20309619436E+04  0.50400001928E-02 0.  1.
</event>
<event>
 5   0  0.3202875E-08  0.3606528E+04  0.7818609E-02  0.8088998E-01
       -1   -1    0    0    0  501  0.00000000000E+00  0.00000000000E+00  0.33336238405E+04  0.33336238405E+04  0.50400001928E-02 0. -1.
        1   -1    0    0  501    0  0.00000000000E+00  0.00000000000E+00 -0.97544328500E+03  0.97544328501E+03  0.50400001928E-02 0.  1.
    10030    2    1    2    0    0  0.00000000000E+00  0.00000000000E+00  0.23581805555E+04  0.43090671255E+04  0.36065279647E+04 0.  0.
        2    1    3    3  502    0 -0.12569099185E+02  0.58309648805E+03 -0.85964070126E+03  0.10388174199E+04  0.25500000920E-02 0.  1.
       -2    1    3    3    0  502  0.12569099185E+02 -0.58309648805E+03  0.32178212567E+04  0.32702497056E+04  0.25500000920E-02 0. -1.
</event>
<event>
 5   0  0.3212523E-08  0.3595691E+04  0.7818609E-02  0.8091479E-01
        1   -1    0    0  501    0  0.00000000000E+00  0.00000000000E+00  0.22935139965E+04  0.22935139965E+04  0.50400001928E-02 0.  1.
       -1   -1    0    0    0  501  0.00000000000E+00  0.00000000000E+00 -0.14092994156E+04  0.14092994156E+04  0.50400001928E-02 0. -1.
    10030    2    1    2    0    0  0.00000000000E+00  0.00000000000E+00  0.88421458093E+03  0.37028134121E+04  0.35956907180E+04 0.  0.
        3    1    3    3  502    0 -0.16367363619E+04  0.14497503581E+03 -0.30923463363E+03  0.16719897572E+04  0.10100000352E+00 0. -1.
       -3    1    3    3    0  502  0.16367363619E+04 -0.14497503581E+03  0.11934492146E+04  0.20308236549E+04  0.10100000352E+00 0.  1.
</event>
<event>
 5   0  0.3279988E-08  0.3595329E+04  0.7818609E-02  0.8091563E-01
        1   -1    0    0  501    0  0.00000000000E+00  0.00000000000E+00  0.25997985943E+04  0.25997985943E+04  0.50400001928E-02 0.  1.
       -1   -1    0    0    0  501  0.00000000000E+00  0.00000000000E+00 -0.12430183444E+04  0.12430183444E+04  0.50400001928E-02 0. -1.
    10030    2    1    2    0    0  0.00000000000E+00  0.00000000000E+00  0.13567802499E+04  0.38428169388E+04  0.35953288276E+04 0.  0.
        5    1    3    3  502    0 -0.20834607840E+03  0.21560302906E+03  0.25728797265E+04  0.25902943716E+04  0.46999998093E+01 0.  1.
       -5    1    3    3    0  502  0.20834607840E+03 -0.21560302906E+03 -0.12160994765E+04  0.12525225672E+04  0.46999998093E+01 0. -1.
</event>
<event>
 5   0  0.3202875E-08  0.3601090E+04  0.7818609E-02  0.8090242E-01
        1   -1    0    0  501    0  0.00000000000E+00  0.00000000000E+00  0.14598110170E+04  0.14598110170E+04  0.50400001928E-02 0.  1.
       -1   -1    0    0    0  501  0.00000000000E+00  0.00000000000E+00 -0.22208094567E+04  0.22208094567E+04  0.50400001928E-02 0. -1.
    10030    2    1    2    0    0  0.00000000000E+00  0.00000000000E+00 -0.76099843964E+03  0.36806204737E+04  0.36010898970E+04 0.  0.
        2    1    3    3  502    0 -0.16439621414E+04 -0.72751091372E+03 -0.27789052624E+03  0.18190950487E+04  0.25500000920E-02 0.  1.
       -2    1    3    3    0  502  0.16439621414E+04  0.72751091372E+03 -0.48310791340E+03  0.18615254250E+04  0.25500000920E-02 0. -1.
</event>
<event>
 5   0  0.1017794E-07  0.3598467E+04  0.7818609E-02  0.8090843E-01
       -2   -1    0    0    0  501  0.00000000000E+00  0.00000000000E+00  0.14498772853E+04  0.14498772853E+04  0.25500000920E-02 0.  1.
        2   -1    0    0  501    0  0.00000000000E+00  0.00000000000E+00 -0.22327695370E+04  0.22327695370E+04  0.25500000920E-02 0. -1.
    10030    2    1    2    0    0  0.00000000000E+00  0.00000000000E+00 -0.78289225171E+03  0.36826468223E+04  0.35984673599E+04 0.  0.
        1    1    3    3  502    0  0.98870091469E+03  0.11946452943E+04  0.54233209824E+03  0.16428119134E+04  0.50400001928E-02 0. -1.
       -1    1    3    3    0  502 -0.98870091469E+03 -0.11946452943E+04 -0.13252243499E+04  0.20398349089E+04  0.50400001928E-02 0.  1.
</event>
<event>
 5   0  0.1021087E-07  0.3606701E+04  0.7818609E-02  0.8088958E-01
        2   -1    0    0  501    0  0.00000000000E+00  0.00000000000E+00  0.15077168764E+04  0.15077168764E+04  0.25500000920E-02 0.  1.
       -2   -1    0    0    0  501  0.00000000000E+00  0.00000000000E+00 -0.21569520951E+04  0.21569520951E+04  0.25500000920E-02 0. -1.
    10030    2    1    2    0    0  0.00000000000E+00  0.00000000000E+00 -0.64923521873E+03  0.36646689715E+04  0.36067010275E+04 0.  0.
        3    1    3    3  502    0  0.14863876098E+04  0.24943128791E+03 -0.13307390252E+04  0.20105796322E+04  0.10100000352E+00 0. -1.
       -3    1    3    3    0  502 -0.14863876098E+04 -0.24943128791E+03  0.68150380647E+03  0.16540893393E+04  0.10100000352E+00 0.  1.
</event>
<event>
 5   0  0.3202875E-08  0.3605160E+04  0.7818609E-02  0.8089311E-01
       -1   -1    0    0    0  501  0.00000000000E+00  0.00000000000E+00  0.18722474389E+04  0.18722474389E+04  0.50400001928E-02 0.  1.
        1   -1    0    0  501    0  0.00000000000E+00  0.00000000000E+00 -0.17355044911E+04  0.17355044911E+04  0.50400001928E-02 0. -1.
    10030    2    1    2    0    0  0.00000000000E+00  0.00000000000E+00  0.13674294781E+03  0.36077519300E+04  0.36051595463E+04 0.  0.
        1    1    3    3  502    0 -0.10346215442E+04 -0.13232026360E+04 -0.58630601501E+03  0.17790620278E+04  0.50400001928E-02 0.  1.
       -1    1    3    3    0  502  0.10346215442E+04  0.13232026360E+04  0.72304896282E+03  0.18286899022E+04  0.50400001928E-02 0. -1.
</event>
<event>
 5   0  0.3202875E-08  0.3598663E+04  0.7818609E-02  0.8090798E-01
        1   -1    0    0  501    0  0.00000000000E+00  0.00000000000E+00  0.10866737121E+04  0.10866737122E+04  0.50400001928E-02 0.  1.
       -1   -1    0    0    0  501  0.00000000000E+00  0.00000000000E+00 -0.29793616321E+04  0.29793616321E+04  0.50400001928E-02 0. -1.
    10030    2    1    2    0    0  0.00000000000E+00  0.00000000000E+00 -0.18926879200E+04  0.40660353443E+04  0.35986630654E+04 0.  0.
        2    1    3    3  502    0 -0.91014507902E+03 -0.15215294355E+04 -0.12930846994E+04  0.21944210918E+04  0.25500000920E-02 0. -1.
       -2    1    3    3    0  502  0.91014507902E+03  0.15215294355E+04 -0.59960322057E+03  0.18716142525E+04  0.25500000920E-02 0.  1.
</event>
<event>
 5   0  0.3202875E-08  0.3571616E+04  0.7818609E-02  0.8097024E-01
       -1   -1    0    0    0  501  0.00000000000E+00  0.00000000000E+00  0.11886472605E+04  0.11886472605E+04  0.50400001928E-02 0.  1.
        1   -1    0    0  501    0  0.00000000000E+00  0.00000000000E+00 -0.26829750731E+04  0.26829750731E+04  0.50400001928E-02 0. -1.
    10030    2    1    2    0    0  0.00000000000E+00  0.00000000000E+00 -0.14943278126E+04  0.38716223336E+04  0.35716164243E+04 0.  0.
        1    1    3    3  502    0  0.12960591759E+04  0.30982336885E+03  0.54154016328E+03  0.14384108092E+04  0.50400001928E-02 0.  1.
       -1    1    3    3    0  502 -0.12960591759E+04 -0.30982336885E+03 -0.20358679759E+04  0.24332115245E+04  0.50400001928E-02 0. -1.
</event>
<event>
 5   0  0.3215494E-08  0.3605637E+04  0.7818609E-02  0.8089202E-01
       -1   -1    0    0    0  501  0.00000000000E+00  0.00000000000E+00  0.14229346139E+04  0.14229346139E+04  0.50400001928E-02 0.  1.
        1   -1    0    0  501    0  0.00000000000E+00  0.00000000000E+00 -0.22841214086E+04  0.22841214086E+04  0.50400001928E-02 0. -1.
    10030    2    1    2    0    0  0.00000000000E+00  0.00000000000E+00 -0.86118679469E+03  0.37070560226E+04  0.36056374830E+04 0.  0.
        4    1    3    3  502    0 -0.21942274633E+03  0.13172451282E+04  0.81461863120E+03  0.15642526000E+04  0.12699999809E+01 0.  1.
       -4    1    3    3    0  502  0.21942274633E+03 -0.13172451282E+04 -0.16758054259E+04  0.21428034226E+04  0.12699999809E+01 0. -1.
</event>
<event>
 5   0  0.3212523E-08  0.3601807E+04  0.7818609E-02  0.8090078E-01
        1   -1    0    0  501    0  0.00000000000E+00  0.00000000000E+00  0.14657418544E+04  0.14657418544E+04  0.50400001928E-02 0. -1.
       -1   -1    0    0    0  501  0.00000000000E+00  0.00000000000E+00 -0.22127045716E+04  0.22127045716E+04  0.50400001928E-02 0.  1.
    10030    2    1    2    0    0  0.00000000000E+00  0.00000000000E+00 -0.74696271715E+03  0.36784464260E+04  0.36018071586E+04 0.  0.
        3    1    3    3  502    0 -0.56591841942E+03  0.16215382628E+04  0.17990027102E+03  0.17268509238E+04  0.10100000352E+00 0.  1.
       -3    1    3    3    0  502  0.56591841942E+03 -0.16215382628E+04 -0.92686298818E+03  0.19515955022E+04  0.10100000352E+00 0. -1.
</event>
<event>
 5   0  0.1017794E-07  0.3600120E+04  0.7818609E-02  0.8090464E-01
       -2   -1    0    0    0  501  0.00000000000E+00  0.00000000000E+00  0.12376484186E+04  0.12376484186E+04  0.25500000920E-02 0. -1.
        2   -1    0    0  501    0  0.00000000000E+00  0.00000000000E+00 -0.26180421570E+04  0.26180421570E+04  0.25500000920E-02 0.  1.
    10030    2    1    2    0    0  0.00000000000E+00  0.00000000000E+00 -0.13803937384E+04  0.38556905755E+04  0.36001198509E+04 0.  0.
        1    1    3    3  502    0 -0.13905938355E+04  0.10978489933E+04 -0.10308862020E+04  0.20498170623E+04  0.50400001928E-02 0.  1.
       -1    1    3    3    0  502  0.13905938355E+04 -0.10978489933E+04 -0.34950753645E+03  0.18058735132E+04  0.50400001928E-02 0. -1.
</event>
<event>
 5   0  0.3279988E-08  0.3606021E+04  0.7818609E-02  0.8089114E-01
        1   -1    0    0  501    0  0.00000000000E+00  0.00000000000E+00  0.18017869788E+04  0.18017869788E+04  0.50400001928E-02 0.  1.
       -1   -1    0    0    0  501  0.00000000000E+00  0.00000000000E+00 -0.18042352854E+04  0.18042352854E+04  0.50400001928E-02 0. -1.
    10030    2    1    2    0    0  0.00000000000E+00  0.00000000000E+00 -0.24483066413E+01  0.36060222642E+04  0.36060214331E+04 0.  0.
        5    1    3    3  502    0 -0.12295609849E+04  0.62868744837E+03 -0.11604299376E+04  0.18037981742E+04  0.46999998093E+01 0. -1.
       -5    1    3    3    0  502  0.12295609849E+04 -0.62868744837E+03  0.11579816309E+04  0.18022240901E+04  0.46999998093E+01 0.  1.
</event>
<event>
 5   0  0.1044678E-07  0.3578527E+04  0.7818609E-02  0.8095428E-01
        2   -1    0    0  501    0  0.00000000000E+00  0.00000000000E+00  0.17146121522E+04  0.17146121522E+04  0.25500000920E-02 0.  1.
       -2   -1    0    0    0  501  0.00000000000E+00  0.00000000000E+00 -0.18671655077E+04  0.18671655077E+04  0.25500000920E-02 0. -1.
    10030    2    1    2    0    0  0.00000000000E+00  0.00000000000E+00 -0.15255335552E+03  0.35817776600E+04  0.35785274456E+04 0.  0.
        2    1    3    3  502    0  0.14492058908E+03 -0.16601284897E+04  0.57580263692E+03  0.17631157807E+04  0.25500000920E-02 0.  1.
       -2    1    3    3    0  502 -0.14492058908E+03  0.16601284897E+04 -0.72835599244E+03  0.18186618793E+04  0.25500000920E-02 0. -1.
</event>
<event>
 5   0  0.3215494E-08  0.3610420E+04  0.7818609E-02  0.8088109E-01
        1   -1    0    0  501    0  0.00000000000E+00  0.00000000000E+00  0.26822385040E+04  0.26822385040E+04  0.50400001928E-02 0. -1.
       -1   -1    0    0    0  501  0.00000000000E+00  0.00000000000E+00 -0.12149491946E+04  0.12149491946E+04  0.50400001928E-02 0.  1.
    10030    2    1    2    0    0  0.00000000000E+00  0.00000000000E+00  0.14672893095E+04  0.38971876986E+04  0.36104202027E+04 0.  0.
        4    1    3    3  502    0 -0.16532787796E+04 -0.72358665272E+03  0.78036692067E+03  0.19661847601E+04  0.12699999809E+01 0. -1.
       -4    1    3    3    0  502  0.16532787796E+04  0.72358665272E+03  0.68692238881E+03  0.19310029385E+04  0.12699999809E+01 0.  1.
</event>
<event>
 5   0  0.1021087E-07  0.3602619E+04  0.7818609E-02  0.8089892E-01
       -2   -1    0    0    0  501  0.00000000000E+00  0.00000000000E+00  0.16957467927E+04  0.16957467927E+04  0.25500000920E-02 0.  1.
        2   -1    0    0  501    0  0.00000000000E+00  0.00000000000E+00 -0.19134437115E+04  0.19134437115E+04  0.25500000920E-02 0. -1.
    10030    2    1    2    0    0  0.00000000000E+00  0.00000000000E+00 -0.21769691878E+03  0.36091905041E+04  0.36026190677E+04 0.  0.
        3    1    3    3  502    0  0.10518057507E+04  0.58103868688E+03  0.12355437292E+04  0.17235050362E+04  0.10100000352E+00 0.  1.
       -3    1    3    3    0  502 -0.10518057507E+04 -0.58103868688E+03 -0.14532406480E+04  0.18856854679E+04  0.10100000352E+00 0. -1.
</event>
<event>
 5   0  0.3202875E-08  0.3599951E+04  0.7818609E-02  0.8090503E-01
        1   -1    0    0  501    0  0.00000000000E+00  0.00000000000E+00  0.20761388693E+04  0.20761388694E+04  0.50400001928E-02 0. -1.
       -1   -1    0    0    0  501  0.00000000000E+00  0.00000000000E+00 -0.15605468333E+04  0.15605468333E+04  0.50400001928E-02 0.  1.
    10030    2    1    2    0    0  0.00000000000E+00  0.00000000000E+00  0.51559203605E+03  0.36366857027E+04  0.35999510764E+04 0.  0.
        1    1    3    3  502    0  0.97753440070E+03  0.55575134024E+03 -0.11620634640E+04  0.16170419139E+04  0.50400001928E-02 0.  1.
       -1    1    3    3    0  502 -0.97753440070E+03 -0.55575134024E+03  0.16776555001E+04  0.20196437888E+04  0.50400001928E-02 0. -1.
</event>
<event>
 5   0  0.1021087E-07  0.3607936E+04  0.7818609E-02  0.8088676E-01
       -2   -1    0    0    0  501  0.00000000000E+00  0.00000000000E+00  0.20412024988E+04  0.20412024988E+04  0.25500000920E-02 0.  1.
        2   -1    0    0  501    0  0.00000000000E+00  0.00000000000E+00 -0.15943057794E+04  0.15943057794E+04  0.25500000920E-02 0. -1.
    10030    2    1    2    0    0  0.00000000000E+00  0.00000000000E+00  0.44689671938E+03  0.36355082782E+04  0.36079362194E+04 0.  0.
        3    1    3    3  502    0 -0.41955665589E+03 -0.55068009459E+03 -0.14551225920E+04  0.16114149441E+04  0.10100000352E+00 0. -1.
       -3    1    3    3    0  502  0.41955665589E+03  0.55068009459E+03  0.19020193114E+04  0.20240933341E+04  0.10100000352E+00 0.  1.
</event>
<event>
 5   0  0.3279988E-08  0.3600615E+04  0.7818609E-02  0.8090351E-01
        1   -1    0    0  501    0  0.00000000000E+00  0.00000000000E+00  0.18140880787E+04  0.18140880787E+04  0.50400001928E-02 0. -1.
       -1   -1    0    0    0  501  0.00000000000E+00  0.00000000000E+00 -0.17866315377E+04  0.17866315377E+04  0.50400001928E-02 0.  1.
    10030    2    1    2    0    0  0.00000000000E+00  0.00000000000E+00  0.27456541012E+02  0.36007196164E+04  0.36006149328E+04 0.  0.
        5    1    3    3  502    0  0.84000960862E+03  0.15886665039E+04 -0.94012879430E+02  0.17995382504E+04  0.46999998093E+01 0.  1.
       -5    1    3    3    0  502 -0.84000960862E+03 -0.15886665039E+04  0.12146942044E+03  0.18011813660E+04  0.46999998093E+01 0. -1.
</event>
<event>
 5   0  0.3279988E-08  0.3596336E+04  0.7818609E-02  0.8091331E-01
        1   -1    0    0  501    0  0.00000000000E+00  0.00000000000E+00  0.24792866614E+04  0.24792866614E+04  0.50400001928E-02 0.  1.
       -1   -1    0    0    0  501  0.00000000000E+00  0.00000000000E+00 -0.13041688949E+04  0.13041688949E+04  0.50400001928E-02 0. -1.
    10030    2    1    2    0    0  0.00000000000E+00  0.00000000000E+00  0.11751177665E+04  0.37834555564E+04  0.35963362165E+04 0.  0.
        5    1    3    3  502    0 -0.47886600275E+03  0.14704019722E+03 -0.12292747188E+04  0.13274305603E+04  0.46999998093E+01 0. -1.
       -5    1    3    3    0  502  0.47886600275E+03 -0.14704019722E+03  0.24043924853E+04  0.24560249961E+04  0.46999998093E+01 0.  1.
</event>
<event>
 5   0  0.3212523E-08  0.3604300E+04  0.7818609E-02  0.8089507E-01
        1   -1    0    0  501    0  0.00000000000E+00  0.00000000000E+00  0.16962324237E+04  0.16962324237E+04  0.50400001928E-02 0.  1.
       -1   -1    0    0    0  501  0.00000000000E+00  0.00000000000E+00 -0.19146818932E+04  0.19146818932E+04  0.50400001928E-02 0. -1.
    10030    2    1    2    0    0  0.00000000000E+00  0.00000000000E+00 -0.21844946950E+03  0.36109143169E+04  0.36043004916E+04 0.  0.
        3    1    3    3  502    0 -0.49889326148E+03 -0.37175507540E+03 -0.18036736970E+04  0.19079662308E+04  0.10100000352E+00 0. -1.
       -3    1    3    3    0  502  0.49889326148E+03  0.37175507540E+03  0.15852242275E+04  0.17029480861E+04  0.10100000352E+00 0.  1.
</event>
<event>
 5   0  0.9905335E-08  0.3602149E+04  0.7818609E-02  0.8090000E-01
        2   -1    0    0  501    0  0.00000000000E+00  0.00000000000E+00  0.17138478046E+04  0.17138478046E+04  0.25500000920E-02 0.  1.
       -2   -1    0    0    0  501  0.00000000000E+00  0.00000000000E+00 -0.18927409324E+04  0.18927409324E+04  0.25500000920E-02 0. -1.
    10030    2    1    2    0    0  0.00000000000E+00  0.00000000000E+00 -0.17889312779E+03  0.36065887371E+04  0.36021492983E+04 0.  0.
        5    1    3    3  502    0 -0.11349299759E+04 -0.93170589131E+03  0.95477017791E+03  0.17514993865E+04  0.46999998093E+01 0.  1.
       -5    1    3    3    0  502  0.11349299759E+04  0.93170589131E+03 -0.11336633057E+04  0.18550893506E+04  0.46999998093E+01 0. -1.
</event>
<event>
 5   0  0.1017794E-07  0.3597017E+04  0.7818609E-02  0.8091175E-01
        2   -1    0    0  501    0  0.00000000000E+00  0.00000000000E+00  0.25219196788E+04  0.25219196788E+04  0.25500000920E-02 0. -1.
       -2   -1    0    0    0  501  0.00000000000E+00  0.00000000000E+00 -0.12826072094E+04  0.12826072094E+04  0.25500000920E-02 0.  1.
    10030    2    1    2    0    0  0.00000000000E+00  0.00000000000E+00  0.12393124694E+04  0.38045268882E+04  0.35970167425E+04 0.  0.
        1    1    3    3  502    0  0.14537798289E+04  0.78921522518E+03 -0.12696760867E+03  0.16590531143E+04  0.50400001928E-02 0.  1.
       -1    1    3    3    0  502 -0.14537798289E+04 -0.78921522518E+03  0.13662800781E+04  0.21454737739E+04  0.50400001928E-02 0. -1.
</event>
<event>
 5   0  0.1017794E-07  0.3590167E+04  0.7818609E-02  0.8092748E-01
        2   -1    0    0  501    0  0.00000000000E+00  0.00000000000E+00  0.12929821938E+04  0.12929821938E+04  0.25500000920E-02 0. -1.
       -2   -1    0    0    0  501  0.00000000000E+00  0.00000000000E+00 -0.24921648871E+04  0.24921648871E+04  0.25500000920E-02 0.  1.
    10030    2    1    2    0    0  0.00000000000E+00  0.00000000000E+00 -0.11991826933E+04  0.37851470810E+04  0.35901670285E+04 0.  0.
        1    1    3    3  502    0  0.98083692618E+03 -0.82092266878E+03 -0.19275064526E+04  0.23132739199E+04  0.50400001928E-02 0.  1.
       -1    1    3    3    0  502 -0.98083692618E+03  0.82092266878E+03  0.72832375927E+03  0.14718731611E+04  0.50400001928E-02 0. -1.
</event>
<event>
 5   0  0.3202875E-08  0.3594029E+04  0.7818609E-02  0.8091861E-01
       -1   -1    0    0    0  501  0.00000000000E+00  0.00000000000E+00  0.24205994114E+04  0.24205994114E+04  0.50400001928E-02 0.  1.
        1   -1    0    0  501    0  0.00000000000E+00  0.00000000000E+00 -0.13340748684E+04  0.13340748684E+04  0.50400001928E-02 0. -1.
    10030    2    1    2    0    0  0.00000000000E+00  0.00000000000E+00  0.10865245430E+04  0.37546742799E+04  0.35940288487E+04 0.  0.
        2    1    3    3  502    0  0.60502249205E+03 -0.33923312388E+03  0.22751084155E+04  0.23784973472E+04  0.25500000920E-02 0.  1.
       -2    1    3    3    0  502 -0.60502249205E+03  0.33923312388E+03 -0.11885838725E+04  0.13761769327E+04  0.25500000920E-02 0. -1.
</event>
<event>
 5   0  0.3202875E-08  0.3570317E+04  0.7818609E-02  0.8097325E-01
       -1   -1    0    0    0  501  0.00000000000E+00  0.00000000000E+00  0.16700085353E+04  0.16700085354E+04  0.50400001928E-02 0.  1.
        1   -1    0    0  501    0  0.00000000000E+00  0.00000000000E+00 -0.19082477726E+04  0.19082477726E+04  0.50400001928E-02 0. -1.
    10030    2    1    2    0    0  0.00000000000E+00  0.00000000000E+00 -0.23823923721E+03  0.35782563079E+04  0.35703165505E+04 0.  0.
        2    1    3    3  502    0  0.47030629610E+03 -0.51868592932E+02  0.16060193174E+04  0.16742689184E+04  0.25500000920E-02 0.  1.
       -2    1    3    3    0  502 -0.47030629610E+03  0.51868592932E+02 -0.18442585547E+04  0.19039873895E+04  0.25500000920E-02 0. -1.
</event>
<event>
 5   0  0.1044678E-07  0.3597692E+04  0.7818609E-02  0.8091020E-01
       -2   -1    0    0    0  501  0.00000000000E+00  0.00000000000E+00  0.21770637080E+04  0.21770637080E+04  0.25500000920E-02 0.  1.
        2   -1    0    0  501    0  0.00000000000E+00  0.00000000000E+00 -0.14863357708E+04  0.14863357708E+04  0.25500000920E-02 0. -1.
    10030    2    1    2    0    0  0.00000000000E+00  0.00000000000E+00  0.69072793717E+03  0.36633994787E+04  0.35976924073E+04 0.  0.
        2    1    3    3  502    0  0.10700879953E+04  0.13859532661E+04  0.76507255393E+03  0.19108351018E+04  0.25500000920E-02 0.  1.
       -2    1    3    3    0  502 -0.10700879953E+04 -0.13859532661E+04 -0.74344616752E+02  0.17525643770E+04  0.25500000920E-02 0. -1.
</event>
<event>
 5   0  0.3279988E-08  0.3599134E+04  0.7818609E-02  0.8090690E-01
       -1   -1    0    0    0  501  0.00000000000E+00  0.00000000000E+00  0.11983041777E+04  0.11983041777E+04  0.50400001928E-02 0.  1.
        1   -1    0    0  501    0  0.00000000000E+00  0.00000000000E+00 -0.27025209536E+04  0.27025209536E+04  0.50400001928E-02 0. -1.
    10030    2    1    2    0    0  0.00000000000E+00  0.00000000000E+00 -0.15042167759E+04  0.39008251313E+04  0.35991344232E+04 0.  0.
        5    1    3    3  502    0  0.49622666327E+03 -0.16958875512E+04 -0.11214752012E+04  0.20928459582E+04  0.46999998093E+01 0. -1.
       -5    1    3    3    0  502 -0.49622666327E+03  0.16958875512E+04 -0.38274157463E+03  0.18079791731E+04  0.46999998093E+01 0.  1.
</event>
<event>
 5   0  0.3215494E-08  0.3601950E+04  0.7818609E-02  0.8090045E-01
        1   -1    0    0  501    0  0.00000000000E+00  0.00000000000E+00  0.11546047123E+04  0.11546047124E+04  0.50400001928E-02 0.  1.
       -1   -1    0    0    0  501  0.00000000000E+00  0.00000000000E+00 -0.28091964775E+04  0.28091964775E+04  0.50400001928E-02 0. -1.
    10030    2    1    2    0    0  0.00000000000E+00  0.00000000000E+00 -0.16545917652E+04  0.39638011899E+04  0.36019503000E+04 0.  0.
        4    1    3    3  502    0 -0.12477711197E+04  0.62660837309E+03  0.42449290935E+03  0.14593720100E+04  0.12699999809E+01 0. -1.
       -4    1    3    3    0  502  0.12477711197E+04 -0.62660837309E+03 -0.20790846745E+04  0.25044291799E+04  0.12699999809E+01 0.  1.
</event>
<event>
 5   0  0.3212523E-08  0.3593485E+04  0.7818609E-02  0.8091986E-01
        1   -1    0    0  501    0  0.00000000000E+00  0.00000000000E+00  0.21878490992E+04  0.21878490992E+04  0.50400001928E-02 0.  1.
       -1   -1    0    0    0  501  0.00000000000E+00  0.00000000000E+00 -0.14755515677E+04  0.14755515678E+04  0.50400001928E-02 0. -1.
    10030    2    1    2    0    0  0.00000000000E+00  0.00000000000E+00  0.71229753142E+03  0.36634006669E+04  0.35934853100E+04 0.  0.
        3    1    3    3  502    0 -0.19455532691E+03 -0.10759024886E+04 -0.10973777066E+04  0.15490822384E+04  0.10100000352E+00 0. -1.
       -3    1    3    3    0  502  0.19455532691E+03  0.10759024886E+04  0.18096752380E+04  0.21143184286E+04  0.10100000352E+00 0.  1.
</event>
<event>
 5   0  0.3279988E-08  0.3595940E+04  0.7818609E-02  0.8091422E-01
        1   -1    0    0  501    0  0.00000000000E+00  0.00000000000E+00  0.11963365513E+04  0.11963365513E+04  0.50400001928E-02 0. -1.
       -1   -1    0    0    0  501  0.00000000000E+00  0.00000000000E+00 -0.27021627369E+04  0.27021627369E+04  0.50400001928E-02 0.  1.
    10030    2    1    2    0    0  0.00000000000E+00  0.00000000000E+00 -0.15058261856E+04  0.38984992883E+04  0.35959399605E+04 0.  0.
        5    1    3    3  502    0  0.13783520792E+04 -0.70499515252E+03  0.23823045712E+03  0.15664126084E+04  0.46999998093E+01 0. -1.
       -5    1    3    3    0  502 -0.13783520792E+04  0.70499515252E+03 -0.17440566427E+04  0.23320866798E+04  0.46999998093E+01 0.  1.
</event>
<event>
 5   0  0.1044678E-07  0.3609779E+04  0.7818609E-02  0.8088255E-01
       -2   -1    0    0    0  501  0.00000000000E+00  0.00000000000E+00  0.22506234692E+04  0.22506234692E+04  0.25500000920E-02 0. -1.
        2   -1    0    0  501    0  0.00000000000E+00  0.00000000000E+00 -0.14474330715E+04  0.14474330715E+04  0.25500000920E-02 0.  1.
    10030    2    1    2    0    0  0.00000000000E+00  0.00000000000E+00  0.80319039768E+03  0.36980565407E+04  0.36097794064E+04 0.  0.
        2    1    3    3  502    0  0.93415062288E+03 -0.57883918684E+03 -0.10651777511E+04  0.15304560863E+04  0.25500000920E-02 0.  1.
       -2    1    3    3    0  502 -0.93415062288E+03  0.57883918684E+03  0.18683681488E+04  0.21676004544E+04  0.25500000920E-02 0. -1.
</event>
<event>
 5   0  0.1044678E-07  0.3580854E+04  0.7818609E-02  0.8094891E-01
       -2   -1    0    0    0  501  0.00000000000E+00  0.00000000000E+00  0.18161072753E+04  0.18161072753E+04  0.25500000920E-02 0. -1.
        2   -1    0    0  501    0  0.00000000000E+00  0.00000000000E+00 -0.17651100503E+04  0.17651100503E+04  0.25500000920E-02 0.  1.
    10030    2    1    2    0    0  0.00000000000E+00  0.00000000000E+00  0.50997225005E+02  0.35812173257E+04  0.35808542021E+04 0.  0.
        2    1    3    3  502    0  0.38959928752E+03 -0.17000154925E+04 -0.37925087172E+03  0.17848449522E+04  0.25500000920E-02 0. -1.
       -2    1    3    3    0  502 -0.38959928752E+03  0.17000154925E+04  0.43024809673E+03  0.17963723735E+04  0.25500000920E-02 0.  1.
</event>
<event>
 5   0  0.3215494E-08  0.3599923E+04  0.7818609E-02  0.8090509E-01
        1   -1    0    0  501    0  0.00000000000E+00  0.00000000000E+00  0.22391816555E+04  0.22391816555E+04  0.50400001928E-02 0. -1.
       -1   -1    0    0    0  501  0.00000000000E+00  0.00000000000E+00 -0.14468951638E+04  0.14468951638E+04  0.50400001928E-02 0.  1.
    10030    2    1    2    0    0  0.00000000000E+00  0.00000000000E+00  0.79228649169E+03  0.36860768193E+04  0.35999228371E+04 0.  0.
        4    1    3    3  502    0  0.52553069146E+03 -0.76595309861E+03 -0.11825041101E+04  0.15037234587E+04  0.12699999809E+01 0.  1.
       -4    1    3    3    0  502 -0.52553069146E+03  0.76595309861E+03  0.19747906018E+04  0.21823533606E+04  0.12699999809E+01 0. -1.
</event>
<event>
 5   0  0.3202875E-08  0.3662978E+04  0.7818609E-02  0.8076216E-01
        1   -1    0    0  501    0  0.00000000000E+00  0.00000000000E+00  0.13368125569E+04  0.13368125569E+04  0.50400001928E-02 0.  1.
       -1   -1    0    0    0  501  0.00000000000E+00  0.00000000000E+00 -0.25092159235E+04  0.25092159235E+04  0.50400001928E-02 0. -1.
    10030    2    1    2    0    0  0.00000000000E+00  0.00000000000E+00 -0.11724033666E+04  0.38460284804E+04  0.36629776710E+04 0.  0.
        1    1    3    3  502    0 -0.97109483212E+03  0.12642566532E+04 -0.15329150342E+04  0.22116054260E+04  0.50400001928E-02 0. -1.
       -1    1    3    3    0  502  0.97109483212E+03 -0.12642566532E+04  0.36051166759E+03  0.16344230544E+04  0.50400001928E-02 0.  1.
</event>
<event>
 5   0  0.3202875E-08  0.3606160E+04  0.7818609E-02  0.8089082E-01
       -1   -1    0    0    0  501  0.00000000000E+00  0.00000000000E+00  0.98569630740E+03  0.98569630742E+03  0.50400001928E-02 0.  1.
        1   -1    0    0  501    0  0.00000000000E+00  0.00000000000E+00 -0.32982742282E+04  0.32982742282E+04  0.50400001928E-02 0. -1.
    10030    2    1    2    0    0  0.00000000000E+00  0.00000000000E+00 -0.23125779208E+04  0.42839705356E+04  0.36061595791E+04 0.  0.
        1    1    3    3  502    0  0.42784180471E+03 -0.16892105438E+04 -0.17066306803E+04  0.24390713705E+04  0.50400001928E-02 0. -1.
       -1    1    3    3    0  502 -0.42784180471E+03  0.16892105438E+04 -0.60594724043E+03  0.18448991651E+04  0.50400001928E-02 0.  1.
</event>
<event>
 5   0  0.3279988E-08  0.3523352E+04  0.7818609E-02  0.8108278E-01
       -1   -1    0    0    0  501  0.00000000000E+00  0.00000000000E+00  0.18590892071E+04  0.18590892071E+04  0.50400001928E-02 0. -1.
        1   -1    0    0  501    0  0.00000000000E+00  0.00000000000E+00 -0.16693667837E+04  0.16693667837E+04  0.50400001928E-02 0.  1.
    10030    2    1    2    0    0  0.00000000000E+00  0.00000000000E+00  0.18972242343E+03  0.35284559908E+04  0.35233516828E+04 0.  0.
        5    1    3    3  502    0 -0.15033474892E+04  0.11343113095E+03  0.10075318012E+04  0.18133016062E+04  0.46999998093E+01 0. -1.
       -5    1    3    3    0  502  0.15033474892E+04 -0.11343113095E+03 -0.81780937772E+03  0.17151543846E+04  0.46999998093E+01 0.  1.
</event>
<event>
 5   0  0.1017794E-07  0.3588843E+04  0.7818609E-02  0.8093052E-01
        2   -1    0    0  501    0  0.00000000000E+00  0.00000000000E+00  0.31443489011E+04  0.31443489011E+04  0.25500000920E-02 0.  1.
       -2   -1    0    0    0  501  0.00000000000E+00  0.00000000000E+00 -0.10240428632E+04  0.10240428632E+04  0.25500000920E-02 0. -1.
    10030    2    1    2    0    0  0.00000000000E+00  0.00000000000E+00  0.21203060379E+04  0.41683917643E+04  0.35888427391E+04 0.  0.
        1    1    3    3  502    0  0.84715373271E+03  0.13509035063E+04  0.20160628420E+04  0.25704316978E+04  0.50400001928E-02 0.  1.
       -1    1    3    3    0  502 -0.84715373271E+03 -0.13509035063E+04  0.10424319591E+03  0.15979600665E+04  0.50400001928E-02 0. -1.
</event>
<event>
 5   0  0.1021087E-07  0.3606156E+04  0.7818609E-02  0.8089083E-01
        2   -1    0    0  501    0  0.00000000000E+00  0.00000000000E+00  0.29795606540E+04  0.29795606540E+04  0.25500000920E-02 0.  1.
       -2   -1    0    0    0  501  0.00000000000E+00  0.00000000000E+00 -0.10911306027E+04  0.10911306027E+04  0.25500000920E-02 0. -1.
    10030    2    1    2    0    0  0.00000000000E+00  0.00000000000E+00  0.18884300513E+04  0.40706912567E+04  0.36061557438E+04 0.  0.
        3    1    3    3  502    0 -0.58557378330E+03  0.57994557774E+03  0.27545003573E+04  0.28751531712E+04  0.10100000352E+00 0.  1.
       -3    1    3    3    0  502  0.58557378330E+03 -0.57994557774E+03 -0.86607030602E+03  0.11955380856E+04  0.10100000352E+00 0. -1.
</event>
<event>
 5   0  0.1017794E-07  0.3598930E+04  0.7818609E-02  0.8090737E-01
        2   -1    0    0  501    0  0.00000000000E+00  0.00000000000E+00  0.11072288620E+04  0.11072288620E+04  0.25500000920E-02 0. -1.
       -2   -1    0    0    0  501  0.00000000000E+00  0.00000000000E+00 -0.29244849869E+04  0.29244849869E+04  0.25500000920E-02 0.  1.
    10030    2    1    2    0    0  0.00000000000E+00  0.00000000000E+00 -0.18172561249E+04  0.40317138489E+04  0.35989299432E+04 0.  0.
        1    1    3    3  502    0  0.61146369474E+03 -0.45842213324E+03 -0.27336566429E+04  0.28384709517E+04  0.50400001928E-02 0.  1.
       -1    1    3    3    0  502 -0.61146369474E+03  0.45842213324E+03  0.91640051801E+03  0.11932428972E+04  0.50400001928E-02 0. -1.
</event>
<event>
 5   0  0.1021087E-07  0.3596787E+04  0.7818609E-02  0.8091228E-01
        2   -1    0    0  501    0  0.00000000000E+00  0.00000000000E+00  0.13141013117E+04  0.13141013117E+04  0.25500000920E-02 0.  1.
       -2   -1    0    0    0  501  0.00000000000E+00  0.00000000000E+00 -0.24611639201E+04  0.24611639201E+04  0.25500000920E-02 0. -1.
    10030    2    1    2    0    0  0.00000000000E+00  0.00000000000E+00 -0.11470626084E+04  0.37752652318E+04  0.35967867525E+04 0.  0.
        3    1    3    3  502    0  0.16104062511E+04 -0.79461381086E+03 -0.47177037223E+03  0.18567139511E+04  0.10100000352E+00 0.  1.
       -3    1    3    3    0  502 -0.16104062511E+04  0.79461381086E+03 -0.67529223619E+03  0.19185512807E+04  0.10100000352E+00 0. -1.
</event>
<event>
 5   0  0.9905335E-08  0.3598109E+04  0.7818609E-02  0.8090925E-01
        2   -1    0    0  501    0  0.00000000000E+00  0.00000000000E+00  0.19848790816E+04  0.19848790816E+04  0.25500000920E-02 0.  1.
       -2   -1    0    0    0  501  0.00000000000E+00  0.00000000000E+00 -0.16306270184E+04  0.16306270184E+04  0.25500000920E-02 0. -1.
    10030    2    1    2    0    0  0.00000000000E+00  0.00000000000E+00  0.35425206326E+03  0.36155061000E+04  0.35981092027E+04 0.  0.
        5    1    3    3  502    0  0.15129343447E+04  0.34686222440E+03 -0.73682741502E+03  0.17182026841E+04  0.46999998093E+01 0.  1.
       -5    1    3    3    0  502 -0.15129343447E+04 -0.34686222440E+03  0.10910794783E+04  0.18973034159E+04  0.46999998093E+01 0. -1.
</event>
<event>
 5   0  0.3202875E-08  0.3600749E+04  0.7818609E-02  0.8090320E-01
       -1   -1    0    0    0  501  0.00000000000E+00  0.00000000000E+00  0.15330243341E+04  0.15330243341E+04  0.50400001928E-02 0. -1.
        1   -1    0    0  501    0  0.00000000000E+00  0.00000000000E+00 -0.21143493081E+04  0.21143493081E+04  0.50400001928E-02 0.  1.
    10030    2    1    2    0    0  0.00000000000E+00  0.00000000000E+00 -0.58132497406E+03  0.36473736422E+04  0.36007493332E+04 0.  0.
        2    1    3    3  502    0 -0.11307933374E+04 -0.13576692411E+04 -0.64066455860E+03  0.18794707811E+04  0.25500000920E-02 0.  1.
       -2    1    3    3    0  502  0.11307933374E+04  0.13576692411E+04  0.59339584536E+02  0.17679028612E+04  0.25500000920E-02 0. -1.
</event>
<event>
 5   0  0.3212523E-08  0.3598304E+04  0.7818609E-02  0.8090880E-01
        1   -1    0    0  501    0  0.00000000000E+00  0.00000000000E+00  0.19320334886E+04  0.19320334886E+04  0.50400001928E-02 0. -1.
       -1   -1    0    0    0  501  0.00000000000E+00  0.00000000000E+00 -0.16754097142E+04  0.16754097142E+04  0.50400001928E-02 0.  1.
    10030    2    1    2    0    0  0.00000000000E+00  0.00000000000E+00  0.25662377432E+03  0.36074432028E+04  0.35983038643E+04 0.  0.
        3    1    3    3  502    0  0.85340868614E+03  0.66469935694E+03 -0.13129821137E+04  0.17011918357E+04  0.10100000352E+00 0.  1.
       -3    1    3    3    0  502 -0.85340868614E+03 -0.66469935694E+03  0.15696058880E+04  0.19062513671E+04  0.10100000352E+00 0. -1.
</event>
<event>
 5   0  0.1017794E-07  0.3598827E+04  0.7818609E-02  0.8090760E-01
       -2   -1    0    0    0  501  0.00000000000E+00  0.00000000000E+00  0.21828703521E+04  0.21828703521E+04  0.25500000920E-02 0. -1.
        2   -1    0    0  501    0  0.00000000000E+00  0.00000000000E+00 -0.14833172457E+04  0.14833172457E+04  0.25500000920E-02 0.  1.
    10030    2    1    2    0    0  0.00000000000E+00  0.00000000000E+00  0.69955310633E+03  0.36661875978E+04  0.35988271636E+04 0.  0.
        1    1    3    3  502    0  0.14136157362E+04  0.59474434900E+03  0.13085941199E+04  0.20160478320E+04  0.50400001928E-02 0. -1.
       -1    1    3    3    0  502 -0.14136157362E+04 -0.59474434900E+03 -0.60904101359E+03  0.16501397658E+04  0.50400001928E-02 0.  1.
</event>
<event>
 5   0  0.3212523E-08  0.3601979E+04  0.7818609E-02  0.8090038E-01
        1   -1    0    0  501    0  0.00000000000E+00  0.00000000000E+00  0.30109913988E+04  0.30109913988E+04  0.50400001928E-02 0. -1.
       -1   -1    0    0    0  501  0.00000000000E+00  0.00000000000E+00 -0.10772411834E+04  0.10772411834E+04  0.50400001928E-02 0.  1.
    10030    2    1    2    0    0  0.00000000000E+00  0.00000000000E+00  0.19337502154E+04  0.40882325822E+04  0.36019794211E+04 0.  0.
        3    1    3    3  502    0 -0.15338648557E+04  0.25945558779E+03 -0.63102006747E+02  0.15569330335E+04  0.10100000352E+00 0.  1.
       -3    1    3    3    0  502  0.15338648557E+04 -0.25945558779E+03  0.19968522222E+04  0.25312995486E+04  0.10100000352E+00 0. -1.
</event>
<event>
 5   0  0.3202875E-08  0.3592601E+04  0.7818609E-02  0.8092189E-01
        1   -1    0    0  501    0  0.00000000000E+00  0.00000000000E+00  0.19122971771E+04  0.19122971771E+04  0.50400001928E-02 0.  1.
       -1   -1    0    0    0  501  0.00000000000E+00  0.00000000000E+00 -0.16873397162E+04  0.16873397163E+04  0.50400001928E-02 0. -1.
    10030    2    1    2    0    0  0.00000000000E+00  0.00000000000E+00  0.22495746086E+03  0.35996368934E+04  0.35926007160E+04 0.  0.
        2    1    3    3  502    0 -0.21297518882E+03 -0.76913009095E+03 -0.14999509989E+04  0.16990504780E+04  0.25500000920E-02 0. -1.
       -2    1    3    3    0  502  0.21297518882E+03  0.76913009095E+03  0.17249084597E+04  0.19005864154E+04  0.25500000920E-02 0.  1.
</event>
<event>
 5   0  0.3215494E-08  0.3597145E+04  0.7818609E-02  0.8091146E-01
        1   -1    0    0  501    0  0.00000000000E+00  0.00000000000E+00  0.24981539332E+04  0.24981539332E+04  0.50400001928E-02 0. -1.
       -1   -1    0    0    0  501  0.00000000000E+00  0.00000000000E+00 -0.12949012670E+04  0.12949012670E+04  0.50400001928E-02 0.  1.
    10030    2    1    2    0    0  0.00000000000E+00  0.00000000000E+00  0.12032526663E+04  0.37930552002E+04  0.35971448084E+04 0.  0.
        4    1    3    3  502    0  0.37524769984E+03 -0.31704801778E+03 -0.12227864519E+04  0.13177779031E+04  0.12699999809E+01 0. -1.
       -4    1    3    3    0  502 -0.37524769984E+03  0.31704801778E+03  0.24260391182E+04  0.24752772972E+04  0.12699999809E+01 0.  1.
</event>
<event>
 5   0  0.1029908E-07  0.3594107E+04  0.7818609E-02  0.8091843E-01
        2   -1    0    0  501    0  0.00000000000E+00  0.00000000000E+00  0.30241746981E+04  0.30241746981E+04  0.25500000920E-02 0.  1.
       -2   -1    0    0    0  501  0.00000000000E+00  0.00000000000E+00 -0.10678617834E+04  0.10678617834E+04  0.25500000920E-02 0. -1.
    10030    2    1    2    0    0  0.00000000000E+00  0.00000000000E+00  0.19563129147E+04  0.40920364815E+04  0.35941066131E+04 0.  0.
        4    1    3    3  502    0  0.42388956210E+03  0.17140227970E+04  0.59739594272E+03  0.18639849878E+04  0.12699999809E+01 0. -1.
       -4    1    3    3    0  502 -0.42388956210E+03 -0.17140227970E+04  0.13589169720E+04  0.22280514938E+04  0.12699999809E+01 0.  1.
</event>
<event>
 5   0  0.3202875E-08  0.3598925E+04  0.7818609E-02  0.8090738E-01
        3   -1    0    0  501    0  0.00000000000E+00  0.00000000000E+00  0.32947818990E+04  0.32947819006E+04  0.10100000352E+00 0. -1.
       -3   -1    0    0    0  501  0.00000000000E+00  0.00000000000E+00 -0.98278581631E+03  0.98278582150E+03  0.10100000352E+00 0.  1.
    10030    2    1    2    0    0  0.00000000000E+00  0.00000000000E+00  0.23119960827E+04  0.42775677221E+04  0.35989248020E+04 0.  0.
        4    1    3    3  502    0  0.85490331839E+03 -0.11819210870E+04 -0.96386438828E+02  0.14618786195E+04  0.12699999809E+01 0.  1.
       -4    1    3    3    0  502 -0.85490331839E+03  0.11819210870E+04  0.24083825216E+04  0.28156891026E+04  0.12699999809E+01 0. -1.
</event>
<event>
 5   0  0.3279988E-08  0.3608335E+04  0.7818609E-02  0.8088585E-01
       -1   -1    0    0    0  501  0.00000000000E+00  0.00000000000E+00  0.24552338395E+04  0.24552338395E+04  0.50400001928E-02 0. -1.
        1   -1    0    0  501    0  0.00000000000E+00  0.00000000000E+00 -0.13257474549E+04  0.13257474549E+04  0.50400001928E-02 0.  1.
    10030    2    1    2    0    0  0.00000000000E+00  0.00000000000E+00  0.11294863846E+04  0.37809812944E+04  0.36083348037E+04 0.  0.
        5    1    3    3  502    0  0.92365419085E+02  0.22934599493E+03 -0.13079046430E+04  0.13310776090E+04  0.46999998093E+01 0.  1.
       -5    1    3    3    0  502 -0.92365419085E+02 -0.22934599493E+03  0.24373910276E+04  0.24499036854E+04  0.46999998093E+01 0. -1.
</event>
<event>
 5   0  0.3279988E-08  0.3606560E+04  0.7818609E-02  0.8088991E-01
       -1   -1    0    0    0  501  0.00000000000E+00  0.00000000000E+00  0.28055004200E+04  0.28055004201E+04  0.50400001928E-02 0. -1.
        1   -1    0    0  501    0  0.00000000000E+00  0.00000000000E+00 -0.11590869182E+04  0.11590869183E+04  0.50400001928E-02 0.  1.
    10030    2    1    2    0    0  0.00000000000E+00  0.00000000000E+00  0.16464135018E+04  0.39645873383E+04  0.36065600430E+04 0.  0.
        5    1    3    3  502    0  0.18020967218E+04 -0.63852435975E+02  0.83741321611E+03  0.19881933288E+04  0.46999998093E+01 0. -1.
       -5    1    3    3    0  502 -0.18020967218E+04  0.63852435975E+02  0.80900028569E+03  0.19763940095E+04  0.46999998093E+01 0.  1.
</event>
<event>
 5   0  0.9905335E-08  0.3592716E+04  0.7818609E-02  0.8092162E-01
       -2   -1    0    0    0  501  0.00000000000E+00  0.00000000000E+00  0.14499010648E+04  0.14499010648E+04  0.25500000920E-02 0.  1.
        2   -1    0    0  501    0  0.00000000000E+00  0.00000000000E+00 -0.22256018371E+04  0.22256018371E+04  0.25500000920E-02 0. -1.
    10030    2    1    2    0    0  0.00000000000E+00  0.00000000000E+00 -0.77570077233E+03  0.36755029019E+04  0.35927162278E+04 0.  0.
        5    1    3    3  502    0 -0.31609102501E+03 -0.74709749173E+03 -0.20275339022E+04  0.21838003601E+04  0.46999998093E+01 0. -1.
       -5    1    3    3    0  502  0.31609102501E+03  0.74709749173E+03  0.12518331299E+04  0.14917025418E+04  0.46999998093E+01 0.  1.
</event>
<event>
 5   0  0.1017794E-07  0.3596069E+04  0.7818609E-02  0.8091393E-01
        2   -1    0    0  501    0  0.00000000000E+00  0.00000000000E+00  0.24303342117E+04  0.24303342117E+04  0.25500000920E-02 0.  1.
       -2   -1    0    0    0  501  0.00000000000E+00  0.00000000000E+00 -0.13302404758E+04  0.13302404758E+04  0.25500000920E-02 0. -1.
    10030    2    1    2    0    0  0.00000000000E+00  0.00000000000E+00  0.11000937359E+04  0.37605746874E+04  0.35960694865E+04 0.  0.
        1    1    3    3  502    0  0.12368465971E+03 -0.17039646825E+04 -0.36070493780E+02  0.17088284334E+04  0.50400001928E-02 0. -1.
       -1    1    3    3    0  502 -0.12368465971E+03  0.17039646825E+04  0.11361642297E+04  0.20517462540E+04  0.50400001928E-02 0.  1.
</event>
<event>
 5   0  0.3202875E-08  0.3598618E+04  0.7818609E-02  0.8090808E-01
       -1   -1    0    0    0  501  0.00000000000E+00  0.00000000000E+00  0.17032455180E+04  0.17032455180E+04  0.50400001928E-02 0. -1.
        1   -1    0    0  501    0  0.00000000000E+00  0.00000000000E+00 -0.19007905934E+04  0.19007905934E+04  0.50400001928E-02 0.  1.
    10030    2    1    2    0    0  0.00000000000E+00  0.00000000000E+00 -0.19754507540E+03  0.36040361114E+04  0.35986181008E+04 0.  0.
        2    1    3    3  502    0 -0.27762294420E+03 -0.15888844998E+04  0.69985177875E+03  0.17582437161E+04  0.25500000920E-02 0. -1.
       -2    1    3    3    0  502  0.27762294420E+03  0.15888844998E+04 -0.89739685416E+03  0.18457923954E+04  0.25500000920E-02 0.  1.
</event>
<event>
 5   0  0.3202875E-08  0.3602966E+04  0.7818609E-02  0.8089813E-01
       -1   -1    0    0    0  501  0.00000000000E+00  0.00000000000E+00  0.14991571045E+04  0.14991571045E+04  0.50400001928E-02 0. -1.
        1   -1    0    0  501    0  0.00000000000E+00  0.00000000000E+00 -0.21647766246E+04  0.21647766246E+04  0.50400001928E-02 0.  1.
    10030    2    1    2    0    0  0.00000000000E+00  0.00000000000E+00 -0.66561952015E+03  0.36639337291E+04  0.36029655876E+04 0.  0.
        2    1    3    3  502    0  0.14562272927E+04  0.50014445652E+03 -0.12838342456E+04  0.20047375827E+04  0.25500000920E-02 0.  1.
       -2    1    3    3    0  502 -0.14562272927E+04 -0.50014445652E+03  0.61821472542E+03  0.16591961464E+04  0.25500000920E-02 0. -1.
</event>
<event>
 5   0  0.1017794E-07  0.3598300E+04  0.7818609E-02  0.8090881E-01
        2   -1    0    0  501    0  0.00000000000E+00  0.00000000000E+00  0.13670075451E+04  0.13670075451E+04  0.25500000920E-02 0. -1.
       -2   -1    0    0    0  501  0.00000000000E+00  0.00000000000E+00 -0.23679027873E+04  0.23679027873E+04  0.25500000920E-02 0.  1.
    10030    2    1    2    0    0  0.00000000000E+00  0.00000000000E+00 -0.10008952422E+04  0.37349103324E+04  0.35983001411E+04 0.  0.
        1    1    3    3  502    0  0.78320303327E+03 -0.96307974524E+03  0.85130486218E+03  0.15052074792E+04  0.50400001928E-02 0. -1.
       -1    1    3    3    0  502 -0.78320303327E+03  0.96307974524E+03 -0.18522001044E+04  0.22297028532E+04  0.50400001928E-02 0.  1.
</event>
<event>
 5   0  0.1017794E-07  0.3599665E+04  0.7818609E-02  0.8090569E-01
        2   -1    0    0  501    0  0.00000000000E+00  0.00000000000E+00  0.10434116859E+04  0.10434116859E+04  0.25500000920E-02 0. -1.
       -2   -1    0    0    0  501  0.00000000000E+00  0.00000000000E+00 -0.31046194802E+04  0.31046194802E+04  0.25500000920E-02 0.  1.
    10030    2    1    2    0    0  0.00000000000E+00  0.00000000000E+00 -0.20612077943E+04  0.41480311661E+04  0.35996645655E+04 0.  0.
        1    1    3    3  502    0 -0.10336440514E+04 -0.27680477301E+03 -0.26982548728E+04  0.29026919000E+04  0.50400001928E-02 0.  1.
       -1    1    3    3    0  502  0.10336440514E+04  0.27680477301E+03  0.63704707858E+03  0.12453392661E+04  0.50400001928E-02 0. -1.
</event>
<event>
 5   0  0.1021087E-07  0.3597921E+04  0.7818609E-02  0.8090968E-01
       -2   -1    0    0    0  501  0.00000000000E+00  0.00000000000E+00  0.11016660724E+04  0.11016660724E+04  0.25500000920E-02 0.  1.
        2   -1    0    0  501    0  0.00000000000E+00  0.00000000000E+00 -0.29376044622E+04  0.29376044622E+04  0.25500000920E-02 0. -1.
    10030    2    1    2    0    0  0.00000000000E+00  0.00000000000E+00 -0.18359383899E+04  0.40392705346E+04  0.35979211609E+04 0.  0.
        3    1    3    3  502    0  0.13078899877E+04 -0.12350632475E+04 -0.93746986070E+03  0.20284987541E+04  0.10100000352E+00 0.  1.
       -3    1    3    3    0  502 -0.13078899877E+04  0.12350632475E+04 -0.89846852915E+03  0.20107717805E+04  0.10100000352E+00 0. -1.
</event>
<event>
 5   0  0.3215494E-08  0.3602083E+04  0.7818609E-02  0.8090015E-01
        1   -1    0    0  501    0  0.00000000000E+00  0.00000000000E+00  0.25971442654E+04  0.25971442654E+04  0.50400001928E-02 0. -1.
       -1   -1    0    0    0  501  0.00000000000E+00  0.00000000000E+00 -0.12489684070E+04  0.12489684070E+04  0.50400001928E-02 0.  1.
    10030    2    1    2    0    0  0.00000000000E+00  0.00000000000E+00  0.13481758584E+04  0.38461126725E+04  0.36020833616E+04 0.  0.
        4    1    3    3  502    0 -0.13844630048E+04  0.11034891826E+04  0.10271285515E+04  0.20468074805E+04  0.12699999809E+01 0. -1.
       -4    1    3    3    0  502  0.13844630048E+04 -0.11034891826E+04  0.32104730687E+03  0.17993051920E+04  0.12699999809E+01 0.  1.
</event>
<event>
 5   0  0.3215494E-08  0.3597774E+04  0.7818609E-02  0.8091002E-01
        1   -1    0    0  501    0  0.00000000000E+00  0.00000000000E+00  0.18194501299E+04  0.18194501299E+04  0.50400001928E-02 0.  1.
       -1   -1    0    0    0  501  0.00000000000E+00  0.00000000000E+00 -0.17785558637E+04  0.17785558637E+04  0.50400001928E-02 0. -1.
    10030    2    1    2    0    0  0.00000000000E+00  0.00000000000E+00  0.40894266190E+02  0.35980059936E+04  0.35977735878E+04 0.  0.
        4    1    3    3  502    0  0.16704184170E+04 -0.15197618763E+03  0.67056422550E+03  0.18063921066E+04  0.12699999809E+01 0.  1.
       -4    1    3    3    0  502 -0.16704184170E+04  0.15197618763E+03 -0.62966995931E+03  0.17916138870E+04  0.12699999809E+01 0. -1.
</event>
<event>
 5   0  0.3202875E-08  0.3595046E+04  0.7818609E-02  0.8091627E-01
       -1   -1    0    0    0  501  0.00000000000E+00  0.00000000000E+00  0.15636279821E+04  0.15636279821E+04  0.50400001928E-02 0.  1.
        1   -1    0    0  501    0  0.00000000000E+00  0.00000000000E+00 -0.20664053927E+04  0.20664053927E+04  0.50400001928E-02 0. -1.
    10030    2    1    2    0    0  0.00000000000E+00  0.00000000000E+00 -0.50277741061E+03  0.36300333748E+04  0.35950461997E+04 0.  0.
        1    1    3    3  502    0  0.38984539401E+03  0.68304136364E+03  0.13806845236E+04  0.15889665476E+04  0.50400001928E-02 0.  1.
       -1    1    3    3    0  502 -0.38984539401E+03 -0.68304136364E+03 -0.18834619342E+04  0.20410668272E+04  0.50400001928E-02 0. -1.
</event>
<event>
 5   0  0.9905335E-08  0.3603065E+04  0.7818609E-02  0.8089790E-01
       -2   -1    0    0    0  501  0.00000000000E+00  0.00000000000E+00  0.11184146051E+04  0.11184146051E+04  0.25500000920E-02 0.  1.
        2   -1    0    0  501    0  0.00000000000E+00  0.00000000000E+00 -0.29018934322E+04  0.29018934322E+04  0.25500000920E-02 0. -1.
    10030    2    1    2    0    0  0.00000000000E+00  0.00000000000E+00 -0.17834788271E+04  0.40203080374E+04  0.36030653600E+04 0.  0.
        5    1    3    3  502    0  0.96011624978E+03 -0.86213851348E+03 -0.22944548758E+04  0.26324230847E+04  0.46999998093E+01 0. -1.
       -5    1    3    3    0  502 -0.96011624978E+03  0.86213851348E+03  0.51097604870E+03  0.13878849527E+04  0.46999998093E+01 0.  1.
</event>
<event>
 5   0  0.3212523E-08  0.3599616E+04  0.7818609E-02  0.8090580E-01
       -1   -1    0    0    0  501  0.00000000000E+00  0.00000000000E+00  0.18693734283E+04  0.18693734283E+04  0.50400001928E-02 0.  1.
        1   -1    0    0  501    0  0.00000000000E+00  0.00000000000E+00 -0.17328313161E+04  0.17328313161E+04  0.50400001928E-02 0. -1.
    10030    2    1    2    0    0  0.00000000000E+00  0.00000000000E+00  0.13654211221E+03  0.36022047445E+04  0.35996159896E+04 0.  0.
        3    1    3    3  502    0 -0.16754997486E+04 -0.12803983600E+03  0.71341694351E+03  0.18255567241E+04  0.10100000352E+00 0. -1.
       -3    1    3    3    0  502  0.16754997486E+04  0.12803983600E+03 -0.57687483130E+03  0.17766480204E+04  0.10100000352E+00 0.  1.
</event>
<event>
 5   0  0.9905335E-08  0.3599338E+04  0.7818609E-02  0.8090643E-01
       -2   -1    0    0    0  501  0.00000000000E+00  0.00000000000E+00  0.12670783079E+04  0.12670783079E+04  0.25500000920E-02 0.  1.
        2   -1    0    0  501    0  0.00000000000E+00  0.00000000000E+00 -0.25561235400E+04  0.25561235400E+04  0.25500000920E-02 0. -1.
    10030    2    1    2    0    0  0.00000000000E+00  0.00000000000E+00 -0.12890452321E+04  0.38232018479E+04  0.35993381002E+04 0.  0.
        5    1    3    3  502    0  0.56169151128E+03  0.82457396597E+03 -0.22354660897E+04  0.24480094582E+04  0.46999998093E+01 0. -1.
       -5    1    3    3    0  502 -0.56169151128E+03 -0.82457396597E+03  0.94642085759E+03  0.13751923898E+04  0.46999998093E+01 0.  1.
</event>
<event>
 5   0  0.1017794E-07  0.3616892E+04  0.7818609E-02  0.8086633E-01
       -2   -1    0    0    0  501  0.00000000000E+00  0.00000000000E+00  0.15094377214E+04  0.15094377214E+04  0.25500000920E-02 0.  1.
        2   -1    0    0  501    0  0.00000000000E+00  0.00000000000E+00 -0.21666855912E+04  0.21666855912E+04  0.25500000920E-02 0. -1.
    10030    2    1    2    0    0  0.00000000000E+00  0.00000000000E+00 -0.65724786979E+03  0.36761233125E+04  0.36168920148E+04 0.  0.
        1    1    3    3  502    0 -0.14838709017E+04 -0.10333435258E+04 -0.29978200527E+03  0.18329050564E+04  0.50400001928E-02 0.  1.
       -1    1    3    3    0  502  0.14838709017E+04  0.10333435258E+04 -0.35746586452E+03  0.18432182561E+04  0.50400001928E-02 0. -1.
</event>
<event>
 5   0  0.1029908E-07  0.3619571E+04  0.7818609E-02  0.8086023E-01
        2   -1    0    0  501    0  0.00000000000E+00  0.00000000000E+00  0.17854886409E+04  0.17854886409E+04  0.25500000920E-02 0.  1.
       -2   -1    0    0    0  501  0.00000000000E+00  0.00000000000E+00 -0.18344132422E+04  0.18344132422E+04  0.25500000920E-02 0. -1.
    10030    2    1    2    0    0  0.00000000000E+00  0.00000000000E+00 -0.48924601315E+02  0.36199018831E+04  0.36195712490E+04 0.  0.
        4    1    3    3  502    0  0.11071932759E+04 -0.74971454867E+03  0.11952283500E+04  0.17934662741E+04  0.12699999809E+01 0.  1.
       -4    1    3    3    0  502 -0.11071932759E+04  0.74971454867E+03 -0.12441529513E+04  0.18264356090E+04  0.12699999809E+01 0. -1.
</event>
<event>
 5   0  0.9905335E-08  0.3594745E+04  0.7818609E-02  0.8091696E-01
        2   -1    0    0  501    0  0.00000000000E+00  0.00000000000E+00  0.24878845648E+04  0.24878845648E+04  0.25500000920E-02 0. -1.
       -2   -1    0    0    0  501  0.00000000000E+00  0.00000000000E+00 -0.12985121772E+04  0.12985121772E+04  0.25500000920E-02 0.  1.
    10030    2    1    2    0    0  0.00000000000E+00  0.00000000000E+00  0.11893723876E+04  0.37863967421E+04  0.35947452778E+04 0.  0.
        5    1    3    3  502    0  0.16878471587E+04  0.35811414636E+03  0.11249675031E+04  0.20597688574E+04  0.46999998093E+01 0. -1.
       -5    1    3    3    0  502 -0.16878471587E+04 -0.35811414636E+03  0.64404884485E+02  0.17266278847E+04  0.46999998093E+01 0.  1.
</event>
<event>
 5   0  0.3215494E-08  0.3594803E+04  0.7818609E-02  0.8091683E-01
        1   -1    0    0  501    0  0.00000000000E+00  0.00000000000E+00  0.17251603799E+04  0.17251603799E+04  0.50400001928E-02 0.  1.
       -1   -1    0    0    0  501  0.00000000000E+00  0.00000000000E+00 -0.18726677860E+04  0.18726677860E+04  0.50400001928E-02 0. -1.
    10030    2    1    2    0    0  0.00000000000E+00  0.00000000000E+00 -0.14750740615E+03  0.35978281659E+04  0.35948030651E+04 0.  0.
        4    1    3    3  502    0  0.10572177306E+04  0.63186888975E+03 -0.13839324867E+04  0.18526301208E+04  0.12699999809E+01 0. -1.
       -4    1    3    3    0  502 -0.10572177306E+04 -0.63186888975E+03  0.12364250806E+04  0.17451980451E+04  0.12699999809E+01 0.  1.
</event>
<event>
 5   0  0.1017794E-07  0.3600403E+04  0.7818609E-02  0.8090399E-01
        2   -1    0    0  501    0  0.00000000000E+00  0.00000000000E+00  0.16476502413E+04  0.16476502413E+04  0.25500000920E-02 0. -1.
       -2   -1    0    0    0  501  0.00000000000E+00  0.00000000000E+00 -0.19668770021E+04  0.19668770021E+04  0.25500000920E-02 0.  1.
    10030    2    1    2    0    0  0.00000000000E+00  0.00000000000E+00 -0.31922676074E+03  0.36145272434E+04  0.36004029592E+04 0.  0.
        1    1    3    3  502    0  0.13504339520E+04  0.10920403657E+04  0.31606111831E+03  0.17652531403E+04  0.50400001928E-02 0. -1.
       -1    1    3    3    0  502 -0.13504339520E+04 -0.10920403657E+04 -0.63528787905E+03  0.18492741031E+04  0.50400001928E-02 0.  1.
</event>
<event>
 5   0  0.3202875E-08  0.3601513E+04  0.7818609E-02  0.8090145E-01
       -1   -1    0    0    0  501  0.00000000000E+00  0.00000000000E+00  0.12878372556E+04  0.12878372556E+04  0.50400001928E-02 0. -1.
        1   -1    0    0  501    0  0.00000000000E+00  0.00000000000E+00 -0.25179608688E+04  0.25179608688E+04  0.50400001928E-02 0.  1.
    10030    2    1    2    0    0  0.00000000000E+00  0.00000000000E+00 -0.12301236133E+04  0.38057981244E+04  0.36015129127E+04 0.  0.
        1    1    3    3  502    0  0.59033543872E+03 -0.88190377438E+03  0.92226854352E+03  0.14059976756E+04  0.50400001928E-02 0. -1.
       -1    1    3    3    0  502 -0.59033543872E+03  0.88190377438E+03 -0.21523921568E+04  0.23998004488E+04  0.50400001928E-02 0.  1.
</event>
<event>
 5   0  0.3202875E-08  0.3597228E+04  0.7818609E-02  0.8091127E-01
       -1   -1    0    0    0  501  0.00000000000E+00  0.00000000000E+00  0.13908417273E+04  0.13908417273E+04  0.50400001928E-02 0.  1.
        1   -1    0    0  501    0  0.00000000000E+00  0.00000000000E+00 -0.23259385036E+04  0.23259385036E+04  0.50400001928E-02 0. -1.
    10030    2    1    2    0    0  0.00000000000E+00  0.00000000000E+00 -0.93509677632E+03  0.37167802309E+04  0.35972280027E+04 0.  0.
        2    1    3    3  502    0  0.14245612947E+04  0.10930038742E+04 -0.57581625458E+03  0.18856289960E+04  0.25500000920E-02 0.  1.
       -2    1    3    3    0  502 -0.14245612947E+04 -0.10930038742E+04 -0.35928052175E+03  0.18311512349E+04  0.25500000920E-02 0. -1.
</event>
<event>
 5   0  0.3202875E-08  0.3614327E+04  0.7818609E-02  0.8087218E-01
       -1   -1    0    0    0  501  0.00000000000E+00  0.00000000000E+00  0.17818405743E+04  0.17818405743E+04  0.50400001928E-02 0. -1.
        1   -1    0    0  501    0  0.00000000000E+00  0.00000000000E+00 -0.18328464737E+04  0.18328464737E+04  0.50400001928E-02 0.  1.
    10030    2    1    2    0    0  0.00000000000E+00  0.00000000000E+00 -0.51005899389E+02  0.36146870480E+04  0.36143271646E+04 0.  0.
        2    1    3    3  502    0  0.15278581380E+04 -0.13990480325E+03 -0.98054115839E+03  0.18208198173E+04  0.25500000920E-02 0.  1.
       -2    1    3    3    0  502 -0.15278581380E+04  0.13990480325E+03  0.92953525900E+03  0.17938672307E+04  0.25500000920E-02 0. -1.
</event>
<event>
 5   0  0.3202875E-08  0.3600971E+04  0.7818609E-02  0.8090269E-01
        1   -1    0    0  501    0  0.00000000000E+00  0.00000000000E+00  0.15297108706E+04  0.15297108706E+04  0.50400001928E-02 0. -1.
       -1   -1    0    0    0  501  0.00000000000E+00  0.00000000000E+00 -0.21191904704E+04  0.21191904704E+04  0.50400001928E-02 0.  1.
    10030    2    1    2    0    0  0.00000000000E+00  0.00000000000E+00 -0.58947959983E+03  0.36489013410E+04  0.36009713686E+04 0.  0.
        1    1    3    3  502    0 -0.36887266224E+03  0.13016732941E+04 -0.14985457258E+04  0.20189253819E+04  0.50400001928E-02 0. -1.
       -1    1    3    3    0  502  0.36887266224E+03 -0.13016732941E+04  0.90906612596E+03  0.16299759590E+04  0.50400001928E-02 0.  1.
</event>
<event>
 5   0  0.3215494E-08  0.3601314E+04  0.7818609E-02  0.8090191E-01
        1   -1    0    0  501    0  0.00000000000E+00  0.00000000000E+00  0.18987633168E+04  0.18987633169E+04  0.50400001928E-02 0.  1.
       -1   -1    0    0    0  501  0.00000000000E+00  0.00000000000E+00 -0.17076194756E+04  0.17076194756E+04  0.50400001928E-02 0. -1.
    10030    2    1    2    0    0  0.00000000000E+00  0.00000000000E+00  0.19114384129E+03  0.36063827924E+04  0.36013137710E+04 0.  0.
        4    1    3    3  502    0  0.11818928826E+04  0.18792307156E+03  0.14428941351E+04  0.18746015483E+04  0.12699999809E+01 0.  1.
       -4    1    3    3    0  502 -0.11818928826E+04 -0.18792307156E+03 -0.12517502938E+04  0.17317812442E+04  0.12699999809E+01 0. -1.
</event>
<event>
 5   0  0.1029908E-07  0.3592447E+04  0.7818609E-02  0.8092224E-01
       -2   -1    0    0    0  501  0.00000000000E+00  0.00000000000E+00  0.21816679101E+04  0.21816679101E+04  0.25500000920E-02 0. -1.
        2   -1    0    0  501    0  0.00000000000E+00  0.00000000000E+00 -0.14788769330E+04  0.14788769330E+04  0.25500000920E-02 0.  1.
    10030    2    1    2    0    0  0.00000000000E+00  0.00000000000E+00  0.70279097713E+03  0.36605448430E+04  0.35924467136E+04 0.  0.
        4    1    3    3  502    0  0.67895405269E+02 -0.67978956069E+03  0.20441180802E+04  0.21552596065E+04  0.12699999809E+01 0. -1.
       -4    1    3    3    0  502 -0.67895405269E+02  0.67978956069E+03 -0.13413271031E+04  0.15052852365E+04  0.12699999809E+01 0.  1.
</event>
<event>
 5   0  0.1029908E-07  0.3618903E+04  0.7818609E-02  0.8086175E-01
        2   -1    0    0  501    0  0.00000000000E+00  0.00000000000E+00  0.23766005823E+04  0.23766005823E+04  0.25500000920E-02 0. -1.
       -2   -1    0    0    0  501  0.00000000000E+00  0.00000000000E+00 -0.13776462555E+04  0.13776462555E+04  0.25500000920E-02 0.  1.
    10030    2    1    2    0    0  0.00000000000E+00  0.00000000000E+00  0.99895432680E+03  0.37542468378E+04  0.36189030897E+04 0.  0.
        4    1    3    3  502    0 -0.62892127702E+03  0.72340215363E+03 -0.10926045598E+04  0.14534919970E+04  0.12699999809E+01 0.  1.
       -4    1    3    3    0  502  0.62892127702E+03 -0.72340215363E+03  0.20915588866E+04  0.23007548408E+04  0.12699999809E+01 0. -1.
</event>
<event>
 5   0  0.3279988E-08  0.3600585E+04  0.7818609E-02  0.8090358E-01
        1   -1    0    0  501    0  0.00000000000E+00  0.00000000000E+00  0.20999036038E+04  0.20999036038E+04  0.50400001928E-02 0. -1.
       -1   -1    0    0    0  501  0.00000000000E+00  0.00000000000E+00 -0.15434293373E+04  0.15434293373E+04  0.50400001928E-02 0.  1.
    10030    2    1    2    0    0  0.00000000000E+00  0.00000000000E+00  0.55647426655E+03  0.36433329412E+04  0.36005848568E+04 0.  0.
        5    1    3    3  502    0 -0.79441282507E+03 -0.99365175099E+02  0.19098531484E+04  0.20708757358E+04  0.46999998093E+01 0. -1.
       -5    1    3    3    0  502  0.79441282507E+03  0.99365175099E+02 -0.13533788819E+04  0.15724572053E+04  0.46999998093E+01 0.  1.
</event>
<event>
 5   0  0.1044678E-07  0.3612796E+04  0.7818609E-02  0.8087567E-01
       -2   -1    0    0    0  501  0.00000000000E+00  0.00000000000E+00  0.21968151474E+04  0.21968151474E+04  0.25500000920E-02 0. -1.
        2   -1    0    0  501    0  0.00000000000E+00  0.00000000000E+00 -0.14853659289E+04  0.14853659289E+04  0.25500000920E-02 0.  1.
    10030    2    1    2    0    0  0.00000000000E+00  0.00000000000E+00  0.71144921856E+03  0.36821810763E+04  0.36127963530E+04 0.  0.
        2    1    3    3  502    0 -0.10942061525E+03 -0.40051713156E+03  0.21475232786E+04  0.21872912645E+04  0.25500000920E-02 0. -1.
       -2    1    3    3    0  502  0.10942061525E+03  0.40051713156E+03 -0.14360740600E+04  0.14948898118E+04  0.25500000920E-02 0.  1.
</event>
<event>
 5   0  0.3202875E-08  0.3600201E+04  0.7818609E-02  0.8090446E-01
       -3   -1    0    0    0  501  0.00000000000E+00  0.00000000000E+00  0.10157898562E+04  0.10157898612E+04  0.10100000352E+00 0. -1.
        3   -1    0    0  501    0  0.00000000000E+00  0.00000000000E+00 -0.31899928130E+04  0.31899928146E+04  0.10100000352E+00 0.  1.
    10030    2    1    2    0    0  0.00000000000E+00  0.00000000000E+00 -0.21742029568E+04  0.42057826757E+04  0.36002013025E+04 0.  0.
        4    1    3    3  502    0 -0.62870640849E+03 -0.34658394206E+03 -0.30155177680E+04  0.30997969609E+04  0.12699999809E+01 0.  1.
       -4    1    3    3    0  502  0.62870640849E+03  0.34658394206E+03  0.84131481120E+03  0.11059857148E+04  0.12699999809E+01 0. -1.
</event>
<event>
 5   0  0.1017794E-07  0.3603891E+04  0.7818609E-02  0.8089601E-01
        2   -1    0    0  501    0  0.00000000000E+00  0.00000000000E+00  0.24749689720E+04  0.24749689720E+04  0.25500000920E-02 0.  1.
       -2   -1    0    0    0  501  0.00000000000E+00  0.00000000000E+00 -0.13119386964E+04  0.13119386964E+04  0.25500000920E-02 0. -1.
    10030    2    1    2    0    0  0.00000000000E+00  0.00000000000E+00  0.11630302756E+04  0.37869076685E+04  0.36038909900E+04 0.  0.
        1    1    3    3  502    0 -0.14266788025E+04  0.11003324848E+04  0.61239429506E+03  0.19029374018E+04  0.50400001928E-02 0. -1.
       -1    1    3    3    0  502  0.14266788025E+04 -0.11003324848E+04  0.55063598054E+03  0.18839702667E+04  0.50400001928E-02 0.  1.
</event>
<event>
 5   0  0.1029908E-07  0.3598734E+04  0.7818609E-02  0.8090782E-01
       -2   -1    0    0    0  501  0.00000000000E+00  0.00000000000E+00  0.26708612108E+04  0.26708612108E+04  0.25500000920E-02 0. -1.
        2   -1    0    0  501    0  0.00000000000E+00  0.00000000000E+00 -0.12122390483E+04  0.12122390483E+04  0.25500000920E-02 0.  1.
    10030    2    1    2    0    0  0.00000000000E+00  0.00000000000E+00  0.14586221625E+04  0.38831002590E+04  0.35987343621E+04 0.  0.
        4    1    3    3  502    0  0.11508461734E+04 -0.13652031710E+04  0.96936301379E+03  0.20317216537E+04  0.12699999809E+01 0.  1.
       -4    1    3    3    0  502 -0.11508461734E+04  0.13652031710E+04  0.48925914873E+03  0.18513786053E+04  0.12699999809E+01 0. -1.
</event>
<event>
 5   0  0.3279988E-08  0.3598361E+04  0.7818609E-02  0.8090867E-01
        1   -1    0    0  501    0  0.00000000000E+00  0.00000000000E+00  0.15947492550E+04  0.15947492550E+04  0.50400001928E-02 0.  1.
       -1   -1    0    0    0  501  0.00000000000E+00  0.00000000000E+00 -0.20298173866E+04  0.20298173866E+04  0.50400001928E-02 0. -1.
    10030    2    1    2    0    0  0.00000000000E+00  0.00000000000E+00 -0.43506813166E+03  0.36245666416E+04  0.35983606073E+04 0.  0.
        5    1    3    3  502    0 -0.77673036226E+02 -0.17909104634E+04 -0.37238814631E+03  0.18308709430E+04  0.46999998093E+01 0. -1.
       -5    1    3    3    0  502  0.77673036226E+02  0.17909104634E+04 -0.62679985348E+02  0.17936956986E+04  0.46999998093E+01 0.  1.
</event>
<event>
 5   0  0.1029908E-07  0.3620624E+04  0.7818609E-02  0.8085784E-01
        2   -1    0    0  501    0  0.00000000000E+00  0.00000000000E+00  0.23115076714E+04  0.23115076714E+04  0.25500000920E-02 0.  1.
       -2   -1    0    0    0  501  0.00000000000E+00  0.00000000000E+00 -0.14177888828E+04  0.14177888828E+04  0.25500000920E-02 0. -1.
    10030    2    1    2    0    0  0.00000000000E+00  0.00000000000E+00  0.89371878863E+03  0.37292965542E+04  0.36206241887E+04 0.  0.
        4    1    3    3  502    0  0.14618664315E+04 -0.23836051520E+03 -0.62522674852E+03  0.16077248828E+04  0.12699999809E+01 0. -1.
       -4    1    3    3    0  502 -0.14618664315E+04  0.23836051520E+03  0.15189455372E+04  0.21215716713E+04  0.12699999809E+01 0.  1.
</event>
<event>
 5   0  0.9905335E-08  0.3588729E+04  0.7818609E-02  0.8093078E-01
        2   -1    0    0  501    0  0.00000000000E+00  0.00000000000E+00  0.27094388357E+04  0.27094388357E+04  0.25500000920E-02 0.  1.
       -2   -1    0    0    0  501  0.00000000000E+00  0.00000000000E+00 -0.11883431692E+04  0.11883431692E+04  0.25500000920E-02 0. -1.
    10030    2    1    2    0    0  0.00000000000E+00  0.00000000000E+00  0.15210956665E+04  0.38977820049E+04  0.35887285396E+04 0.  0.
        5    1    3    3  502    0 -0.57584016540E+03 -0.16473662354E+04  0.12140116252E+04  0.21258536463E+04  0.46999998093E+01 0.  1.
       -5    1    3    3    0  502  0.57584016540E+03  0.16473662354E+04  0.30708404124E+03  0.17719283586E+04  0.46999998093E+01 0. -1.
</event>
<event>
 5   0  0.1017794E-07  0.3600819E+04  0.7818609E-02  0.8090304E-01
       -2   -1    0    0    0  501  0.00000000000E+00  0.00000000000E+00  0.11330985452E+04  0.11330985452E+04  0.25500000920E-02 0. -1.
        2   -1    0    0  501    0  0.00000000000E+00  0.00000000000E+00 -0.28607166323E+04  0.28607166323E+04  0.25500000920E-02 0.  1.
    10030    2    1    2    0    0  0.00000000000E+00  0.00000000000E+00 -0.17276180871E+04  0.39938151775E+04  0.36008187149E+04 0.  0.
        1    1    3    3  502    0  0.31078922736E+02 -0.17012486242E+04 -0.15164713653E+04  0.22792319282E+04  0.50400001928E-02 0.  1.
       -1    1    3    3    0  502 -0.31078922736E+02  0.17012486242E+04 -0.21114672176E+03  0.17145832493E+04  0.50400001928E-02 0. -1.
</event>
<event>
 5   0  0.3215494E-08  0.3603060E+04  0.7818609E-02  0.8089791E-01
       -1   -1    0    0    0  501  0.00000000000E+00  0.00000000000E+00  0.14301183238E+04  0.14301183238E+04  0.50400001928E-02 0. -1.
        1   -1    0    0  501    0  0.00000000000E+00  0.00000000000E+00 -0.22694000666E+04  0.22694000666E+04  0.50400001928E-02 0.  1.
    10030    2    1    2    0    0  0.00000000000E+00  0.00000000000E+00 -0.83928174279E+03  0.36995183904E+04  0.36030601545E+04 0.  0.
        4    1    3    3  502    0 -0.41567744351E+03 -0.13328451802E+04  0.74936643053E+03  0.15845553545E+04  0.12699999809E+01 0. -1.
       -4    1    3    3    0  502  0.41567744351E+03  0.13328451802E+04 -0.15886481733E+04  0.21149630358E+04  0.12699999809E+01 0.  1.
</event>
<event>
 5   0  0.1017794E-07  0.3609726E+04  0.7818609E-02  0.8088267E-01
        2   -1    0    0  501    0  0.00000000000E+00  0.00000000000E+00  0.23971823383E+04  0.23971823383E+04  0.25500000920E-02 0.  1.
       -2   -1    0    0    0  501  0.00000000000E+00  0.00000000000E+00 -0.13589000581E+04  0.13589000581E+04  0.25500000920E-02 0. -1.
    10030    2    1    2    0    0  0.00000000000E+00  0.00000000000E+00  0.10382822802E+04  0.37560823964E+04  0.36097264267E+04 0.  0.
        1    1    3    3  502    0  0.11059308315E+04  0.14066903633E+04  0.27362890747E+03  0.18101750084E+04  0.50400001928E-02 0. -1.
       -1    1    3    3    0  502 -0.11059308315E+04 -0.14066903633E+04  0.76465337278E+03  0.19459073880E+04  0.50400001928E-02 0.  1.
</event>
<event>
 5   0  0.3202875E-08  0.3599768E+04  0.7818609E-02  0.8090545E-01
       -1   -1    0    0    0  501  0.00000000000E+00  0.00000000000E+00  0.12169268464E+04  0.12169268464E+04  0.50400001928E-02 0. -1.
        1   -1    0    0  501    0  0.00000000000E+00  0.00000000000E+00 -0.26621009669E+04  0.26621009669E+04  0.50400001928E-02 0.  1.
    10030    2    1    2    0    0  0.00000000000E+00  0.00000000000E+00 -0.14451741205E+04  0.38790278133E+04  0.35997678450E+04 0.  0.
        2    1    3    3  502    0  0.12790216209E+04 -0.43380929516E+03  0.55945602211E+03  0.14618747730E+04  0.25500000920E-02 0. -1.
       -2    1    3    3    0  502 -0.12790216209E+04  0.43380929516E+03 -0.20046301426E+04  0.24171530402E+04  0.25500000920E-02 0.  1.
</event>
<event>
 5   0  0.1021087E-07  0.3593481E+04  0.7818609E-02  0.8091987E-01
       -2   -1    0    0    0  501  0.00000000000E+00  0.00000000000E+00  0.10990147376E+04  0.10990147376E+04  0.25500000920E-02 0. -1.
        2   -1    0    0  501    0  0.00000000000E+00  0.00000000000E+00 -0.29374281271E+04  0.29374281271E+04  0.25500000920E-02 0.  1.
    10030    2    1    2    0    0  0.00000000000E+00  0.00000000000E+00 -0.18384133895E+04  0.40364428646E+04  0.35934812103E+04 0.  0.
        3    1    3    3  502    0 -0.13835602167E+04  0.10834194829E+04 -0.13398554458E+04  0.22098075199E+04  0.10100000352E+00 0.  1.
       -3    1    3    3    0  502  0.13835602167E+04 -0.10834194829E+04 -0.49855794369E+03  0.18266353447E+04  0.10100000352E+00 0. -1.
</event>
<event>
 5   0  0.3215494E-08  0.3598932E+04  0.7818609E-02  0.8090736E-01
        1   -1    0    0  501    0  0.00000000000E+00  0.00000000000E+00  0.19589204940E+04  0.19589204940E+04  0.50400001928E-02 0.  1.
       -1   -1    0    0    0  501  0.00000000000E+00  0.00000000000E+00 -0.16529905838E+04  0.16529905838E+04  0.50400001928E-02 0. -1.
    10030    2    1    2    0    0  0.00000000000E+00  0.00000000000E+00  0.30592991017E+03  0.36119110778E+04  0.35989315809E+04 0.  0.
        4    1    3    3  502    0 -0.39971364597E+03  0.60637869488E+03 -0.14993655822E+04  0.16660026658E+04  0.12699999809E+01 0. -1.
       -4    1    3    3    0  502  0.39971364597E+03 -0.60637869488E+03  0.18052954924E+04  0.19459084121E+04  0.12699999809E+01 0.  1.
</event>
<event>
 5   0  0.3202875E-08  0.3598682E+04  0.7818609E-02  0.8090794E-01
       -1   -1    0    0    0  501  0.00000000000E+00  0.00000000000E+00  0.13723881340E+04  0.13723881340E+04  0.50400001928E-02 0.  1.
        1   -1    0    0  501    0  0.00000000000E+00  0.00000000000E+00 -0.23591192151E+04  0.23591192152E+04  0.50400001928E-02 0. -1.
    10030    2    1    2    0    0  0.00000000000E+00  0.00000000000E+00 -0.98673108117E+03  0.37315073491E+04  0.35986815461E+04 0.  0.
        1    1    3    3  502    0 -0.11496863509E+04 -0.11583622017E+04  0.29225720910E+03  0.16580096418E+04  0.50400001928E-02 0.  1.
       -1    1    3    3    0  502  0.11496863509E+04  0.11583622017E+04 -0.12789882903E+04  0.20734977074E+04  0.50400001928E-02 0. -1.
</event>
<event>
 5   0  0.1017794E-07  0.3597785E+04  0.7818609E-02  0.8090999E-01
        2   -1    0    0  501    0  0.00000000000E+00  0.00000000000E+00  0.14049894067E+04  0.14049894067E+04  0.25500000920E-02 0. -1.
       -2   -1    0    0    0  501  0.00000000000E+00  0.00000000000E+00 -0.23032300250E+04  0.23032300250E+04  0.25500000920E-02 0.  1.
    10030    2    1    2    0    0  0.00000000000E+00  0.00000000000E+00 -0.89824061824E+03  0.37082194317E+04  0.35977847553E+04 0.  0.
        1    1    3    3  502    0  0.17471138289E+04 -0.79269229955E+01 -0.75492482394E+01  0.17471481215E+04  0.50400001928E-02 0.  1.
       -1    1    3    3    0  502 -0.17471138289E+04  0.79269229955E+01 -0.89069137000E+03  0.19610713102E+04  0.50400001928E-02 0. -1.
</event>
<event>
 5   0  0.1029908E-07  0.3599955E+04  0.7818609E-02  0.8090502E-01
       -2   -1    0    0    0  501  0.00000000000E+00  0.00000000000E+00  0.16624850815E+04  0.16624850815E+04  0.25500000920E-02 0. -1.
        2   -1    0    0  501    0  0.00000000000E+00  0.00000000000E+00 -0.19488414614E+04  0.19488414614E+04  0.25500000920E-02 0.  1.
    10030    2    1    2    0    0  0.00000000000E+00  0.00000000000E+00 -0.28635637989E+03  0.36113265429E+04  0.35999554752E+04 0.  0.
        4    1    3    3  502    0 -0.22267063115E+03  0.17563409756E+04  0.18281351255E+03  0.17798140987E+04  0.12699999809E+01 0. -1.
       -4    1    3    3    0  502  0.22267063115E+03 -0.17563409756E+04 -0.46916989245E+03  0.18315124442E+04  0.12699999809E+01 0.  1.
</event>
<event>
 5   0  0.3202875E-08  0.3591695E+04  0.7818609E-02  0.8092397E-01
        3   -1    0    0  501    0  0.00000000000E+00  0.00000000000E+00  0.17346497488E+04  0.17346497518E+04  0.10100000352E+00 0.  1.
       -3   -1    0    0    0  501  0.00000000000E+00  0.00000000000E+00 -0.18592046924E+04  0.18592046952E+04  0.10100000352E+00 0. -1.
    10030    2    1    2    0    0  0.00000000000E+00  0.00000000000E+00 -0.12455494362E+03  0.35938544469E+04  0.35916954008E+04 0.  0.
        4    1    3    3  502    0  0.89110867578E+03  0.15530697301E+04 -0.20008132236E+03  0.18017031962E+04  0.12699999809E+01 0. -1.
       -4    1    3    3    0  502 -0.89110867578E+03 -0.15530697301E+04  0.75526378731E+02  0.17921512507E+04  0.12699999809E+01 0.  1.
</event>
<event>
 5   0  0.1017794E-07  0.3601620E+04  0.7818609E-02  0.8090121E-01
        2   -1    0    0  501    0  0.00000000000E+00  0.00000000000E+00  0.16271568023E+04  0.16271568023E+04  0.25500000920E-02 0. -1.
       -2   -1    0    0    0  501  0.00000000000E+00  0.00000000000E+00 -0.19929953542E+04  0.19929953542E+04  0.25500000920E-02 0.  1.
    10030    2    1    2    0    0  0.00000000000E+00  0.00000000000E+00 -0.36583855192E+03  0.36201521565E+04  0.36016196065E+04 0.  0.
        1    1    3    3  502    0 -0.60731473560E+03 -0.16935185133E+04 -0.10454495506E+03  0.18021558730E+04  0.50400001928E-02 0.  1.
       -1    1    3    3    0  502  0.60731473560E+03  0.16935185133E+04 -0.26129359685E+03  0.18179962835E+04  0.50400001928E-02 0. -1.
</event>
<event>
 5   0  0.1021087E-07  0.3601934E+04  0.7818609E-02  0.8090049E-01
       -2   -1    0    0    0  501  0.00000000000E+00  0.00000000000E+00  0.13859502764E+04  0.13859502764E+04  0.25500000920E-02 0.  1.
        2   -1    0    0  501    0  0.00000000000E+00  0.00000000000E+00 -0.23402588316E+04  0.23402588316E+04  0.25500000920E-02 0. -1.
    10030    2    1    2    0    0  0.00000000000E+00  0.00000000000E+00 -0.95430855525E+03  0.37262091080E+04  0.36019341329E+04 0.  0.
        3    1    3    3  502    0  0.13793776255E+04 -0.39247813240E+03  0.64981745884E+03  0.15744791069E+04  0.10100000352E+00 0.  1.
       -3    1    3    3    0  502 -0.13793776255E+04  0.39247813240E+03 -0.16041260141E+04  0.21517300010E+04  0.10100000352E+00 0. -1.
</event>
<event>
 5   0  0.3202875E-08  0.3597126E+04  0.7818609E-02  0.8091150E-01
       -1   -1    0    0    0  501  0.00000000000E+00  0.00000000000E+00  0.17632916254E+04  0.17632916254E+04  0.50400001928E-02 0.  1.
        1   -1    0    0  501    0  0.00000000000E+00  0.00000000000E+00 -0.18345396441E+04  0.18345396441E+04  0.50400001928E-02 0. -1.
    10030    2    1    2    0    0  0.00000000000E+00  0.00000000000E+00 -0.71248018761E+02  0.35978312695E+04  0.35971257364E+04 0.  0.
        1    1    3    3  502    0  0.44315780275E+03 -0.17203064816E+04 -0.31672212267E+03  0.18044822337E+04  0.50400001928E-02 0.  1.
       -1    1    3    3    0  502 -0.44315780275E+03  0.17203064816E+04  0.24547410391E+03  0.17933490358E+04  0.50400001928E-02 0. -1.
</event>
<event>
 5   0  0.3202875E-08  0.3523249E+04  0.7818609E-02  0.8108302E-01
       -1   -1    0    0    0  501  0.00000000000E+00  0.00000000000E+00  0.15960999246E+04  0.15960999246E+04  0.50400001928E-02 0. -1.
        1   -1    0    0  501    0  0.00000000000E+00  0.00000000000E+00 -0.19443149768E+04  0.19443149768E+04  0.50400001928E-02 0.  1.
    10030    2    1    2    0    0  0.00000000000E+00  0.00000000000E+00 -0.34821505217E+03  0.35404149014E+04  0.35232490618E+04 0.  0.
        1    1    3    3  502    0 -0.49881122851E+03 -0.11143548128E+04 -0.14502246297E+04  0.18957190634E+04  0.50400001928E-02 0.  1.
       -1    1    3    3    0  502  0.49881122851E+03  0.11143548128E+04  0.11020095775E+04  0.16446958380E+04  0.50400001928E-02 0. -1.
</event>
<event>
 5   0  0.3212523E-08  0.3598313E+04  0.7818609E-02  0.8090878E-01
        1   -1    0    0  501    0  0.00000000000E+00  0.00000000000E+00  0.23116392911E+04  0.23116392911E+04  0.50400001928E-02 0. -1.
       -1   -1    0    0    0  501  0.00000000000E+00  0.00000000000E+00 -0.14002892334E+04  0.14002892334E+04  0.50400001928E-02 0.  1.
    10030    2    1    2    0    0  0.00000000000E+00  0.00000000000E+00  0.91135005776E+03  0.37119285245E+04  0.35983127217E+04 0.  0.
        3    1    3    3  502    0 -0.11867924004E+04 -0.65091458266E+03 -0.76699025146E+03  0.15557763501E+04  0.10100000352E+00 0.  1.
       -3    1    3    3    0  502  0.11867924004E+04  0.65091458266E+03  0.16783403092E+04  0.21561521744E+04  0.10100000352E+00 0. -1.
</event>
<event>
 5   0  0.3279988E-08  0.3594913E+04  0.7818609E-02  0.8091658E-01
        1   -1    0    0  501    0  0.00000000000E+00  0.00000000000E+00  0.18475454365E+04  0.18475454365E+04  0.50400001928E-02 0.  1.
       -1   -1    0    0    0  501  0.00000000000E+00  0.00000000000E+00 -0.17487252565E+04  0.17487252565E+04  0.50400001928E-02 0. -1.
    10030    2    1    2    0    0  0.00000000000E+00  0.00000000000E+00  0.98820179979E+02  0.35962706930E+04  0.35949127207E+04 0.  0.
        5    1    3    3  502    0 -0.97656369703E+03 -0.27618566663E+03  0.15335041457E+04  0.18389160480E+04  0.46999998093E+01 0.  1.
       -5    1    3    3    0  502  0.97656369703E+03  0.27618566663E+03 -0.14346839657E+04  0.17573546450E+04  0.46999998093E+01 0. -1.
</event>
<event>
 5   0  0.3279988E-08  0.3596811E+04  0.7818609E-02  0.8091223E-01
        1   -1    0    0  501    0  0.00000000000E+00  0.00000000000E+00  0.13720590288E+04  0.13720590289E+04  0.50400001928E-02 0.  1.
       -1   -1    0    0    0  501  0.00000000000E+00  0.00000000000E+00 -0.23572320357E+04  0.23572320357E+04  0.50400001928E-02 0. -1.
    10030    2    1    2    0    0  0.00000000000E+00  0.00000000000E+00 -0.98517300685E+03  0.37292910646E+04  0.35968105303E+04 0.  0.
        5    1    3    3  502    0 -0.27554486524E+03 -0.31449522996E+03 -0.23061274295E+04  0.23437316471E+04  0.46999998093E+01 0. -1.
       -5    1    3    3    0  502  0.27554486524E+03  0.31449522996E+03  0.13209544227E+04  0.13855594174E+04  0.46999998093E+01 0.  1.
</event>
<event>
 5   0  0.1029908E-07  0.3607833E+04  0.7818609E-02  0.8088700E-01
       -2   -1    0    0    0  501  0.00000000000E+00  0.00000000000E+00  0.27342662023E+04  0.27342662023E+04  0.25500000920E-02 0. -1.
        2   -1    0    0  501    0  0.00000000000E+00  0.00000000000E+00 -0.11901233484E+04  0.11901233484E+04  0.25500000920E-02 0.  1.
    10030    2    1    2    0    0  0.00000000000E+00  0.00000000000E+00  0.15441428539E+04  0.39243895508E+04  0.36078326171E+04 0.  0.
        4    1    3    3  502    0  0.57898979161E+03 -0.95674301580E+03 -0.76758290337E+03  0.13563817691E+04  0.12699999809E+01 0.  1.
       -4    1    3    3    0  502 -0.57898979161E+03  0.95674301580E+03  0.23117257573E+04  0.25680077817E+04  0.12699999809E+01 0. -1.
</event>
<event>
 5   0  0.1017794E-07  0.3633675E+04  0.7818609E-02  0.8082821E-01
       -2   -1    0    0    0  501  0.00000000000E+00  0.00000000000E+00  0.23148806118E+04  0.23148806118E+04  0.25500000920E-02 0.  1.
        2   -1    0    0  501    0  0.00000000000E+00  0.00000000000E+00 -0.14259472317E+04  0.14259472317E+04  0.25500000920E-02 0. -1.
    10030    2    1    2    0    0  0.00000000000E+00  0.00000000000E+00  0.88893338015E+03  0.37408278435E+04  0.36336745039E+04 0.  0.
        1    1    3    3  502    0 -0.17073975174E+04 -0.20091747263E+03  0.10494379721E+04  0.20141733218E+04  0.50400001928E-02 0. -1.
       -1    1    3    3    0  502  0.17073975174E+04  0.20091747263E+03 -0.16050459196E+03  0.17266545217E+04  0.50400001928E-02 0.  1.
</event>
<event>
 5   0  0.3215494E-08  0.3601832E+04  0.7818609E-02  0.8090072E-01
       -1   -1    0    0    0  501  0.00000000000E+00  0.00000000000E+00  0.12121847835E+04  0.12121847835E+04  0.50400001928E-02 0.  1.
        1   -1    0    0  501    0  0.00000000000E+00  0.00000000000E+00 -0.26755812336E+04  0.26755812336E+04  0.50400001928E-02 0. -1.
    10030    2    1    2    0    0  0.00000000000E+00  0.00000000000E+00 -0.14633964501E+04  0.38877660171E+04  0.36018322329E+04 0.  0.
        4    1    3    3  502    0  0.30009666222E+03  0.99005374928E+03  0.85944685800E+03  0.13449590878E+04  0.12699999809E+01 0.  1.
       -4    1    3    3    0  502 -0.30009666222E+03 -0.99005374928E+03 -0.23228433081E+04  0.25428069294E+04  0.12699999809E+01 0. -1.
</event>
<event>
 5   0  0.9905335E-08  0.3603045E+04  0.7818609E-02  0.8089794E-01
        2   -1    0    0  501    0  0.00000000000E+00  0.00000000000E+00  0.27572223620E+04  0.27572223620E+04  0.25500000920E-02 0.  1.
       -2   -1    0    0    0  501  0.00000000000E+00  0.00000000000E+00 -0.11770845581E+04  0.11770845581E+04  0.25500000920E-02 0. -1.
    10030    2    1    2    0    0  0.00000000000E+00  0.00000000000E+00  0.15801378039E+04  0.39343069201E+04  0.36030453039E+04 0.  0.
        5    1    3    3  502    0 -0.93725085859E+03  0.37858359112E+03 -0.83823823194E+03  0.13131755903E+04  0.46999998093E+01 0. -1.
       -5    1    3    3    0  502  0.93725085859E+03 -0.37858359112E+03  0.24183760359E+04  0.26211313298E+04  0.46999998093E+01 0.  1.
</event>
<event>
 5   0  0.3202875E-08  0.3598997E+04  0.7818609E-02  0.8090721E-01
        1   -1    0    0  501    0  0.00000000000E+00  0.00000000000E+00  0.24428299905E+04  0.24428299905E+04  0.50400001928E-02 0. -1.
       -1   -1    0    0    0  501  0.00000000000E+00  0.00000000000E+00 -0.13255917151E+04  0.13255917151E+04  0.50400001928E-02 0.  1.
    10030    2    1    2    0    0  0.00000000000E+00  0.00000000000E+00  0.11172382754E+04  0.37684217056E+04  0.35989971919E+04 0.  0.
        2    1    3    3  502    0  0.17261436204E+04  0.50119791858E+03  0.64883819530E+03  0.19109584390E+04  0.25500000920E-02 0. -1.
       -2    1    3    3    0  502 -0.17261436204E+04 -0.50119791858E+03  0.46840008015E+03  0.18574632667E+04  0.25500000920E-02 0.  1.
</event>
<event>
 5   0  0.1044678E-07  0.3597620E+04  0.7818609E-02  0.8091037E-01
        2   -1    0    0  501    0  0.00000000000E+00  0.00000000000E+00  0.21718354608E+04  0.21718354608E+04  0.25500000920E-02 0. -1.
       -2   -1    0    0    0  501  0.00000000000E+00  0.00000000000E+00 -0.14898539511E+04  0.14898539511E+04  0.25500000920E-02 0.  1.
    10030    2    1    2    0    0  0.00000000000E+00  0.00000000000E+00  0.68198150973E+03  0.36616894119E+04  0.35976201258E+04 0.  0.
        2    1    3    3  502    0 -0.21955886326E+02  0.22976788175E+03  0.21567006879E+04  0.21690166430E+04  0.25500000920E-02 0. -1.
       -2    1    3    3    0  502  0.21955886326E+02 -0.22976788175E+03 -0.14747191782E+04  0.14926727689E+04  0.25500000920E-02 0.  1.
</event>
<event>
 5   0  0.1021087E-07  0.3593765E+04  0.7818609E-02  0.8091921E-01
       -2   -1    0    0    0  501  0.00000000000E+00  0.00000000000E+00  0.11416856047E+04  0.11416856047E+04  0.25500000920E-02 0. -1.
        2   -1    0    0  501    0  0.00000000000E+00  0.00000000000E+00 -0.28280870481E+04  0.28280870481E+04  0.25500000920E-02 0.  1.
    10030    2    1    2    0    0  0.00000000000E+00  0.00000000000E+00 -0.16864014434E+04  0.39697726528E+04  0.35937647511E+04 0.  0.
        3    1    3    3  502    0 -0.12516747685E+03 -0.17730844732E+04 -0.11339735537E+04  0.21084097033E+04  0.10100000352E+00 0. -1.
       -3    1    3    3    0  502  0.12516747685E+03  0.17730844732E+04 -0.55242788971E+03  0.18613629495E+04  0.10100000352E+00 0.  1.
</event>
<event>
 5   0  0.1017794E-07  0.3601631E+04  0.7818609E-02  0.8090118E-01
       -2   -1    0    0    0  501  0.00000000000E+00  0.00000000000E+00  0.15719502894E+04  0.15719502894E+04  0.25500000920E-02 0.  1.
        2   -1    0    0  501    0  0.00000000000E+00  0.00000000000E+00 -0.20630017233E+04  0.20630017233E+04  0.25500000920E-02 0. -1.
    10030    2    1    2    0    0  0.00000000000E+00  0.00000000000E+00 -0.49105143385E+03  0.36349520127E+04  0.36016308283E+04 0.  0.
        1    1    3    3  502    0 -0.11767429395E+04 -0.64152941659E+03  0.96837049284E+03  0.16534888416E+04  0.50400001928E-02 0.  1.
       -1    1    3    3    0  502  0.11767429395E+04  0.64152941659E+03 -0.14594219267E+04  0.19814631710E+04  0.50400001928E-02 0. -1.
</event>
<event>
 5   0  0.1029908E-07  0.3625820E+04  0.7818609E-02  0.8084603E-01
       -2   -1    0    0    0  501  0.00000000000E+00  0.00000000000E+00  0.16805719029E+04  0.16805719029E+04  0.25500000920E-02 0. -1.
        2   -1    0    0  501    0  0.00000000000E+00  0.00000000000E+00 -0.19556692582E+04  0.19556692582E+04  0.25500000920E-02 0.  1.
    10030    2    1    2    0    0  0.00000000000E+00  0.00000000000E+00 -0.27509735527E+03  0.36362411611E+04  0.36258200764E+04 0.  0.
        4    1    3    3  502    0 -0.95068531646E+03 -0.14075962006E+04  0.49792191156E+03  0.17700444847E+04  0.12699999809E+01 0. -1.
       -4    1    3    3    0  502  0.95068531646E+03  0.14075962006E+04 -0.77301926683E+03  0.18661966763E+04  0.12699999809E+01 0.  1.
</event>
<event>
 5   0  0.3279988E-08  0.3605493E+04  0.7818609E-02  0.8089235E-01
       -1   -1    0    0    0  501  0.00000000000E+00  0.00000000000E+00  0.12581455580E+04  0.12581455580E+04  0.50400001928E-02 0. -1.
        1   -1    0    0  501    0  0.00000000000E+00  0.00000000000E+00 -0.25830828243E+04  0.25830828243E+04  0.50400001928E-02 0.  1.
    10030    2    1    2    0    0  0.00000000000E+00  0.00000000000E+00 -0.13249372664E+04  0.38412283823E+04  0.36054925773E+04 0.  0.
        5    1    3    3  502    0 -0.15498982260E+04  0.26866690808E+03  0.27573694961E+03  0.15970032479E+04  0.46999998093E+01 0. -1.
       -5    1    3    3    0  502  0.15498982260E+04 -0.26866690808E+03 -0.16006742160E+04  0.22442251344E+04  0.46999998093E+01 0.  1.
</event>
<event>
 5   0  0.3215494E-08  0.3599674E+04  0.7818609E-02  0.8090566E-01
        1   -1    0    0  501    0  0.00000000000E+00  0.00000000000E+00  0.20933563637E+04  0.20933563637E+04  0.50400001928E-02 0. -1.
       -1   -1    0    0    0  501  0.00000000000E+00  0.00000000000E+00 -0.15474733780E+04  0.15474733780E+04  0.50400001928E-02 0.  1.
    10030    2    1    2    0    0  0.00000000000E+00  0.00000000000E+00  0.54588298568E+03  0.36408297417E+04  0.35996740094E+04 0.  0.
        4    1    3    3  502    0 -0.14342734608E+04  0.15511803832E+03  0.13614473998E+04  0.19836185625E+04  0.12699999809E+01 0. -1.
       -4    1    3    3    0  502  0.14342734608E+04 -0.15511803832E+03 -0.81556441413E+03  0.16572111792E+04  0.12699999809E+01 0.  1.
</event>
<event>
 5   0  0.3202875E-08  0.3598051E+04  0.7818609E-02  0.8090938E-01
        3   -1    0    0  501    0  0.00000000000E+00  0.00000000000E+00  0.29883786237E+04  0.29883786254E+04  0.10100000352E+00 0.  1.
       -3   -1    0    0    0  501  0.00000000000E+00  0.00000000000E+00 -0.10830262067E+04  0.10830262114E+04  0.10100000352E+00 0. -1.
    10030    2    1    2    0    0  0.00000000000E+00  0.00000000000E+00  0.19053524170E+04  0.40714048368E+04  0.35980507934E+04 0.  0.
        1    1    3    3  502    0  0.12151731398E+04  0.10861762376E+04  0.18144958287E+04  0.24390202318E+04  0.50400001928E-02 0.  1.
       -1    1    3    3    0  502 -0.12151731398E+04 -0.10861762376E+04  0.90856588280E+02  0.16323846049E+04  0.50400001928E-02 0. -1.
</event>
<event>
 5   0  0.1021087E-07  0.3613547E+04  0.7818609E-02  0.8087396E-01
       -2   -1    0    0    0  501  0.00000000000E+00  0.00000000000E+00  0.15945527229E+04  0.15945527229E+04  0.25500000920E-02 0.  1.
        2   -1    0    0  501    0  0.00000000000E+00  0.00000000000E+00 -0.20472393920E+04  0.20472393920E+04  0.25500000920E-02 0. -1.
    10030    2    1    2    0    0  0.00000000000E+00  0.00000000000E+00 -0.45268666909E+03  0.36417921149E+04  0.36135473690E+04 0.  0.
        3    1    3    3  502    0  0.12246671420E+04  0.69865911100E+03  0.91230940159E+03  0.16793577988E+04  0.10100000352E+00 0.  1.
       -3    1    3    3    0  502 -0.12246671420E+04 -0.69865911100E+03 -0.13649960707E+04  0.19624343161E+04  0.10100000352E+00 0. -1.
</event>
<event>
 5   0  0.1044678E-07  0.3601785E+04  0.7818609E-02  0.8090083E-01
        2   -1    0    0  501    0  0.00000000000E+00  0.00000000000E+00  0.15807218795E+04  0.15807218795E+04  0.25500000920E-02 0. -1.
       -2   -1    0    0    0  501  0.00000000000E+00  0.00000000000E+00 -0.20517295262E+04  0.20517295262E+04  0.25500000920E-02 0.  1.
    10030    2    1    2    0    0  0.00000000000E+00  0.00000000000E+00 -0.47100764671E+03  0.36324514057E+04  0.36017849757E+04 0.  0.
        2    1    3    3  502    0 -0.60925859227E+03  0.42626139010E+03  0.14186805587E+04  0.16017332276E+04  0.25500000920E-02 0. -1.
       -2    1    3    3    0  502  0.60925859227E+03 -0.42626139010E+03 -0.18896882054E+04  0.20307181780E+04  0.25500000920E-02 0.  1.
</event>
<event>
 5   0  0.9905335E-08  0.3601832E+04  0.7818609E-02  0.8090072E-01
       -2   -1    0    0    0  501  0.00000000000E+00  0.00000000000E+00  0.14118822730E+04  0.14118822730E+04  0.25500000920E-02 0.  1.
        2   -1    0    0  501    0  0.00000000000E+00  0.00000000000E+00 -0.22971446180E+04  0.22971446180E+04  0.25500000920E-02 0. -1.
    10030    2    1    2    0    0  0.00000000000E+00  0.00000000000E+00 -0.88526234498E+03  0.37090268911E+04  0.36018316256E+04 0.  0.
        5    1    3    3  502    0 -0.12238880356E+03  0.52594831102E+03 -0.22118063838E+04  0.22767762768E+04  0.46999998093E+01 0. -1.
       -5    1    3    3    0  502  0.12238880356E+03 -0.52594831102E+03  0.13265440388E+04  0.14322506143E+04  0.46999998093E+01 0.  1.
</event>
<event>
 5   0  0.3215494E-08  0.3592174E+04  0.7818609E-02  0.8092287E-01
       -1   -1    0    0    0  501  0.00000000000E+00  0.00000000000E+00  0.27938462881E+04  0.27938462881E+04  0.50400001928E-02 0. -1.
        1   -1    0    0  501    0  0.00000000000E+00  0.00000000000E+00 -0.11546548306E+04  0.11546548306E+04  0.50400001928E-02 0.  1.
    10030    2    1    2    0    0  0.00000000000E+00  0.00000000000E+00  0.16391914576E+04  0.39485011187E+04  0.35921737778E+04 0.  0.
        4    1    3    3  502    0  0.47881397695E+03 -0.49943647042E+03  0.26414858931E+04  0.27305949807E+04  0.12699999809E+01 0. -1.
       -4    1    3    3    0  502 -0.47881397695E+03  0.49943647042E+03 -0.10022944355E+04  0.12179061380E+04  0.12699999809E+01 0.  1.
</event>
<event>
 5   0  0.3202875E-08  0.3603002E+04  0.7818609E-02  0.8089804E-01
       -1   -1    0    0    0  501  0.00000000000E+00  0.00000000000E+00  0.15210386894E+04  0.15210386894E+04  0.50400001928E-02 0.  1.
        1   -1    0    0  501    0  0.00000000000E+00  0.00000000000E+00 -0.21336779694E+04  0.21336779694E+04  0.50400001928E-02 0. -1.
    10030    2    1    2    0    0  0.00000000000E+00  0.00000000000E+00 -0.61263927997E+03  0.36547166588E+04  0.36030024935E+04 0.  0.
        1    1    3    3  502    0  0.38594251727E+03 -0.16390257619E+04  0.34322257524E+03  0.17184757231E+04  0.50400001928E-02 0.  1.
       -1    1    3    3    0  502 -0.38594251727E+03  0.16390257619E+04 -0.95586185520E+03  0.19362409357E+04  0.50400001928E-02 0. -1.
</event>
<event>
 5   0  0.1044678E-07  0.3602392E+04  0.7818609E-02  0.8089944E-01
       -2   -1    0    0    0  501  0.00000000000E+00  0.00000000000E+00  0.19946464903E+04  0.19946464903E+04  0.25500000920E-02 0.  1.
        2   -1    0    0  501    0  0.00000000000E+00  0.00000000000E+00 -0.16265076426E+04  0.16265076426E+04  0.25500000920E-02 0. -1.
    10030    2    1    2    0    0  0.00000000000E+00  0.00000000000E+00  0.36813884775E+03  0.36211541329E+04  0.36023924055E+04 0.  0.
        2    1    3    3  502    0 -0.16951975621E+04  0.38988716502E+03  0.65405231614E+03  0.18583571261E+04  0.25500000920E-02 0. -1.
       -2    1    3    3    0  502  0.16951975621E+04 -0.38988716502E+03 -0.28591346840E+03  0.17627970068E+04  0.25500000920E-02 0.  1.
</event>
<event>
 5   0  0.3215494E-08  0.3599370E+04  0.7818609E-02  0.8090636E-01
        1   -1    0    0  501    0  0.00000000000E+00  0.00000000000E+00  0.13792064774E+04  0.13792064775E+04  0.50400001928E-02 0.  1.
       -1   -1    0    0    0  501  0.00000000000E+00  0.00000000000E+00 -0.23483547531E+04  0.23483547531E+04  0.50400001928E-02 0. -1.
    10030    2    1    2    0    0  0.00000000000E+00  0.00000000000E+00 -0.96914827564E+03  0.37275612305E+04  0.35993699931E+04 0.  0.
        4    1    3    3  502    0  0.11134975682E+04  0.63532646785E+03 -0.17926291203E+04  0.22038687191E+04  0.12699999809E+01 0. -1.
       -4    1    3    3    0  502 -0.11134975682E+04 -0.63532646785E+03  0.82348084467E+03  0.15236925115E+04  0.12699999809E+01 0.  1.
</event>
<event>
 5   0  0.1029908E-07  0.3603922E+04  0.7818609E-02  0.8089594E-01
        2   -1    0    0  501    0  0.00000000000E+00  0.00000000000E+00  0.29599715562E+04  0.29599715562E+04  0.25500000920E-02 0.  1.
       -2   -1    0    0    0  501  0.00000000000E+00  0.00000000000E+00 -0.10969913776E+04  0.10969913776E+04  0.25500000920E-02 0. -1.
    10030    2    1    2    0    0  0.00000000000E+00  0.00000000000E+00  0.18629801786E+04  0.40569629338E+04  0.36039219054E+04 0.  0.
        4    1    3    3  502    0 -0.73980615841E+02  0.94385572814E+03  0.26574335772E+04  0.28210444160E+04  0.12699999809E+01 0.  1.
       -4    1    3    3    0  502  0.73980615841E+02 -0.94385572814E+03 -0.79445339858E+03  0.12359185177E+04  0.12699999809E+01 0. -1.
</event>
<event>
 5   0  0.3279988E-08  0.3590829E+04  0.7818609E-02  0.8092596E-01
       -1   -1    0    0    0  501  0.00000000000E+00  0.00000000000E+00  0.15805612487E+04  0.15805612487E+04  0.50400001928E-02 0. -1.
        1   -1    0    0  501    0  0.00000000000E+00  0.00000000000E+00 -0.20394742018E+04  0.20394742018E+04  0.50400001928E-02 0.  1.
    10030    2    1    2    0    0  0.00000000000E+00  0.00000000000E+00 -0.45891295314E+03  0.36200354505E+04  0.35908293700E+04 0.  0.
        5    1    3    3  502    0  0.12447550624E+04  0.11310551494E+04  0.40397787712E+03  0.17297170669E+04  0.46999998093E+01 0. -1.
       -5    1    3    3    0  502 -0.12447550624E+04 -0.11310551494E+04 -0.86289083025E+03  0.18903183836E+04  0.46999998093E+01 0.  1.
</event>
<event>
 5   0  0.9905335E-08  0.3607858E+04  0.7818609E-02  0.8088694E-01
        2   -1    0    0  501    0  0.00000000000E+00  0.00000000000E+00  0.28263025934E+04  0.28263025934E+04  0.25500000920E-02 0. -1.
       -2   -1    0    0    0  501  0.00000000000E+00  0.00000000000E+00 -0.11513838553E+04  0.11513838553E+04  0.25500000920E-02 0.  1.
    10030    2    1    2    0    0  0.00000000000E+00  0.00000000000E+00  0.16749187380E+04  0.39776864487E+04  0.36078576337E+04 0.  0.
        5    1    3    3  502    0 -0.16119503815E+04  0.40252807636E+03  0.62777553012E+02  0.16626412709E+04  0.46999998093E+01 0.  1.
       -5    1    3    3    0  502  0.16119503815E+04 -0.40252807636E+03  0.16121411850E+04  0.23150451778E+04  0.46999998093E+01 0. -1.
</event>
<event>
 5   0  0.1017794E-07  0.3610917E+04  0.7818609E-02  0.8087996E-01
        2   -1    0    0  501    0  0.00000000000E+00  0.00000000000E+00  0.23945296892E+04  0.23945296892E+04  0.25500000920E-02 0.  1.
       -2   -1    0    0    0  501  0.00000000000E+00  0.00000000000E+00 -0.13613028541E+04  0.13613028541E+04  0.25500000920E-02 0. -1.
    10030    2    1    2    0    0  0.00000000000E+00  0.00000000000E+00  0.10332268351E+04  0.37558325433E+04  0.36109168365E+04 0.  0.
        1    1    3    3  502    0 -0.81117479199E+03  0.15089451427E+04 -0.76134554092E+02  0.17148517304E+04  0.50400001928E-02 0. -1.
       -1    1    3    3    0  502  0.81117479199E+03 -0.15089451427E+04  0.11093613892E+04  0.20409808129E+04  0.50400001928E-02 0.  1.
</event>
<event>
 5   0  0.3212523E-08  0.3598602E+04  0.7818609E-02  0.8090812E-01
       -1   -1    0    0    0  501  0.00000000000E+00  0.00000000000E+00  0.20868282106E+04  0.20868282106E+04  0.50400001928E-02 0. -1.
        1   -1    0    0  501    0  0.00000000000E+00  0.00000000000E+00 -0.15513901376E+04  0.15513901376E+04  0.50400001928E-02 0.  1.
    10030    2    1    2    0    0  0.00000000000E+00  0.00000000000E+00  0.53543807299E+03  0.36382183483E+04  0.35986023425E+04 0.  0.
        3    1    3    3  502    0 -0.13566367324E+04 -0.11109319996E+04 -0.14027223057E+03  0.17590649335E+04  0.10100000352E+00 0.  1.
       -3    1    3    3    0  502  0.13566367324E+04  0.11109319996E+04  0.67571030356E+03  0.18791534147E+04  0.10100000352E+00 0. -1.
</event>
<event>
 5   0  0.3215494E-08  0.3599865E+04  0.7818609E-02  0.8090523E-01
        1   -1    0    0  501    0  0.00000000000E+00  0.00000000000E+00  0.24063104233E+04  0.24063104233E+04  0.50400001928E-02 0.  1.
       -1   -1    0    0    0  501  0.00000000000E+00  0.00000000000E+00 -0.13463586124E+04  0.13463586124E+04  0.50400001928E-02 0. -1.
    10030    2    1    2    0    0  0.00000000000E+00  0.00000000000E+00  0.10599518109E+04  0.37526690357E+04  0.35998648656E+04 0.  0.
        4    1    3    3  502    0  0.85741372312E+03  0.93016181898E+03 -0.80476195911E+03  0.14993340941E+04  0.12699999809E+01 0. -1.
       -4    1    3    3    0  502 -0.85741372312E+03 -0.93016181898E+03  0.18647137700E+04  0.22533349416E+04  0.12699999809E+01 0.  1.
</event>
<event>
 5   0  0.3215494E-08  0.3599578E+04  0.7818609E-02  0.8090588E-01
       -1   -1    0    0    0  501  0.00000000000E+00  0.00000000000E+00  0.13411273726E+04  0.13411273726E+04  0.50400001928E-02 0.  1.
        1   -1    0    0  501    0  0.00000000000E+00  0.00000000000E+00 -0.24153114216E+04  0.24153114216E+04  0.50400001928E-02 0. -1.
    10030    2    1    2    0    0  0.00000000000E+00  0.00000000000E+00 -0.10741840490E+04  0.37564387942E+04  0.35995778980E+04 0.  0.
        4    1    3    3  502    0 -0.53171651279E+01 -0.16423823289E+04 -0.13052322315E+04  0.20978753007E+04  0.12699999809E+01 0. -1.
       -4    1    3    3    0  502  0.53171651279E+01  0.16423823289E+04  0.23104818247E+03  0.16585634935E+04  0.12699999809E+01 0.  1.
</event>
<event>
 5   0  0.3215494E-08  0.3601687E+04  0.7818609E-02  0.8090105E-01
       -1   -1    0    0    0  501  0.00000000000E+00  0.00000000000E+00  0.16759221116E+04  0.16759221116E+04  0.50400001928E-02 0.  1.
        1   -1    0    0  501    0  0.00000000000E+00  0.00000000000E+00 -0.19350765094E+04  0.19350765094E+04  0.50400001928E-02 0. -1.
    10030    2    1    2    0    0  0.00000000000E+00  0.00000000000E+00 -0.25915439776E+03  0.36109986210E+04  0.36016871101E+04 0.  0.
        4    1    3    3  502    0 -0.12685314057E+04 -0.29189146010E+03 -0.13772475377E+04  0.18950422013E+04  0.12699999809E+01 0. -1.
       -4    1    3    3    0  502  0.12685314057E+04  0.29189146010E+03  0.11180931400E+04  0.17159564197E+04  0.12699999809E+01 0.  1.
</event>
<event>
 5   0  0.3212523E-08  0.3600023E+04  0.7818609E-02  0.8090486E-01
       -1   -1    0    0    0  501  0.00000000000E+00  0.00000000000E+00  0.16378350537E+04  0.16378350537E+04  0.50400001928E-02 0. -1.
        1   -1    0    0  501    0  0.00000000000E+00  0.00000000000E+00 -0.19782462680E+04  0.19782462680E+04  0.50400001928E-02 0.  1.
    10030    2    1    2    0    0  0.00000000000E+00  0.00000000000E+00 -0.34041121436E+03  0.36160813217E+04  0.36000228236E+04 0.  0.
        3    1    3    3  502    0 -0.17303680612E+04 -0.49440736723E+03 -0.13223752038E+03  0.18044664153E+04  0.10100000352E+00 0. -1.
       -3    1    3    3    0  502  0.17303680612E+04  0.49440736723E+03 -0.20817369398E+03  0.18116149064E+04  0.10100000352E+00 0.  1.
</event>
<event>
 5   0  0.9905335E-08  0.3598470E+04  0.7818609E-02  0.8090842E-01
        2   -1    0    0  501    0  0.00000000000E+00  0.00000000000E+00  0.17268377009E+04  0.17268377009E+04  0.25500000920E-02 0.  1.
       -2   -1    0    0    0  501  0.00000000000E+00  0.00000000000E+00 -0.18746678519E+04  0.18746678519E+04  0.25500000920E-02 0. -1.
    10030    2    1    2    0    0  0.00000000000E+00  0.00000000000E+00 -0.14783015099E+03  0.36015055528E+04  0.35984702991E+04 0.  0.
        5    1    3    3  502    0 -0.17331974206E+04 -0.31102477817E+02  0.40845033802E+03  0.17809532368E+04  0.46999998093E+01 0. -1.
       -5    1    3    3    0  502  0.17331974206E+04  0.31102477817E+02 -0.55628048901E+03  0.18205523161E+04  0.46999998093E+01 0.  1.
</event>
<event>
 5   0  0.1044678E-07  0.3602793E+04  0.7818609E-02  0.8089852E-01
        2   -1    0    0  501    0  0.00000000000E+00  0.00000000000E+00  0.14955920238E+04  0.14955920238E+04  0.25500000920E-02 0. -1.
       -2   -1    0    0    0  501  0.00000000000E+00  0.00000000000E+00 -0.21697293930E+04  0.21697293930E+04  0.25500000920E-02 0.  1.
    10030    2    1    2    0    0  0.00000000000E+00  0.00000000000E+00 -0.67413736924E+03  0.36653214168E+04  0.36027933463E+04 0.  0.
        2    1    3    3  502    0 -0.12673640932E+04 -0.22554218489E+03 -0.16190774099E+04  0.20684517595E+04  0.25500000920E-02 0.  1.
       -2    1    3    3    0  502  0.12673640932E+04  0.22554218489E+03  0.94494004067E+03  0.15968696573E+04  0.25500000920E-02 0. -1.
</event>
<event>
 5   0  0.3202875E-08  0.3599155E+04  0.7818609E-02  0.8090685E-01
        1   -1    0    0  501    0  0.00000000000E+00  0.00000000000E+00  0.16925990259E+04  0.16925990259E+04  0.50400001928E-02 0. -1.
       -1   -1    0    0    0  501  0.00000000000E+00  0.00000000000E+00 -0.19133173077E+04  0.19133173077E+04  0.50400001928E-02 0.  1.
    10030    2    1    2    0    0  0.00000000000E+00  0.00000000000E+00 -0.22071828184E+03  0.36059163337E+04  0.35991549071E+04 0.  0.
        2    1    3    3  502    0 -0.11275107579E+04 -0.54297271207E+03  0.11852752795E+04  0.17236523326E+04  0.25500000920E-02 0. -1.
       -2    1    3    3    0  502  0.11275107579E+04  0.54297271207E+03 -0.14059935614E+04  0.18822640011E+04  0.25500000920E-02 0.  1.
</event>
<event>
 5   0  0.3202875E-08  0.3628809E+04  0.7818609E-02  0.8083924E-01
        1   -1    0    0  501    0  0.00000000000E+00  0.00000000000E+00  0.24510187770E+04  0.24510187770E+04  0.50400001928E-02 0. -1.
       -1   -1    0    0    0  501  0.00000000000E+00  0.00000000000E+00 -0.13431410142E+04  0.13431410142E+04  0.50400001928E-02 0.  1.
    10030    2    1    2    0    0  0.00000000000E+00  0.00000000000E+00  0.11078777628E+04  0.37941597912E+04  0.36288090862E+04 0.  0.
        1    1    3    3  502    0  0.52058326920E+03  0.15014030164E+03 -0.12565864064E+04  0.13684145742E+04  0.50400001928E-02 0.  1.
       -1    1    3    3    0  502 -0.52058326920E+03 -0.15014030164E+03  0.23644641692E+04  0.24257452170E+04  0.50400001928E-02 0. -1.
</event>
<event>
 5   0  0.3212523E-08  0.3594828E+04  0.7818609E-02  0.8091677E-01
       -1   -1    0    0    0  501  0.00000000000E+00  0.00000000000E+00  0.23417741497E+04  0.23417741497E+04  0.50400001928E-02 0.  1.
        1   -1    0    0  501    0  0.00000000000E+00  0.00000000000E+00 -0.13795936750E+04  0.13795936751E+04  0.50400001928E-02 0. -1.
    10030    2    1    2    0    0  0.00000000000E+00  0.00000000000E+00  0.96218047466E+03  0.37213678248E+04  0.35948278431E+04 0.  0.
        3    1    3    3  502    0 -0.38878239768E+03  0.14149111139E+04  0.15556920440E+04  0.21385282226E+04  0.10100000352E+00 0.  1.
       -3    1    3    3    0  502  0.38878239768E+03 -0.14149111139E+04 -0.59351156930E+03  0.15828396022E+04  0.10100000352E+00 0. -1.
</event>
<event>
 5   0  0.3202875E-08  0.3599093E+04  0.7818609E-02  0.8090700E-01
        1   -1    0    0  501    0  0.00000000000E+00  0.00000000000E+00  0.15742481829E+04  0.15742481829E+04  0.50400001928E-02 0.  1.
       -1   -1    0    0    0  501  0.00000000000E+00  0.00000000000E+00 -0.20570882480E+04  0.20570882480E+04  0.50400001928E-02 0. -1.
    10030    2    1    2    0    0  0.00000000000E+00  0.00000000000E+00 -0.48284006513E+03  0.36313364309E+04  0.35990929060E+04 0.  0.
        1    1    3    3  502    0  0.10015352501E+04 -0.14939055315E+04 -0.30145810096E+03  0.18236511676E+04  0.50400001928E-02 0. -1.
       -1    1    3    3    0  502 -0.10015352501E+04  0.14939055315E+04 -0.18138196418E+03  0.18076852633E+04  0.50400001928E-02 0.  1.
</event>
<event>
 5   0  0.3215494E-08  0.3598183E+04  0.7818609E-02  0.8090908E-01
       -1   -1    0    0    0  501  0.00000000000E+00  0.00000000000E+00  0.20127675534E+04  0.20127675534E+04  0.50400001928E-02 0.  1.
        1   -1    0    0  501    0  0.00000000000E+00  0.00000000000E+00 -0.16080990637E+04  0.16080990637E+04  0.50400001928E-02 0. -1.
    10030    2    1    2    0    0  0.00000000000E+00  0.00000000000E+00  0.40466848969E+03  0.36208666172E+04  0.35981826625E+04 0.  0.
        4    1    3    3  502    0  0.45011938543E+03  0.16218663541E+04 -0.43702153721E+03  0.17389788293E+04  0.12699999809E+01 0.  1.
       -4    1    3    3    0  502 -0.45011938543E+03 -0.16218663541E+04  0.84169002690E+03  0.18818877879E+04  0.12699999809E+01 0. -1.
</event>
<event>
 5   0  0.3215494E-08  0.3598086E+04  0.7818609E-02  0.8090930E-01
        1   -1    0    0  501    0  0.00000000000E+00  0.00000000000E+00  0.29730739537E+04  0.29730739537E+04  0.50400001928E-02 0.  1.
       -1   -1    0    0    0  501  0.00000000000E+00  0.00000000000E+00 -0.10886228133E+04  0.10886228133E+04  0.50400001928E-02 0. -1.
    10030    2    1    2    0    0  0.00000000000E+00  0.00000000000E+00  0.18844511404E+04  0.40616967671E+04  0.35980862312E+04 0.  0.
        4    1    3    3  502    0 -0.16720769172E+04 -0.43587316854E+03  0.37697989717E+03  0.17685989065E+04  0.12699999809E+01 0.  1.
       -4    1    3    3    0  502  0.16720769172E+04  0.43587316854E+03  0.15074712433E+04  0.22930978606E+04  0.12699999809E+01 0. -1.
</event>
<event>
 5   0  0.3212523E-08  0.3600432E+04  0.7818609E-02  0.8090393E-01
       -1   -1    0    0    0  501  0.00000000000E+00  0.00000000000E+00  0.15895053951E+04  0.15895053951E+04  0.50400001928E-02 0.  1.
        1   -1    0    0  501    0  0.00000000000E+00  0.00000000000E+00 -0.20388597052E+04  0.20388597052E+04  0.50400001928E-02 0. -1.
    10030    2    1    2    0    0  0.00000000000E+00  0.00000000000E+00 -0.44935431015E+03  0.36283651003E+04  0.36004324748E+04 0.  0.
        3    1    3    3  502    0  0.43524872956E+03 -0.14661629004E+03  0.15294707463E+04  0.15969403768E+04  0.10100000352E+00 0.  1.
       -3    1    3    3    0  502 -0.43524872956E+03  0.14661629004E+03 -0.19788250565E+04  0.20314247235E+04  0.10100000352E+00 0. -1.
</event>
<event>
 5   0  0.1044678E-07  0.3590955E+04  0.7818609E-02  0.8092567E-01
       -2   -1    0    0    0  501  0.00000000000E+00  0.00000000000E+00  0.11025224816E+04  0.11025224816E+04  0.25500000920E-02 0. -1.
        2   -1    0    0  501    0  0.00000000000E+00  0.00000000000E+00 -0.29239668257E+04  0.29239668258E+04  0.25500000920E-02 0.  1.
    10030    2    1    2    0    0  0.00000000000E+00  0.00000000000E+00 -0.18214443442E+04  0.40264893073E+04  0.35909548373E+04 0.  0.
        2    1    3    3  502    0 -0.15744481364E+04  0.12191176077E+03 -0.18687430813E+04  0.24466201412E+04  0.25500000920E-02 0.  1.
       -2    1    3    3    0  502  0.15744481364E+04 -0.12191176077E+03  0.47298737088E+02  0.15798691661E+04  0.25500000920E-02 0. -1.
</event>
<event>
 5   0  0.3202875E-08  0.3634232E+04  0.7818609E-02  0.8082695E-01
        3   -1    0    0  501    0  0.00000000000E+00  0.00000000000E+00  0.18115721115E+04  0.18115721143E+04  0.10100000352E+00 0. -1.
       -3   -1    0    0    0  501  0.00000000000E+00  0.00000000000E+00 -0.18226764033E+04  0.18226764061E+04  0.10100000352E+00 0.  1.
    10030    2    1    2    0    0  0.00000000000E+00  0.00000000000E+00 -0.11104291784E+02  0.36342485203E+04  0.36342315560E+04 0.  0.
        1    1    3    3  502    0  0.48964264813E+03  0.78115743603E+03  0.15603264506E+04  0.18123397847E+04  0.50400001928E-02 0. -1.
       -1    1    3    3    0  502 -0.48964264813E+03 -0.78115743603E+03 -0.15714307424E+04  0.18219087356E+04  0.50400001928E-02 0.  1.
</event>
<event>
 5   0  0.1017794E-07  0.3602750E+04  0.7818609E-02  0.8089862E-01
        2   -1    0    0  501    0  0.00000000000E+00  0.00000000000E+00  0.22407296144E+04  0.22407296144E+04  0.25500000920E-02 0. -1.
       -2   -1    0    0    0  501  0.00000000000E+00  0.00000000000E+00 -0.14481675063E+04  0.14481675063E+04  0.25500000920E-02 0.  1.
    10030    2    1    2    0    0  0.00000000000E+00  0.00000000000E+00  0.79256210810E+03  0.36888971207E+04  0.36027499597E+04 0.  0.
        1    1    3    3  502    0 -0.56794041258E+03 -0.17094683300E+04  0.40719109983E+03  0.18467925913E+04  0.50400001928E-02 0. -1.
       -1    1    3    3    0  502  0.56794041258E+03  0.17094683300E+04  0.38537100827E+03  0.18421045294E+04  0.50400001928E-02 0.  1.
</event>
<event>
 5   0  0.3212523E-08  0.3642925E+04  0.7818609E-02  0.8080729E-01
       -1   -1    0    0    0  501  0.00000000000E+00  0.00000000000E+00  0.17255977483E+04  0.17255977483E+04  0.50400001928E-02 0.  1.
        1   -1    0    0  501    0  0.00000000000E+00  0.00000000000E+00 -0.19226534394E+04  0.19226534394E+04  0.50400001928E-02 0. -1.
    10030    2    1    2    0    0  0.00000000000E+00  0.00000000000E+00 -0.19705569110E+03  0.36482511876E+04  0.36429254429E+04 0.  0.
        3    1    3    3  502    0  0.59360590430E+03  0.15992408095E+04 -0.73804367273E+03  0.18586682354E+04  0.10100000352E+00 0. -1.
       -3    1    3    3    0  502 -0.59360590430E+03 -0.15992408095E+04  0.54098798162E+03  0.17895829522E+04  0.10100000352E+00 0.  1.
</event>
<event>
 5   0  0.1017794E-07  0.3624018E+04  0.7818609E-02  0.8085012E-01
       -2   -1    0    0    0  501  0.00000000000E+00  0.00000000000E+00  0.13850518479E+04  0.13850518479E+04  0.25500000920E-02 0.  1.
        2   -1    0    0  501    0  0.00000000000E+00  0.00000000000E+00 -0.23705805161E+04  0.23705805161E+04  0.25500000920E-02 0. -1.
    10030    2    1    2    0    0  0.00000000000E+00  0.00000000000E+00 -0.98552866820E+03  0.37556323640E+04  0.36240181702E+04 0.  0.
        1    1    3    3  502    0  0.54045560194E+03  0.17264209986E+04 -0.38529068346E+03  0.18496136442E+04  0.50400001928E-02 0.  1.
       -1    1    3    3    0  502 -0.54045560194E+03 -0.17264209986E+04 -0.60023798474E+03  0.19060187198E+04  0.50400001928E-02 0. -1.
</event>
<event>
 5   0  0.3202875E-08  0.3622305E+04  0.7818609E-02  0.8085402E-01
       -1   -1    0    0    0  501  0.00000000000E+00  0.00000000000E+00  0.16810286889E+04  0.16810286889E+04  0.50400001928E-02 0.  1.
        1   -1    0    0  501    0  0.00000000000E+00  0.00000000000E+00 -0.19513487209E+04  0.19513487209E+04  0.50400001928E-02 0. -1.
    10030    2    1    2    0    0  0.00000000000E+00  0.00000000000E+00 -0.27032003203E+03  0.36323774098E+04  0.36223048916E+04 0.  0.
        1    1    3    3  502    0 -0.29089322303E+03 -0.72256256202E+03 -0.17748084594E+04  0.19382106673E+04  0.50400001928E-02 0. -1.
       -1    1    3    3    0  502  0.29089322303E+03  0.72256256202E+03  0.15044884274E+04  0.16941667425E+04  0.50400001928E-02 0.  1.
</event>
<event>
 5   0  0.9905335E-08  0.3598951E+04  0.7818609E-02  0.8090732E-01
       -2   -1    0    0    0  501  0.00000000000E+00  0.00000000000E+00  0.13181488701E+04  0.13181488701E+04  0.25500000920E-02 0.  1.
        2   -1    0    0  501    0  0.00000000000E+00  0.00000000000E+00 -0.24565597812E+04  0.24565597812E+04  0.25500000920E-02 0. -1.
    10030    2    1    2    0    0  0.00000000000E+00  0.00000000000E+00 -0.11384109110E+04  0.37747086513E+04  0.35989506804E+04 0.  0.
        5    1    3    3  502    0 -0.98171828484E+03 -0.14983517515E+04 -0.74861663887E+03  0.19414627795E+04  0.46999998093E+01 0. -1.
       -5    1    3    3    0  502  0.98171828484E+03  0.14983517515E+04 -0.38979427216E+03  0.18332458718E+04  0.46999998093E+01 0.  1.
</event>
<event>
 5   0  0.3202875E-08  0.3594547E+04  0.7818609E-02  0.8091742E-01
        1   -1    0    0  501    0  0.00000000000E+00  0.00000000000E+00  0.15455043302E+04  0.15455043302E+04  0.50400001928E-02 0. -1.
       -1   -1    0    0    0  501  0.00000000000E+00  0.00000000000E+00 -0.20900569105E+04  0.20900569105E+04  0.50400001928E-02 0.  1.
    10030    2    1    2    0    0  0.00000000000E+00  0.00000000000E+00 -0.54455258033E+03  0.36355612406E+04  0.35945469842E+04 0.  0.
        2    1    3    3  502    0 -0.12406306484E+04 -0.94430850448E+03 -0.11765182682E+04  0.19532225149E+04  0.25500000920E-02 0.  1.
       -2    1    3    3    0  502  0.12406306484E+04  0.94430850448E+03  0.63196568792E+03  0.16823387257E+04  0.25500000920E-02 0. -1.
</event>
<event>
 5   0  0.1021087E-07  0.3608620E+04  0.7818609E-02  0.8088520E-01
       -2   -1    0    0    0  501  0.00000000000E+00  0.00000000000E+00  0.17234165010E+04  0.17234165010E+04  0.25500000920E-02 0.  1.
        2   -1    0    0  501    0  0.00000000000E+00  0.00000000000E+00 -0.18890002231E+04  0.18890002231E+04  0.25500000920E-02 0. -1.
    10030    2    1    2    0    0  0.00000000000E+00  0.00000000000E+00 -0.16558372206E+03  0.36124167242E+04  0.36086197666E+04 0.  0.
        3    1    3    3  502    0 -0.88276449050E+03 -0.13708783844E+04  0.69064872067E+03  0.17707558714E+04  0.10100000352E+00 0.  1.
       -3    1    3    3    0  502  0.88276449050E+03  0.13708783844E+04 -0.85623244273E+03  0.18416608528E+04  0.10100000352E+00 0. -1.
</event>
<event>
 5   0  0.1044678E-07  0.3609676E+04  0.7818609E-02  0.8088279E-01
        2   -1    0    0  501    0  0.00000000000E+00  0.00000000000E+00  0.21551880263E+04  0.21551880263E+04  0.25500000920E-02 0.  1.
       -2   -1    0    0    0  501  0.00000000000E+00  0.00000000000E+00 -0.15114413284E+04  0.15114413284E+04  0.25500000920E-02 0. -1.
    10030    2    1    2    0    0  0.00000000000E+00  0.00000000000E+00  0.64374669795E+03  0.36666293547E+04  0.36096760261E+04 0.  0.
        2    1    3    3  502    0 -0.74777555895E+03  0.46928189489E+03  0.19208919253E+04  0.21140528783E+04  0.25500000920E-02 0.  1.
       -2    1    3    3    0  502  0.74777555895E+03 -0.46928189489E+03 -0.12771452274E+04  0.15525764764E+04  0.25500000920E-02 0. -1.
</event>
<event>
 5   0  0.3202875E-08  0.3601480E+04  0.7818609E-02  0.8090153E-01
       -1   -1    0    0    0  501  0.00000000000E+00  0.00000000000E+00  0.12756300318E+04  0.12756300318E+04  0.50400001928E-02 0. -1.
        1   -1    0    0  501    0  0.00000000000E+00  0.00000000000E+00 -0.25420100315E+04  0.25420100315E+04  0.50400001928E-02 0.  1.
    10030    2    1    2    0    0  0.00000000000E+00  0.00000000000E+00 -0.12663799996E+04  0.38176400633E+04  0.36014798833E+04 0.  0.
        2    1    3    3  502    0  0.16223370877E+04 -0.21841768299E+03  0.16216430200E+03  0.16449866781E+04  0.25500000920E-02 0. -1.
       -2    1    3    3    0  502 -0.16223370877E+04  0.21841768299E+03 -0.14285443016E+04  0.21726533852E+04  0.25500000920E-02 0.  1.
</event>
<event>
 5   0  0.9905335E-08  0.3644292E+04  0.7818609E-02  0.8080421E-01
       -2   -1    0    0    0  501  0.00000000000E+00  0.00000000000E+00  0.12462927493E+04  0.12462927493E+04  0.25500000920E-02 0.  1.
        2   -1    0    0  501    0  0.00000000000E+00  0.00000000000E+00 -0.26640739904E+04  0.26640739904E+04  0.25500000920E-02 0. -1.
    10030    2    1    2    0    0  0.00000000000E+00  0.00000000000E+00 -0.14177812411E+04  0.39103667397E+04  0.36442920289E+04 0.  0.
        5    1    3    3  502    0 -0.10375350737E+04 -0.88885299955E+03  0.58481373637E+03  0.14861251227E+04  0.46999998093E+01 0.  1.
       -5    1    3    3    0  502  0.10375350737E+04  0.88885299955E+03 -0.20025949775E+04  0.24242416171E+04  0.46999998093E+01 0. -1.
</event>
<event>
 5   0  0.9905335E-08  0.3596681E+04  0.7818609E-02  0.8091252E-01
        2   -1    0    0  501    0  0.00000000000E+00  0.00000000000E+00  0.16659784472E+04  0.16659784472E+04  0.25500000920E-02 0.  1.
       -2   -1    0    0    0  501  0.00000000000E+00  0.00000000000E+00 -0.19412184597E+04  0.19412184597E+04  0.25500000920E-02 0. -1.
    10030    2    1    2    0    0  0.00000000000E+00  0.00000000000E+00 -0.27524001247E+03  0.36071969068E+04  0.35966807560E+04 0.  0.
        5    1    3    3  502    0 -0.22539889717E+03  0.35743713957E+03  0.16154725366E+04  0.16698322006E+04  0.46999998093E+01 0.  1.
       -5    1    3    3    0  502  0.22539889717E+03 -0.35743713957E+03 -0.18907125491E+04  0.19373647062E+04  0.46999998093E+01 0. -1.
</event>
<event>
 5   0  0.1021087E-07  0.3576781E+04  0.7818609E-02  0.8095831E-01
       -2   -1    0    0    0  501  0.00000000000E+00  0.00000000000E+00  0.14424537575E+04  0.14424537575E+04  0.25500000920E-02 0.  1.
        2   -1    0    0  501    0  0.00000000000E+00  0.00000000000E+00 -0.22172914886E+04  0.22172914886E+04  0.25500000920E-02 0. -1.
    10030    2    1    2    0    0  0.00000000000E+00  0.00000000000E+00 -0.77483773109E+03  0.36597452462E+04  0.35767809211E+04 0.  0.
        3    1    3    3  502    0  0.23520626676E+03  0.24769767256E+03 -0.21836043358E+04  0.22101592771E+04  0.10100000352E+00 0. -1.
       -3    1    3    3    0  502 -0.23520626676E+03 -0.24769767256E+03  0.14087666047E+04  0.14495859690E+04  0.10100000352E+00 0.  1.
</event>
<event>
 5   0  0.1017794E-07  0.3542569E+04  0.7818609E-02  0.8103775E-01
        2   -1    0    0  501    0  0.00000000000E+00  0.00000000000E+00  0.11511711793E+04  0.11511711793E+04  0.25500000920E-02 0.  1.
       -2   -1    0    0    0  501  0.00000000000E+00  0.00000000000E+00 -0.27254414363E+04  0.27254414363E+04  0.25500000920E-02 0. -1.
    10030    2    1    2    0    0  0.00000000000E+00  0.00000000000E+00 -0.15742702570E+04  0.38766126155E+04  0.35425694812E+04 0.  0.
        1    1    3    3  502    0 -0.66775430134E+03  0.17984835838E+03 -0.25716090859E+04  0.26629709968E+04  0.50400001928E-02 0. -1.
       -1    1    3    3    0  502  0.66775430134E+03 -0.17984835838E+03  0.99733882897E+03  0.12136416187E+04  0.50400001928E-02 0.  1.
</event>
<event>
 5   0  0.3279988E-08  0.3601751E+04  0.7818609E-02  0.8090091E-01
       -1   -1    0    0    0  501  0.00000000000E+00  0.00000000000E+00  0.19489985248E+04  0.19489985249E+04  0.50400001928E-02 0. -1.
        1   -1    0    0  501    0  0.00000000000E+00  0.00000000000E+00 -0.16640099059E+04  0.16640099059E+04  0.50400001928E-02 0.  1.
    10030    2    1    2    0    0  0.00000000000E+00  0.00000000000E+00  0.28498861895E+03  0.36130084307E+04  0.36017511585E+04 0.  0.
        5    1    3    3  502    0  0.21135783456E+03 -0.32272016981E+03  0.19070574507E+04  0.19456902766E+04  0.46999998093E+01 0. -1.
       -5    1    3    3    0  502 -0.21135783456E+03  0.32272016981E+03 -0.16220688317E+04  0.16673181541E+04  0.46999998093E+01 0.  1.
</event>
<event>
 5   0  0.3202875E-08  0.3597827E+04  0.7818609E-02  0.8090990E-01
       -1   -1    0    0    0  501  0.00000000000E+00  0.00000000000E+00  0.12134744317E+04  0.12134744317E+04  0.50400001928E-02 0. -1.
        1   -1    0    0  501    0  0.00000000000E+00  0.00000000000E+00 -0.26667969963E+04  0.26667969963E+04  0.50400001928E-02 0.  1.
    10030    2    1    2    0    0  0.00000000000E+00  0.00000000000E+00 -0.14533225646E+04  0.38802714280E+04  0.35978271051E+04 0.  0.
        1    1    3    3  502    0  0.68045841925E+03  0.16647582004E+04 -0.77042308749E+03  0.19565263248E+04  0.50400001928E-02 0. -1.
       -1    1    3    3    0  502 -0.68045841925E+03 -0.16647582004E+04 -0.68289947715E+03  0.19237451032E+04  0.50400001928E-02 0.  1.
</event>
<event>
 5   0  0.1044678E-07  0.3626832E+04  0.7818609E-02  0.8084373E-01
       -2   -1    0    0    0  501  0.00000000000E+00  0.00000000000E+00  0.14164534408E+04  0.14164534408E+04  0.25500000920E-02 0. -1.
        2   -1    0    0  501    0  0.00000000000E+00  0.00000000000E+00 -0.23216277522E+04  0.23216277522E+04  0.25500000920E-02 0.  1.
    10030    2    1    2    0    0  0.00000000000E+00  0.00000000000E+00 -0.90517431141E+03  0.37380811930E+04  0.36268320159E+04 0.  0.
        2    1    3    3  502    0 -0.11290467105E+04 -0.13492997073E+04  0.34852950495E+00  0.17593624687E+04  0.25500000920E-02 0. -1.
       -2    1    3    3    0  502  0.11290467105E+04  0.13492997073E+04 -0.90552284091E+03  0.19787187244E+04  0.25500000920E-02 0.  1.
</event>
<event>
 5   0  0.3202875E-08  0.3606802E+04  0.7818609E-02  0.8088935E-01
        1   -1    0    0  501    0  0.00000000000E+00  0.00000000000E+00  0.27368167241E+04  0.27368167241E+04  0.50400001928E-02 0. -1.
       -1   -1    0    0    0  501  0.00000000000E+00  0.00000000000E+00 -0.11883351664E+04  0.11883351664E+04  0.50400001928E-02 0.  1.
    10030    2    1    2    0    0  0.00000000000E+00  0.00000000000E+00  0.15484815577E+04  0.39251518905E+04  0.36068022165E+04 0.  0.
        2    1    3    3  502    0  0.13994561974E+04 -0.49764226890E+03  0.18873223296E+04  0.24016892080E+04  0.25500000920E-02 0. -1.
       -2    1    3    3    0  502 -0.13994561974E+04  0.49764226890E+03 -0.33884077185E+03  0.15234626825E+04  0.25500000920E-02 0.  1.
</event>
<event>
 5   0  0.1021087E-07  0.3600629E+04  0.7818609E-02  0.8090348E-01
       -2   -1    0    0    0  501  0.00000000000E+00  0.00000000000E+00  0.18538018825E+04  0.18538018825E+04  0.25500000920E-02 0. -1.
        2   -1    0    0  501    0  0.00000000000E+00  0.00000000000E+00 -0.17483699509E+04  0.17483699509E+04  0.25500000920E-02 0.  1.
    10030    2    1    2    0    0  0.00000000000E+00  0.00000000000E+00  0.10543193158E+03  0.36021718334E+04  0.36006285597E+04 0.  0.
        3    1    3    3  502    0 -0.15110546452E+04  0.97699745319E+03  0.11037166415E+03  0.18027734407E+04  0.10100000352E+00 0. -1.
       -3    1    3    3    0  502  0.15110546452E+04 -0.97699745319E+03 -0.49397325728E+01  0.17993983926E+04  0.10100000352E+00 0.  1.
</event>
<event>
 5   0  0.9905335E-08  0.3600154E+04  0.7818609E-02  0.8090456E-01
        2   -1    0    0  501    0  0.00000000000E+00  0.00000000000E+00  0.18096422587E+04  0.18096422587E+04  0.25500000920E-02 0.  1.
       -2   -1    0    0    0  501  0.00000000000E+00  0.00000000000E+00 -0.17905622336E+04  0.17905622336E+04  0.25500000920E-02 0. -1.
    10030    2    1    2    0    0  0.00000000000E+00  0.00000000000E+00  0.19080025131E+02  0.36002044922E+04  0.36001539326E+04 0.  0.
        5    1    3    3  502    0 -0.60185762954E+03 -0.16732658969E+04 -0.27011302827E+03  0.17986201672E+04  0.46999998093E+01 0.  1.
       -5    1    3    3    0  502  0.60185762954E+03  0.16732658969E+04  0.28919305340E+03  0.18015843250E+04  0.46999998093E+01 0. -1.
</event>
<event>
 5   0  0.3279988E-08  0.3595949E+04  0.7818609E-02  0.8091420E-01
       -1   -1    0    0    0  501  0.00000000000E+00  0.00000000000E+00  0.12141373652E+04  0.12141373652E+04  0.50400001928E-02 0. -1.
        1   -1    0    0  501    0  0.00000000000E+00  0.00000000000E+00 -0.26625592848E+04  0.26625592848E+04  0.50400001928E-02 0.  1.
    10030    2    1    2    0    0  0.00000000000E+00  0.00000000000E+00 -0.14484219196E+04  0.38766966500E+04  0.35959492292E+04 0.  0.
        5    1    3    3  502    0 -0.42677375244E+03  0.13787951616E+04  0.43163172848E+03  0.15064992441E+04  0.46999998093E+01 0. -1.
       -5    1    3    3    0  502  0.42677375244E+03 -0.13787951616E+04 -0.18800536481E+04  0.23701974060E+04  0.46999998093E+01 0.  1.
</event>
<event>
 5   0  0.3279988E-08  0.3603338E+04  0.7818609E-02  0.8089727E-01
       -1   -1    0    0    0  501  0.00000000000E+00  0.00000000000E+00  0.17681832059E+04  0.17681832059E+04  0.50400001928E-02 0. -1.
        1   -1    0    0  501    0  0.00000000000E+00  0.00000000000E+00 -0.18357890373E+04  0.18357890373E+04  0.50400001928E-02 0.  1.
    10030    2    1    2    0    0  0.00000000000E+00  0.00000000000E+00 -0.67605831402E+02  0.36039722432E+04  0.36033380887E+04 0.  0.
        5    1    3    3  502    0 -0.15329299747E+04 -0.63558322775E+03 -0.73545963464E+03  0.18151482890E+04  0.46999998093E+01 0. -1.
       -5    1    3    3    0  502  0.15329299747E+04  0.63558322775E+03  0.66785380324E+03  0.17888239543E+04  0.46999998093E+01 0.  1.
</event>
<event>
 5   0  0.1017794E-07  0.3594449E+04  0.7818609E-02  0.8091764E-01
        2   -1    0    0  501    0  0.00000000000E+00  0.00000000000E+00  0.18337681791E+04  0.18337681791E+04  0.25500000920E-02 0.  1.
       -2   -1    0    0    0  501  0.00000000000E+00  0.00000000000E+00 -0.17614086983E+04  0.17614086983E+04  0.25500000920E-02 0. -1.
    10030    2    1    2    0    0  0.00000000000E+00  0.00000000000E+00  0.72359480795E+02  0.35951768774E+04  0.35944486205E+04 0.  0.
        1    1    3    3  502    0  0.15194847235E+04 -0.57955986150E+03  0.80137837771E+03  0.18129894546E+04  0.50400001928E-02 0.  1.
       -1    1    3    3    0  502 -0.15194847235E+04  0.57955986150E+03 -0.72901889692E+03  0.17821874228E+04  0.50400001928E-02 0. -1.
</event>
<event>
 5   0  0.1029908E-07  0.3599102E+04  0.7818609E-02  0.8090697E-01
       -2   -1    0    0    0  501  0.00000000000E+00  0.00000000000E+00  0.25232835099E+04  0.25232835099E+04  0.25500000920E-02 0. -1.
        2   -1    0    0  501    0  0.00000000000E+00  0.00000000000E+00 -0.12834009132E+04  0.12834009132E+04  0.25500000920E-02 0.  1.
    10030    2    1    2    0    0  0.00000000000E+00  0.00000000000E+00  0.12398825967E+04  0.38066844231E+04  0.35991023108E+04 0.  0.
        4    1    3    3  502    0 -0.86803655076E+02 -0.42517781117E+03  0.24671148734E+04  0.25049887139E+04  0.12699999809E+01 0. -1.
       -4    1    3    3    0  502  0.86803655076E+02  0.42517781117E+03 -0.12272322766E+04  0.13016957092E+04  0.12699999809E+01 0.  1.
</event>
<event>
 5   0  0.3202875E-08  0.3654239E+04  0.7818609E-02  0.8078179E-01
       -1   -1    0    0    0  501  0.00000000000E+00  0.00000000000E+00  0.25145608861E+04  0.25145608861E+04  0.50400001928E-02 0. -1.
        1   -1    0    0  501    0  0.00000000000E+00  0.00000000000E+00 -0.13276139458E+04  0.13276139458E+04  0.50400001928E-02 0.  1.
    10030    2    1    2    0    0  0.00000000000E+00  0.00000000000E+00  0.11869469403E+04  0.38421748319E+04  0.36542392368E+04 0.  0.
        2    1    3    3  502    0  0.81392178319E+03  0.25539665817E+03 -0.11053808300E+04  0.13962674893E+04  0.25500000920E-02 0.  1.
       -2    1    3    3    0  502 -0.81392178319E+03 -0.25539665817E+03  0.22923277703E+04  0.24459073427E+04  0.25500000920E-02 0. -1.
</event>
<event>
 5   0  0.3215494E-08  0.3601471E+04  0.7818609E-02  0.8090155E-01
       -1   -1    0    0    0  501  0.00000000000E+00  0.00000000000E+00  0.27716012332E+04  0.27716012332E+04  0.50400001928E-02 0. -1.
        1   -1    0    0  501    0  0.00000000000E+00  0.00000000000E+00 -0.11699547446E+04  0.11699547446E+04  0.50400001928E-02 0.  1.
    10030    2    1    2    0    0  0.00000000000E+00  0.00000000000E+00  0.16016464886E+04  0.39415559778E+04  0.36014708179E+04 0.  0.
        4    1    3    3  502    0 -0.67891494068E+03  0.14734284980E+04 -0.54464402872E+02  0.16232328913E+04  0.12699999809E+01 0.  1.
       -4    1    3    3    0  502  0.67891494068E+03 -0.14734284980E+04  0.16561108915E+04  0.23183230865E+04  0.12699999809E+01 0. -1.
</event>
<event>
 5   0  0.9905335E-08  0.3599161E+04  0.7818609E-02  0.8090684E-01
       -2   -1    0    0    0  501  0.00000000000E+00  0.00000000000E+00  0.13967989565E+04  0.13967989565E+04  0.25500000920E-02 0. -1.
        2   -1    0    0  501    0  0.00000000000E+00  0.00000000000E+00 -0.23185086213E+04  0.23185086213E+04  0.25500000920E-02 0.  1.
    10030    2    1    2    0    0  0.00000000000E+00  0.00000000000E+00 -0.92170966476E+03  0.37153075778E+04  0.35991612483E+04 0.  0.
        5    1    3    3  502    0  0.84427515618E+03 -0.23983385801E+03  0.11608769406E+04  0.14553275164E+04  0.46999998093E+01 0. -1.
       -5    1    3    3    0  502 -0.84427515618E+03  0.23983385801E+03 -0.20825866054E+04  0.22599800614E+04  0.46999998093E+01 0.  1.
</event>
<event>
 5   0  0.3202875E-08  0.3606002E+04  0.7818609E-02  0.8089118E-01
       -1   -1    0    0    0  501  0.00000000000E+00  0.00000000000E+00  0.21369968349E+04  0.21369968349E+04  0.50400001928E-02 0. -1.
        1   -1    0    0  501    0  0.00000000000E+00  0.00000000000E+00 -0.15212059208E+04  0.15212059208E+04  0.50400001928E-02 0.  1.
    10030    2    1    2    0    0  0.00000000000E+00  0.00000000000E+00  0.61579091412E+03  0.36582027556E+04  0.36060017958E+04 0.  0.
        1    1    3    3  502    0  0.40707762576E+03 -0.78937068444E+03  0.18996838225E+04  0.20970495694E+04  0.50400001928E-02 0. -1.
       -1    1    3    3    0  502 -0.40707762576E+03  0.78937068444E+03 -0.12838929084E+04  0.15611531863E+04  0.50400001928E-02 0.  1.
</event>
<event>
 5   0  0.9905335E-08  0.3587501E+04  0.7818609E-02  0.8093361E-01
       -2   -1    0    0    0  501  0.00000000000E+00  0.00000000000E+00  0.24568718553E+04  0.24568718553E+04  0.25500000920E-02 0. -1.
        2   -1    0    0  501    0  0.00000000000E+00  0.00000000000E+00 -0.13096087947E+04  0.13096087947E+04  0.25500000920E-02 0.  1.
    10030    2    1    2    0    0  0.00000000000E+00  0.00000000000E+00  0.11472630607E+04  0.37664806500E+04  0.35875010741E+04 0.  0.
        5    1    3    3  502    0  0.54703266407E+03 -0.78440746970E+03 -0.10196359713E+04  0.13979339820E+04  0.46999998093E+01 0.  1.
       -5    1    3    3    0  502 -0.54703266407E+03  0.78440746970E+03  0.21668990319E+04  0.23685466680E+04  0.46999998093E+01 0. -1.
</event>
<event>
 5   0  0.3202875E-08  0.3599421E+04  0.7818609E-02  0.8090624E-01
        1   -1    0    0  501    0  0.00000000000E+00  0.00000000000E+00  0.25389617824E+04  0.25389617824E+04  0.50400001928E-02 0. -1.
       -1   -1    0    0    0  501  0.00000000000E+00  0.00000000000E+00 -0.12757020234E+04  0.12757020234E+04  0.50400001928E-02 0.  1.
    10030    2    1    2    0    0  0.00000000000E+00  0.00000000000E+00  0.12632597590E+04  0.38146638059E+04  0.35994214442E+04 0.  0.
        2    1    3    3  502    0 -0.46126638600E+03 -0.23098270917E+03  0.24589273933E+04  0.25124576845E+04  0.25500000920E-02 0. -1.
       -2    1    3    3    0  502  0.46126638600E+03  0.23098270917E+03 -0.11956676343E+04  0.13022061214E+04  0.25500000920E-02 0.  1.
</event>
<event>
 5   0  0.1017794E-07  0.3597252E+04  0.7818609E-02  0.8091121E-01
        2   -1    0    0  501    0  0.00000000000E+00  0.00000000000E+00  0.20815545872E+04  0.20815545872E+04  0.25500000920E-02 0.  1.
       -2   -1    0    0    0  501  0.00000000000E+00  0.00000000000E+00 -0.15541538560E+04  0.15541538560E+04  0.25500000920E-02 0. -1.
    10030    2    1    2    0    0  0.00000000000E+00  0.00000000000E+00  0.52740073118E+03  0.36357084432E+04  0.35972523338E+04 0.  0.
        1    1    3    3  502    0  0.18781761583E+02  0.17052525010E+04  0.84149117007E+03  0.19016693288E+04  0.50400001928E-02 0.  1.
       -1    1    3    3    0  502 -0.18781761583E+02 -0.17052525010E+04 -0.31409043889E+03  0.17340391144E+04  0.50400001928E-02 0. -1.
</event>
<event>
 5   0  0.1044678E-07  0.3604127E+04  0.7818609E-02  0.8089547E-01
        2   -1    0    0  501    0  0.00000000000E+00  0.00000000000E+00  0.26110743844E+04  0.26110743844E+04  0.25500000920E-02 0. -1.
       -2   -1    0    0    0  501  0.00000000000E+00  0.00000000000E+00 -0.12437153532E+04  0.12437153532E+04  0.25500000920E-02 0.  1.
    10030    2    1    2    0    0  0.00000000000E+00  0.00000000000E+00  0.13673590312E+04  0.38547897376E+04  0.36041272453E+04 0.  0.
        2    1    3    3  502    0  0.10685431725E+04 -0.42008203852E+03  0.21692283719E+04  0.24543441405E+04  0.25500000920E-02 0. -1.
       -2    1    3    3    0  502 -0.10685431725E+04  0.42008203852E+03 -0.80186934074E+03  0.14004455970E+04  0.25500000920E-02 0.  1.
</event>
<event>
 5   0  0.3215494E-08  0.3595915E+04  0.7818609E-02  0.8091428E-01
        1   -1    0    0  501    0  0.00000000000E+00  0.00000000000E+00  0.25908470287E+04  0.25908470287E+04  0.50400001928E-02 0. -1.
       -1   -1    0    0    0  501  0.00000000000E+00  0.00000000000E+00 -0.12477196202E+04  0.12477196202E+04  0.50400001928E-02 0.  1.
    10030    2    1    2    0    0  0.00000000000E+00  0.00000000000E+00  0.13431274085E+04  0.38385666489E+04  0.35959147213E+04 0.  0.
        4    1    3    3  502    0 -0.97868451958E+03 -0.10867416874E+04 -0.44486827867E+03  0.15286400107E+04  0.12699999809E+01 0.  1.
       -4    1    3    3    0  502  0.97868451958E+03  0.10867416874E+04  0.17879956872E+04  0.23099266383E+04  0.12699999809E+01 0. -1.
</event>
<event>
 5   0  0.1029908E-07  0.3598278E+04  0.7818609E-02  0.8090886E-01
        2   -1    0    0  501    0  0.00000000000E+00  0.00000000000E+00  0.14879440845E+04  0.14879440845E+04  0.25500000920E-02 0.  1.
       -2   -1    0    0    0  501  0.00000000000E+00  0.00000000000E+00 -0.21754185348E+04  0.21754185348E+04  0.25500000920E-02 0. -1.
    10030    2    1    2    0    0  0.00000000000E+00  0.00000000000E+00 -0.68747445024E+03  0.36633626193E+04  0.35982779994E+04 0.  0.
        4    1    3    3  502    0  0.63064246409E+03 -0.40770943839E+03 -0.20082289452E+04  0.21440433795E+04  0.12699999809E+01 0. -1.
       -4    1    3    3    0  502 -0.63064246409E+03  0.40770943839E+03  0.13207544950E+04  0.15193192399E+04  0.12699999809E+01 0.  1.
</event>
<event>
 5   0  0.9905335E-08  0.3604426E+04  0.7818609E-02  0.8089479E-01
       -2   -1    0    0    0  501  0.00000000000E+00  0.00000000000E+00  0.16390489845E+04  0.16390489845E+04  0.25500000920E-02 0. -1.
        2   -1    0    0  501    0  0.00000000000E+00  0.00000000000E+00 -0.19816199714E+04  0.19816199714E+04  0.25500000920E-02 0.  1.
    10030    2    1    2    0    0  0.00000000000E+00  0.00000000000E+00 -0.34257098694E+03  0.36206689559E+04  0.36044262799E+04 0.  0.
        5    1    3    3  502    0  0.41292515867E+03 -0.20675954531E+03 -0.19211728049E+04  0.19759007395E+04  0.46999998093E+01 0.  1.
       -5    1    3    3    0  502 -0.41292515867E+03  0.20675954531E+03  0.15786018179E+04  0.16447682164E+04  0.46999998093E+01 0. -1.
</event>
<event>
 5   0  0.3202875E-08  0.3600874E+04  0.7818609E-02  0.8090291E-01
       -1   -1    0    0    0  501  0.00000000000E+00  0.00000000000E+00  0.22344236925E+04  0.22344236925E+04  0.50400001928E-02 0. -1.
        1   -1    0    0  501    0  0.00000000000E+00  0.00000000000E+00 -0.14507426829E+04  0.14507426829E+04  0.50400001928E-02 0.  1.
    10030    2    1    2    0    0  0.00000000000E+00  0.00000000000E+00  0.78368100963E+03  0.36851663754E+04  0.36008742396E+04 0.  0.
        1    1    3    3  502    0  0.68546108245E+03 -0.16254473062E+04  0.23359354351E+02  0.17642226334E+04  0.50400001928E-02 0.  1.
       -1    1    3    3    0  502 -0.68546108245E+03  0.16254473062E+04  0.76032165528E+03  0.19209437421E+04  0.50400001928E-02 0. -1.
</event>
<event>
 5   0  0.1029908E-07  0.3596622E+04  0.7818609E-02  0.8091266E-01
       -2   -1    0    0    0  501  0.00000000000E+00  0.00000000000E+00  0.16006291830E+04  0.16006291830E+04  0.25500000920E-02 0.  1.
        2   -1    0    0  501    0  0.00000000000E+00  0.00000000000E+00 -0.20204064783E+04  0.20204064783E+04  0.25500000920E-02 0. -1.
    10030    2    1    2    0    0  0.00000000000E+00  0.00000000000E+00 -0.41977729531E+03  0.36210356613E+04  0.35966215096E+04 0.  0.
        4    1    3    3  502    0 -0.70458078941E+03 -0.77452566094E+02 -0.18738285295E+04  0.20034140760E+04  0.12699999809E+01 0. -1.
       -4    1    3    3    0  502  0.70458078941E+03  0.77452566094E+02  0.14540512342E+04  0.16176215854E+04  0.12699999809E+01 0.  1.
</event>
<event>
 5   0  0.3212523E-08  0.3599469E+04  0.7818609E-02  0.8090613E-01
       -1   -1    0    0    0  501  0.00000000000E+00  0.00000000000E+00  0.14266015062E+04  0.14266015062E+04  0.50400001928E-02 0.  1.
        1   -1    0    0  501    0  0.00000000000E+00  0.00000000000E+00 -0.22704619992E+04  0.22704619992E+04  0.50400001928E-02 0. -1.
    10030    2    1    2    0    0  0.00000000000E+00  0.00000000000E+00 -0.84386049304E+03  0.36970635054E+04  0.35994691318E+04 0.  0.
        3    1    3    3  502    0  0.11712737928E+04  0.79608575516E+03 -0.15626320592E+04  0.21088987149E+04  0.10100000352E+00 0. -1.
       -3    1    3    3    0  502 -0.11712737928E+04 -0.79608575516E+03  0.71877156612E+03  0.15881647905E+04  0.10100000352E+00 0.  1.
</event>
<event>
 5   0  0.3202875E-08  0.3601856E+04  0.7818609E-02  0.8090067E-01
       -1   -1    0    0    0  501  0.00000000000E+00  0.00000000000E+00  0.12804109638E+04  0.12804109638E+04  0.50400001928E-02 0. -1.
        1   -1    0    0  501    0  0.00000000000E+00  0.00000000000E+00 -0.25330476292E+04  0.25330476292E+04  0.50400001928E-02 0.  1.
    10030    2    1    2    0    0  0.00000000000E+00  0.00000000000E+00 -0.12526366654E+04  0.38134585930E+04  0.36018561638E+04 0.  0.
        2    1    3    3  502    0  0.14782019617E+04  0.94977153048E+03 -0.20788509692E+03  0.17692832484E+04  0.25500000920E-02 0. -1.
       -2    1    3    3    0  502 -0.14782019617E+04 -0.94977153048E+03 -0.10447515684E+04  0.20441753446E+04  0.25500000920E-02 0.  1.
</event>
<event>
 5   0  0.3202875E-08  0.3605794E+04  0.7818609E-02  0.8089166E-01
        1   -1    0    0  501    0  0.00000000000E+00  0.00000000000E+00  0.25737070388E+04  0.25737070388E+04  0.50400001928E-02 0.  1.
       -1   -1    0    0    0  501  0.00000000000E+00  0.00000000000E+00 -0.12629400986E+04  0.12629400986E+04  0.50400001928E-02 0. -1.
    10030    2    1    2    0    0  0.00000000000E+00  0.00000000000E+00  0.13107669401E+04  0.38366471374E+04  0.36057941269E+04 0.  0.
        2    1    3    3  502    0 -0.78470360473E+03 -0.50177823482E+03  0.22978765069E+04  0.24794712310E+04  0.25500000920E-02 0.  1.
       -2    1    3    3    0  502  0.78470360473E+03  0.50177823482E+03 -0.98710956677E+03  0.13571759064E+04  0.25500000920E-02 0. -1.
</event>
<event>
 5   0  0.3202875E-08  0.3597582E+04  0.7818609E-02  0.8091046E-01
       -1   -1    0    0    0  501  0.00000000000E+00  0.00000000000E+00  0.10802558664E+04  0.10802558664E+04  0.50400001928E-02 0.  1.
        1   -1    0    0  501    0  0.00000000000E+00  0.00000000000E+00 -0.29952616847E+04  0.29952616847E+04  0.50400001928E-02 0. -1.
    10030    2    1    2    0    0  0.00000000000E+00  0.00000000000E+00 -0.19150058183E+04  0.40755175511E+04  0.35975819692E+04 0.  0.
        1    1    3    3  502    0  0.17203650906E+04  0.45736185378E+03 -0.12503243465E+04  0.21753498297E+04  0.50400001928E-02 0.  1.
       -1    1    3    3    0  502 -0.17203650906E+04 -0.45736185378E+03 -0.66468147181E+03  0.19001677213E+04  0.50400001928E-02 0. -1.
</event>
<event>
 5   0  0.3279988E-08  0.3605846E+04  0.7818609E-02  0.8089154E-01
       -1   -1    0    0    0  501  0.00000000000E+00  0.00000000000E+00  0.16734105857E+04  0.16734105857E+04  0.50400001928E-02 0. -1.
        1   -1    0    0  501    0  0.00000000000E+00  0.00000000000E+00 -0.19424590286E+04  0.19424590286E+04  0.50400001928E-02 0.  1.
    10030    2    1    2    0    0  0.00000000000E+00  0.00000000000E+00 -0.26904844293E+03  0.36158696143E+04  0.36058460870E+04 0.  0.
        5    1    3    3  502    0 -0.23464036454E+03  0.49212361138E+03  0.15887602771E+04  0.16797092182E+04  0.46999998093E+01 0. -1.
       -5    1    3    3    0  502  0.23464036454E+03 -0.49212361138E+03 -0.18578087200E+04  0.19361603962E+04  0.46999998093E+01 0.  1.
</event>
<event>
 5   0  0.3202875E-08  0.3599579E+04  0.7818609E-02  0.8090588E-01
       -1   -1    0    0    0  501  0.00000000000E+00  0.00000000000E+00  0.19868064480E+04  0.19868064480E+04  0.50400001928E-02 0. -1.
        1   -1    0    0  501    0  0.00000000000E+00  0.00000000000E+00 -0.16303766410E+04  0.16303766410E+04  0.50400001928E-02 0.  1.
    10030    2    1    2    0    0  0.00000000000E+00  0.00000000000E+00  0.35642980698E+03  0.36171830890E+04  0.35995793216E+04 0.  0.
        2    1    3    3  502    0 -0.10468755965E+04  0.12621987185E+04  0.92356238858E+03  0.18820365579E+04  0.25500000920E-02 0. -1.
       -2    1    3    3    0  502  0.10468755965E+04 -0.12621987185E+04 -0.56713258161E+03  0.17351465312E+04  0.25500000920E-02 0.  1.
</event>
<event>
 5   0  0.1029908E-07  0.3606086E+04  0.7818609E-02  0.8089099E-01
        2   -1    0    0  501    0  0.00000000000E+00  0.00000000000E+00  0.14219023851E+04  0.14219023851E+04  0.25500000920E-02 0.  1.
       -2   -1    0    0    0  501  0.00000000000E+00  0.00000000000E+00 -0.22863481511E+04  0.22863481511E+04  0.25500000920E-02 0. -1.
    10030    2    1    2    0    0  0.00000000000E+00  0.00000000000E+00 -0.86444576598E+03  0.37082505362E+04  0.36060859053E+04 0.  0.
        4    1    3    3  502    0 -0.65815016882E+03  0.15406442978E+04  0.25315484956E+03  0.16943540031E+04  0.12699999809E+01 0.  1.
       -4    1    3    3    0  502  0.65815016882E+03 -0.15406442978E+04 -0.11176006155E+04  0.20138965331E+04  0.12699999809E+01 0. -1.
</event>
<event>
 5   0  0.1029908E-07  0.3585349E+04  0.7818609E-02  0.8093856E-01
       -2   -1    0    0    0  501  0.00000000000E+00  0.00000000000E+00  0.10542446418E+04  0.10542446418E+04  0.25500000920E-02 0.  1.
        2   -1    0    0  501    0  0.00000000000E+00  0.00000000000E+00 -0.30483269923E+04  0.30483269923E+04  0.25500000920E-02 0. -1.
    10030    2    1    2    0    0  0.00000000000E+00  0.00000000000E+00 -0.19940823505E+04  0.41025716341E+04  0.35853492986E+04 0.  0.
        4    1    3    3  502    0  0.13993267405E+04  0.98864447603E+03 -0.16005204036E+04  0.23446109276E+04  0.12699999809E+01 0. -1.
       -4    1    3    3    0  502 -0.13993267405E+04 -0.98864447603E+03 -0.39356194683E+03  0.17579607065E+04  0.12699999809E+01 0.  1.
</event>
<event>
 5   0  0.1017794E-07  0.3594818E+04  0.7818609E-02  0.8091680E-01
        2   -1    0    0  501    0  0.00000000000E+00  0.00000000000E+00  0.22851039799E+04  0.22851039799E+04  0.25500000920E-02 0.  1.
       -2   -1    0    0    0  501  0.00000000000E+00  0.00000000000E+00 -0.14137999505E+04  0.14137999505E+04  0.25500000920E-02 0. -1.
    10030    2    1    2    0    0  0.00000000000E+00  0.00000000000E+00  0.87130402941E+03  0.36989039304E+04  0.35948184341E+04 0.  0.
        1    1    3    3  502    0 -0.14816304717E+04  0.98346847207E+03  0.16685888901E+03  0.17861357672E+04  0.50400001928E-02 0.  1.
       -1    1    3    3    0  502  0.14816304717E+04 -0.98346847207E+03  0.70444514039E+03  0.19127681631E+04  0.50400001928E-02 0. -1.
</event>
<event>
 5   0  0.3215494E-08  0.3600076E+04  0.7818609E-02  0.8090474E-01
        1   -1    0    0  501    0  0.00000000000E+00  0.00000000000E+00  0.18001819080E+04  0.18001819080E+04  0.50400001928E-02 0. -1.
       -1   -1    0    0    0  501  0.00000000000E+00  0.00000000000E+00 -0.17998937341E+04  0.17998937341E+04  0.50400001928E-02 0.  1.
    10030    2    1    2    0    0  0.00000000000E+00  0.00000000000E+00  0.28817390741E+00  0.36000756421E+04  0.36000756306E+04 0.  0.
        4    1    3    3  502    0  0.10067163710E+04 -0.95667490739E+03 -0.11450326688E+04  0.17999461535E+04  0.12699999809E+01 0. -1.
       -4    1    3    3    0  502 -0.10067163710E+04  0.95667490739E+03  0.11453208427E+04  0.18001294886E+04  0.12699999809E+01 0.  1.
</event>
<event>
 5   0  0.3215494E-08  0.3596962E+04  0.7818609E-02  0.8091188E-01
        1   -1    0    0  501    0  0.00000000000E+00  0.00000000000E+00  0.25954787090E+04  0.25954787090E+04  0.50400001928E-02 0. -1.
       -1   -1    0    0    0  501  0.00000000000E+00  0.00000000000E+00 -0.12462183392E+04  0.12462183392E+04  0.50400001928E-02 0.  1.
    10030    2    1    2    0    0  0.00000000000E+00  0.00000000000E+00  0.13492603698E+04  0.38416970482E+04  0.35969615879E+04 0.  0.
        4    1    3    3  502    0  0.10096621270E+04 -0.10744741860E+04  0.17745652553E+04  0.23071618594E+04  0.12699999809E+01 0. -1.
       -4    1    3    3    0  502 -0.10096621270E+04  0.10744741860E+04 -0.42530488553E+03  0.15345351888E+04  0.12699999809E+01 0.  1.
</event>
<event>
 5   0  0.9905335E-08  0.3601992E+04  0.7818609E-02  0.8090036E-01
        2   -1    0    0  501    0  0.00000000000E+00  0.00000000000E+00  0.13075323491E+04  0.13075323491E+04  0.25500000920E-02 0. -1.
       -2   -1    0    0    0  501  0.00000000000E+00  0.00000000000E+00 -0.24806928780E+04  0.24806928780E+04  0.25500000920E-02 0.  1.
    10030    2    1    2    0    0  0.00000000000E+00  0.00000000000E+00 -0.11731605289E+04  0.37882252272E+04  0.36019917747E+04 0.  0.
        5    1    3    3  502    0  0.11838851013E+03 -0.10553462624E+04 -0.21163625027E+04  0.23678648411E+04  0.46999998093E+01 0.  1.
       -5    1    3    3    0  502 -0.11838851013E+03  0.10553462624E+04  0.94320197379E+03  0.14203603861E+04  0.46999998093E+01 0. -1.
</event>
<event>
 5   0  0.3279988E-08  0.3558262E+04  0.7818609E-02  0.8100120E-01
        1   -1    0    0  501    0  0.00000000000E+00  0.00000000000E+00  0.13552408372E+04  0.13552408372E+04  0.50400001928E-02 0.  1.
       -1   -1    0    0    0  501  0.00000000000E+00  0.00000000000E+00 -0.23356050203E+04  0.23356050204E+04  0.50400001928E-02 0. -1.
    10030    2    1    2    0    0  0.00000000000E+00  0.00000000000E+00 -0.98036418313E+03  0.36908458576E+04  0.35582621057E+04 0.  0.
        5    1    3    3  502    0 -0.65774112841E+03 -0.66249849599E+02  0.12231118032E+04  0.13903370123E+04  0.46999998093E+01 0.  1.
       -5    1    3    3    0  502  0.65774112841E+03  0.66249849599E+02 -0.22034759864E+04  0.23005088453E+04  0.46999998093E+01 0. -1.
</event>
<event>
 5   0  0.3202875E-08  0.3609851E+04  0.7818609E-02  0.8088239E-01
       -3   -1    0    0    0  501  0.00000000000E+00  0.00000000000E+00  0.15884627484E+04  0.15884627516E+04  0.10100000352E+00 0. -1.
        3   -1    0    0  501    0  0.00000000000E+00  0.00000000000E+00 -0.20508855800E+04  0.20508855825E+04  0.10100000352E+00 0.  1.
    10030    2    1    2    0    0  0.00000000000E+00  0.00000000000E+00 -0.46242283160E+03  0.36393483341E+04  0.36098506094E+04 0.  0.
        1    1    3    3  502    0  0.14403321220E+04 -0.87211839096E+03  0.42418396995E+03  0.17363983269E+04  0.50400001928E-02 0. -1.
       -1    1    3    3    0  502 -0.14403321220E+04  0.87211839096E+03 -0.88660680155E+03  0.19029500072E+04  0.50400001928E-02 0.  1.
</event>
<event>
 5   0  0.1044678E-07  0.3603676E+04  0.7818609E-02  0.8089650E-01
       -2   -1    0    0    0  501  0.00000000000E+00  0.00000000000E+00  0.18935478150E+04  0.18935478150E+04  0.25500000920E-02 0. -1.
        2   -1    0    0  501    0  0.00000000000E+00  0.00000000000E+00 -0.17145702432E+04  0.17145702432E+04  0.25500000920E-02 0.  1.
    10030    2    1    2    0    0  0.00000000000E+00  0.00000000000E+00  0.17897757181E+03  0.36081180582E+04  0.36036763104E+04 0.  0.
        2    1    3    3  502    0  0.16712642116E+04 -0.45398205405E+03 -0.40851443339E+03  0.17793560106E+04  0.25500000920E-02 0.  1.
       -2    1    3    3    0  502 -0.16712642116E+04  0.45398205405E+03  0.58749200519E+03  0.18287620475E+04  0.25500000920E-02 0. -1.
</event>
<event>
 5   0  0.3212523E-08  0.3597325E+04  0.7818609E-02  0.8091105E-01
        1   -1    0    0  501    0  0.00000000000E+00  0.00000000000E+00  0.21915945637E+04  0.21915945637E+04  0.50400001928E-02 0. -1.
       -1   -1    0    0    0  501  0.00000000000E+00  0.00000000000E+00 -0.14761792954E+04  0.14761792954E+04  0.50400001928E-02 0.  1.
    10030    2    1    2    0    0  0.00000000000E+00  0.00000000000E+00  0.71541526838E+03  0.36677738591E+04  0.35973248499E+04 0.  0.
        3    1    3    3  502    0  0.14395472771E+04 -0.10222289992E+04  0.75611202451E+01  0.17655893267E+04  0.10100000352E+00 0.  1.
       -3    1    3    3    0  502 -0.14395472771E+04  0.10222289992E+04  0.70785414813E+03  0.19021845324E+04  0.10100000352E+00 0. -1.
</event>
<event>
 5   0  0.1021087E-07  0.3607153E+04  0.7818609E-02  0.8088855E-01
        2   -1    0    0  501    0  0.00000000000E+00  0.00000000000E+00  0.22445355716E+04  0.22445355716E+04  0.25500000920E-02 0. -1.
       -2   -1    0    0    0  501  0.00000000000E+00  0.00000000000E+00 -0.14492478820E+04  0.14492478820E+04  0.25500000920E-02 0.  1.
    10030    2    1    2    0    0  0.00000000000E+00  0.00000000000E+00  0.79528768960E+03  0.36937834536E+04  0.36071531286E+04 0.  0.
        3    1    3    3  502    0  0.14619255692E+04  0.44305230839E+03  0.13795076165E+04  0.20582912797E+04  0.10100000352E+00 0. -1.
       -3    1    3    3    0  502 -0.14619255692E+04 -0.44305230839E+03 -0.58421992695E+03  0.16354921739E+04  0.10100000352E+00 0.  1.
</event>
<event>
 5   0  0.1029908E-07  0.3598422E+04  0.7818609E-02  0.8090853E-01
        2   -1    0    0  501    0  0.00000000000E+00  0.00000000000E+00  0.19311196760E+04  0.19311196760E+04  0.25500000920E-02 0. -1.
       -2   -1    0    0    0  501  0.00000000000E+00  0.00000000000E+00 -0.16763122501E+04  0.16763122501E+04  0.25500000920E-02 0.  1.
    10030    2    1    2    0    0  0.00000000000E+00  0.00000000000E+00  0.25480742587E+03  0.36074319261E+04  0.35984216369E+04 0.  0.
        4    1    3    3  502    0  0.12114729588E+04  0.12723742481E+04 -0.26158203173E+03  0.17762403354E+04  0.12699999809E+01 0.  1.
       -4    1    3    3    0  502 -0.12114729588E+04 -0.12723742481E+04  0.51638945760E+03  0.18311915907E+04  0.12699999809E+01 0. -1.
</event>
<event>
 5   0  0.1029908E-07  0.3598700E+04  0.7818609E-02  0.8090790E-01
       -2   -1    0    0    0  501  0.00000000000E+00  0.00000000000E+00  0.16987018962E+04  0.16987018962E+04  0.25500000920E-02 0. -1.
        2   -1    0    0  501    0  0.00000000000E+00  0.00000000000E+00 -0.19059615346E+04  0.19059615346E+04  0.25500000920E-02 0.  1.
    10030    2    1    2    0    0  0.00000000000E+00  0.00000000000E+00 -0.20725963839E+03  0.36046634308E+04  0.35987000280E+04 0.  0.
        4    1    3    3  502    0 -0.15541876483E+04 -0.33880318809E+03 -0.94607763778E+03  0.18507704763E+04  0.12699999809E+01 0.  1.
       -4    1    3    3    0  502  0.15541876483E+04  0.33880318809E+03  0.73881799938E+03  0.17538929544E+04  0.12699999809E+01 0. -1.
</event>
<event>
 5   0  0.3202875E-08  0.3595290E+04  0.7818609E-02  0.8091571E-01
       -1   -1    0    0    0  501  0.00000000000E+00  0.00000000000E+00  0.29256556437E+04  0.29256556437E+04  0.50400001928E-02 0. -1.
        1   -1    0    0  501    0  0.00000000000E+00  0.00000000000E+00 -0.11045483053E+04  0.11045483053E+04  0.50400001928E-02 0.  1.
    10030    2    1    2    0    0  0.00000000000E+00  0.00000000000E+00  0.18211073384E+04  0.40302039491E+04  0.35952902432E+04 0.  0.
        2    1    3    3  502    0  0.27986523897E+03  0.17148795274E+04  0.14271624399E+04  0.22485392981E+04  0.25500000920E-02 0. -1.
       -2    1    3    3    0  502 -0.27986523897E+03 -0.17148795274E+04  0.39394489856E+03  0.17816646509E+04  0.25500000920E-02 0.  1.
</event>
<event>
 5   0  0.1017794E-07  0.3592134E+04  0.7818609E-02  0.8092296E-01
       -2   -1    0    0    0  501  0.00000000000E+00  0.00000000000E+00  0.18147910464E+04  0.18147910464E+04  0.25500000920E-02 0.  1.
        2   -1    0    0  501    0  0.00000000000E+00  0.00000000000E+00 -0.17775364502E+04  0.17775364502E+04  0.25500000920E-02 0. -1.
    10030    2    1    2    0    0  0.00000000000E+00  0.00000000000E+00  0.37254596204E+02  0.35923274967E+04  0.35921343152E+04 0.  0.
        1    1    3    3  502    0  0.22867966653E+03 -0.17590972570E+04  0.29996019244E+03  0.17990813396E+04  0.50400001928E-02 0. -1.
       -1    1    3    3    0  502 -0.22867966653E+03  0.17590972570E+04 -0.26270559623E+03  0.17932461571E+04  0.50400001928E-02 0.  1.
</event>
<event>
 5   0  0.3202875E-08  0.3597772E+04  0.7818609E-02  0.8091002E-01
       -1   -1    0    0    0  501  0.00000000000E+00  0.00000000000E+00  0.18930826597E+04  0.18930826598E+04  0.50400001928E-02 0.  1.
        1   -1    0    0  501    0  0.00000000000E+00  0.00000000000E+00 -0.17093759391E+04  0.17093759391E+04  0.50400001928E-02 0. -1.
    10030    2    1    2    0    0  0.00000000000E+00  0.00000000000E+00  0.18370672062E+03  0.36024585989E+04  0.35977715043E+04 0.  0.
        1    1    3    3  502    0  0.72486958941E+03 -0.12428729083E+04  0.11729919037E+04  0.18563617627E+04  0.50400001928E-02 0.  1.
       -1    1    3    3    0  502 -0.72486958941E+03  0.12428729083E+04 -0.98928518311E+03  0.17460968362E+04  0.50400001928E-02 0. -1.
</event>
<event>
 5   0  0.3279988E-08  0.3591306E+04  0.7818609E-02  0.8092486E-01
       -1   -1    0    0    0  501  0.00000000000E+00  0.00000000000E+00  0.18791481486E+04  0.18791481486E+04  0.50400001928E-02 0. -1.
        1   -1    0    0  501    0  0.00000000000E+00  0.00000000000E+00 -0.17158679023E+04  0.17158679023E+04  0.50400001928E-02 0.  1.
    10030    2    1    2    0    0  0.00000000000E+00  0.00000000000E+00  0.16328024626E+03  0.35950160509E+04  0.35913061646E+04 0.  0.
        5    1    3    3  502    0  0.12833646829E+04 -0.11693767930E+04  0.54024098944E+03  0.18183369902E+04  0.46999998093E+01 0. -1.
       -5    1    3    3    0  502 -0.12833646829E+04  0.11693767930E+04 -0.37696074319E+03  0.17766790608E+04  0.46999998093E+01 0.  1.
</event>
<event>
 5   0  0.1017794E-07  0.3606928E+04  0.7818609E-02  0.8088907E-01
       -2   -1    0    0    0  501  0.00000000000E+00  0.00000000000E+00  0.16433720181E+04  0.16433720181E+04  0.25500000920E-02 0. -1.
        2   -1    0    0  501    0  0.00000000000E+00  0.00000000000E+00 -0.19791511054E+04  0.19791511054E+04  0.25500000920E-02 0.  1.
    10030    2    1    2    0    0  0.00000000000E+00  0.00000000000E+00 -0.33577908732E+03  0.36225231236E+04  0.36069275270E+04 0.  0.
        1    1    3    3  502    0  0.33354023541E+03 -0.17592121105E+04  0.48460562056E+02  0.17912076274E+04  0.50400001928E-02 0.  1.
       -1    1    3    3    0  502 -0.33354023541E+03  0.17592121105E+04 -0.38423964937E+03  0.18313154962E+04  0.50400001928E-02 0. -1.
</event>
<event>
 5   0  0.3279988E-08  0.3682619E+04  0.7818609E-02  0.8071825E-01
       -1   -1    0    0    0  501  0.00000000000E+00  0.00000000000E+00  0.25171248534E+04  0.25171248534E+04  0.50400001928E-02 0.  1.
        1   -1    0    0  501    0  0.00000000000E+00  0.00000000000E+00 -0.13469414497E+04  0.13469414497E+04  0.50400001928E-02 0. -1.
    10030    2    1    2    0    0  0.00000000000E+00  0.00000000000E+00  0.11701834037E+04  0.38640663031E+04  0.36826185244E+04 0.  0.
        5    1    3    3  502    0 -0.14238505827E+03 -0.15353647319E+04 -0.47086291655E+03  0.16122507066E+04  0.46999998093E+01 0. -1.
       -5    1    3    3    0  502  0.14238505827E+03  0.15353647319E+04  0.16410463203E+04  0.22518155964E+04  0.46999998093E+01 0.  1.
</event>
<event>
 5   0  0.3279988E-08  0.3611690E+04  0.7818609E-02  0.8087819E-01
       -1   -1    0    0    0  501  0.00000000000E+00  0.00000000000E+00  0.14400191896E+04  0.14400191896E+04  0.50400001928E-02 0.  1.
        1   -1    0    0  501    0  0.00000000000E+00  0.00000000000E+00 -0.22646064764E+04  0.22646064764E+04  0.50400001928E-02 0. -1.
    10030    2    1    2    0    0  0.00000000000E+00  0.00000000000E+00 -0.82458728676E+03  0.37046256661E+04  0.36116903428E+04 0.  0.
        5    1    3    3  502    0 -0.94236943497E+03  0.15057635884E+04 -0.74572836418E+03  0.19265297868E+04  0.46999998093E+01 0. -1.
       -5    1    3    3    0  502  0.94236943497E+03 -0.15057635884E+04 -0.78858922588E+02  0.17780958793E+04  0.46999998093E+01 0.  1.
</event>
<event>
 5   0  0.3215494E-08  0.3587516E+04  0.7818609E-02  0.8093357E-01
       -1   -1    0    0    0  501  0.00000000000E+00  0.00000000000E+00  0.20390239054E+04  0.20390239054E+04  0.50400001928E-02 0. -1.
        1   -1    0    0  501    0  0.00000000000E+00  0.00000000000E+00 -0.15779938391E+04  0.15779938391E+04  0.50400001928E-02 0.  1.
    10030    2    1    2    0    0  0.00000000000E+00  0.00000000000E+00  0.46103006635E+03  0.36170177445E+04  0.35875156644E+04 0.  0.
        4    1    3    3  502    0  0.14292410833E+04 -0.52607152105E+03  0.11859813206E+04  0.19302939220E+04  0.12699999809E+01 0. -1.
       -4    1    3    3    0  502 -0.14292410833E+04  0.52607152105E+03 -0.72495125422E+03  0.16867238225E+04  0.12699999809E+01 0.  1.
</event>
<event>
 5   0  0.9905335E-08  0.3596794E+04  0.7818609E-02  0.8091227E-01
       -2   -1    0    0    0  501  0.00000000000E+00  0.00000000000E+00  0.27898667904E+04  0.27898667904E+04  0.25500000920E-02 0.  1.
        2   -1    0    0  501    0  0.00000000000E+00  0.00000000000E+00 -0.11592779576E+04  0.11592779576E+04  0.25500000920E-02 0. -1.
    10030    2    1    2    0    0  0.00000000000E+00  0.00000000000E+00  0.16305888327E+04  0.39491447480E+04  0.35967936137E+04 0.  0.
        5    1    3    3  502    0 -0.15987249200E+04  0.75998591030E+03  0.46685944084E+03  0.18307047226E+04  0.46999998093E+01 0. -1.
       -5    1    3    3    0  502  0.15987249200E+04 -0.75998591030E+03  0.11637293919E+04  0.21184400254E+04  0.46999998093E+01 0.  1.
</event>
<event>
 5   0  0.1017794E-07  0.3620165E+04  0.7818609E-02  0.8085888E-01
        2   -1    0    0  501    0  0.00000000000E+00  0.00000000000E+00  0.20355328425E+04  0.20355328425E+04  0.25500000920E-02 0. -1.
       -2   -1    0    0    0  501  0.00000000000E+00  0.00000000000E+00 -0.16096020773E+04  0.16096020773E+04  0.25500000920E-02 0.  1.
    10030    2    1    2    0    0  0.00000000000E+00  0.00000000000E+00  0.42593076519E+03  0.36451349198E+04  0.36201645773E+04 0.  0.
        1    1    3    3  502    0 -0.54348198175E+03 -0.83013068822E+01 -0.15254881989E+04  0.16194307090E+04  0.50400001928E-02 0.  1.
       -1    1    3    3    0  502  0.54348198175E+03  0.83013068822E+01  0.19514189641E+04  0.20257042108E+04  0.50400001928E-02 0. -1.
</event>
<event>
 5   0  0.3202875E-08  0.3595744E+04  0.7818609E-02  0.8091467E-01
        1   -1    0    0  501    0  0.00000000000E+00  0.00000000000E+00  0.12122271031E+04  0.12122271031E+04  0.50400001928E-02 0.  1.
       -1   -1    0    0    0  501  0.00000000000E+00  0.00000000000E+00 -0.26664508006E+04  0.26664508006E+04  0.50400001928E-02 0. -1.
    10030    2    1    2    0    0  0.00000000000E+00  0.00000000000E+00 -0.14542236975E+04  0.38786779037E+04  0.35957441118E+04 0.  0.
        2    1    3    3  502    0  0.44930285390E+03  0.12936718442E+04  0.52939917847E+03  0.14682381909E+04  0.25500000920E-02 0.  1.
       -2    1    3    3    0  502 -0.44930285390E+03 -0.12936718442E+04 -0.19836228760E+04  0.24104397128E+04  0.25500000920E-02 0. -1.
</event>
<event>
 5   0  0.3279988E-08  0.3603043E+04  0.7818609E-02  0.8089795E-01
        1   -1    0    0  501    0  0.00000000000E+00  0.00000000000E+00  0.10457084328E+04  0.10457084328E+04  0.50400001928E-02 0. -1.
       -1   -1    0    0    0  501  0.00000000000E+00  0.00000000000E+00 -0.31036176470E+04  0.31036176470E+04  0.50400001928E-02 0.  1.
    10030    2    1    2    0    0  0.00000000000E+00  0.00000000000E+00 -0.20579092142E+04  0.41493260798E+04  0.36030426839E+04 0.  0.
        5    1    3    3  502    0  0.67492389476E+03 -0.11316759989E+04  0.38582216216E+03  0.13729871307E+04  0.46999998093E+01 0. -1.
       -5    1    3    3    0  502 -0.67492389476E+03  0.11316759989E+04 -0.24437313764E+04  0.27763389491E+04  0.46999998093E+01 0.  1.
</event>
<event>
 5   0  0.1021087E-07  0.3599760E+04  0.7818609E-02  0.8090547E-01
        2   -1    0    0  501    0  0.00000000000E+00  0.00000000000E+00  0.24786834328E+04  0.24786834328E+04  0.25500000920E-02 0. -1.
       -2   -1    0    0    0  501  0.00000000000E+00  0.00000000000E+00 -0.13069714817E+04  0.13069714817E+04  0.25500000920E-02 0.  1.
    10030    2    1    2    0    0  0.00000000000E+00  0.00000000000E+00  0.11717119511E+04  0.37856549145E+04  0.35997603024E+04 0.  0.
        3    1    3    3  502    0  0.31878171330E+03  0.14517840982E+04 -0.48158262415E+03  0.15624406173E+04  0.10100000352E+00 0.  1.
       -3    1    3    3    0  502 -0.31878171330E+03 -0.14517840982E+04  0.16532945752E+04  0.22232142972E+04  0.10100000352E+00 0. -1.
</event>
<event>
 5   0  0.1017794E-07  0.3596508E+04  0.7818609E-02  0.8091292E-01
       -2   -1    0    0    0  501  0.00000000000E+00  0.00000000000E+00  0.18068847234E+04  0.18068847234E+04  0.25500000920E-02 0. -1.
        2   -1    0    0  501    0  0.00000000000E+00  0.00000000000E+00 -0.17896642135E+04  0.17896642135E+04  0.25500000920E-02 0.  1.
    10030    2    1    2    0    0  0.00000000000E+00  0.00000000000E+00  0.17220509838E+02  0.35965489369E+04  0.35965077102E+04 0.  0.
        1    1    3    3  502    0 -0.92614853604E+03  0.11739957811E+04 -0.99025039395E+03  0.17934918588E+04  0.50400001928E-02 0.  1.
       -1    1    3    3    0  502  0.92614853604E+03 -0.11739957811E+04  0.10074709038E+04  0.18030570781E+04  0.50400001928E-02 0. -1.
</event>
<event>
 5   0  0.3202875E-08  0.3596371E+04  0.7818609E-02  0.8091324E-01
        3   -1    0    0  501    0  0.00000000000E+00  0.00000000000E+00  0.13668299776E+04  0.13668299813E+04  0.10100000352E+00 0. -1.
       -3   -1    0    0    0  501  0.00000000000E+00  0.00000000000E+00 -0.23656711090E+04  0.23656711111E+04  0.10100000352E+00 0.  1.
    10030    2    1    2    0    0  0.00000000000E+00  0.00000000000E+00 -0.99884113139E+03  0.37325010925E+04  0.35963705036E+04 0.  0.
        5    1    3    3  502    0 -0.56798205877E+03 -0.10254980583E+04  0.91571603730E+03  0.14875509530E+04  0.46999998093E+01 0. -1.
       -5    1    3    3    0  502  0.56798205877E+03  0.10254980583E+04 -0.19145571687E+04  0.22449501395E+04  0.46999998093E+01 0.  1.
</event>
<event>
 5   0  0.3202875E-08  0.3572478E+04  0.7818609E-02  0.8096825E-01
       -1   -1    0    0    0  501  0.00000000000E+00  0.00000000000E+00  0.15890474382E+04  0.15890474382E+04  0.50400001928E-02 0.  1.
        1   -1    0    0  501    0  0.00000000000E+00  0.00000000000E+00 -0.20079003419E+04  0.20079003419E+04  0.50400001928E-02 0. -1.
    10030    2    1    2    0    0  0.00000000000E+00  0.00000000000E+00 -0.41885290372E+03  0.35969477802E+04  0.35724775126E+04 0.  0.
        2    1    3    3  502    0  0.14666104325E+04  0.13061801371E+03 -0.12276106938E+04  0.19170381430E+04  0.25500000920E-02 0. -1.
       -2    1    3    3    0  502 -0.14666104325E+04 -0.13061801371E+03  0.80875779009E+03  0.16799096372E+04  0.25500000920E-02 0.  1.
</event>
<event>
 5   0  0.3279988E-08  0.3603355E+04  0.7818609E-02  0.8089724E-01
        1   -1    0    0  501    0  0.00000000000E+00  0.00000000000E+00  0.22537642291E+04  0.22537642291E+04  0.50400001928E-02 0. -1.
       -1   -1    0    0    0  501  0.00000000000E+00  0.00000000000E+00 -0.14402755161E+04  0.14402755161E+04  0.50400001928E-02 0.  1.
    10030    2    1    2    0    0  0.00000000000E+00  0.00000000000E+00  0.81348871306E+03  0.36940397452E+04  0.36033547914E+04 0.  0.
        5    1    3    3  502    0  0.68808383677E+02 -0.66835926378E+03 -0.13070269298E+04  0.14696190609E+04  0.46999998093E+01 0.  1.
       -5    1    3    3    0  502 -0.68808383677E+02  0.66835926378E+03  0.21205156428E+04  0.22244206843E+04  0.46999998093E+01 0. -1.
</event>
<event>
 5   0  0.3202875E-08  0.3594760E+04  0.7818609E-02  0.8091693E-01
       -1   -1    0    0    0  501  0.00000000000E+00  0.00000000000E+00  0.14848371381E+04  0.14848371381E+04  0.50400001928E-02 0.  1.
        1   -1    0    0  501    0  0.00000000000E+00  0.00000000000E+00 -0.21757100602E+04  0.21757100602E+04  0.50400001928E-02 0. -1.
    10030    2    1    2    0    0  0.00000000000E+00  0.00000000000E+00 -0.69087292216E+03  0.36605471983E+04  0.35947601306E+04 0.  0.
        2    1    3    3  502    0 -0.86030411048E+03  0.15558168694E+03 -0.19446052896E+04  0.21320925300E+04  0.25500000920E-02 0. -1.
       -2    1    3    3    0  502  0.86030411048E+03 -0.15558168694E+03  0.12537323675E+04  0.15284546683E+04  0.25500000920E-02 0.  1.
</event>
<event>
 5   0  0.3279988E-08  0.3598520E+04  0.7818609E-02  0.8090831E-01
        1   -1    0    0  501    0  0.00000000000E+00  0.00000000000E+00  0.10739091709E+04  0.10739091709E+04  0.50400001928E-02 0. -1.
       -1   -1    0    0    0  501  0.00000000000E+00  0.00000000000E+00 -0.30145353235E+04  0.30145353235E+04  0.50400001928E-02 0.  1.
    10030    2    1    2    0    0  0.00000000000E+00  0.00000000000E+00 -0.19406261526E+04  0.40884444944E+04  0.35985203237E+04 0.  0.
        5    1    3    3  502    0  0.14973265271E+04 -0.82341110028E+03 -0.33030631787E+03  0.17404358427E+04  0.46999998093E+01 0.  1.
       -5    1    3    3    0  502 -0.14973265271E+04  0.82341110028E+03 -0.16103198347E+04  0.23480086518E+04  0.46999998093E+01 0. -1.
</event>
<event>
 5   0  0.3202875E-08  0.3606330E+04  0.7818609E-02  0.8089043E-01
        1   -1    0    0  501    0  0.00000000000E+00  0.00000000000E+00  0.11405767515E+04  0.11405767515E+04  0.50400001928E-02 0.  1.
       -1   -1    0    0    0  501  0.00000000000E+00  0.00000000000E+00 -0.28506663763E+04  0.28506663763E+04  0.50400001928E-02 0. -1.
    10030    2    1    2    0    0  0.00000000000E+00  0.00000000000E+00 -0.17100896248E+04  0.39912431279E+04  0.36063298769E+04 0.  0.
        2    1    3    3  502    0  0.16595144282E+04  0.36713353878E+03 -0.18858529535E+03  0.17100700530E+04  0.25500000920E-02 0.  1.
       -2    1    3    3    0  502 -0.16595144282E+04 -0.36713353878E+03 -0.15215043295E+04  0.22811730748E+04  0.25500000920E-02 0. -1.
</event>
<event>
 5   0  0.1021087E-07  0.3609931E+04  0.7818609E-02  0.8088221E-01
        2   -1    0    0  501    0  0.00000000000E+00  0.00000000000E+00  0.12805831057E+04  0.12805831057E+04  0.25500000920E-02 0.  1.
       -2   -1    0    0    0  501  0.00000000000E+00  0.00000000000E+00 -0.25440754754E+04  0.25440754754E+04  0.25500000920E-02 0. -1.
    10030    2    1    2    0    0  0.00000000000E+00  0.00000000000E+00 -0.12634923697E+04  0.38246585811E+04  0.36099307879E+04 0.  0.
        3    1    3    3  502    0  0.14933402612E+04  0.43639212372E+03  0.33777980736E+03  0.15920422199E+04  0.10100000352E+00 0.  1.
       -3    1    3    3    0  502 -0.14933402612E+04 -0.43639212372E+03 -0.16012721770E+04  0.22326163612E+04  0.10100000352E+00 0. -1.
</event>
<event>
 5   0  0.1044678E-07  0.3601234E+04  0.7818609E-02  0.8090209E-01
       -2   -1    0    0    0  501  0.00000000000E+00  0.00000000000E+00  0.23959103061E+04  0.23959103061E+04  0.25500000920E-02 0. -1.
        2   -1    0    0  501    0  0.00000000000E+00  0.00000000000E+00 -0.13532318785E+04  0.13532318785E+04  0.25500000920E-02 0.  1.
    10030    2    1    2    0    0  0.00000000000E+00  0.00000000000E+00  0.10426784276E+04  0.37491421846E+04  0.36012343463E+04 0.  0.
        2    1    3    3  502    0  0.11493255764E+03  0.11337279867E+04 -0.93007773936E+03  0.14709157834E+04  0.25500000920E-02 0.  1.
       -2    1    3    3    0  502 -0.11493255764E+03 -0.11337279867E+04  0.19727561670E+04  0.22782264012E+04  0.25500000920E-02 0. -1.
</event>
<event>
 5   0  0.1017794E-07  0.3599019E+04  0.7818609E-02  0.8090716E-01
       -2   -1    0    0    0  501  0.00000000000E+00  0.00000000000E+00  0.14067311854E+04  0.14067311854E+04  0.25500000920E-02 0. -1.
        2   -1    0    0  501    0  0.00000000000E+00  0.00000000000E+00 -0.23019572155E+04  0.23019572155E+04  0.25500000920E-02 0.  1.
    10030    2    1    2    0    0  0.00000000000E+00  0.00000000000E+00 -0.89522603002E+03  0.37086884009E+04  0.35990193123E+04 0.  0.
        1    1    3    3  502    0  0.16183374309E+04  0.34555370092E+03  0.28090338943E+03  0.16784904274E+04  0.50400001928E-02 0. -1.
       -1    1    3    3    0  502 -0.16183374309E+04 -0.34555370092E+03 -0.11761294194E+04  0.20301979736E+04  0.50400001928E-02 0.  1.
</event>
<event>
 5   0  0.3202875E-08  0.3633600E+04  0.7818609E-02  0.8082838E-01
       -1   -1    0    0    0  501  0.00000000000E+00  0.00000000000E+00  0.12419812956E+04  0.12419812956E+04  0.50400001928E-02 0. -1.
        1   -1    0    0  501    0  0.00000000000E+00  0.00000000000E+00 -0.26576589878E+04  0.26576589879E+04  0.50400001928E-02 0.  1.
    10030    2    1    2    0    0  0.00000000000E+00  0.00000000000E+00 -0.14156776922E+04  0.38996402835E+04  0.36336002824E+04 0.  0.
        2    1    3    3  502    0 -0.17244260593E+03  0.13698143796E+04  0.55957269246E+03  0.14897145649E+04  0.25500000920E-02 0. -1.
       -2    1    3    3    0  502  0.17244260593E+03 -0.13698143796E+04 -0.19752503847E+04  0.24099257186E+04  0.25500000920E-02 0.  1.
</event>
<event>
 5   0  0.1029908E-07  0.3597198E+04  0.7818609E-02  0.8091134E-01
       -2   -1    0    0    0  501  0.00000000000E+00  0.00000000000E+00  0.18786636444E+04  0.18786636444E+04  0.25500000920E-02 0.  1.
        2   -1    0    0  501    0  0.00000000000E+00  0.00000000000E+00 -0.17219465894E+04  0.17219465894E+04  0.25500000920E-02 0. -1.
    10030    2    1    2    0    0  0.00000000000E+00  0.00000000000E+00  0.15671705501E+03  0.36006102338E+04  0.35971980513E+04 0.  0.
        4    1    3    3  502    0  0.17277108961E+04  0.34253112797E+03  0.44290768935E+03  0.18161721692E+04  0.12699999809E+01 0.  1.
       -4    1    3    3    0  502 -0.17277108961E+04 -0.34253112797E+03 -0.28619063434E+03  0.17844380646E+04  0.12699999809E+01 0. -1.
</event>
<event>
 5   0  0.3202875E-08  0.3532780E+04  0.7818609E-02  0.8106065E-01
       -1   -1    0    0    0  501  0.00000000000E+00  0.00000000000E+00  0.16288736734E+04  0.16288736734E+04  0.50400001928E-02 0.  1.
        1   -1    0    0  501    0  0.00000000000E+00  0.00000000000E+00 -0.19155158689E+04  0.19155158689E+04  0.50400001928E-02 0. -1.
    10030    2    1    2    0    0  0.00000000000E+00  0.00000000000E+00 -0.28664219545E+03  0.35443895423E+04  0.35327798515E+04 0.  0.
        1    1    3    3  502    0  0.13830900527E+04  0.10978334860E+04 -0.18770348088E+03  0.17757840673E+04  0.50400001928E-02 0.  1.
       -1    1    3    3    0  502 -0.13830900527E+04 -0.10978334860E+04 -0.98938714576E+02  0.17686054750E+04  0.50400001928E-02 0. -1.
</event>
<event>
 5   0  0.3215494E-08  0.3597131E+04  0.7818609E-02  0.8091149E-01
        1   -1    0    0  501    0  0.00000000000E+00  0.00000000000E+00  0.17966514832E+04  0.17966514832E+04  0.50400001928E-02 0.  1.
       -1   -1    0    0    0  501  0.00000000000E+00  0.00000000000E+00 -0.18004814665E+04  0.18004814665E+04  0.50400001928E-02 0. -1.
    10030    2    1    2    0    0  0.00000000000E+00  0.00000000000E+00 -0.38299833176E+01  0.35971329497E+04  0.35971309108E+04 0.  0.
        4    1    3    3  502    0 -0.12712034597E+04  0.99891562873E+03  0.78614980216E+03  0.17977273969E+04  0.12699999809E+01 0.  1.
       -4    1    3    3    0  502  0.12712034597E+04 -0.99891562873E+03 -0.78997978548E+03  0.17994055528E+04  0.12699999809E+01 0. -1.
</event>
<event>
 5   0  0.1021087E-07  0.3599109E+04  0.7818609E-02  0.8090696E-01
        2   -1    0    0  501    0  0.00000000000E+00  0.00000000000E+00  0.27741087577E+04  0.27741087577E+04  0.25500000920E-02 0.  1.
       -2   -1    0    0    0  501  0.00000000000E+00  0.00000000000E+00 -0.11673645293E+04  0.11673645293E+04  0.25500000920E-02 0. -1.
    10030    2    1    2    0    0  0.00000000000E+00  0.00000000000E+00  0.16067442284E+04  0.39414732869E+04  0.35991088697E+04 0.  0.
        3    1    3    3  502    0 -0.20968219303E+03 -0.12163908834E+04  0.22374515955E+04  0.25553401056E+04  0.10100000352E+00 0.  1.
       -3    1    3    3    0  502  0.20968219303E+03  0.12163908834E+04 -0.63070736706E+03  0.13861331813E+04  0.10100000352E+00 0. -1.
</event>
<event>
 5   0  0.3279988E-08  0.3599410E+04  0.7818609E-02  0.8090627E-01
        1   -1    0    0  501    0  0.00000000000E+00  0.00000000000E+00  0.26277954029E+04  0.26277954029E+04  0.50400001928E-02 0. -1.
       -1   -1    0    0    0  501  0.00000000000E+00  0.00000000000E+00 -0.12325685400E+04  0.12325685400E+04  0.50400001928E-02 0.  1.
    10030    2    1    2    0    0  0.00000000000E+00  0.00000000000E+00  0.13952268630E+04  0.38603639429E+04  0.35994099200E+04 0.  0.
        5    1    3    3  502    0 -0.11515510829E+04 -0.13819763654E+04  0.75623197896E+03  0.19513681014E+04  0.46999998093E+01 0.  1.
       -5    1    3    3    0  502  0.11515510829E+04  0.13819763654E+04  0.63899488400E+03  0.19089958415E+04  0.46999998093E+01 0. -1.
</event>
<event>
 5   0  0.1021087E-07  0.3610504E+04  0.7818609E-02  0.8088090E-01
       -2   -1    0    0    0  501  0.00000000000E+00  0.00000000000E+00  0.15707779938E+04  0.15707779938E+04  0.25500000920E-02 0. -1.
        2   -1    0    0  501    0  0.00000000000E+00  0.00000000000E+00 -0.20747266114E+04  0.20747266115E+04  0.25500000920E-02 0.  1.
    10030    2    1    2    0    0  0.00000000000E+00  0.00000000000E+00 -0.50394861763E+03  0.36455046053E+04  0.36105040670E+04 0.  0.
        3    1    3    3  502    0  0.79971935628E+03 -0.14517647562E+04  0.47033669025E+03  0.17229012069E+04  0.10100000352E+00 0.  1.
       -3    1    3    3    0  502 -0.79971935628E+03  0.14517647562E+04 -0.97428530788E+03  0.19226033984E+04  0.10100000352E+00 0. -1.
</event>
<event>
 5   0  0.3202875E-08  0.3616222E+04  0.7818609E-02  0.8086786E-01
       -1   -1    0    0    0  501  0.00000000000E+00  0.00000000000E+00  0.28509933652E+04  0.28509933652E+04  0.50400001928E-02 0. -1.
        1   -1    0    0  501    0  0.00000000000E+00  0.00000000000E+00 -0.11467109049E+04  0.11467109050E+04  0.50400001928E-02 0.  1.
    10030    2    1    2    0    0  0.00000000000E+00  0.00000000000E+00  0.17042824602E+04  0.39977042701E+04  0.36162218858E+04 0.  0.
        1    1    3    3  502    0 -0.60039168053E+02 -0.82573250222E+03  0.26291405120E+04  0.27564141015E+04  0.50400001928E-02 0. -1.
       -1    1    3    3    0  502  0.60039168053E+02  0.82573250222E+03 -0.92485805175E+03  0.12412901687E+04  0.50400001928E-02 0.  1.
</event>
<event>
 5   0  0.3279988E-08  0.3603015E+04  0.7818609E-02  0.8089801E-01
        1   -1    0    0  501    0  0.00000000000E+00  0.00000000000E+00  0.13042414367E+04  0.13042414367E+04  0.50400001928E-02 0. -1.
       -1   -1    0    0    0  501  0.00000000000E+00  0.00000000000E+00 -0.24883654039E+04  0.24883654039E+04  0.50400001928E-02 0.  1.
    10030    2    1    2    0    0  0.00000000000E+00  0.00000000000E+00 -0.11841239672E+04  0.37926068406E+04  0.36030149983E+04 0.  0.
        5    1    3    3  502    0 -0.26323631338E+03  0.28342908727E+03  0.12600059977E+04  0.13180525818E+04  0.46999998093E+01 0. -1.
       -5    1    3    3    0  502  0.26323631338E+03 -0.28342908727E+03 -0.24441299649E+04  0.24745542588E+04  0.46999998093E+01 0.  1.
</event>
<event>
 5   0  0.9905335E-08  0.3600951E+04  0.7818609E-02  0.8090274E-01
       -2   -1    0    0    0  501  0.00000000000E+00  0.00000000000E+00  0.26456581551E+04  0.26456581551E+04  0.25500000920E-02 0.  1.
        2   -1    0    0  501    0  0.00000000000E+00  0.00000000000E+00 -0.12252953204E+04  0.12252953204E+04  0.25500000920E-02 0. -1.
    10030    2    1    2    0    0  0.00000000000E+00  0.00000000000E+00  0.14203628346E+04  0.38709534755E+04  0.36009512948E+04 0.  0.
        5    1    3    3  502    0  0.67188354695E+02  0.13696224651E+03 -0.12183285916E+04  0.12278516112E+04  0.46999998093E+01 0. -1.
       -5    1    3    3    0  502 -0.67188354695E+02 -0.13696224651E+03  0.26386914263E+04  0.26431018643E+04  0.46999998093E+01 0.  1.
</event>
<event>
 5   0  0.3202875E-08  0.3600361E+04  0.7818609E-02  0.8090409E-01
        1   -1    0    0  501    0  0.00000000000E+00  0.00000000000E+00  0.25026833925E+04  0.25026833925E+04  0.50400001928E-02 0. -1.
       -1   -1    0    0    0  501  0.00000000000E+00  0.00000000000E+00 -0.12948702673E+04  0.12948702673E+04  0.50400001928E-02 0.  1.
    10030    2    1    2    0    0  0.00000000000E+00  0.00000000000E+00  0.12078131252E+04  0.37975536598E+04  0.36003612671E+04 0.  0.
        1    1    3    3  502    0  0.10794494906E+04 -0.37988519000E+03 -0.86185450985E+03  0.14325910639E+04  0.50400001928E-02 0.  1.
       -1    1    3    3    0  502 -0.10794494906E+04  0.37988519000E+03  0.20696676350E+04  0.23649625958E+04  0.50400001928E-02 0. -1.
</event>
<event>
 5   0  0.9905335E-08  0.3593155E+04  0.7818609E-02  0.8092061E-01
       -2   -1    0    0    0  501  0.00000000000E+00  0.00000000000E+00  0.11587878106E+04  0.11587878106E+04  0.25500000920E-02 0.  1.
        2   -1    0    0  501    0  0.00000000000E+00  0.00000000000E+00 -0.27854028456E+04  0.27854028456E+04  0.25500000920E-02 0. -1.
    10030    2    1    2    0    0  0.00000000000E+00  0.00000000000E+00 -0.16266150350E+04  0.39441906561E+04  0.35931550843E+04 0.  0.
        5    1    3    3  502    0  0.65229283518E+03  0.13476729900E+04  0.27665524646E+03  0.15225861704E+04  0.46999998093E+01 0.  1.
       -5    1    3    3    0  502 -0.65229283518E+03 -0.13476729900E+04 -0.19032702815E+04  0.24216044857E+04  0.46999998093E+01 0. -1.
</event>
<event>
 5   0  0.3202875E-08  0.3595182E+04  0.7818609E-02  0.8091596E-01
        1   -1    0    0  501    0  0.00000000000E+00  0.00000000000E+00  0.14366404460E+04  0.14366404460E+04  0.50400001928E-02 0.  1.
       -1   -1    0    0    0  501  0.00000000000E+00  0.00000000000E+00 -0.22492296161E+04  0.22492296161E+04  0.50400001928E-02 0. -1.
    10030    2    1    2    0    0  0.00000000000E+00  0.00000000000E+00 -0.81258917017E+03  0.36858700621E+04  0.35951824648E+04 0.  0.
        2    1    3    3  502    0  0.25222755775E+02  0.19240194717E+03  0.14258711312E+04  0.14390146557E+04  0.25500000920E-02 0.  1.
       -2    1    3    3    0  502 -0.25222755775E+02 -0.19240194717E+03 -0.22384603013E+04  0.22468554064E+04  0.25500000920E-02 0. -1.
</event>
<event>
 5   0  0.3212523E-08  0.3601642E+04  0.7818609E-02  0.8090116E-01
       -1   -1    0    0    0  501  0.00000000000E+00  0.00000000000E+00  0.19007182795E+04  0.19007182795E+04  0.50400001928E-02 0.  1.
        1   -1    0    0  501    0  0.00000000000E+00  0.00000000000E+00 -0.17061737970E+04  0.17061737971E+04  0.50400001928E-02 0. -1.
    10030    2    1    2    0    0  0.00000000000E+00  0.00000000000E+00  0.19454448249E+03  0.36068920766E+04  0.36016416946E+04 0.  0.
        3    1    3    3  502    0  0.97794877809E+03 -0.33355312975E+03  0.15743169493E+04  0.18831132122E+04  0.10100000352E+00 0.  1.
       -3    1    3    3    0  502 -0.97794877809E+03  0.33355312975E+03 -0.13797724668E+04  0.17237788644E+04  0.10100000352E+00 0. -1.
</event>
<event>
 5   0  0.3279988E-08  0.3614541E+04  0.7818609E-02  0.8087169E-01
       -1   -1    0    0    0  501  0.00000000000E+00  0.00000000000E+00  0.28044523420E+04  0.28044523420E+04  0.50400001928E-02 0.  1.
        1   -1    0    0  501    0  0.00000000000E+00  0.00000000000E+00 -0.11646573960E+04  0.11646573960E+04  0.50400001928E-02 0. -1.
    10030    2    1    2    0    0  0.00000000000E+00  0.00000000000E+00  0.16397949460E+04  0.39691097379E+04  0.36145407242E+04 0.  0.
        5    1    3    3  502    0  0.13771884463E+04  0.30599096034E+03 -0.42047653670E+03  0.14721077041E+04  0.46999998093E+01 0. -1.
       -5    1    3    3    0  502 -0.13771884463E+04 -0.30599096034E+03  0.20602714827E+04  0.24970020338E+04  0.46999998093E+01 0.  1.
</event>
<event>
 5   0  0.1044678E-07  0.3605623E+04  0.7818609E-02  0.8089205E-01
       -2   -1    0    0    0  501  0.00000000000E+00  0.00000000000E+00  0.13674762096E+04  0.13674762096E+04  0.25500000920E-02 0. -1.
        2   -1    0    0  501    0  0.00000000000E+00  0.00000000000E+00 -0.23767356960E+04  0.23767356960E+04  0.25500000920E-02 0.  1.
    10030    2    1    2    0    0  0.00000000000E+00  0.00000000000E+00 -0.10092594864E+04  0.37442119057E+04  0.36056231200E+04 0.  0.
        2    1    3    3  502    0  0.63486912218E+02  0.87716785085E+03 -0.21388652553E+04  0.23126172634E+04  0.25500000920E-02 0.  1.
       -2    1    3    3    0  502 -0.63486912218E+02 -0.87716785085E+03  0.11296057689E+04  0.14315946423E+04  0.25500000920E-02 0. -1.
</event>
<event>
 5   0  0.1017794E-07  0.3595900E+04  0.7818609E-02  0.8091431E-01
        2   -1    0    0  501    0  0.00000000000E+00  0.00000000000E+00  0.19461232226E+04  0.19461232226E+04  0.25500000920E-02 0. -1.
       -2   -1    0    0    0  501  0.00000000000E+00  0.00000000000E+00 -0.16610586879E+04  0.16610586879E+04  0.25500000920E-02 0.  1.
    10030    2    1    2    0    0  0.00000000000E+00  0.00000000000E+00  0.28506453466E+03  0.36071819105E+04  0.35959003805E+04 0.  0.
        1    1    3    3  502    0 -0.81418300058E+03  0.10592652453E+04  0.13495061987E+04  0.18989744071E+04  0.50400001928E-02 0.  1.
       -1    1    3    3    0  502  0.81418300058E+03 -0.10592652453E+04 -0.10644416641E+04  0.17082075034E+04  0.50400001928E-02 0. -1.
</event>
<event>
 5   0  0.3202875E-08  0.3596204E+04  0.7818609E-02  0.8091362E-01
       -1   -1    0    0    0  501  0.00000000000E+00  0.00000000000E+00  0.11095588165E+04  0.11095588165E+04  0.50400001928E-02 0.  1.
        1   -1    0    0  501    0  0.00000000000E+00  0.00000000000E+00 -0.29139243794E+04  0.29139243794E+04  0.50400001928E-02 0. -1.
    10030    2    1    2    0    0  0.00000000000E+00  0.00000000000E+00 -0.18043655629E+04  0.40234831959E+04  0.35962038239E+04 0.  0.
        1    1    3    3  502    0  0.98994656648E+03  0.84345268652E+01 -0.25815614114E+04  0.27648733545E+04  0.50400001928E-02 0. -1.
       -1    1    3    3    0  502 -0.98994656648E+03 -0.84345268652E+01  0.77719584856E+03  0.12586098414E+04  0.50400001928E-02 0.  1.
</event>
<event>
 5   0  0.3212523E-08  0.3602821E+04  0.7818609E-02  0.8089846E-01
        1   -1    0    0  501    0  0.00000000000E+00  0.00000000000E+00  0.20349655928E+04  0.20349655928E+04  0.50400001928E-02 0.  1.
       -1   -1    0    0    0  501  0.00000000000E+00  0.00000000000E+00 -0.15946603650E+04  0.15946603650E+04  0.50400001928E-02 0. -1.
    10030    2    1    2    0    0  0.00000000000E+00  0.00000000000E+00  0.44030522776E+03  0.36296259578E+04  0.36028205479E+04 0.  0.
        3    1    3    3  502    0 -0.17854710924E+04 -0.22930742794E+03  0.28840656384E+03  0.18230927773E+04  0.10100000352E+00 0. -1.
       -3    1    3    3    0  502  0.17854710924E+04  0.22930742794E+03  0.15189866392E+03  0.18065331806E+04  0.10100000352E+00 0.  1.
</event>
<event>
 5   0  0.3212523E-08  0.3583469E+04  0.7818609E-02  0.8094289E-01
        1   -1    0    0  501    0  0.00000000000E+00  0.00000000000E+00  0.27721168979E+04  0.27721168979E+04  0.50400001928E-02 0.  1.
       -1   -1    0    0    0  501  0.00000000000E+00  0.00000000000E+00 -0.11580724460E+04  0.11580724460E+04  0.50400001928E-02 0. -1.
    10030    2    1    2    0    0  0.00000000000E+00  0.00000000000E+00  0.16140444519E+04  0.39301893440E+04  0.35834688204E+04 0.  0.
        3    1    3    3  502    0 -0.15368959992E+04  0.49262937065E+03  0.16605060818E+04  0.23156021824E+04  0.10100000352E+00 0.  1.
       -3    1    3    3    0  502  0.15368959992E+04 -0.49262937065E+03 -0.46461629917E+02  0.16145871616E+04  0.10100000352E+00 0. -1.
</event>
<event>
 5   0  0.3215494E-08  0.3587154E+04  0.7818609E-02  0.8093441E-01
       -1   -1    0    0    0  501  0.00000000000E+00  0.00000000000E+00  0.13947853980E+04  0.13947853980E+04  0.50400001928E-02 0.  1.
        1   -1    0    0  501    0  0.00000000000E+00  0.00000000000E+00 -0.23063893772E+04  0.23063893772E+04  0.50400001928E-02 0. -1.
    10030    2    1    2    0    0  0.00000000000E+00  0.00000000000E+00 -0.91160397913E+03  0.37011747752E+04  0.35871538721E+04 0.  0.
        4    1    3    3  502    0 -0.11519046141E+04  0.69097018018E+03 -0.16821057164E+04  0.21526275302E+04  0.12699999809E+01 0. -1.
       -4    1    3    3    0  502  0.11519046141E+04 -0.69097018018E+03  0.77050173724E+03  0.15485472450E+04  0.12699999809E+01 0.  1.
</event>
<event>
 5   0  0.1017794E-07  0.3603445E+04  0.7818609E-02  0.8089703E-01
        2   -1    0    0  501    0  0.00000000000E+00  0.00000000000E+00  0.17677734199E+04  0.17677734199E+04  0.25500000920E-02 0.  1.
       -2   -1    0    0    0  501  0.00000000000E+00  0.00000000000E+00 -0.18363234691E+04  0.18363234691E+04  0.25500000920E-02 0. -1.
    10030    2    1    2    0    0  0.00000000000E+00  0.00000000000E+00 -0.68550049131E+02  0.36040968890E+04  0.36034449178E+04 0.  0.
        1    1    3    3  502    0  0.47843784643E+03  0.19032087487E+03 -0.17611675636E+04  0.18348940011E+04  0.50400001928E-02 0. -1.
       -1    1    3    3    0  502 -0.47843784643E+03 -0.19032087487E+03  0.16926175144E+04  0.17692028879E+04  0.50400001928E-02 0.  1.
</event>
<event>
 5   0  0.1021087E-07  0.3592207E+04  0.7818609E-02  0.8092279E-01
        2   -1    0    0  501    0  0.00000000000E+00  0.00000000000E+00  0.20543316462E+04  0.20543316462E+04  0.25500000920E-02 0.  1.
       -2   -1    0    0    0  501  0.00000000000E+00  0.00000000000E+00 -0.15703343523E+04  0.15703343523E+04  0.25500000920E-02 0. -1.
    10030    2    1    2    0    0  0.00000000000E+00  0.00000000000E+00  0.48399729393E+03  0.36246659985E+04  0.35922068732E+04 0.  0.
        3    1    3    3  502    0 -0.14868495071E+04 -0.56781223010E+03 -0.59790205595E+03  0.17001820679E+04  0.10100000352E+00 0.  1.
       -3    1    3    3    0  502  0.14868495071E+04  0.56781223010E+03  0.10818993499E+04  0.19244839305E+04  0.10100000352E+00 0. -1.
</event>
<event>
 5   0  0.3212523E-08  0.3609573E+04  0.7818609E-02  0.8088302E-01
        1   -1    0    0  501    0  0.00000000000E+00  0.00000000000E+00  0.21544686641E+04  0.21544686641E+04  0.50400001928E-02 0.  1.
       -1   -1    0    0    0  501  0.00000000000E+00  0.00000000000E+00 -0.15118599217E+04  0.15118599217E+04  0.50400001928E-02 0. -1.
    10030    2    1    2    0    0  0.00000000000E+00  0.00000000000E+00  0.64260874241E+03  0.36663285857E+04  0.36095732854E+04 0.  0.
        3    1    3    3  502    0 -0.82805674014E+03  0.15519302034E+04 -0.88888883317E+02  0.17612684534E+04  0.10100000352E+00 0. -1.
       -3    1    3    3    0  502  0.82805674014E+03 -0.15519302034E+04  0.73149762573E+03  0.19050601323E+04  0.10100000352E+00 0.  1.
</event>
<event>
 5   0  0.1029908E-07  0.3605079E+04  0.7818609E-02  0.8089329E-01
       -2   -1    0    0    0  501  0.00000000000E+00  0.00000000000E+00  0.22257839396E+04  0.22257839396E+04  0.25500000920E-02 0. -1.
        2   -1    0    0  501    0  0.00000000000E+00  0.00000000000E+00 -0.14597771627E+04  0.14597771627E+04  0.25500000920E-02 0.  1.
    10030    2    1    2    0    0  0.00000000000E+00  0.00000000000E+00  0.76600677694E+03  0.36855611023E+04  0.36050789529E+04 0.  0.
        4    1    3    3  502    0  0.11272988565E+04  0.13475786537E+04  0.79495838041E+03  0.19284012496E+04  0.12699999809E+01 0. -1.
       -4    1    3    3    0  502 -0.11272988565E+04 -0.13475786537E+04 -0.28951603472E+02  0.17571598528E+04  0.12699999809E+01 0.  1.
</event>
<event>
 5   0  0.3212523E-08  0.3609305E+04  0.7818609E-02  0.8088364E-01
        1   -1    0    0  501    0  0.00000000000E+00  0.00000000000E+00  0.13863906618E+04  0.13863906618E+04  0.50400001928E-02 0.  1.
       -1   -1    0    0    0  501  0.00000000000E+00  0.00000000000E+00 -0.23491001441E+04  0.23491001442E+04  0.50400001928E-02 0. -1.
    10030    2    1    2    0    0  0.00000000000E+00  0.00000000000E+00 -0.96270948238E+03  0.37354908059E+04  0.36093049211E+04 0.  0.
        3    1    3    3  502    0  0.37550937209E+03  0.95508884337E+03  0.10549853952E+04  0.14718003199E+04  0.10100000352E+00 0.  1.
       -3    1    3    3    0  502 -0.37550937209E+03 -0.95508884337E+03 -0.20176948776E+04  0.22636904860E+04  0.10100000352E+00 0. -1.
</event>
<event>
 5   0  0.3212523E-08  0.3596218E+04  0.7818609E-02  0.8091359E-01
        1   -1    0    0  501    0  0.00000000000E+00  0.00000000000E+00  0.31184115044E+04  0.31184115045E+04  0.50400001928E-02 0. -1.
       -1   -1    0    0    0  501  0.00000000000E+00  0.00000000000E+00 -0.10368084091E+04  0.10368084091E+04  0.50400001928E-02 0.  1.
    10030    2    1    2    0    0  0.00000000000E+00  0.00000000000E+00  0.20816030954E+04  0.41552199135E+04  0.35962176079E+04 0.  0.
        3    1    3    3  502    0  0.14379309992E+04 -0.62117313834E+03  0.20543463305E+02  0.15665004534E+04  0.10100000352E+00 0. -1.
       -3    1    3    3    0  502 -0.14379309992E+04  0.62117313834E+03  0.20610596321E+04  0.25887194602E+04  0.10100000352E+00 0.  1.
</event>
<event>
 5   0  0.9905335E-08  0.3599605E+04  0.7818609E-02  0.8090582E-01
        2   -1    0    0  501    0  0.00000000000E+00  0.00000000000E+00  0.16982423991E+04  0.16982423991E+04  0.25500000920E-02 0.  1.
       -2   -1    0    0    0  501  0.00000000000E+00  0.00000000000E+00 -0.19074357424E+04  0.19074357424E+04  0.25500000920E-02 0. -1.
    10030    2    1    2    0    0  0.00000000000E+00  0.00000000000E+00 -0.20919334327E+03  0.36056781415E+04  0.35996045623E+04 0.  0.
        5    1    3    3  502    0 -0.44999550823E+03 -0.12329306440E+04  0.11290056204E+04  0.17312682378E+04  0.46999998093E+01 0.  1.
       -5    1    3    3    0  502  0.44999550823E+03  0.12329306440E+04 -0.13381989637E+04  0.18744099036E+04  0.46999998093E+01 0. -1.
</event>
<event>
 5   0  0.3215494E-08  0.3598116E+04  0.7818609E-02  0.8090923E-01
        1   -1    0    0  501    0  0.00000000000E+00  0.00000000000E+00  0.16352297009E+04  0.16352297009E+04  0.50400001928E-02 0.  1.
       -1   -1    0    0    0  501  0.00000000000E+00  0.00000000000E+00 -0.19792996815E+04  0.19792996815E+04  0.50400001928E-02 0. -1.
    10030    2    1    2    0    0  0.00000000000E+00  0.00000000000E+00 -0.34406998063E+03  0.36145293824E+04  0.35981159659E+04 0.  0.
        4    1    3    3  502    0  0.10763861933E+04  0.91925566746E+03  0.94342197992E+03  0.17010834384E+04  0.12699999809E+01 0.  1.
       -4    1    3    3    0  502 -0.10763861933E+04 -0.91925566746E+03 -0.12874919606E+04  0.19134459440E+04  0.12699999809E+01 0. -1.
</event>
<event>
 5   0  0.3212523E-08  0.3594397E+04  0.7818609E-02  0.8091776E-01
        1   -1    0    0  501    0  0.00000000000E+00  0.00000000000E+00  0.21689078186E+04  0.21689078186E+04  0.50400001928E-02 0. -1.
       -1   -1    0    0    0  501  0.00000000000E+00  0.00000000000E+00 -0.14891931350E+04  0.14891931350E+04  0.50400001928E-02 0.  1.
    10030    2    1    2    0    0  0.00000000000E+00  0.00000000000E+00  0.67971468362E+03  0.36581009537E+04  0.35943971033E+04 0.  0.
        3    1    3    3  502    0  0.53435902968E+03 -0.48542238962E+03 -0.13351393180E+04  0.15178179988E+04  0.10100000352E+00 0.  1.
       -3    1    3    3    0  502 -0.53435902968E+03  0.48542238962E+03  0.20148540016E+04  0.21402829549E+04  0.10100000352E+00 0. -1.
</event>
<event>
 5   0  0.1044678E-07  0.3597173E+04  0.7818609E-02  0.8091140E-01
       -2   -1    0    0    0  501  0.00000000000E+00  0.00000000000E+00  0.20834649024E+04  0.20834649024E+04  0.25500000920E-02 0.  1.
        2   -1    0    0  501    0  0.00000000000E+00  0.00000000000E+00 -0.15526604173E+04  0.15526604173E+04  0.25500000920E-02 0. -1.
    10030    2    1    2    0    0  0.00000000000E+00  0.00000000000E+00  0.53080448518E+03  0.36361253197E+04  0.35971730482E+04 0.  0.
        2    1    3    3  502    0 -0.90726521114E+03  0.10047374913E+04 -0.93160228985E+03  0.16433229799E+04  0.25500000920E-02 0. -1.
       -2    1    3    3    0  502  0.90726521114E+03 -0.10047374913E+04  0.14624067750E+04  0.19928023398E+04  0.25500000920E-02 0.  1.
</event>
<event>
 5   0  0.3202875E-08  0.3603152E+04  0.7818609E-02  0.8089770E-01
        1   -1    0    0  501    0  0.00000000000E+00  0.00000000000E+00  0.20984765086E+04  0.20984765086E+04  0.50400001928E-02 0. -1.
       -1   -1    0    0    0  501  0.00000000000E+00  0.00000000000E+00 -0.15466822305E+04  0.15466822305E+04  0.50400001928E-02 0.  1.
    10030    2    1    2    0    0  0.00000000000E+00  0.00000000000E+00  0.55179427810E+03  0.36451587391E+04  0.36031521350E+04 0.  0.
        1    1    3    3  502    0 -0.81467641591E+03 -0.46416077372E+03 -0.12803915781E+04  0.15869925897E+04  0.50400001928E-02 0.  1.
       -1    1    3    3    0  502  0.81467641591E+03  0.46416077372E+03  0.18321858562E+04  0.20581661493E+04  0.50400001928E-02 0. -1.
</event>
<event>
 5   0  0.1017794E-07  0.3617050E+04  0.7818609E-02  0.8086597E-01
        2   -1    0    0  501    0  0.00000000000E+00  0.00000000000E+00  0.12363025457E+04  0.12363025458E+04  0.25500000920E-02 0. -1.
       -2   -1    0    0    0  501  0.00000000000E+00  0.00000000000E+00 -0.26456004951E+04  0.26456004951E+04  0.25500000920E-02 0.  1.
    10030    2    1    2    0    0  0.00000000000E+00  0.00000000000E+00 -0.14092979494E+04  0.38819030409E+04  0.36170499732E+04 0.  0.
        1    1    3    3  502    0  0.72222303816E+03 -0.20235672264E+03 -0.24708136913E+04  0.25821453594E+04  0.50400001928E-02 0.  1.
       -1    1    3    3    0  502 -0.72222303816E+03  0.20235672264E+03  0.10615157419E+04  0.12997576814E+04  0.50400001928E-02 0. -1.
</event>
<event>
 5   0  0.3202875E-08  0.3607158E+04  0.7818609E-02  0.8088854E-01
        1   -1    0    0  501    0  0.00000000000E+00  0.00000000000E+00  0.14557097497E+04  0.14557097497E+04  0.50400001928E-02 0.  1.
       -1   -1    0    0    0  501  0.00000000000E+00  0.00000000000E+00 -0.22345775755E+04  0.22345775755E+04  0.50400001928E-02 0. -1.
    10030    2    1    2    0    0  0.00000000000E+00  0.00000000000E+00 -0.77886782577E+03  0.36902873252E+04  0.36071575309E+04 0.  0.
        2    1    3    3  502    0  0.15562699558E+04 -0.36897942762E+03  0.46330673845E+03  0.16651651952E+04  0.25500000920E-02 0.  1.
       -2    1    3    3    0  502 -0.15562699558E+04  0.36897942762E+03 -0.12421745642E+04  0.20251221300E+04  0.25500000920E-02 0. -1.
</event>
<event>
 5   0  0.3215494E-08  0.3597789E+04  0.7818609E-02  0.8090998E-01
        1   -1    0    0  501    0  0.00000000000E+00  0.00000000000E+00  0.16636321539E+04  0.16636321539E+04  0.50400001928E-02 0. -1.
       -1   -1    0    0    0  501  0.00000000000E+00  0.00000000000E+00 -0.19451542289E+04  0.19451542289E+04  0.50400001928E-02 0.  1.
    10030    2    1    2    0    0  0.00000000000E+00  0.00000000000E+00 -0.28152207500E+03  0.36087863828E+04  0.35977888318E+04 0.  0.
        4    1    3    3  502    0  0.97269338185E+03 -0.13922539330E+04 -0.73546126245E+03  0.18507858630E+04  0.12699999809E+01 0.  1.
       -4    1    3    3    0  502 -0.97269338185E+03  0.13922539330E+04  0.45393918746E+03  0.17580005199E+04  0.12699999809E+01 0. -1.
</event>
<event>
 5   0  0.1021087E-07  0.3596834E+04  0.7818609E-02  0.8091217E-01
        2   -1    0    0  501    0  0.00000000000E+00  0.00000000000E+00  0.32063712770E+04  0.32063712770E+04  0.25500000920E-02 0. -1.
       -2   -1    0    0    0  501  0.00000000000E+00  0.00000000000E+00 -0.10087117957E+04  0.10087117957E+04  0.25500000920E-02 0.  1.
    10030    2    1    2    0    0  0.00000000000E+00  0.00000000000E+00  0.21976594812E+04  0.42150830727E+04  0.35968344575E+04 0.  0.
        3    1    3    3  502    0 -0.15987233030E+04 -0.75368514805E+03  0.70954624967E+03  0.19045769589E+04  0.10100000352E+00 0.  1.
       -3    1    3    3    0  502  0.15987233030E+04  0.75368514805E+03  0.14881132316E+04  0.23105061138E+04  0.10100000352E+00 0. -1.
</event>
<event>
 5   0  0.3212523E-08  0.3562630E+04  0.7818609E-02  0.8099106E-01
       -1   -1    0    0    0  501  0.00000000000E+00  0.00000000000E+00  0.16476830169E+04  0.16476830169E+04  0.50400001928E-02 0. -1.
        1   -1    0    0  501    0  0.00000000000E+00  0.00000000000E+00 -0.19257846323E+04  0.19257846323E+04  0.50400001928E-02 0.  1.
    10030    2    1    2    0    0  0.00000000000E+00  0.00000000000E+00 -0.27810161543E+03  0.35734676492E+04  0.35626297213E+04 0.  0.
        3    1    3    3  502    0  0.15546345826E+04 -0.72417424802E+03  0.34383412217E+03  0.17491537785E+04  0.10100000352E+00 0. -1.
       -3    1    3    3    0  502 -0.15546345826E+04  0.72417424802E+03 -0.62193573760E+03  0.18243138707E+04  0.10100000352E+00 0.  1.
</event>
<event>
 5   0  0.1044678E-07  0.3601059E+04  0.7818609E-02  0.8090249E-01
        2   -1    0    0  501    0  0.00000000000E+00  0.00000000000E+00  0.22250322043E+04  0.22250322043E+04  0.25500000920E-02 0.  1.
       -2   -1    0    0    0  501  0.00000000000E+00  0.00000000000E+00 -0.14570152569E+04  0.14570152569E+04  0.25500000920E-02 0. -1.
    10030    2    1    2    0    0  0.00000000000E+00  0.00000000000E+00  0.76801694731E+03  0.36820474612E+04  0.36010586603E+04 0.  0.
        2    1    3    3  502    0 -0.15807896329E+04 -0.53408868373E+03 -0.30778708002E+03  0.16967261041E+04  0.25500000920E-02 0. -1.
       -2    1    3    3    0  502  0.15807896329E+04  0.53408868373E+03  0.10758040273E+04  0.19853213571E+04  0.25500000920E-02 0.  1.
</event>
<event>
 5   0  0.1021087E-07  0.3596663E+04  0.7818609E-02  0.8091257E-01
       -2   -1    0    0    0  501  0.00000000000E+00  0.00000000000E+00  0.10748559239E+04  0.10748559239E+04  0.25500000920E-02 0.  1.
        2   -1    0    0  501    0  0.00000000000E+00  0.00000000000E+00 -0.30087715954E+04  0.30087715954E+04  0.25500000920E-02 0. -1.
    10030    2    1    2    0    0  0.00000000000E+00  0.00000000000E+00 -0.19339156715E+04  0.40836275193E+04  0.35966628827E+04 0.  0.
        3    1    3    3  502    0  0.10669071581E+04 -0.88000292745E+03 -0.22720677662E+04  0.26598849563E+04  0.10100000352E+00 0. -1.
       -3    1    3    3    0  502 -0.10669071581E+04  0.88000292745E+03  0.33815209469E+03  0.14237425630E+04  0.10100000352E+00 0.  1.
</event>
<event>
 5   0  0.1044678E-07  0.3595662E+04  0.7818609E-02  0.8091486E-01
       -2   -1    0    0    0  501  0.00000000000E+00  0.00000000000E+00  0.16778510261E+04  0.16778510261E+04  0.25500000920E-02 0.  1.
        2   -1    0    0  501    0  0.00000000000E+00  0.00000000000E+00 -0.19263902292E+04  0.19263902292E+04  0.25500000920E-02 0. -1.
    10030    2    1    2    0    0  0.00000000000E+00  0.00000000000E+00 -0.24853920312E+03  0.36042412553E+04  0.35956617320E+04 0.  0.
        2    1    3    3  502    0  0.54283884499E+03  0.15622097003E+04  0.58241092114E+03  0.17533897571E+04  0.25500000920E-02 0.  1.
       -2    1    3    3    0  502 -0.54283884499E+03 -0.15622097003E+04 -0.83095012425E+03  0.18508514982E+04  0.25500000920E-02 0. -1.
</event>
<event>
 5   0  0.1029908E-07  0.3600018E+04  0.7818609E-02  0.8090488E-01
       -2   -1    0    0    0  501  0.00000000000E+00  0.00000000000E+00  0.27795968820E+04  0.27795968820E+04  0.25500000920E-02 0.  1.
        2   -1    0    0  501    0  0.00000000000E+00  0.00000000000E+00 -0.11656484776E+04  0.11656484776E+04  0.25500000920E-02 0. -1.
    10030    2    1    2    0    0  0.00000000000E+00  0.00000000000E+00  0.16139484044E+04  0.39452453596E+04  0.36000182632E+04 0.  0.
        4    1    3    3  502    0 -0.76762082494E+03 -0.15292545861E+03  0.25833411632E+04  0.26993112279E+04  0.12699999809E+01 0.  1.
       -4    1    3    3    0  502  0.76762082494E+03  0.15292545861E+03 -0.96939275883E+03  0.12459341317E+04  0.12699999809E+01 0. -1.
</event>
<event>
 5   0  0.3279988E-08  0.3597621E+04  0.7818609E-02  0.8091037E-01
        1   -1    0    0  501    0  0.00000000000E+00  0.00000000000E+00  0.22313033944E+04  0.22313033944E+04  0.50400001928E-02 0. -1.
       -1   -1    0    0    0  501  0.00000000000E+00  0.00000000000E+00 -0.14501477245E+04  0.14501477245E+04  0.50400001928E-02 0.  1.
    10030    2    1    2    0    0  0.00000000000E+00  0.00000000000E+00  0.78115566990E+03  0.36814511188E+04  0.35976211807E+04 0.  0.
        5    1    3    3  502    0 -0.17916438977E+04 -0.13703130626E+03  0.47577661093E+03  0.18588036229E+04  0.46999998093E+01 0. -1.
       -5    1    3    3    0  502  0.17916438977E+04  0.13703130626E+03  0.30537905897E+03  0.18226474960E+04  0.46999998093E+01 0.  1.
</event>
<event>
 5   0  0.3202875E-08  0.3603995E+04  0.7818609E-02  0.8089577E-01
        1   -1    0    0  501    0  0.00000000000E+00  0.00000000000E+00  0.14537315075E+04  0.14537315075E+04  0.50400001928E-02 0. -1.
       -1   -1    0    0    0  501  0.00000000000E+00  0.00000000000E+00 -0.22336964000E+04  0.22336964000E+04  0.50400001928E-02 0.  1.
    10030    2    1    2    0    0  0.00000000000E+00  0.00000000000E+00 -0.77996489247E+03  0.36874279076E+04  0.36039949140E+04 0.  0.
        1    1    3    3  502    0  0.67968761998E+03  0.36466657450E+03 -0.20562533248E+04  0.21961636339E+04  0.50400001928E-02 0.  1.
       -1    1    3    3    0  502 -0.67968761998E+03 -0.36466657450E+03  0.12762884323E+04  0.14912642736E+04  0.50400001928E-02 0. -1.
</event>
<event>
 5   0  0.1044678E-07  0.3605624E+04  0.7818609E-02  0.8089205E-01
       -2   -1    0    0    0  501  0.00000000000E+00  0.00000000000E+00  0.14631606218E+04  0.14631606218E+04  0.25500000920E-02 0.  1.
        2   -1    0    0  501    0  0.00000000000E+00  0.00000000000E+00 -0.22213082864E+04  0.22213082864E+04  0.25500000920E-02 0. -1.
    10030    2    1    2    0    0  0.00000000000E+00  0.00000000000E+00 -0.75814766465E+03  0.36844689082E+04  0.36056238371E+04 0.  0.
        2    1    3    3  502    0 -0.27170911564E+03  0.17111524624E+04  0.13008091510E+03  0.17374664421E+04  0.25500000920E-02 0.  1.
       -2    1    3    3    0  502  0.27170911564E+03 -0.17111524624E+04 -0.88822857975E+03  0.19470024661E+04  0.25500000920E-02 0. -1.
</event>
<event>
 5   0  0.1044678E-07  0.3600772E+04  0.7818609E-02  0.8090315E-01
       -2   -1    0    0    0  501  0.00000000000E+00  0.00000000000E+00  0.18108441352E+04  0.18108441352E+04  0.25500000920E-02 0. -1.
        2   -1    0    0  501    0  0.00000000000E+00  0.00000000000E+00 -0.17899878681E+04  0.17899878681E+04  0.25500000920E-02 0.  1.
    10030    2    1    2    0    0  0.00000000000E+00  0.00000000000E+00  0.20856267065E+02  0.36008320033E+04  0.36007716024E+04 0.  0.
        2    1    3    3  502    0  0.10477167617E+03 -0.15327028649E+04 -0.92832818285E+03  0.17949786604E+04  0.25500000920E-02 0.  1.
       -2    1    3    3    0  502 -0.10477167617E+03  0.15327028649E+04  0.94918444992E+03  0.18058533429E+04  0.25500000920E-02 0. -1.
</event>
<event>
 5   0  0.1021087E-07  0.3592839E+04  0.7818609E-02  0.8092134E-01
        2   -1    0    0  501    0  0.00000000000E+00  0.00000000000E+00  0.19516674482E+04  0.19516674482E+04  0.25500000920E-02 0. -1.
       -2   -1    0    0    0  501  0.00000000000E+00  0.00000000000E+00 -0.16535213653E+04  0.16535213653E+04  0.25500000920E-02 0.  1.
    10030    2    1    2    0    0  0.00000000000E+00  0.00000000000E+00  0.29814608288E+03  0.36051888136E+04  0.35928394474E+04 0.  0.
        3    1    3    3  502    0  0.72220203207E+03 -0.12674587715E+04  0.12010544811E+04  0.18895923871E+04  0.10100000352E+00 0. -1.
       -3    1    3    3    0  502 -0.72220203207E+03  0.12674587715E+04 -0.90290839823E+03  0.17155964265E+04  0.10100000352E+00 0.  1.
</event>
<event>
 5   0  0.3202875E-08  0.3599687E+04  0.7818609E-02  0.8090563E-01
       -1   -1    0    0    0  501  0.00000000000E+00  0.00000000000E+00  0.24856117208E+04  0.24856117208E+04  0.50400001928E-02 0. -1.
        1   -1    0    0  501    0  0.00000000000E+00  0.00000000000E+00 -0.13032751284E+04  0.13032751284E+04  0.50400001928E-02 0.  1.
    10030    2    1    2    0    0  0.00000000000E+00  0.00000000000E+00  0.11823365923E+04  0.37888868492E+04  0.35996866167E+04 0.  0.
        2    1    3    3  502    0  0.11510472404E+03 -0.11796065727E+04  0.20168785346E+04  0.23393417422E+04  0.25500000920E-02 0. -1.
       -2    1    3    3    0  502 -0.11510472404E+03  0.11796065727E+04 -0.83454194223E+03  0.14495451070E+04  0.25500000920E-02 0.  1.
</event>
<event>
 5   0  0.3202875E-08  0.3594021E+04  0.7818609E-02  0.8091863E-01
       -1   -1    0    0    0  501  0.00000000000E+00  0.00000000000E+00  0.15621027551E+04  0.15621027551E+04  0.50400001928E-02 0. -1.
        1   -1    0    0  501    0  0.00000000000E+00  0.00000000000E+00 -0.20672435165E+04  0.20672435165E+04  0.50400001928E-02 0.  1.
    10030    2    1    2    0    0  0.00000000000E+00  0.00000000000E+00 -0.50514076140E+03  0.36293462716E+04  0.35940210309E+04 0.  0.
        1    1    3    3  502    0 -0.13121792527E+04 -0.64933324800E+02 -0.14906782837E+04  0.19869958413E+04  0.50400001928E-02 0.  1.
       -1    1    3    3    0  502  0.13121792527E+04  0.64933324800E+02  0.98553752231E+03  0.16423504303E+04  0.50400001928E-02 0. -1.
</event>
<event>
 5   0  0.1044678E-07  0.3574971E+04  0.7818609E-02  0.8096249E-01
       -2   -1    0    0    0  501  0.00000000000E+00  0.00000000000E+00  0.18255975711E+04  0.18255975711E+04  0.25500000920E-02 0.  1.
        2   -1    0    0  501    0  0.00000000000E+00  0.00000000000E+00 -0.17501693489E+04  0.17501693489E+04  0.25500000920E-02 0. -1.
    10030    2    1    2    0    0  0.00000000000E+00  0.00000000000E+00  0.75428222111E+02  0.35757669200E+04  0.35749712795E+04 0.  0.
        2    1    3    3  502    0  0.14331391476E+04 -0.39963049227E+03 -0.95321954078E+03  0.17669804299E+04  0.25500000920E-02 0.  1.
       -2    1    3    3    0  502 -0.14331391476E+04  0.39963049227E+03  0.10286477629E+04  0.18087864901E+04  0.25500000920E-02 0. -1.
</event>
<event>
 5   0  0.9905335E-08  0.3596746E+04  0.7818609E-02  0.8091238E-01
       -2   -1    0    0    0  501  0.00000000000E+00  0.00000000000E+00  0.14771052781E+04  0.14771052781E+04  0.25500000920E-02 0. -1.
        2   -1    0    0  501    0  0.00000000000E+00  0.00000000000E+00 -0.21895156234E+04  0.21895156234E+04  0.25500000920E-02 0.  1.
    10030    2    1    2    0    0  0.00000000000E+00  0.00000000000E+00 -0.71241034529E+03  0.36666209015E+04  0.35967457979E+04 0.  0.
        5    1    3    3  502    0  0.68482366332E+03 -0.16309485012E+04 -0.25642555714E+02  0.17690834051E+04  0.46999998093E+01 0. -1.
       -5    1    3    3    0  502 -0.68482366332E+03  0.16309485012E+04 -0.68676778958E+03  0.18975374964E+04  0.46999998093E+01 0.  1.
</event>
<event>
 5   0  0.3202875E-08  0.3599783E+04  0.7818609E-02  0.8090541E-01
       -1   -1    0    0    0  501  0.00000000000E+00  0.00000000000E+00  0.18154274258E+04  0.18154274258E+04  0.50400001928E-02 0.  1.
        1   -1    0    0  501    0  0.00000000000E+00  0.00000000000E+00 -0.17844883882E+04  0.17844883882E+04  0.50400001928E-02 0. -1.
    10030    2    1    2    0    0  0.00000000000E+00  0.00000000000E+00  0.30939037569E+02  0.35999158140E+04  0.35997828606E+04 0.  0.
        2    1    3    3  502    0 -0.11715135922E+04 -0.10258903630E+04 -0.88717892279E+03  0.17922002050E+04  0.25500000920E-02 0. -1.
       -2    1    3    3    0  502  0.11715135922E+04  0.10258903630E+04  0.91811796036E+03  0.18077156090E+04  0.25500000920E-02 0.  1.
</event>
<event>
 5   0  0.3279988E-08  0.3600379E+04  0.7818609E-02  0.8090405E-01
        1   -1    0    0  501    0  0.00000000000E+00  0.00000000000E+00  0.16911838973E+04  0.16911838973E+04  0.50400001928E-02 0. -1.
       -1   -1    0    0    0  501  0.00000000000E+00  0.00000000000E+00 -0.19162210083E+04  0.19162210084E+04  0.50400001928E-02 0.  1.
    10030    2    1    2    0    0  0.00000000000E+00  0.00000000000E+00 -0.22503711105E+03  0.36074049057E+04  0.36003789317E+04 0.  0.
        5    1    3    3  502    0 -0.25654516736E+03 -0.55148375151E+03 -0.18101419891E+04  0.19096035876E+04  0.46999998093E+01 0.  1.
       -5    1    3    3    0  502  0.25654516736E+03  0.55148375151E+03  0.15851048781E+04  0.16978013180E+04  0.46999998093E+01 0. -1.
</event>
<event>
 5   0  0.1029908E-07  0.3601723E+04  0.7818609E-02  0.8090097E-01
        2   -1    0    0  501    0  0.00000000000E+00  0.00000000000E+00  0.24470013271E+04  0.24470013271E+04  0.25500000920E-02 0. -1.
       -2   -1    0    0    0  501  0.00000000000E+00  0.00000000000E+00 -0.13253372648E+04  0.13253372648E+04  0.25500000920E-02 0.  1.
    10030    2    1    2    0    0  0.00000000000E+00  0.00000000000E+00  0.11216640623E+04  0.37723385919E+04  0.36017229465E+04 0.  0.
        4    1    3    3  502    0  0.66079626694E+03 -0.68963201304E+03  0.21598675995E+04  0.23616252201E+04  0.12699999809E+01 0. -1.
       -4    1    3    3    0  502 -0.66079626694E+03  0.68963201304E+03 -0.10382035372E+04  0.14107133718E+04  0.12699999809E+01 0.  1.
</event>
<event>
 5   0  0.3212523E-08  0.3583736E+04  0.7818609E-02  0.8094227E-01
        1   -1    0    0  501    0  0.00000000000E+00  0.00000000000E+00  0.11669517619E+04  0.11669517619E+04  0.50400001928E-02 0. -1.
       -1   -1    0    0    0  501  0.00000000000E+00  0.00000000000E+00 -0.27514344236E+04  0.27514344236E+04  0.50400001928E-02 0.  1.
    10030    2    1    2    0    0  0.00000000000E+00  0.00000000000E+00 -0.15844826617E+04  0.39183861856E+04  0.35837361781E+04 0.  0.
        3    1    3    3  502    0 -0.77917064317E+03  0.85646163953E+03  0.70299669440E+03  0.13545618457E+04  0.10100000352E+00 0. -1.
       -3    1    3    3    0  502  0.77917064317E+03 -0.85646163953E+03 -0.22874793561E+04  0.25638243399E+04  0.10100000352E+00 0.  1.
</event>
<event>
 5   0  0.3202875E-08  0.3595744E+04  0.7818609E-02  0.8091467E-01
       -1   -1    0    0    0  501  0.00000000000E+00  0.00000000000E+00  0.17935437795E+04  0.17935437795E+04  0.50400001928E-02 0. -1.
        1   -1    0    0  501    0  0.00000000000E+00  0.00000000000E+00 -0.18022110094E+04  0.18022110094E+04  0.50400001928E-02 0.  1.
    10030    2    1    2    0    0  0.00000000000E+00  0.00000000000E+00 -0.86672299342E+01  0.35957547890E+04  0.35957443432E+04 0.  0.
        2    1    3    3  502    0 -0.11387288674E+04  0.13904808043E+04 -0.51281005337E+02  0.17979905568E+04  0.25500000920E-02 0. -1.
       -2    1    3    3    0  502  0.11387288674E+04 -0.13904808043E+04  0.42613775402E+02  0.17977642322E+04  0.25500000920E-02 0.  1.
</event>
<event>
 5   0  0.1044678E-07  0.3597070E+04  0.7818609E-02  0.8091163E-01
       -2   -1    0    0    0  501  0.00000000000E+00  0.00000000000E+00  0.16647088732E+04  0.16647088732E+04  0.25500000920E-02 0. -1.
        2   -1    0    0  501    0  0.00000000000E+00  0.00000000000E+00 -0.19431192390E+04  0.19431192390E+04  0.25500000920E-02 0.  1.
    10030    2    1    2    0    0  0.00000000000E+00  0.00000000000E+00 -0.27841036577E+03  0.36078281122E+04  0.35970698291E+04 0.  0.
        2    1    3    3  502    0  0.88307561383E+03  0.99288322502E+03 -0.13548897538E+04  0.18977265038E+04  0.25500000920E-02 0.  1.
       -2    1    3    3    0  502 -0.88307561383E+03 -0.99288322502E+03  0.10764793880E+04  0.17101016084E+04  0.25500000920E-02 0. -1.
</event>
<event>
 5   0  0.9905335E-08  0.3600775E+04  0.7818609E-02  0.8090314E-01
       -2   -1    0    0    0  501  0.00000000000E+00  0.00000000000E+00  0.15537801325E+04  0.15537801325E+04  0.25500000920E-02 0. -1.
        2   -1    0    0  501    0  0.00000000000E+00  0.00000000000E+00 -0.20861351338E+04  0.20861351338E+04  0.25500000920E-02 0.  1.
    10030    2    1    2    0    0  0.00000000000E+00  0.00000000000E+00 -0.53235500133E+03  0.36399152662E+04  0.36007750968E+04 0.  0.
        5    1    3    3  502    0 -0.68589305354E+03 -0.12514988246E+04  0.84332979541E+03  0.16576868892E+04  0.46999998093E+01 0. -1.
       -5    1    3    3    0  502  0.68589305354E+03  0.12514988246E+04 -0.13756847967E+04  0.19822283770E+04  0.46999998093E+01 0.  1.
</event>
<event>
 5   0  0.3215494E-08  0.3599508E+04  0.7818609E-02  0.8090604E-01
       -1   -1    0    0    0  501  0.00000000000E+00  0.00000000000E+00  0.15279186604E+04  0.15279186604E+04  0.50400001928E-02 0. -1.
        1   -1    0    0  501    0  0.00000000000E+00  0.00000000000E+00 -0.21199518169E+04  0.21199518169E+04  0.50400001928E-02 0.  1.
    10030    2    1    2    0    0  0.00000000000E+00  0.00000000000E+00 -0.59203315646E+03  0.36478704773E+04  0.35995077109E+04 0.  0.
        4    1    3    3  502    0  0.16007749756E+04  0.44716753306E+01 -0.11296326674E+04  0.19592274229E+04  0.12699999809E+01 0.  1.
       -4    1    3    3    0  502 -0.16007749756E+04 -0.44716753306E+01  0.53759951090E+03  0.16886430545E+04  0.12699999809E+01 0. -1.
</event>
<event>
 5   0  0.9905335E-08  0.3597076E+04  0.7818609E-02  0.8091162E-01
       -2   -1    0    0    0  501  0.00000000000E+00  0.00000000000E+00  0.26998945259E+04  0.26998945259E+04  0.25500000920E-02 0. -1.
        2   -1    0    0  501    0  0.00000000000E+00  0.00000000000E+00 -0.11980979631E+04  0.11980979631E+04  0.25500000920E-02 0.  1.
    10030    2    1    2    0    0  0.00000000000E+00  0.00000000000E+00  0.15017965628E+04  0.38979924890E+04  0.35970755522E+04 0.  0.
        5    1    3    3  502    0  0.12102992852E+04 -0.11302152974E+04  0.15113940260E+04  0.22419957561E+04  0.46999998093E+01 0. -1.
       -5    1    3    3    0  502 -0.12102992852E+04  0.11302152974E+04 -0.95974632142E+01  0.16559967329E+04  0.46999998093E+01 0.  1.
</event>
<event>
 5   0  0.3212523E-08  0.3601043E+04  0.7818609E-02  0.8090253E-01
        1   -1    0    0  501    0  0.00000000000E+00  0.00000000000E+00  0.21390446531E+04  0.21390446531E+04  0.50400001928E-02 0. -1.
       -1   -1    0    0    0  501  0.00000000000E+00  0.00000000000E+00 -0.15155726151E+04  0.15155726151E+04  0.50400001928E-02 0.  1.
    10030    2    1    2    0    0  0.00000000000E+00  0.00000000000E+00  0.62347203793E+03  0.36546172682E+04  0.36010429038E+04 0.  0.
        3    1    3    3  502    0 -0.56100880852E+03  0.13013519434E+04 -0.81547705912E+03  0.16350078312E+04  0.10100000352E+00 0.  1.
       -3    1    3    3    0  502  0.56100880852E+03 -0.13013519434E+04  0.14389490970E+04  0.20196094370E+04  0.10100000352E+00 0. -1.
</event>
<event>
 5   0  0.1044678E-07  0.3600204E+04  0.7818609E-02  0.8090445E-01
       -2   -1    0    0    0  501  0.00000000000E+00  0.00000000000E+00  0.18945257079E+04  0.18945257079E+04  0.25500000920E-02 0. -1.
        2   -1    0    0  501    0  0.00000000000E+00  0.00000000000E+00 -0.17103847236E+04  0.17103847236E+04  0.25500000920E-02 0.  1.
    10030    2    1    2    0    0  0.00000000000E+00  0.00000000000E+00  0.18414098434E+03  0.36049104315E+04  0.36002043438E+04 0.  0.
        2    1    3    3  502    0  0.70211199431E+03  0.14052960078E+04  0.97216749731E+03  0.18474110980E+04  0.25500000920E-02 0. -1.
       -2    1    3    3    0  502 -0.70211199431E+03 -0.14052960078E+04 -0.78802651297E+03  0.17574993335E+04  0.25500000920E-02 0.  1.
</event>
<event>
 5   0  0.1021087E-07  0.3600079E+04  0.7818609E-02  0.8090474E-01
       -2   -1    0    0    0  501  0.00000000000E+00  0.00000000000E+00  0.12986855089E+04  0.12986855089E+04  0.25500000920E-02 0.  1.
        2   -1    0    0  501    0  0.00000000000E+00  0.00000000000E+00 -0.24949399034E+04  0.24949399034E+04  0.25500000920E-02 0. -1.
    10030    2    1    2    0    0  0.00000000000E+00  0.00000000000E+00 -0.11962543944E+04  0.37936254123E+04  0.36000790537E+04 0.  0.
        3    1    3    3  502    0  0.20400285929E+03 -0.22380412678E+03 -0.24679045736E+04  0.24864147781E+04  0.10100000352E+00 0. -1.
       -3    1    3    3    0  502 -0.20400285929E+03  0.22380412678E+03  0.12716501792E+04  0.13072106342E+04  0.10100000352E+00 0.  1.
</event>
<event>
 5   0  0.1017794E-07  0.3599868E+04  0.7818609E-02  0.8090522E-01
       -2   -1    0    0    0  501  0.00000000000E+00  0.00000000000E+00  0.13176251432E+04  0.13176251432E+04  0.25500000920E-02 0. -1.
        2   -1    0    0  501    0  0.00000000000E+00  0.00000000000E+00 -0.24587894928E+04  0.24587894928E+04  0.25500000920E-02 0.  1.
    10030    2    1    2    0    0  0.00000000000E+00  0.00000000000E+00 -0.11411643496E+04  0.37764146360E+04  0.35998682518E+04 0.  0.
        1    1    3    3  502    0 -0.35969466538E+03  0.62272385724E+03  0.11603689062E+04  0.13651451400E+04  0.50400001928E-02 0. -1.
       -1    1    3    3    0  502  0.35969466538E+03 -0.62272385724E+03 -0.23015332558E+04  0.24112694960E+04  0.50400001928E-02 0.  1.
</event>
<event>
 5   0  0.3202875E-08  0.3601392E+04  0.7818609E-02  0.8090173E-01
        1   -1    0    0  501    0  0.00000000000E+00  0.00000000000E+00  0.17853198684E+04  0.17853198685E+04  0.50400001928E-02 0.  1.
       -1   -1    0    0    0  501  0.00000000000E+00  0.00000000000E+00 -0.18162047932E+04  0.18162047932E+04  0.50400001928E-02 0. -1.
    10030    2    1    2    0    0  0.00000000000E+00  0.00000000000E+00 -0.30884924724E+02  0.36015246616E+04  0.36013922321E+04 0.  0.
        1    1    3    3  502    0  0.48938715868E+01 -0.51163161229E+03  0.17110959421E+04  0.17859563768E+04  0.50400001928E-02 0.  1.
       -1    1    3    3    0  502 -0.48938715868E+01  0.51163161229E+03 -0.17419808668E+04  0.18155682849E+04  0.50400001928E-02 0. -1.
</event>
<event>
 5   0  0.1021087E-07  0.3599808E+04  0.7818609E-02  0.8090536E-01
        2   -1    0    0  501    0  0.00000000000E+00  0.00000000000E+00  0.21369140552E+04  0.21369140552E+04  0.25500000920E-02 0.  1.
       -2   -1    0    0    0  501  0.00000000000E+00  0.00000000000E+00 -0.15160434991E+04  0.15160434991E+04  0.25500000920E-02 0. -1.
    10030    2    1    2    0    0  0.00000000000E+00  0.00000000000E+00  0.62087055607E+03  0.36529575544E+04  0.35998081403E+04 0.  0.
        3    1    3    3  502    0 -0.55186805335E+03 -0.78925546859E+03  0.18534687615E+04  0.20887386153E+04  0.10100000352E+00 0.  1.
       -3    1    3    3    0  502  0.55186805335E+03  0.78925546859E+03 -0.12325982054E+04  0.15642189390E+04  0.10100000352E+00 0. -1.
</event>
<event>
 5   0  0.3215494E-08  0.3607602E+04  0.7818609E-02  0.8088753E-01
       -1   -1    0    0    0  501  0.00000000000E+00  0.00000000000E+00  0.13452427888E+04  0.13452427888E+04  0.50400001928E-02 0.  1.
        1   -1    0    0  501    0  0.00000000000E+00  0.00000000000E+00 -0.24186693769E+04  0.24186693769E+04  0.50400001928E-02 0. -1.
    10030    2    1    2    0    0  0.00000000000E+00  0.00000000000E+00 -0.10734265881E+04  0.37639121657E+04  0.36076017173E+04 0.  0.
        4    1    3    3  502    0  0.12944793347E+04  0.12080844335E+04 -0.89594431515E+03  0.19844048416E+04  0.12699999809E+01 0. -1.
       -4    1    3    3    0  502 -0.12944793347E+04 -0.12080844335E+04 -0.17748227294E+03  0.17795073241E+04  0.12699999809E+01 0.  1.
</event>
<event>
 5   0  0.9905335E-08  0.3500029E+04  0.7818609E-02  0.8113783E-01
        2   -1    0    0  501    0  0.00000000000E+00  0.00000000000E+00  0.20223392556E+04  0.20223392556E+04  0.25500000920E-02 0. -1.
       -2   -1    0    0    0  501  0.00000000000E+00  0.00000000000E+00 -0.15143601940E+04  0.15143601940E+04  0.25500000920E-02 0.  1.
    10030    2    1    2    0    0  0.00000000000E+00  0.00000000000E+00  0.50797906160E+03  0.35366994497E+04  0.35000286099E+04 0.  0.
        5    1    3    3  502    0 -0.12209621645E+04 -0.29445267633E+02  0.15204817821E+04  0.19502570524E+04  0.46999998093E+01 0. -1.
       -5    1    3    3    0  502  0.12209621645E+04  0.29445267633E+02 -0.10125027205E+04  0.15864423973E+04  0.46999998093E+01 0.  1.
</event>
<event>
 5   0  0.3215494E-08  0.3594936E+04  0.7818609E-02  0.8091653E-01
        1   -1    0    0  501    0  0.00000000000E+00  0.00000000000E+00  0.15946864156E+04  0.15946864156E+04  0.50400001928E-02 0.  1.
       -1   -1    0    0    0  501  0.00000000000E+00  0.00000000000E+00 -0.20260355428E+04  0.20260355428E+04  0.50400001928E-02 0. -1.
    10030    2    1    2    0    0  0.00000000000E+00  0.00000000000E+00 -0.43134912716E+03  0.36207219584E+04  0.35949360816E+04 0.  0.
        4    1    3    3  502    0 -0.19111217205E+03 -0.17194941367E+04 -0.70672249818E+03  0.18688612177E+04  0.12699999809E+01 0.  1.
       -4    1    3    3    0  502  0.19111217205E+03  0.17194941367E+04  0.27537337101E+03  0.17518607407E+04  0.12699999809E+01 0. -1.
</event>
<event>
 5   0  0.3279988E-08  0.3590659E+04  0.7818609E-02  0.8092635E-01
        1   -1    0    0  501    0  0.00000000000E+00  0.00000000000E+00  0.23813010009E+04  0.23813010009E+04  0.50400001928E-02 0.  1.
       -1   -1    0    0    0  501  0.00000000000E+00  0.00000000000E+00 -0.13535489789E+04  0.13535489789E+04  0.50400001928E-02 0. -1.
    10030    2    1    2    0    0  0.00000000000E+00  0.00000000000E+00  0.10277520221E+04  0.37348499798E+04  0.35906587352E+04 0.  0.
        5    1    3    3  502    0 -0.11204707084E+04  0.84374691768E+03  0.16795123307E+04  0.21881835454E+04  0.46999998093E+01 0.  1.
       -5    1    3    3    0  502  0.11204707084E+04 -0.84374691768E+03 -0.65176030860E+03  0.15466664344E+04  0.46999998093E+01 0. -1.
</event>
<event>
 5   0  0.1017794E-07  0.3599624E+04  0.7818609E-02  0.8090578E-01
       -2   -1    0    0    0  501  0.00000000000E+00  0.00000000000E+00  0.21386231227E+04  0.21386231227E+04  0.25500000920E-02 0. -1.
        2   -1    0    0  501    0  0.00000000000E+00  0.00000000000E+00 -0.15146769860E+04  0.15146769860E+04  0.25500000920E-02 0.  1.
    10030    2    1    2    0    0  0.00000000000E+00  0.00000000000E+00  0.62394613674E+03  0.36533001088E+04  0.35996239947E+04 0.  0.
        1    1    3    3  502    0  0.10278356523E+04  0.57917010304E+03 -0.10675001583E+04  0.15910501954E+04  0.50400001928E-02 0.  1.
       -1    1    3    3    0  502 -0.10278356523E+04 -0.57917010304E+03  0.16914462950E+04  0.20622499134E+04  0.50400001928E-02 0. -1.
</event>
<event>
 5   0  0.1029908E-07  0.3600160E+04  0.7818609E-02  0.8090455E-01
        2   -1    0    0  501    0  0.00000000000E+00  0.00000000000E+00  0.11559556756E+04  0.11559556756E+04  0.25500000920E-02 0.  1.
       -2   -1    0    0    0  501  0.00000000000E+00  0.00000000000E+00 -0.28031248928E+04  0.28031248928E+04  0.25500000920E-02 0. -1.
    10030    2    1    2    0    0  0.00000000000E+00  0.00000000000E+00 -0.16471692172E+04  0.39590805684E+04  0.36001600682E+04 0.  0.
        4    1    3    3  502    0  0.15113384227E+04  0.27515164518E+03 -0.18554451287E+04  0.24088442238E+04  0.12699999809E+01 0. -1.
       -4    1    3    3    0  502 -0.15113384227E+04 -0.27515164518E+03  0.20827591152E+03  0.15502363446E+04  0.12699999809E+01 0.  1.
</event>
<event>
 5   0  0.1021087E-07  0.3602997E+04  0.7818609E-02  0.8089806E-01
        2   -1    0    0  501    0  0.00000000000E+00  0.00000000000E+00  0.20800836961E+04  0.20800836961E+04  0.25500000920E-02 0.  1.
       -2   -1    0    0    0  501  0.00000000000E+00  0.00000000000E+00 -0.15602237763E+04  0.15602237763E+04  0.25500000920E-02 0. -1.
    10030    2    1    2    0    0  0.00000000000E+00  0.00000000000E+00  0.51985991980E+03  0.36403074724E+04  0.36029965525E+04 0.  0.
        3    1    3    3  502    0  0.95837149489E+03  0.10446071395E+04 -0.86320917714E+03  0.16597620588E+04  0.10100000352E+00 0. -1.
       -3    1    3    3    0  502 -0.95837149489E+03 -0.10446071395E+04  0.13830690969E+04  0.19805454136E+04  0.10100000352E+00 0.  1.
</event>
<event>
 5   0  0.3215494E-08  0.3600759E+04  0.7818609E-02  0.8090318E-01
        1   -1    0    0  501    0  0.00000000000E+00  0.00000000000E+00  0.13753304420E+04  0.13753304420E+04  0.50400001928E-02 0. -1.
       -1   -1    0    0    0  501  0.00000000000E+00  0.00000000000E+00 -0.23567915188E+04  0.23567915188E+04  0.50400001928E-02 0.  1.
    10030    2    1    2    0    0  0.00000000000E+00  0.00000000000E+00 -0.98146107676E+03  0.37321219608E+04  0.36007594317E+04 0.  0.
        4    1    3    3  502    0  0.70890469203E+02  0.16189527193E+04 -0.13037791663E+04  0.20798738167E+04  0.12699999809E+01 0.  1.
       -4    1    3    3    0  502 -0.70890469203E+02 -0.16189527193E+04  0.32231808957E+03  0.16522481441E+04  0.12699999809E+01 0. -1.
</event>
<event>
 5   0  0.3202875E-08  0.3584963E+04  0.7818609E-02  0.8093945E-01
       -1   -1    0    0    0  501  0.00000000000E+00  0.00000000000E+00  0.20508054064E+04  0.20508054064E+04  0.50400001928E-02 0.  1.
        1   -1    0    0  501    0  0.00000000000E+00  0.00000000000E+00 -0.15666967907E+04  0.15666967907E+04  0.50400001928E-02 0. -1.
    10030    2    1    2    0    0  0.00000000000E+00  0.00000000000E+00  0.48410861575E+03  0.36175021971E+04  0.35849631790E+04 0.  0.
        2    1    3    3  502    0 -0.10771093837E+04  0.13113265700E+04 -0.34046193999E+03  0.17307964439E+04  0.25500000920E-02 0. -1.
       -2    1    3    3    0  502  0.10771093837E+04 -0.13113265700E+04  0.82457055574E+03  0.18867057532E+04  0.25500000920E-02 0.  1.
</event>
<event>
 5   0  0.9905335E-08  0.3602153E+04  0.7818609E-02  0.8089999E-01
        2   -1    0    0  501    0  0.00000000000E+00  0.00000000000E+00  0.17658402363E+04  0.17658402363E+04  0.25500000920E-02 0.  1.
       -2   -1    0    0    0  501  0.00000000000E+00  0.00000000000E+00 -0.18370157821E+04  0.18370157821E+04  0.25500000920E-02 0. -1.
    10030    2    1    2    0    0  0.00000000000E+00  0.00000000000E+00 -0.71175545759E+02  0.36028560184E+04  0.36021529022E+04 0.  0.
        5    1    3    3  502    0  0.71038621173E+02 -0.68061751572E+03  0.16307409025E+04  0.17685091658E+04  0.46999998093E+01 0.  1.
       -5    1    3    3    0  502 -0.71038621173E+02  0.68061751572E+03 -0.17019164483E+04  0.18343468525E+04  0.46999998093E+01 0. -1.
</event>
<event>
 5   0  0.3202875E-08  0.3599150E+04  0.7818609E-02  0.8090686E-01
        1   -1    0    0  501    0  0.00000000000E+00  0.00000000000E+00  0.13026853008E+04  0.13026853008E+04  0.50400001928E-02 0. -1.
       -1   -1    0    0    0  501  0.00000000000E+00  0.00000000000E+00 -0.24859963724E+04  0.24859963724E+04  0.50400001928E-02 0.  1.
    10030    2    1    2    0    0  0.00000000000E+00  0.00000000000E+00 -0.11833110717E+04  0.37886816732E+04  0.35991504176E+04 0.  0.
        1    1    3    3  502    0 -0.12439592284E+04  0.10703506116E+04  0.18573650181E+03  0.16515395974E+04  0.50400001928E-02 0. -1.
       -1    1    3    3    0  502  0.12439592284E+04 -0.10703506116E+04 -0.13690475735E+04  0.21371420758E+04  0.50400001928E-02 0.  1.
</event>
<event>
 5   0  0.1021087E-07  0.3603314E+04  0.7818609E-02  0.8089733E-01
        2   -1    0    0  501    0  0.00000000000E+00  0.00000000000E+00  0.16959056743E+04  0.16959056743E+04  0.25500000920E-02 0. -1.
       -2   -1    0    0    0  501  0.00000000000E+00  0.00000000000E+00 -0.19140026396E+04  0.19140026396E+04  0.25500000920E-02 0.  1.
    10030    2    1    2    0    0  0.00000000000E+00  0.00000000000E+00 -0.21809696532E+03  0.36099083138E+04  0.36033139952E+04 0.  0.
        3    1    3    3  502    0  0.16076728491E+04  0.78113973628E+03  0.11758808717E+03  0.17912616352E+04  0.10100000352E+00 0. -1.
       -3    1    3    3    0  502 -0.16076728491E+04 -0.78113973628E+03 -0.33568505250E+03  0.18186466787E+04  0.10100000352E+00 0.  1.
</event>
<event>
 5   0  0.3202875E-08  0.3606151E+04  0.7818609E-02  0.8089084E-01
       -1   -1    0    0    0  501  0.00000000000E+00  0.00000000000E+00  0.15668938719E+04  0.15668938719E+04  0.50400001928E-02 0.  1.
        1   -1    0    0  501    0  0.00000000000E+00  0.00000000000E+00 -0.20748570387E+04  0.20748570387E+04  0.50400001928E-02 0. -1.
    10030    2    1    2    0    0  0.00000000000E+00  0.00000000000E+00 -0.50796316683E+03  0.36417509106E+04  0.36061507339E+04 0.  0.
        2    1    3    3  502    0  0.31470499495E+03  0.16063144036E+03  0.15315907817E+04  0.15718180608E+04  0.25500000920E-02 0.  1.
       -2    1    3    3    0  502 -0.31470499495E+03 -0.16063144036E+03 -0.20395539486E+04  0.20699328498E+04  0.25500000920E-02 0. -1.
</event>
<event>
 5   0  0.3215494E-08  0.3601384E+04  0.7818609E-02  0.8090175E-01
       -1   -1    0    0    0  501  0.00000000000E+00  0.00000000000E+00  0.12018079699E+04  0.12018079700E+04  0.50400001928E-02 0.  1.
        1   -1    0    0  501    0  0.00000000000E+00  0.00000000000E+00 -0.26980108654E+04  0.26980108655E+04  0.50400001928E-02 0. -1.
    10030    2    1    2    0    0  0.00000000000E+00  0.00000000000E+00 -0.14962028955E+04  0.38998188354E+04  0.36013836014E+04 0.  0.
        4    1    3    3  502    0  0.62565259851E+03 -0.67547024261E+03 -0.24238490159E+04  0.25928260427E+04  0.12699999809E+01 0. -1.
       -4    1    3    3    0  502 -0.62565259851E+03  0.67547024261E+03  0.92764612041E+03  0.13069927927E+04  0.12699999809E+01 0.  1.
</event>
<event>
 5   0  0.1029908E-07  0.3604446E+04  0.7818609E-02  0.8089474E-01
        2   -1    0    0  501    0  0.00000000000E+00  0.00000000000E+00  0.21188674352E+04  0.21188674352E+04  0.25500000920E-02 0.  1.
       -2   -1    0    0    0  501  0.00000000000E+00  0.00000000000E+00 -0.15328980412E+04  0.15328980412E+04  0.25500000920E-02 0. -1.
    10030    2    1    2    0    0  0.00000000000E+00  0.00000000000E+00  0.58596939402E+03  0.36517654764E+04  0.36044459996E+04 0.  0.
        4    1    3    3  502    0  0.11532501174E+04 -0.11913397403E+04  0.10084639844E+04  0.19406899369E+04  0.12699999809E+01 0.  1.
       -4    1    3    3    0  502 -0.11532501174E+04  0.11913397403E+04 -0.42249459042E+03  0.17110755395E+04  0.12699999809E+01 0. -1.
</event>
<event>
 5   0  0.3279988E-08  0.3598791E+04  0.7818609E-02  0.8090769E-01
        1   -1    0    0  501    0  0.00000000000E+00  0.00000000000E+00  0.22335083528E+04  0.22335083528E+04  0.50400001928E-02 0.  1.
       -1   -1    0    0    0  501  0.00000000000E+00  0.00000000000E+00 -0.14496586637E+04  0.14496586638E+04  0.50400001928E-02 0. -1.
    10030    2    1    2    0    0  0.00000000000E+00  0.00000000000E+00  0.78384968908E+03  0.36831670166E+04  0.35987913161E+04 0.  0.
        5    1    3    3  502    0  0.17262534566E+04 -0.13910121115E+03  0.89174206804E+03  0.19479543499E+04  0.46999998093E+01 0.  1.
       -5    1    3    3    0  502 -0.17262534566E+04  0.13910121115E+03 -0.10789237896E+03  0.17352126667E+04  0.46999998093E+01 0. -1.
</event>
<event>
 5   0  0.1044678E-07  0.3598529E+04  0.7818609E-02  0.8090829E-01
       -2   -1    0    0    0  501  0.00000000000E+00  0.00000000000E+00  0.17098298489E+04  0.17098298489E+04  0.25500000920E-02 0. -1.
        2   -1    0    0  501    0  0.00000000000E+00  0.00000000000E+00 -0.18933769857E+04  0.18933769857E+04  0.25500000920E-02 0.  1.
    10030    2    1    2    0    0  0.00000000000E+00  0.00000000000E+00 -0.18354713676E+03  0.36032068346E+04  0.35985288579E+04 0.  0.
        2    1    3    3  502    0  0.93597829870E+03 -0.99924795579E+03  0.10771345260E+04  0.17420593101E+04  0.25500000920E-02 0. -1.
       -2    1    3    3    0  502 -0.93597829870E+03  0.99924795579E+03 -0.12606816628E+04  0.18611475244E+04  0.25500000920E-02 0.  1.
</event>
<event>
 5   0  0.3215494E-08  0.3603549E+04  0.7818609E-02  0.8089679E-01
        1   -1    0    0  501    0  0.00000000000E+00  0.00000000000E+00  0.22485363548E+04  0.22485363548E+04  0.50400001928E-02 0. -1.
       -1   -1    0    0    0  501  0.00000000000E+00  0.00000000000E+00 -0.14437795616E+04  0.14437795616E+04  0.50400001928E-02 0.  1.
    10030    2    1    2    0    0  0.00000000000E+00  0.00000000000E+00  0.80475679315E+03  0.36923159164E+04  0.36035487135E+04 0.  0.
        4    1    3    3  502    0  0.17449041379E+04  0.44520062662E+03  0.46295468932E+03  0.18593608326E+04  0.12699999809E+01 0.  1.
       -4    1    3    3    0  502 -0.17449041379E+04 -0.44520062662E+03  0.34180210383E+03  0.18329550839E+04  0.12699999809E+01 0. -1.
</event>
<event>
 5   0  0.3202875E-08  0.3615594E+04  0.7818609E-02  0.8086929E-01
        1   -1    0    0  501    0  0.00000000000E+00  0.00000000000E+00  0.32759572892E+04  0.32759572892E+04  0.50400001928E-02 0. -1.
       -1   -1    0    0    0  501  0.00000000000E+00  0.00000000000E+00 -0.99761058438E+03  0.99761058439E+03  0.50400001928E-02 0.  1.
    10030    2    1    2    0    0  0.00000000000E+00  0.00000000000E+00  0.22783467048E+04  0.42735678736E+04  0.36155938189E+04 0.  0.
        1    1    3    3  502    0 -0.18682030271E+03 -0.17980945164E+04  0.11283435000E+04  0.21310102696E+04  0.50400001928E-02 0. -1.
       -1    1    3    3    0  502  0.18682030271E+03  0.17980945164E+04  0.11500032048E+04  0.21425576040E+04  0.50400001928E-02 0.  1.
</event>
<event>
 5   0  0.1044678E-07  0.3600572E+04  0.7818609E-02  0.8090361E-01
        2   -1    0    0  501    0  0.00000000000E+00  0.00000000000E+00  0.18005395424E+04  0.18005395424E+04  0.25500000920E-02 0.  1.
       -2   -1    0    0    0  501  0.00000000000E+00  0.00000000000E+00 -0.18000323652E+04  0.18000323652E+04  0.25500000920E-02 0. -1.
    10030    2    1    2    0    0  0.00000000000E+00  0.00000000000E+00  0.50717716056E+00  0.36005719076E+04  0.36005718719E+04 0.  0.
        2    1    3    3  502    0 -0.70008497067E+03  0.15671988602E+04 -0.54269965388E+03  0.18002094733E+04  0.25500000920E-02 0. -1.
       -2    1    3    3    0  502  0.70008497067E+03 -0.15671988602E+04  0.54320683104E+03  0.18003624343E+04  0.25500000920E-02 0.  1.
</event>
<event>
 5   0  0.1017794E-07  0.3614968E+04  0.7818609E-02  0.8087072E-01
        2   -1    0    0  501    0  0.00000000000E+00  0.00000000000E+00  0.22016240797E+04  0.22016240797E+04  0.25500000920E-02 0. -1.
       -2   -1    0    0    0  501  0.00000000000E+00  0.00000000000E+00 -0.14839037642E+04  0.14839037642E+04  0.25500000920E-02 0.  1.
    10030    2    1    2    0    0  0.00000000000E+00  0.00000000000E+00  0.71772031549E+03  0.36855278439E+04  0.36149679164E+04 0.  0.
        1    1    3    3  502    0 -0.38838488180E+03 -0.22015255129E+03  0.21445287673E+04  0.21905053289E+04  0.50400001928E-02 0. -1.
       -1    1    3    3    0  502  0.38838488180E+03  0.22015255129E+03 -0.14268084518E+04  0.14950225150E+04  0.50400001928E-02 0.  1.
</event>
<event>
 5   0  0.3202875E-08  0.3601722E+04  0.7818609E-02  0.8090097E-01
        1   -1    0    0  501    0  0.00000000000E+00  0.00000000000E+00  0.26520780162E+04  0.26520780162E+04  0.50400001928E-02 0.  1.
       -1   -1    0    0    0  501  0.00000000000E+00  0.00000000000E+00 -0.12228523763E+04  0.12228523763E+04  0.50400001928E-02 0. -1.
    10030    2    1    2    0    0  0.00000000000E+00  0.00000000000E+00  0.14292256398E+04  0.38749303925E+04  0.36017217573E+04 0.  0.
        2    1    3    3  502    0  0.15778085523E+04 -0.85429434332E+03  0.54863362932E+03  0.18762455895E+04  0.25500000920E-02 0.  1.
       -2    1    3    3    0  502 -0.15778085523E+04  0.85429434332E+03  0.88059201051E+03  0.19986848030E+04  0.25500000920E-02 0. -1.
</event>
<event>
 5   0  0.3202875E-08  0.3601026E+04  0.7818609E-02  0.8090257E-01
        1   -1    0    0  501    0  0.00000000000E+00  0.00000000000E+00  0.21498680649E+04  0.21498680649E+04  0.50400001928E-02 0. -1.
       -1   -1    0    0    0  501  0.00000000000E+00  0.00000000000E+00 -0.15079282858E+04  0.15079282858E+04  0.50400001928E-02 0.  1.
    10030    2    1    2    0    0  0.00000000000E+00  0.00000000000E+00  0.64193977915E+03  0.36577963507E+04  0.36010258904E+04 0.  0.
        1    1    3    3  502    0 -0.73691674354E+03  0.43976103447E+03  0.19287725837E+04  0.21110660184E+04  0.50400001928E-02 0. -1.
       -1    1    3    3    0  502  0.73691674354E+03 -0.43976103447E+03 -0.12868328045E+04  0.15467303324E+04  0.50400001928E-02 0.  1.
</event>
<event>
 5   0  0.3202875E-08  0.3600872E+04  0.7818609E-02  0.8090292E-01
        1   -1    0    0  501    0  0.00000000000E+00  0.00000000000E+00  0.18513908326E+04  0.18513908326E+04  0.50400001928E-02 0.  1.
       -1   -1    0    0    0  501  0.00000000000E+00  0.00000000000E+00 -0.17508836034E+04  0.17508836035E+04  0.50400001928E-02 0. -1.
    10030    2    1    2    0    0  0.00000000000E+00  0.00000000000E+00  0.10050722915E+03  0.36022744361E+04  0.36008720346E+04 0.  0.
        1    1    3    3  502    0 -0.22161812580E+03  0.16885571310E+04 -0.53412290602E+03  0.17848325011E+04  0.50400001928E-02 0. -1.
       -1    1    3    3    0  502  0.22161812580E+03 -0.16885571310E+04  0.63463013518E+03  0.18174419349E+04  0.50400001928E-02 0.  1.
</event>
<event>
 5   0  0.1029908E-07  0.3600576E+04  0.7818609E-02  0.8090360E-01
       -2   -1    0    0    0  501  0.00000000000E+00  0.00000000000E+00  0.19670778520E+04  0.19670778520E+04  0.25500000920E-02 0.  1.
        2   -1    0    0  501    0  0.00000000000E+00  0.00000000000E+00 -0.16476402152E+04  0.16476402152E+04  0.25500000920E-02 0. -1.
    10030    2    1    2    0    0  0.00000000000E+00  0.00000000000E+00  0.31943763681E+03  0.36147180672E+04  0.36005758291E+04 0.  0.
        4    1    3    3  502    0 -0.11629109782E+04 -0.13581216572E+04 -0.51293768507E+02  0.17887115593E+04  0.12699999809E+01 0. -1.
       -4    1    3    3    0  502  0.11629109782E+04  0.13581216572E+04  0.37073140531E+03  0.18260065078E+04  0.12699999809E+01 0.  1.
</event>
<event>
 5   0  0.3212523E-08  0.3605018E+04  0.7818609E-02  0.8089343E-01
       -1   -1    0    0    0  501  0.00000000000E+00  0.00000000000E+00  0.27812815385E+04  0.27812815385E+04  0.50400001928E-02 0. -1.
        1   -1    0    0  501    0  0.00000000000E+00  0.00000000000E+00 -0.11681804178E+04  0.11681804178E+04  0.50400001928E-02 0.  1.
    10030    2    1    2    0    0  0.00000000000E+00  0.00000000000E+00  0.16131011207E+04  0.39494619564E+04  0.36050179638E+04 0.  0.
        3    1    3    3  502    0  0.17716677007E+04 -0.23122412088E+03  0.54552640078E+03  0.18681194020E+04  0.10100000352E+00 0.  1.
       -3    1    3    3    0  502 -0.17716677007E+04  0.23122412088E+03  0.10675747199E+04  0.20813425544E+04  0.10100000352E+00 0. -1.
</event>
<event>
 5   0  0.3202875E-08  0.3604557E+04  0.7818609E-02  0.8089449E-01
        1   -1    0    0  501    0  0.00000000000E+00  0.00000000000E+00  0.29583468837E+04  0.29583468837E+04  0.50400001928E-02 0.  1.
       -1   -1    0    0    0  501  0.00000000000E+00  0.00000000000E+00 -0.10979807705E+04  0.10979807705E+04  0.50400001928E-02 0. -1.
    10030    2    1    2    0    0  0.00000000000E+00  0.00000000000E+00  0.18603661132E+04  0.40563276542E+04  0.36045571105E+04 0.  0.
        1    1    3    3  502    0  0.16514179112E+04 -0.70256462414E+03  0.11165601836E+04  0.21136425460E+04  0.50400001928E-02 0. -1.
       -1    1    3    3    0  502 -0.16514179112E+04  0.70256462414E+03  0.74380592966E+03  0.19426851082E+04  0.50400001928E-02 0.  1.
</event>
<event>
 5   0  0.3202875E-08  0.3599981E+04  0.7818609E-02  0.8090496E-01
       -1   -1    0    0    0  501  0.00000000000E+00  0.00000000000E+00  0.14976100622E+04  0.14976100622E+04  0.50400001928E-02 0. -1.
        1   -1    0    0  501    0  0.00000000000E+00  0.00000000000E+00 -0.21634239665E+04  0.21634239665E+04  0.50400001928E-02 0.  1.
    10030    2    1    2    0    0  0.00000000000E+00  0.00000000000E+00 -0.66581390430E+03  0.36610340286E+04  0.35999808338E+04 0.  0.
        1    1    3    3  502    0  0.80624692789E+02  0.14088870065E+04 -0.14692207915E+04  0.20371727154E+04  0.50400001928E-02 0.  1.
       -1    1    3    3    0  502 -0.80624692789E+02 -0.14088870065E+04  0.80340688721E+03  0.16238613132E+04  0.50400001928E-02 0. -1.
</event>
<event>
 5   0  0.1029908E-07  0.3596491E+04  0.7818609E-02  0.8091296E-01
       -2   -1    0    0    0  501  0.00000000000E+00  0.00000000000E+00  0.22361621943E+04  0.22361621943E+04  0.25500000920E-02 0. -1.
        2   -1    0    0  501    0  0.00000000000E+00  0.00000000000E+00 -0.14460874432E+04  0.14460874432E+04  0.25500000920E-02 0.  1.
    10030    2    1    2    0    0  0.00000000000E+00  0.00000000000E+00  0.79007475110E+03  0.36822496376E+04  0.35964905507E+04 0.  0.
        4    1    3    3  502    0 -0.14511487049E+04 -0.70278501566E+03  0.12102297987E+04  0.20160349998E+04  0.12699999809E+01 0. -1.
       -4    1    3    3    0  502  0.14511487049E+04  0.70278501566E+03 -0.42015504762E+03  0.16662146377E+04  0.12699999809E+01 0.  1.
</event>
<event>
 5   0  0.1021087E-07  0.3593809E+04  0.7818609E-02  0.8091911E-01
       -2   -1    0    0    0  501  0.00000000000E+00  0.00000000000E+00  0.11814575107E+04  0.11814575107E+04  0.25500000920E-02 0.  1.
        2   -1    0    0  501    0  0.00000000000E+00  0.00000000000E+00 -0.27329512024E+04  0.27329512024E+04  0.25500000920E-02 0. -1.
    10030    2    1    2    0    0  0.00000000000E+00  0.00000000000E+00 -0.15514936917E+04  0.39144087130E+04  0.35938089678E+04 0.  0.
        3    1    3    3  502    0 -0.13556608761E+04 -0.79194649085E+03  0.17621803078E+03  0.15798887492E+04  0.10100000352E+00 0. -1.
       -3    1    3    3    0  502  0.13556608761E+04  0.79194649085E+03 -0.17277117225E+04  0.23345199638E+04  0.10100000352E+00 0.  1.
</event>
<event>
 5   0  0.9905335E-08  0.3581266E+04  0.7818609E-02  0.8094797E-01
       -2   -1    0    0    0  501  0.00000000000E+00  0.00000000000E+00  0.13238753617E+04  0.13238753617E+04  0.25500000920E-02 0.  1.
        2   -1    0    0  501    0  0.00000000000E+00  0.00000000000E+00 -0.24219545437E+04  0.24219545437E+04  0.25500000920E-02 0. -1.
    10030    2    1    2    0    0  0.00000000000E+00  0.00000000000E+00 -0.10980791820E+04  0.37458299054E+04  0.35812656688E+04 0.  0.
        5    1    3    3  502    0  0.97849254413E+03  0.59816954624E+03  0.88932022812E+03  0.14512639399E+04  0.46999998093E+01 0.  1.
       -5    1    3    3    0  502 -0.97849254413E+03 -0.59816954624E+03 -0.19873994101E+04  0.22945659656E+04  0.46999998093E+01 0. -1.
</event>
<event>
 5   0  0.1021087E-07  0.3600544E+04  0.7818609E-02  0.8090367E-01
        2   -1    0    0  501    0  0.00000000000E+00  0.00000000000E+00  0.27293103119E+04  0.27293103119E+04  0.25500000920E-02 0.  1.
       -2   -1    0    0    0  501  0.00000000000E+00  0.00000000000E+00 -0.11874719199E+04  0.11874719199E+04  0.25500000920E-02 0. -1.
    10030    2    1    2    0    0  0.00000000000E+00  0.00000000000E+00  0.15418383920E+04  0.39167822318E+04  0.36005440456E+04 0.  0.
        3    1    3    3  502    0  0.50497414837E+03  0.52122093207E+03  0.25631377000E+04  0.26638965877E+04  0.10100000352E+00 0.  1.
       -3    1    3    3    0  502 -0.50497414837E+03 -0.52122093207E+03 -0.10212993080E+04  0.12528856441E+04  0.10100000352E+00 0. -1.
</event>
<event>
 5   0  0.3279988E-08  0.3606670E+04  0.7818609E-02  0.8088966E-01
       -1   -1    0    0    0  501  0.00000000000E+00  0.00000000000E+00  0.26336425231E+04  0.26336425231E+04  0.50400001928E-02 0.  1.
        1   -1    0    0  501    0  0.00000000000E+00  0.00000000000E+00 -0.12347982686E+04  0.12347982686E+04  0.50400001928E-02 0. -1.
    10030    2    1    2    0    0  0.00000000000E+00  0.00000000000E+00  0.13988442545E+04  0.38684407917E+04  0.36066700584E+04 0.  0.
        5    1    3    3  502    0 -0.88766168426E+03 -0.14244567178E+04 -0.79723317451E+01  0.16784236219E+04  0.46999998093E+01 0.  1.
       -5    1    3    3    0  502  0.88766168426E+03  0.14244567178E+04  0.14068165863E+04  0.21900171698E+04  0.46999998093E+01 0. -1.
</event>
<event>
 5   0  0.9905335E-08  0.3630145E+04  0.7818609E-02  0.8083621E-01
        2   -1    0    0  501    0  0.00000000000E+00  0.00000000000E+00  0.23184392289E+04  0.23184392289E+04  0.25500000920E-02 0.  1.
       -2   -1    0    0    0  501  0.00000000000E+00  0.00000000000E+00 -0.14209942997E+04  0.14209942997E+04  0.25500000920E-02 0. -1.
    10030    2    1    2    0    0  0.00000000000E+00  0.00000000000E+00  0.89744492923E+03  0.37394335286E+04  0.36301454122E+04 0.  0.
        5    1    3    3  502    0  0.16251374455E+04  0.31890466069E+03 -0.31640060319E+03  0.16860911397E+04  0.46999998093E+01 0. -1.
       -5    1    3    3    0  502 -0.16251374455E+04 -0.31890466069E+03  0.12138455324E+04  0.20533423889E+04  0.46999998093E+01 0.  1.
</event>
<event>
 5   0  0.1044678E-07  0.3599704E+04  0.7818609E-02  0.8090560E-01
       -2   -1    0    0    0  501  0.00000000000E+00  0.00000000000E+00  0.17756623154E+04  0.17756623154E+04  0.25500000920E-02 0. -1.
        2   -1    0    0  501    0  0.00000000000E+00  0.00000000000E+00 -0.18243707333E+04  0.18243707333E+04  0.25500000920E-02 0.  1.
    10030    2    1    2    0    0  0.00000000000E+00  0.00000000000E+00 -0.48708417919E+02  0.36000330487E+04  0.35997035214E+04 0.  0.
        2    1    3    3  502    0 -0.76617731700E+03 -0.13532831239E+03  0.15987931104E+04  0.17780553543E+04  0.25500000920E-02 0. -1.
       -2    1    3    3    0  502  0.76617731700E+03  0.13532831239E+03 -0.16475015283E+04  0.18219776944E+04  0.25500000920E-02 0.  1.
</event>
<event>
 5   0  0.9905335E-08  0.3602903E+04  0.7818609E-02  0.8089827E-01
       -2   -1    0    0    0  501  0.00000000000E+00  0.00000000000E+00  0.18523552112E+04  0.18523552112E+04  0.25500000920E-02 0. -1.
        2   -1    0    0  501    0  0.00000000000E+00  0.00000000000E+00 -0.17519463632E+04  0.17519463632E+04  0.25500000920E-02 0.  1.
    10030    2    1    2    0    0  0.00000000000E+00  0.00000000000E+00  0.10040884804E+03  0.36043015744E+04  0.36029027051E+04 0.  0.
        5    1    3    3  502    0  0.18993683560E+03  0.47634048599E+03  0.17777879519E+04  0.18502779121E+04  0.46999998093E+01 0. -1.
       -5    1    3    3    0  502 -0.18993683560E+03 -0.47634048599E+03 -0.16773791038E+04  0.17540236623E+04  0.46999998093E+01 0.  1.
</event>
<event>
 5   0  0.3202875E-08  0.3555217E+04  0.7818609E-02  0.8100827E-01
       -1   -1    0    0    0  501  0.00000000000E+00  0.00000000000E+00  0.13172581537E+04  0.13172581537E+04  0.50400001928E-02 0.  1.
        1   -1    0    0  501    0  0.00000000000E+00  0.00000000000E+00 -0.23988407482E+04  0.23988407482E+04  0.50400001928E-02 0. -1.
    10030    2    1    2    0    0  0.00000000000E+00  0.00000000000E+00 -0.10815825945E+04  0.37160989019E+04  0.35552173126E+04 0.  0.
        1    1    3    3  502    0 -0.15078743100E+04  0.90939418194E+03 -0.79513324340E+03  0.19320764963E+04  0.50400001928E-02 0. -1.
       -1    1    3    3    0  502  0.15078743100E+04 -0.90939418194E+03 -0.28644935108E+03  0.17840224056E+04  0.50400001928E-02 0.  1.
</event>
<event>
 5   0  0.1044678E-07  0.3601584E+04  0.7818609E-02  0.8090129E-01
       -2   -1    0    0    0  501  0.00000000000E+00  0.00000000000E+00  0.12362952130E+04  0.12362952130E+04  0.25500000920E-02 0.  1.
        2   -1    0    0  501    0  0.00000000000E+00  0.00000000000E+00 -0.26230403190E+04  0.26230403190E+04  0.25500000920E-02 0. -1.
    10030    2    1    2    0    0  0.00000000000E+00  0.00000000000E+00 -0.13867451060E+04  0.38593355320E+04  0.36015842014E+04 0.  0.
        2    1    3    3  502    0  0.61312114552E+03  0.89869177071E+03 -0.22310933342E+04  0.24822050487E+04  0.25500000920E-02 0. -1.
       -2    1    3    3    0  502 -0.61312114552E+03 -0.89869177071E+03  0.84434822814E+03  0.13771304834E+04  0.25500000920E-02 0.  1.
</event>
<event>
 5   0  0.3279988E-08  0.3599593E+04  0.7818609E-02  0.8090585E-01
        1   -1    0    0  501    0  0.00000000000E+00  0.00000000000E+00  0.27066319948E+04  0.27066319948E+04  0.50400001928E-02 0. -1.
       -1   -1    0    0    0  501  0.00000000000E+00  0.00000000000E+00 -0.11967887770E+04  0.11967887770E+04  0.50400001928E-02 0.  1.
    10030    2    1    2    0    0  0.00000000000E+00  0.00000000000E+00  0.15098432178E+04  0.39034207718E+04  0.35995926407E+04 0.  0.
        5    1    3    3  502    0  0.12833931321E+04 -0.15106970856E+03 -0.60354328927E+03  0.14262561413E+04  0.46999998093E+01 0.  1.
       -5    1    3    3    0  502 -0.12833931321E+04  0.15106970856E+03  0.21133865071E+04  0.24771646305E+04  0.46999998093E+01 0. -1.
</event>
<event>
 5   0  0.3212523E-08  0.3595421E+04  0.7818609E-02  0.8091541E-01
        1   -1    0    0  501    0  0.00000000000E+00  0.00000000000E+00  0.24273660580E+04  0.24273660580E+04  0.50400001928E-02 0. -1.
       -1   -1    0    0    0  501  0.00000000000E+00  0.00000000000E+00 -0.13313871324E+04  0.13313871324E+04  0.50400001928E-02 0.  1.
    10030    2    1    2    0    0  0.00000000000E+00  0.00000000000E+00  0.10959789256E+04  0.37587531904E+04  0.35954214970E+04 0.  0.
        3    1    3    3  502    0 -0.17487217009E+04 -0.40292457430E+03  0.65955244610E+03  0.19119061795E+04  0.10100000352E+00 0.  1.
       -3    1    3    3    0  502  0.17487217009E+04  0.40292457430E+03  0.43642647951E+03  0.18468470110E+04  0.10100000352E+00 0. -1.
</event>
<event>
 5   0  0.1029908E-07  0.3604978E+04  0.7818609E-02  0.8089352E-01
       -2   -1    0    0    0  501  0.00000000000E+00  0.00000000000E+00  0.11355008496E+04  0.11355008496E+04  0.25500000920E-02 0.  1.
        2   -1    0    0  501    0  0.00000000000E+00  0.00000000000E+00 -0.28612627481E+04  0.28612627481E+04  0.25500000920E-02 0. -1.
    10030    2    1    2    0    0  0.00000000000E+00  0.00000000000E+00 -0.17257618985E+04  0.39967635976E+04  0.36049778259E+04 0.  0.
        4    1    3    3  502    0  0.72640856858E+03 -0.86509296047E+03  0.69437298847E+03  0.13259753764E+04  0.12699999809E+01 0.  1.
       -4    1    3    3    0  502 -0.72640856858E+03  0.86509296047E+03 -0.24201348870E+04  0.26707882213E+04  0.12699999809E+01 0. -1.
</event>
<event>
 5   0  0.3279988E-08  0.3596459E+04  0.7818609E-02  0.8091303E-01
        1   -1    0    0  501    0  0.00000000000E+00  0.00000000000E+00  0.18147356654E+04  0.18147356654E+04  0.50400001928E-02 0. -1.
       -1   -1    0    0    0  501  0.00000000000E+00  0.00000000000E+00 -0.17818736491E+04  0.17818736491E+04  0.50400001928E-02 0.  1.
    10030    2    1    2    0    0  0.00000000000E+00  0.00000000000E+00  0.32862016266E+02  0.35966093145E+04  0.35964591822E+04 0.  0.
        5    1    3    3  502    0  0.96095948457E+03  0.73278476099E+03 -0.13152367358E+04  0.17861372842E+04  0.46999998093E+01 0.  1.
       -5    1    3    3    0  502 -0.96095948457E+03 -0.73278476099E+03  0.13480987521E+04  0.18104720302E+04  0.46999998093E+01 0. -1.
</event>
<event>
 5   0  0.3202875E-08  0.3604896E+04  0.7818609E-02  0.8089371E-01
       -1   -1    0    0    0  501  0.00000000000E+00  0.00000000000E+00  0.17599863662E+04  0.17599863662E+04  0.50400001928E-02 0. -1.
        1   -1    0    0  501    0  0.00000000000E+00  0.00000000000E+00 -0.18459339506E+04  0.18459339506E+04  0.50400001928E-02 0.  1.
    10030    2    1    2    0    0  0.00000000000E+00  0.00000000000E+00 -0.85947584419E+02  0.36059203168E+04  0.36048958853E+04 0.  0.
        1    1    3    3  502    0 -0.41495499084E+03 -0.13229781966E+04 -0.11949779519E+04  0.18304183289E+04  0.50400001928E-02 0.  1.
       -1    1    3    3    0  502  0.41495499084E+03  0.13229781966E+04  0.11090303674E+04  0.17755019879E+04  0.50400001928E-02 0. -1.
</event>
<event>
 5   0  0.3279988E-08  0.3594434E+04  0.7818609E-02  0.8091768E-01
        1   -1    0    0  501    0  0.00000000000E+00  0.00000000000E+00  0.24354298711E+04  0.24354298711E+04  0.50400001928E-02 0. -1.
       -1   -1    0    0    0  501  0.00000000000E+00  0.00000000000E+00 -0.13262503517E+04  0.13262503517E+04  0.50400001928E-02 0.  1.
    10030    2    1    2    0    0  0.00000000000E+00  0.00000000000E+00  0.11091795195E+04  0.37616802228E+04  0.35944344329E+04 0.  0.
        5    1    3    3  502    0  0.14530632143E+03 -0.66903104888E+03 -0.11844289866E+04  0.13680681948E+04  0.46999998093E+01 0.  1.
       -5    1    3    3    0  502 -0.14530632143E+03  0.66903104888E+03  0.22936085061E+04  0.23936120280E+04  0.46999998093E+01 0. -1.
</event>
<event>
 5   0  0.9905335E-08  0.3599281E+04  0.7818609E-02  0.8090656E-01
        2   -1    0    0  501    0  0.00000000000E+00  0.00000000000E+00  0.26735992152E+04  0.26735992152E+04  0.25500000920E-02 0.  1.
       -2   -1    0    0    0  501  0.00000000000E+00  0.00000000000E+00 -0.12113656824E+04  0.12113656824E+04  0.25500000920E-02 0. -1.
    10030    2    1    2    0    0  0.00000000000E+00  0.00000000000E+00  0.14622335328E+04  0.38849648975E+04  0.35992812270E+04 0.  0.
        5    1    3    3  502    0 -0.35528350908E+03  0.16879541283E+04  0.17729379880E+03  0.17340330713E+04  0.46999998093E+01 0. -1.
       -5    1    3    3    0  502  0.35528350908E+03 -0.16879541283E+04  0.12849397340E+04  0.21509318263E+04  0.46999998093E+01 0.  1.
</event>
<event>
 5   0  0.3202875E-08  0.3581160E+04  0.7818609E-02  0.8094821E-01
       -1   -1    0    0    0  501  0.00000000000E+00  0.00000000000E+00  0.14552148403E+04  0.14552148403E+04  0.50400001928E-02 0.  1.
        1   -1    0    0  501    0  0.00000000000E+00  0.00000000000E+00 -0.22032326745E+04  0.22032326745E+04  0.50400001928E-02 0. -1.
    10030    2    1    2    0    0  0.00000000000E+00  0.00000000000E+00 -0.74801783427E+03  0.36584475148E+04  0.35811600827E+04 0.  0.
        1    1    3    3  502    0 -0.69860658963E+03  0.10460750545E+04 -0.16758153386E+04  0.20953952457E+04  0.50400001928E-02 0. -1.
       -1    1    3    3    0  502  0.69860658963E+03 -0.10460750545E+04  0.92779750433E+03  0.15630522691E+04  0.50400001928E-02 0.  1.
</event>
<event>
 5   0  0.3202875E-08  0.3597292E+04  0.7818609E-02  0.8091112E-01
       -3   -1    0    0    0  501  0.00000000000E+00  0.00000000000E+00  0.15953626532E+04  0.15953626564E+04  0.10100000352E+00 0. -1.
        3   -1    0    0  501    0  0.00000000000E+00  0.00000000000E+00 -0.20278324935E+04  0.20278324960E+04  0.10100000352E+00 0.  1.
    10030    2    1    2    0    0  0.00000000000E+00  0.00000000000E+00 -0.43246984029E+03  0.36231951524E+04  0.35972924471E+04 0.  0.
        3    1    3    3  502    0  0.46719279413E+02  0.14246516681E+03  0.15890578157E+04  0.15961152110E+04  0.10100000352E+00 0. -1.
       -3    1    3    3    0  502 -0.46719279413E+02 -0.14246516681E+03 -0.20215276560E+04  0.20270799415E+04  0.10100000352E+00 0.  1.
</event>
<event>
 5   0  0.9905335E-08  0.3612217E+04  0.7818609E-02  0.8087699E-01
        2   -1    0    0  501    0  0.00000000000E+00  0.00000000000E+00  0.21215246519E+04  0.21215246519E+04  0.25500000920E-02 0.  1.
       -2   -1    0    0    0  501  0.00000000000E+00  0.00000000000E+00 -0.15375865541E+04  0.15375865541E+04  0.25500000920E-02 0. -1.
    10030    2    1    2    0    0  0.00000000000E+00  0.00000000000E+00  0.58393809787E+03  0.36591112060E+04  0.36122169253E+04 0.  0.
        5    1    3    3  502    0  0.13710224093E+04 -0.84311383059E+03 -0.53809691365E+03  0.16970897904E+04  0.46999998093E+01 0. -1.
       -5    1    3    3    0  502 -0.13710224093E+04  0.84311383059E+03  0.11220350115E+04  0.19620214156E+04  0.46999998093E+01 0.  1.
</event>
<event>
 5   0  0.3279988E-08  0.3594292E+04  0.7818609E-02  0.8091800E-01
       -1   -1    0    0    0  501  0.00000000000E+00  0.00000000000E+00  0.21462820711E+04  0.21462820712E+04  0.50400001928E-02 0. -1.
        1   -1    0    0  501    0  0.00000000000E+00  0.00000000000E+00 -0.15048038617E+04  0.15048038618E+04  0.50400001928E-02 0.  1.
    10030    2    1    2    0    0  0.00000000000E+00  0.00000000000E+00  0.64147820940E+03  0.36510859329E+04  0.35942918908E+04 0.  0.
        5    1    3    3  502    0 -0.10965288139E+03  0.17931426519E+04  0.27173646575E+03  0.18169334389E+04  0.46999998093E+01 0.  1.
       -5    1    3    3    0  502  0.10965288139E+03 -0.17931426519E+04  0.36974174366E+03  0.18341524940E+04  0.46999998093E+01 0. -1.
</event>
<event>
 5   0  0.1029908E-07  0.3600348E+04  0.7818609E-02  0.8090412E-01
       -2   -1    0    0    0  501  0.00000000000E+00  0.00000000000E+00  0.20684237955E+04  0.20684237955E+04  0.25500000920E-02 0.  1.
        2   -1    0    0  501    0  0.00000000000E+00  0.00000000000E+00 -0.15667127023E+04  0.15667127023E+04  0.25500000920E-02 0. -1.
    10030    2    1    2    0    0  0.00000000000E+00  0.00000000000E+00  0.50171109316E+03  0.36351364979E+04  0.36003476689E+04 0.  0.
        4    1    3    3  502    0 -0.13688843607E+04 -0.46963537151E+03 -0.83010722459E+03  0.16683768736E+04  0.12699999809E+01 0. -1.
       -4    1    3    3    0  502  0.13688843607E+04  0.46963537151E+03  0.13318183178E+04  0.19667596242E+04  0.12699999809E+01 0.  1.
</event>
<event>
 5   0  0.3215494E-08  0.3598622E+04  0.7818609E-02  0.8090807E-01
       -1   -1    0    0    0  501  0.00000000000E+00  0.00000000000E+00  0.17856914625E+04  0.17856914625E+04  0.50400001928E-02 0. -1.
        1   -1    0    0  501    0  0.00000000000E+00  0.00000000000E+00 -0.18130343173E+04  0.18130343173E+04  0.50400001928E-02 0.  1.
    10030    2    1    2    0    0  0.00000000000E+00  0.00000000000E+00 -0.27342854833E+02  0.35987257798E+04  0.35986219038E+04 0.  0.
        4    1    3    3  502    0 -0.66527920207E+02 -0.74467982428E+03 -0.16503445533E+04  0.18117982124E+04  0.12699999809E+01 0.  1.
       -4    1    3    3    0  502  0.66527920207E+02  0.74467982428E+03  0.16230016985E+04  0.17869275674E+04  0.12699999809E+01 0. -1.
</event>
<event>
 5   0  0.3202875E-08  0.3601811E+04  0.7818609E-02  0.8090077E-01
       -1   -1    0    0    0  501  0.00000000000E+00  0.00000000000E+00  0.19856732710E+04  0.19856732710E+04  0.50400001928E-02 0. -1.
        1   -1    0    0  501    0  0.00000000000E+00  0.00000000000E+00 -0.16333302401E+04  0.16333302401E+04  0.50400001928E-02 0.  1.
    10030    2    1    2    0    0  0.00000000000E+00  0.00000000000E+00  0.35234303094E+03  0.36190035111E+04  0.36018107671E+04 0.  0.
        2    1    3    3  502    0  0.10439497051E+04  0.14602286578E+04  0.30007273162E+02  0.17952713322E+04  0.25500000920E-02 0.  1.
       -2    1    3    3    0  502 -0.10439497051E+04 -0.14602286578E+04  0.32233575778E+03  0.18237321789E+04  0.25500000920E-02 0. -1.
</event>
<event>
 5   0  0.3212523E-08  0.3594553E+04  0.7818609E-02  0.8091741E-01
        1   -1    0    0  501    0  0.00000000000E+00  0.00000000000E+00  0.19386460402E+04  0.19386460402E+04  0.50400001928E-02 0.  1.
       -1   -1    0    0    0  501  0.00000000000E+00  0.00000000000E+00 -0.16662156899E+04  0.16662156899E+04  0.50400001928E-02 0. -1.
    10030    2    1    2    0    0  0.00000000000E+00  0.00000000000E+00  0.27243035031E+03  0.36048617302E+04  0.35945527953E+04 0.  0.
        3    1    3    3  502    0  0.15409281515E+04 -0.37357787308E+03  0.98491786782E+03  0.18665699054E+04  0.10100000352E+00 0.  1.
       -3    1    3    3    0  502 -0.15409281515E+04  0.37357787308E+03 -0.71248751751E+03  0.17382918248E+04  0.10100000352E+00 0. -1.
</event>
<event>
 5   0  0.1021087E-07  0.3596751E+04  0.7818609E-02  0.8091236E-01
        2   -1    0    0  501    0  0.00000000000E+00  0.00000000000E+00  0.11412364829E+04  0.11412364829E+04  0.25500000920E-02 0. -1.
       -2   -1    0    0    0  501  0.00000000000E+00  0.00000000000E+00 -0.28339030672E+04  0.28339030672E+04  0.25500000920E-02 0.  1.
    10030    2    1    2    0    0  0.00000000000E+00  0.00000000000E+00 -0.16926665844E+04  0.39751395501E+04  0.35967505164E+04 0.  0.
        3    1    3    3  502    0 -0.12563822801E+04  0.12304073053E+04 -0.12624462502E+04  0.21647561330E+04  0.10100000352E+00 0.  1.
       -3    1    3    3    0  502  0.12563822801E+04 -0.12304073053E+04 -0.43022033423E+03  0.18103834171E+04  0.10100000352E+00 0. -1.
</event>
<event>
 5   0  0.3202875E-08  0.3600096E+04  0.7818609E-02  0.8090470E-01
       -1   -1    0    0    0  501  0.00000000000E+00  0.00000000000E+00  0.20477314667E+04  0.20477314667E+04  0.50400001928E-02 0. -1.
        1   -1    0    0  501    0  0.00000000000E+00  0.00000000000E+00 -0.15823233822E+04  0.15823233822E+04  0.50400001928E-02 0.  1.
    10030    2    1    2    0    0  0.00000000000E+00  0.00000000000E+00  0.46540808449E+03  0.36300548488E+04  0.36000963210E+04 0.  0.
        2    1    3    3  502    0  0.13302062204E+04  0.95957975653E+03  0.98044876725E+03  0.19108955186E+04  0.25500000920E-02 0.  1.
       -2    1    3    3    0  502 -0.13302062204E+04 -0.95957975653E+03 -0.51504068276E+03  0.17191593302E+04  0.25500000920E-02 0. -1.
</event>
<event>
 5   0  0.3215494E-08  0.3597103E+04  0.7818609E-02  0.8091156E-01
        1   -1    0    0  501    0  0.00000000000E+00  0.00000000000E+00  0.19731715237E+04  0.19731715237E+04  0.50400001928E-02 0. -1.
       -1   -1    0    0    0  501  0.00000000000E+00  0.00000000000E+00 -0.16393846100E+04  0.16393846100E+04  0.50400001928E-02 0.  1.
    10030    2    1    2    0    0  0.00000000000E+00  0.00000000000E+00  0.33378691372E+03  0.36125561337E+04  0.35971027390E+04 0.  0.
        4    1    3    3  502    0  0.55691461338E+03  0.17033366670E+04  0.13674182646E+02  0.17921211688E+04  0.12699999809E+01 0.  1.
       -4    1    3    3    0  502 -0.55691461338E+03 -0.17033366670E+04  0.32011273107E+03  0.18204349648E+04  0.12699999809E+01 0. -1.
</event>
<event>
 5   0  0.9905335E-08  0.3573788E+04  0.7818609E-02  0.8096522E-01
        2   -1    0    0  501    0  0.00000000000E+00  0.00000000000E+00  0.25252558577E+04  0.25252558577E+04  0.25500000920E-02 0. -1.
       -2   -1    0    0    0  501  0.00000000000E+00  0.00000000000E+00 -0.12644221711E+04  0.12644221711E+04  0.25500000920E-02 0.  1.
    10030    2    1    2    0    0  0.00000000000E+00  0.00000000000E+00  0.12608336866E+04  0.37896780287E+04  0.35737876233E+04 0.  0.
        5    1    3    3  502    0 -0.95262801769E+02 -0.17515429987E+04  0.99156296983E+03  0.20149930746E+04  0.46999998093E+01 0. -1.
       -5    1    3    3    0  502  0.95262801769E+02  0.17515429987E+04  0.26927071674E+03  0.17746849541E+04  0.46999998093E+01 0.  1.
</event>
<event>
 5   0  0.1029908E-07  0.3607709E+04  0.7818609E-02  0.8088728E-01
       -2   -1    0    0    0  501  0.00000000000E+00  0.00000000000E+00  0.21810009538E+04  0.21810009538E+04  0.25500000920E-02 0.  1.
        2   -1    0    0  501    0  0.00000000000E+00  0.00000000000E+00 -0.14919253803E+04  0.14919253803E+04  0.25500000920E-02 0. -1.
    10030    2    1    2    0    0  0.00000000000E+00  0.00000000000E+00  0.68907557350E+03  0.36729263341E+04  0.36077087895E+04 0.  0.
        4    1    3    3  502    0  0.34090874201E+03  0.48288465583E+03  0.20796033429E+04  0.21619778070E+04  0.12699999809E+01 0.  1.
       -4    1    3    3    0  502 -0.34090874201E+03 -0.48288465583E+03 -0.13905277694E+04  0.15109485271E+04  0.12699999809E+01 0. -1.
</event>
<event>
 5   0  0.3202875E-08  0.3601190E+04  0.7818609E-02  0.8090219E-01
       -1   -1    0    0    0  501  0.00000000000E+00  0.00000000000E+00  0.10336142632E+04  0.10336142632E+04  0.50400001928E-02 0. -1.
        1   -1    0    0  501    0  0.00000000000E+00  0.00000000000E+00 -0.31367036946E+04  0.31367036946E+04  0.50400001928E-02 0.  1.
    10030    2    1    2    0    0  0.00000000000E+00  0.00000000000E+00 -0.21030894315E+04  0.41703179578E+04  0.36011896246E+04 0.  0.
        2    1    3    3  502    0 -0.17279673512E+04  0.50612927477E+03 -0.10397538191E+04  0.20792128351E+04  0.25500000920E-02 0. -1.
       -2    1    3    3    0  502  0.17279673512E+04 -0.50612927477E+03 -0.10633356124E+04  0.20911051227E+04  0.25500000920E-02 0.  1.
</event>
<event>
 5   0  0.3212523E-08  0.3628596E+04  0.7818609E-02  0.8083973E-01
        1   -1    0    0  501    0  0.00000000000E+00  0.00000000000E+00  0.13529674924E+04  0.13529674924E+04  0.50400001928E-02 0.  1.
       -1   -1    0    0    0  501  0.00000000000E+00  0.00000000000E+00 -0.24329308984E+04  0.24329308984E+04  0.50400001928E-02 0. -1.
    10030    2    1    2    0    0  0.00000000000E+00  0.00000000000E+00 -0.10799634060E+04  0.37858983909E+04  0.36285955503E+04 0.  0.
        3    1    3    3  502    0  0.45213666097E+03 -0.12415263311E+04  0.75724428573E+03  0.15229031845E+04  0.10100000352E+00 0.  1.
       -3    1    3    3    0  502 -0.45213666097E+03  0.12415263311E+04 -0.18372076917E+04  0.22629952063E+04  0.10100000352E+00 0. -1.
</event>
<event>
 5   0  0.3279988E-08  0.3579733E+04  0.7818609E-02  0.8095150E-01
        1   -1    0    0  501    0  0.00000000000E+00  0.00000000000E+00  0.32937197523E+04  0.32937197523E+04  0.50400001928E-02 0. -1.
       -1   -1    0    0    0  501  0.00000000000E+00  0.00000000000E+00 -0.97264541959E+03  0.97264541960E+03  0.50400001928E-02 0.  1.
    10030    2    1    2    0    0  0.00000000000E+00  0.00000000000E+00  0.23210743327E+04  0.42663651719E+04  0.35797326328E+04 0.  0.
        5    1    3    3  502    0 -0.15420972635E+04  0.90837164210E+03  0.11368105333E+04  0.21202743428E+04  0.46999998093E+01 0. -1.
       -5    1    3    3    0  502  0.15420972635E+04 -0.90837164210E+03  0.11842637994E+04  0.21460908291E+04  0.46999998093E+01 0.  1.
</event>
<event>
 5   0  0.1044678E-07  0.3600881E+04  0.7818609E-02  0.8090290E-01
        2   -1    0    0  501    0  0.00000000000E+00  0.00000000000E+00  0.17540563934E+04  0.17540563934E+04  0.25500000920E-02 0. -1.
       -2   -1    0    0    0  501  0.00000000000E+00  0.00000000000E+00 -0.18480511820E+04  0.18480511820E+04  0.25500000920E-02 0.  1.
    10030    2    1    2    0    0  0.00000000000E+00  0.00000000000E+00 -0.93994788676E+02  0.36021075754E+04  0.36008809984E+04 0.  0.
        2    1    3    3  502    0 -0.12021247451E+04  0.77964175400E+03 -0.11376168243E+04  0.18295128331E+04  0.25500000920E-02 0.  1.
       -2    1    3    3    0  502  0.12021247451E+04 -0.77964175400E+03  0.10436220356E+04  0.17725947424E+04  0.25500000920E-02 0. -1.
</event>
<event>
 5   0  0.3202875E-08  0.3606879E+04  0.7818609E-02  0.8088918E-01
       -1   -1    0    0    0  501  0.00000000000E+00  0.00000000000E+00  0.13262594622E+04  0.13262594622E+04  0.50400001928E-02 0. -1.
        1   -1    0    0  501    0  0.00000000000E+00  0.00000000000E+00 -0.24523053241E+04  0.24523053241E+04  0.50400001928E-02 0.  1.
    10030    2    1    2    0    0  0.00000000000E+00  0.00000000000E+00 -0.11260458619E+04  0.37785647862E+04  0.36068785065E+04 0.  0.
        1    1    3    3  502    0 -0.48346681458E+02 -0.14958940599E+04 -0.16170751813E+04  0.22033993243E+04  0.50400001928E-02 0.  1.
       -1    1    3    3    0  502  0.48346681458E+02  0.14958940599E+04  0.49102931942E+03  0.15751654620E+04  0.50400001928E-02 0. -1.
</event>
<event>
 5   0  0.9905335E-08  0.3598127E+04  0.7818609E-02  0.8090921E-01
        2   -1    0    0  501    0  0.00000000000E+00  0.00000000000E+00  0.32497495243E+04  0.32497495243E+04  0.25500000920E-02 0. -1.
       -2   -1    0    0    0  501  0.00000000000E+00  0.00000000000E+00 -0.99596300754E+03  0.99596300754E+03  0.25500000920E-02 0.  1.
    10030    2    1    2    0    0  0.00000000000E+00  0.00000000000E+00  0.22537865168E+04  0.42457125319E+04  0.35981274630E+04 0.  0.
        5    1    3    3  502    0 -0.94186717271E+03 -0.90401159988E+03  0.25875222484E+04  0.28982139707E+04  0.46999998093E+01 0. -1.
       -5    1    3    3    0  502  0.94186717271E+03  0.90401159988E+03 -0.33373573167E+03  0.13474985612E+04  0.46999998093E+01 0.  1.
</event>
<event>
 5   0  0.3212523E-08  0.3600101E+04  0.7818609E-02  0.8090469E-01
       -1   -1    0    0    0  501  0.00000000000E+00  0.00000000000E+00  0.27744853514E+04  0.27744853514E+04  0.50400001928E-02 0.  1.
        1   -1    0    0  501    0  0.00000000000E+00  0.00000000000E+00 -0.11678494432E+04  0.11678494432E+04  0.50400001928E-02 0. -1.
    10030    2    1    2    0    0  0.00000000000E+00  0.00000000000E+00  0.16066359083E+04  0.39423347946E+04  0.36001006501E+04 0.  0.
        3    1    3    3  502    0  0.13005015156E+04 -0.38017453938E+03  0.21010219942E+04  0.25000260604E+04  0.10100000352E+00 0.  1.
       -3    1    3    3    0  502 -0.13005015156E+04  0.38017453938E+03 -0.49438608597E+03  0.14423087342E+04  0.10100000352E+00 0. -1.
</event>
<event>
 5   0  0.1044678E-07  0.3592131E+04  0.7818609E-02  0.8092297E-01
       -2   -1    0    0    0  501  0.00000000000E+00  0.00000000000E+00  0.17132041956E+04  0.17132041956E+04  0.25500000920E-02 0.  1.
        2   -1    0    0  501    0  0.00000000000E+00  0.00000000000E+00 -0.18829343240E+04  0.18829343240E+04  0.25500000920E-02 0. -1.
    10030    2    1    2    0    0  0.00000000000E+00  0.00000000000E+00 -0.16973012837E+03  0.35961385197E+04  0.35921308351E+04 0.  0.
        2    1    3    3  502    0 -0.48008976972E+03 -0.10420085564E+04  0.12985532841E+04  0.17327748412E+04  0.25500000920E-02 0.  1.
       -2    1    3    3    0  502  0.48008976972E+03  0.10420085564E+04 -0.14682834125E+04  0.18633636784E+04  0.25500000920E-02 0. -1.
</event>
<event>
 5   0  0.9905335E-08  0.3597791E+04  0.7818609E-02  0.8090998E-01
       -2   -1    0    0    0  501  0.00000000000E+00  0.00000000000E+00  0.13214623549E+04  0.13214623549E+04  0.25500000920E-02 0.  1.
        2   -1    0    0  501    0  0.00000000000E+00  0.00000000000E+00 -0.24488218029E+04  0.24488218029E+04  0.25500000920E-02 0. -1.
    10030    2    1    2    0    0  0.00000000000E+00  0.00000000000E+00 -0.11273594480E+04  0.37702841578E+04  0.35977914483E+04 0.  0.
        5    1    3    3  502    0  0.35665042781E+03 -0.17623191369E+04 -0.50594315688E+03  0.18678781641E+04  0.46999998093E+01 0.  1.
       -5    1    3    3    0  502 -0.35665042781E+03  0.17623191369E+04 -0.62141629111E+03  0.19024059937E+04  0.46999998093E+01 0. -1.
</event>
<event>
 5   0  0.3202875E-08  0.3596683E+04  0.7818609E-02  0.8091252E-01
        1   -1    0    0  501    0  0.00000000000E+00  0.00000000000E+00  0.21132984435E+04  0.21132984435E+04  0.50400001928E-02 0. -1.
       -1   -1    0    0    0  501  0.00000000000E+00  0.00000000000E+00 -0.15303247958E+04  0.15303247958E+04  0.50400001928E-02 0.  1.
    10030    2    1    2    0    0  0.00000000000E+00  0.00000000000E+00  0.58297364774E+03  0.36436232393E+04  0.35966834774E+04 0.  0.
        1    1    3    3  502    0  0.10263756768E+04 -0.13643615049E+04  0.86375176232E+03  0.19133730564E+04  0.50400001928E-02 0.  1.
       -1    1    3    3    0  502 -0.10263756768E+04  0.13643615049E+04 -0.28077811458E+03  0.17302501830E+04  0.50400001928E-02 0. -1.
</event>
<event>
 5   0  0.3215494E-08  0.3593354E+04  0.7818609E-02  0.8092016E-01
       -1   -1    0    0    0  501  0.00000000000E+00  0.00000000000E+00  0.23467850809E+04  0.23467850809E+04  0.50400001928E-02 0.  1.
        1   -1    0    0  501    0  0.00000000000E+00  0.00000000000E+00 -0.13755193314E+04  0.13755193314E+04  0.50400001928E-02 0. -1.
    10030    2    1    2    0    0  0.00000000000E+00  0.00000000000E+00  0.97126574948E+03  0.37223044123E+04  0.35933540018E+04 0.  0.
        4    1    3    3  502    0 -0.51676640176E+03  0.12027361693E+04  0.17604143480E+04  0.21937826001E+04  0.12699999809E+01 0.  1.
       -4    1    3    3    0  502  0.51676640176E+03 -0.12027361693E+04 -0.78914859853E+03  0.15285218122E+04  0.12699999809E+01 0. -1.
</event>
<event>
 5   0  0.1021087E-07  0.3588278E+04  0.7818609E-02  0.8093182E-01
        2   -1    0    0  501    0  0.00000000000E+00  0.00000000000E+00  0.14751168956E+04  0.14751168956E+04  0.25500000920E-02 0. -1.
       -2   -1    0    0    0  501  0.00000000000E+00  0.00000000000E+00 -0.21821556741E+04  0.21821556741E+04  0.25500000920E-02 0.  1.
    10030    2    1    2    0    0  0.00000000000E+00  0.00000000000E+00 -0.70703877854E+03  0.36572725697E+04  0.35882779734E+04 0.  0.
        3    1    3    3  502    0  0.80014999532E+03  0.75239405171E+03 -0.17994576637E+04  0.21081709413E+04  0.10100000352E+00 0.  1.
       -3    1    3    3    0  502 -0.80014999532E+03 -0.75239405171E+03  0.10924188852E+04  0.15491016284E+04  0.10100000352E+00 0. -1.
</event>
<event>
 5   0  0.3279988E-08  0.3598140E+04  0.7818609E-02  0.8090918E-01
       -1   -1    0    0    0  501  0.00000000000E+00  0.00000000000E+00  0.14360265095E+04  0.14360265095E+04  0.50400001928E-02 0.  1.
        1   -1    0    0  501    0  0.00000000000E+00  0.00000000000E+00 -0.22538950445E+04  0.22538950445E+04  0.50400001928E-02 0. -1.
    10030    2    1    2    0    0  0.00000000000E+00  0.00000000000E+00 -0.81786853503E+03  0.36899215541E+04  0.35981400938E+04 0.  0.
        5    1    3    3  502    0  0.29496092588E+03  0.64825285415E+03  0.12852960080E+04  0.14694358199E+04  0.46999998093E+01 0.  1.
       -5    1    3    3    0  502 -0.29496092588E+03 -0.64825285415E+03 -0.21031645430E+04  0.22204857342E+04  0.46999998093E+01 0. -1.
</event>
<event>
 5   0  0.1017794E-07  0.3586064E+04  0.7818609E-02  0.8093691E-01
        2   -1    0    0  501    0  0.00000000000E+00  0.00000000000E+00  0.26682416876E+04  0.26682416876E+04  0.25500000920E-02 0. -1.
       -2   -1    0    0    0  501  0.00000000000E+00  0.00000000000E+00 -0.12048997730E+04  0.12048997731E+04  0.25500000920E-02 0.  1.
    10030    2    1    2    0    0  0.00000000000E+00  0.00000000000E+00  0.14633419146E+04  0.38731414607E+04  0.35860640284E+04 0.  0.
        1    1    3    3  502    0 -0.58421466956E+03 -0.93062158227E+03  0.22619969917E+04  0.25147551968E+04  0.50400001928E-02 0. -1.
       -1    1    3    3    0  502  0.58421466956E+03  0.93062158227E+03 -0.79865507713E+03  0.13583862638E+04  0.50400001928E-02 0.  1.
</event>
<event>
 5   0  0.3202875E-08  0.3599752E+04  0.7818609E-02  0.8090549E-01
       -1   -1    0    0    0  501  0.00000000000E+00  0.00000000000E+00  0.10651880764E+04  0.10651880764E+04  0.50400001928E-02 0.  1.
        1   -1    0    0  501    0  0.00000000000E+00  0.00000000000E+00 -0.30412970169E+04  0.30412970169E+04  0.50400001928E-02 0. -1.
    10030    2    1    2    0    0  0.00000000000E+00  0.00000000000E+00 -0.19761089405E+04  0.41064850933E+04  0.35997518354E+04 0.  0.
        1    1    3    3  502    0  0.38552267828E+03  0.70496850099E+03  0.84923704837E+03  0.11691073035E+04  0.50400001928E-02 0.  1.
       -1    1    3    3    0  502 -0.38552267828E+03 -0.70496850099E+03 -0.28253459889E+04  0.29373777897E+04  0.50400001928E-02 0. -1.
</event>
<event>
 5   0  0.1044678E-07  0.3563483E+04  0.7818609E-02  0.8098908E-01
        2   -1    0    0  501    0  0.00000000000E+00  0.00000000000E+00  0.28474517685E+04  0.28474517685E+04  0.25500000920E-02 0.  1.
       -2   -1    0    0    0  501  0.00000000000E+00  0.00000000000E+00 -0.11148927904E+04  0.11148927904E+04  0.25500000920E-02 0. -1.
    10030    2    1    2    0    0  0.00000000000E+00  0.00000000000E+00  0.17325589781E+04  0.39623445589E+04  0.35634833788E+04 0.  0.
        2    1    3    3  502    0 -0.13678874153E+04  0.11284234434E+04  0.10593459112E+04  0.20655917332E+04  0.25500000920E-02 0.  1.
       -2    1    3    3    0  502  0.13678874153E+04 -0.11284234434E+04  0.67321306695E+03  0.18967528258E+04  0.25500000920E-02 0. -1.
</event>
<event>
 5   0  0.3212523E-08  0.3601216E+04  0.7818609E-02  0.8090213E-01
       -1   -1    0    0    0  501  0.00000000000E+00  0.00000000000E+00  0.14642789554E+04  0.14642789554E+04  0.50400001928E-02 0. -1.
        1   -1    0    0  501    0  0.00000000000E+00  0.00000000000E+00 -0.22141880123E+04  0.22141880123E+04  0.50400001928E-02 0.  1.
    10030    2    1    2    0    0  0.00000000000E+00  0.00000000000E+00 -0.74990905695E+03  0.36784669677E+04  0.36012158556E+04 0.  0.
        3    1    3    3  502    0  0.58013977571E+00 -0.14467817481E+04  0.71995901007E+03  0.16160194150E+04  0.10100000352E+00 0. -1.
       -3    1    3    3    0  502 -0.58013977571E+00  0.14467817481E+04 -0.14698680670E+04  0.20624475527E+04  0.10100000352E+00 0.  1.
</event>
<event>
 5   0  0.1029908E-07  0.3597757E+04  0.7818609E-02  0.8091006E-01
        2   -1    0    0  501    0  0.00000000000E+00  0.00000000000E+00  0.24921853572E+04  0.24921853572E+04  0.25500000920E-02 0. -1.
       -2   -1    0    0    0  501  0.00000000000E+00  0.00000000000E+00 -0.12984442456E+04  0.12984442456E+04  0.25500000920E-02 0.  1.
    10030    2    1    2    0    0  0.00000000000E+00  0.00000000000E+00  0.11937411116E+04  0.37906296028E+04  0.35977569324E+04 0.  0.
        4    1    3    3  502    0 -0.16302578170E+04 -0.71378634109E+03  0.87309028909E+03  0.19823016310E+04  0.12699999809E+01 0.  1.
       -4    1    3    3    0  502  0.16302578170E+04  0.71378634109E+03  0.32065082253E+03  0.18083279718E+04  0.12699999809E+01 0. -1.
</event>
<event>
 5   0  0.1017794E-07  0.3597675E+04  0.7818609E-02  0.8091025E-01
        2   -1    0    0  501    0  0.00000000000E+00  0.00000000000E+00  0.19293634485E+04  0.19293634485E+04  0.25500000920E-02 0. -1.
       -2   -1    0    0    0  501  0.00000000000E+00  0.00000000000E+00 -0.16771417740E+04  0.16771417740E+04  0.25500000920E-02 0.  1.
    10030    2    1    2    0    0  0.00000000000E+00  0.00000000000E+00  0.25222167459E+03  0.36065052225E+04  0.35976748251E+04 0.  0.
        1    1    3    3  502    0  0.97429544768E+03  0.32662235394E+03  0.16061771582E+04  0.19067613497E+04  0.50400001928E-02 0. -1.
       -1    1    3    3    0  502 -0.97429544768E+03 -0.32662235394E+03 -0.13539554836E+04  0.16997438728E+04  0.50400001928E-02 0.  1.
</event>
<event>
 5   0  0.3212523E-08  0.3586096E+04  0.7818609E-02  0.8093684E-01
       -1   -1    0    0    0  501  0.00000000000E+00  0.00000000000E+00  0.14261966733E+04  0.14261966733E+04  0.50400001928E-02 0.  1.
        1   -1    0    0  501    0  0.00000000000E+00  0.00000000000E+00 -0.22542624910E+04  0.22542624910E+04  0.50400001928E-02 0. -1.
    10030    2    1    2    0    0  0.00000000000E+00  0.00000000000E+00 -0.82806581777E+03  0.36804591643E+04  0.35860962984E+04 0.  0.
        3    1    3    3  502    0 -0.30351935205E+03 -0.17361461099E+04 -0.75239642365E+03  0.19163579259E+04  0.10100000352E+00 0.  1.
       -3    1    3    3    0  502  0.30351935205E+03  0.17361461099E+04 -0.75669394127E+02  0.17641012384E+04  0.10100000352E+00 0. -1.
</event>
<event>
 5   0  0.3279988E-08  0.3596207E+04  0.7818609E-02  0.8091361E-01
        1   -1    0    0  501    0  0.00000000000E+00  0.00000000000E+00  0.16741004304E+04  0.16741004304E+04  0.50400001928E-02 0. -1.
       -1   -1    0    0    0  501  0.00000000000E+00  0.00000000000E+00 -0.19312913718E+04  0.19312913718E+04  0.50400001928E-02 0.  1.
    10030    2    1    2    0    0  0.00000000000E+00  0.00000000000E+00 -0.25719094136E+03  0.36053918022E+04  0.35962067331E+04 0.  0.
        5    1    3    3  502    0  0.12479548607E+04  0.10965846969E+04  0.56110367413E+03  0.17534961519E+04  0.46999998093E+01 0.  1.
       -5    1    3    3    0  502 -0.12479548607E+04 -0.10965846969E+04 -0.81829461548E+03  0.18518956503E+04  0.46999998093E+01 0. -1.
</event>
<event>
 5   0  0.3212523E-08  0.3599409E+04  0.7818609E-02  0.8090627E-01
       -1   -1    0    0    0  501  0.00000000000E+00  0.00000000000E+00  0.13280602821E+04  0.13280602821E+04  0.50400001928E-02 0.  1.
        1   -1    0    0  501    0  0.00000000000E+00  0.00000000000E+00 -0.24388473903E+04  0.24388473903E+04  0.50400001928E-02 0. -1.
    10030    2    1    2    0    0  0.00000000000E+00  0.00000000000E+00 -0.11107871082E+04  0.37669076724E+04  0.35994090366E+04 0.  0.
        3    1    3    3  502    0 -0.79725440402E+03  0.16041281827E+04 -0.73694410344E+03  0.19369895284E+04  0.10100000352E+00 0.  1.
       -3    1    3    3    0  502  0.79725440402E+03 -0.16041281827E+04 -0.37384300471E+03  0.18299181440E+04  0.10100000352E+00 0. -1.
</event>
<event>
 5   0  0.3202875E-08  0.3612763E+04  0.7818609E-02  0.8087574E-01
        3   -1    0    0  501    0  0.00000000000E+00  0.00000000000E+00  0.12571005558E+04  0.12571005599E+04  0.10100000352E+00 0. -1.
       -3   -1    0    0    0  501  0.00000000000E+00  0.00000000000E+00 -0.25956666931E+04  0.25956666950E+04  0.10100000352E+00 0.  1.
    10030    2    1    2    0    0  0.00000000000E+00  0.00000000000E+00 -0.13385661373E+04  0.38527672549E+04  0.36127629616E+04 0.  0.
        1    1    3    3  502    0 -0.96184206676E+02  0.47854062544E+03 -0.25240052940E+04  0.25707693898E+04  0.50400001928E-02 0.  1.
       -1    1    3    3    0  502  0.96184206676E+02 -0.47854062544E+03  0.11854391567E+04  0.12819978651E+04  0.50400001928E-02 0. -1.
</event>
<event>
 5   0  0.1044678E-07  0.3608111E+04  0.7818609E-02  0.8088636E-01
       -2   -1    0    0    0  501  0.00000000000E+00  0.00000000000E+00  0.18625118935E+04  0.18625118935E+04  0.25500000920E-02 0.  1.
        2   -1    0    0  501    0  0.00000000000E+00  0.00000000000E+00 -0.17474341874E+04  0.17474341874E+04  0.25500000920E-02 0. -1.
    10030    2    1    2    0    0  0.00000000000E+00  0.00000000000E+00  0.11507770617E+03  0.36099460809E+04  0.36081113936E+04 0.  0.
        2    1    3    3  502    0 -0.14110034204E+04 -0.95374736669E+03 -0.53778662150E+03  0.17859952805E+04  0.25500000920E-02 0. -1.
       -2    1    3    3    0  502  0.14110034204E+04  0.95374736669E+03  0.65286432766E+03  0.18239508004E+04  0.25500000920E-02 0.  1.
</event>
<event>
 5   0  0.3212523E-08  0.3600955E+04  0.7818609E-02  0.8090273E-01
       -1   -1    0    0    0  501  0.00000000000E+00  0.00000000000E+00  0.19985739057E+04  0.19985739057E+04  0.50400001928E-02 0. -1.
        1   -1    0    0  501    0  0.00000000000E+00  0.00000000000E+00 -0.16220161074E+04  0.16220161074E+04  0.50400001928E-02 0.  1.
    10030    2    1    2    0    0  0.00000000000E+00  0.00000000000E+00  0.37655779835E+03  0.36205900131E+04  0.36009549105E+04 0.  0.
        3    1    3    3  502    0 -0.11862770444E+04 -0.13453693015E+04  0.34548770828E+03  0.18266454364E+04  0.10100000352E+00 0. -1.
       -3    1    3    3    0  502  0.11862770444E+04  0.13453693015E+04  0.31070090067E+02  0.17939445767E+04  0.10100000352E+00 0.  1.
</event>
<event>
 5   0  0.1017794E-07  0.3601657E+04  0.7818609E-02  0.8090112E-01
       -2   -1    0    0    0  501  0.00000000000E+00  0.00000000000E+00  0.15149741094E+04  0.15149741094E+04  0.25500000920E-02 0. -1.
        2   -1    0    0  501    0  0.00000000000E+00  0.00000000000E+00 -0.21406198468E+04  0.21406198468E+04  0.25500000920E-02 0.  1.
    10030    2    1    2    0    0  0.00000000000E+00  0.00000000000E+00 -0.62564573739E+03  0.36555939562E+04  0.36016571997E+04 0.  0.
        1    1    3    3  502    0 -0.39219166285E+03 -0.16932263954E+04 -0.79121317441E+03  0.19096722791E+04  0.50400001928E-02 0.  1.
       -1    1    3    3    0  502  0.39219166285E+03  0.16932263954E+04  0.16556743703E+03  0.17459216771E+04  0.50400001928E-02 0. -1.
</event>
<event>
 5   0  0.1029908E-07  0.3592154E+04  0.7818609E-02  0.8092291E-01
        2   -1    0    0  501    0  0.00000000000E+00  0.00000000000E+00  0.23898999734E+04  0.23898999734E+04  0.25500000920E-02 0.  1.
       -2   -1    0    0    0  501  0.00000000000E+00  0.00000000000E+00 -0.13498021351E+04  0.13498021351E+04  0.25500000920E-02 0. -1.
    10030    2    1    2    0    0  0.00000000000E+00  0.00000000000E+00  0.10400978382E+04  0.37397021085E+04  0.35921537198E+04 0.  0.
        4    1    3    3  502    0 -0.57069413033E+02  0.44496770775E+03 -0.12905353692E+04  0.13662855964E+04  0.12699999809E+01 0. -1.
       -4    1    3    3    0  502  0.57069413033E+02 -0.44496770775E+03  0.23306332075E+04  0.23734165120E+04  0.12699999809E+01 0.  1.
</event>
<event>
 5   0  0.3279988E-08  0.3599148E+04  0.7818609E-02  0.8090687E-01
        1   -1    0    0  501    0  0.00000000000E+00  0.00000000000E+00  0.15984303667E+04  0.15984303668E+04  0.50400001928E-02 0. -1.
       -1   -1    0    0    0  501  0.00000000000E+00  0.00000000000E+00 -0.20260287784E+04  0.20260287784E+04  0.50400001928E-02 0.  1.
    10030    2    1    2    0    0  0.00000000000E+00  0.00000000000E+00 -0.42759841163E+03  0.36244591451E+04  0.35991476342E+04 0.  0.
        5    1    3    3  502    0 -0.97915712847E+03  0.23879486230E+03  0.12875483894E+04  0.16351069120E+04  0.46999998093E+01 0. -1.
       -5    1    3    3    0  502  0.97915712847E+03 -0.23879486230E+03 -0.17151468010E+04  0.19893522332E+04  0.46999998093E+01 0.  1.
</event>
<event>
 5   0  0.1021087E-07  0.3595820E+04  0.7818609E-02  0.8091450E-01
        2   -1    0    0  501    0  0.00000000000E+00  0.00000000000E+00  0.19408097238E+04  0.19408097238E+04  0.25500000920E-02 0. -1.
       -2   -1    0    0    0  501  0.00000000000E+00  0.00000000000E+00 -0.16655321324E+04  0.16655321324E+04  0.25500000920E-02 0.  1.
    10030    2    1    2    0    0  0.00000000000E+00  0.00000000000E+00  0.27527759138E+03  0.36063418562E+04  0.35958203280E+04 0.  0.
        3    1    3    3  502    0 -0.89652082599E+03 -0.14791138889E+04 -0.35466761671E+03  0.17655924264E+04  0.10100000352E+00 0.  1.
       -3    1    3    3    0  502  0.89652082599E+03  0.14791138889E+04  0.62994520810E+03  0.18407494298E+04  0.10100000352E+00 0. -1.
</event>
<event>
 5   0  0.1021087E-07  0.3597429E+04  0.7818609E-02  0.8091081E-01
        2   -1    0    0  501    0  0.00000000000E+00  0.00000000000E+00  0.20374064428E+04  0.20374064428E+04  0.25500000920E-02 0. -1.
       -2   -1    0    0    0  501  0.00000000000E+00  0.00000000000E+00 -0.15879866223E+04  0.15879866224E+04  0.25500000920E-02 0.  1.
    10030    2    1    2    0    0  0.00000000000E+00  0.00000000000E+00  0.44941982041E+03  0.36253930651E+04  0.35974291795E+04 0.  0.
        3    1    3    3  502    0  0.17105324723E+03  0.11185285636E+04  0.16337949546E+04  0.19873729707E+04  0.10100000352E+00 0. -1.
       -3    1    3    3    0  502 -0.17105324723E+03 -0.11185285636E+04 -0.11843751342E+04  0.16380200944E+04  0.10100000352E+00 0.  1.
</event>
<event>
 5   0  0.3202875E-08  0.3589677E+04  0.7818609E-02  0.8092860E-01
       -1   -1    0    0    0  501  0.00000000000E+00  0.00000000000E+00  0.10363969579E+04  0.10363969579E+04  0.50400001928E-02 0. -1.
        1   -1    0    0  501    0  0.00000000000E+00  0.00000000000E+00 -0.31083121158E+04  0.31083121158E+04  0.50400001928E-02 0.  1.
    10030    2    1    2    0    0  0.00000000000E+00  0.00000000000E+00 -0.20719151579E+04  0.41447090737E+04  0.35896769889E+04 0.  0.
        2    1    3    3  502    0 -0.11261127828E+04 -0.11595263668E+04 -0.13504856110E+03  0.16219955330E+04  0.25500000920E-02 0. -1.
       -2    1    3    3    0  502  0.11261127828E+04  0.11595263668E+04 -0.19368665968E+04  0.25227135408E+04  0.25500000920E-02 0.  1.
</event>
<event>
 5   0  0.3279988E-08  0.3605392E+04  0.7818609E-02  0.8089258E-01
       -1   -1    0    0    0  501  0.00000000000E+00  0.00000000000E+00  0.18940639194E+04  0.18940639194E+04  0.50400001928E-02 0. -1.
        1   -1    0    0  501    0  0.00000000000E+00  0.00000000000E+00 -0.17157351169E+04  0.17157351169E+04  0.50400001928E-02 0.  1.
    10030    2    1    2    0    0  0.00000000000E+00  0.00000000000E+00  0.17832880244E+03  0.36097990363E+04  0.36053915073E+04 0.  0.
        5    1    3    3  502    0 -0.11663652880E+04  0.59238804809E+02 -0.12857487366E+04  0.17369770075E+04  0.46999998093E+01 0.  1.
       -5    1    3    3    0  502  0.11663652880E+04 -0.59238804809E+02  0.14640775390E+04  0.18728220288E+04  0.46999998093E+01 0. -1.
</event>
<event>
 5   0  0.3202875E-08  0.3597785E+04  0.7818609E-02  0.8090999E-01
       -1   -1    0    0    0  501  0.00000000000E+00  0.00000000000E+00  0.30064009551E+04  0.30064009551E+04  0.50400001928E-02 0. -1.
        1   -1    0    0  501    0  0.00000000000E+00  0.00000000000E+00 -0.10763746970E+04  0.10763746970E+04  0.50400001928E-02 0.  1.
    10030    2    1    2    0    0  0.00000000000E+00  0.00000000000E+00  0.19300262581E+04  0.40827756521E+04  0.35977848279E+04 0.  0.
        1    1    3    3  502    0 -0.45949860050E+03 -0.54392000773E+03 -0.90965400284E+03  0.11551875794E+04  0.50400001928E-02 0.  1.
       -1    1    3    3    0  502  0.45949860050E+03  0.54392000773E+03  0.28396802610E+04  0.29275880727E+04  0.50400001928E-02 0. -1.
</event>
<event>
 5   0  0.9905335E-08  0.3611636E+04  0.7818609E-02  0.8087832E-01
        2   -1    0    0  501    0  0.00000000000E+00  0.00000000000E+00  0.13888022497E+04  0.13888022497E+04  0.25500000920E-02 0. -1.
       -2   -1    0    0    0  501  0.00000000000E+00  0.00000000000E+00 -0.23480507815E+04  0.23480507815E+04  0.25500000920E-02 0.  1.
    10030    2    1    2    0    0  0.00000000000E+00  0.00000000000E+00 -0.95924853177E+03  0.37368530312E+04  0.36116357556E+04 0.  0.
        5    1    3    3  502    0 -0.98604870996E+02  0.23301576768E+03 -0.23296130797E+04  0.23433178315E+04  0.46999998093E+01 0.  1.
       -5    1    3    3    0  502  0.98604870996E+02 -0.23301576768E+03  0.13703645479E+04  0.13935351997E+04  0.46999998093E+01 0. -1.
</event>
<event>
 5   0  0.1021087E-07  0.3585030E+04  0.7818609E-02  0.8093929E-01
       -2   -1    0    0    0  501  0.00000000000E+00  0.00000000000E+00  0.31287507917E+04  0.31287507917E+04  0.25500000920E-02 0. -1.
        2   -1    0    0  501    0  0.00000000000E+00  0.00000000000E+00 -0.10269623230E+04  0.10269623230E+04  0.25500000920E-02 0.  1.
    10030    2    1    2    0    0  0.00000000000E+00  0.00000000000E+00  0.21017884687E+04  0.41557131147E+04  0.35850295291E+04 0.  0.
        3    1    3    3  502    0 -0.13700565146E+04 -0.56137217048E+03 -0.12035074568E+03  0.14854891044E+04  0.10100000352E+00 0.  1.
       -3    1    3    3    0  502  0.13700565146E+04  0.56137217048E+03  0.22221392143E+04  0.26702240103E+04  0.10100000352E+00 0. -1.
</event>
<event>
 5   0  0.1029908E-07  0.3598549E+04  0.7818609E-02  0.8090824E-01
        2   -1    0    0  501    0  0.00000000000E+00  0.00000000000E+00  0.20729758497E+04  0.20729758497E+04  0.25500000920E-02 0. -1.
       -2   -1    0    0    0  501  0.00000000000E+00  0.00000000000E+00 -0.15617110374E+04  0.15617110374E+04  0.25500000920E-02 0.  1.
    10030    2    1    2    0    0  0.00000000000E+00  0.00000000000E+00  0.51126481239E+03  0.36346868871E+04  0.35985492992E+04 0.  0.
        4    1    3    3  502    0 -0.12854437191E+03  0.12440651286E+04  0.15621313307E+04  0.20011190887E+04  0.12699999809E+01 0. -1.
       -4    1    3    3    0  502  0.12854437191E+03 -0.12440651286E+04 -0.10508665183E+04  0.16335677984E+04  0.12699999809E+01 0.  1.
</event>
<event>
 5   0  0.1021087E-07  0.3606276E+04  0.7818609E-02  0.8089056E-01
       -2   -1    0    0    0  501  0.00000000000E+00  0.00000000000E+00  0.27336790415E+04  0.27336790415E+04  0.25500000920E-02 0. -1.
        2   -1    0    0  501    0  0.00000000000E+00  0.00000000000E+00 -0.11893519224E+04  0.11893519224E+04  0.25500000920E-02 0.  1.
    10030    2    1    2    0    0  0.00000000000E+00  0.00000000000E+00  0.15443271190E+04  0.39230309639E+04  0.36062758759E+04 0.  0.
        3    1    3    3  502    0  0.89561454199E+03  0.37956447056E+03 -0.87945132426E+03  0.13113463452E+04  0.10100000352E+00 0.  1.
       -3    1    3    3    0  502 -0.89561454199E+03 -0.37956447056E+03  0.24237784433E+04  0.26116846187E+04  0.10100000352E+00 0. -1.
</event>
<event>
 5   0  0.3279988E-08  0.3597699E+04  0.7818609E-02  0.8091019E-01
        1   -1    0    0  501    0  0.00000000000E+00  0.00000000000E+00  0.28832761645E+04  0.28832761645E+04  0.50400001928E-02 0.  1.
       -1   -1    0    0    0  501  0.00000000000E+00  0.00000000000E+00 -0.11222854102E+04  0.11222854102E+04  0.50400001928E-02 0. -1.
    10030    2    1    2    0    0  0.00000000000E+00  0.00000000000E+00  0.17609907543E+04  0.40055615747E+04  0.35976985827E+04 0.  0.
        5    1    3    3  502    0 -0.64978372475E+03  0.14804189639E+04  0.24317865130E+01  0.16167520531E+04  0.46999998093E+01 0. -1.
       -5    1    3    3    0  502  0.64978372475E+03 -0.14804189639E+04  0.17585589678E+04  0.23888095216E+04  0.46999998093E+01 0.  1.
</event>
<event>
 5   0  0.3215494E-08  0.3596125E+04  0.7818609E-02  0.8091380E-01
       -1   -1    0    0    0  501  0.00000000000E+00  0.00000000000E+00  0.14710021291E+04  0.14710021291E+04  0.50400001928E-02 0.  1.
        1   -1    0    0  501    0  0.00000000000E+00  0.00000000000E+00 -0.21978409015E+04  0.21978409015E+04  0.50400001928E-02 0. -1.
    10030    2    1    2    0    0  0.00000000000E+00  0.00000000000E+00 -0.72683877237E+03  0.36688430307E+04  0.35961249398E+04 0.  0.
        4    1    3    3  502    0 -0.86828167196E+03  0.60363558259E+03  0.11202005118E+04  0.15404998468E+04  0.12699999809E+01 0.  1.
       -4    1    3    3    0  502  0.86828167196E+03 -0.60363558259E+03 -0.18470392841E+04  0.21283431839E+04  0.12699999809E+01 0. -1.
</event>
<event>
 5   0  0.3279988E-08  0.3598972E+04  0.7818609E-02  0.8090727E-01
       -1   -1    0    0    0  501  0.00000000000E+00  0.00000000000E+00  0.16806068166E+04  0.16806068166E+04  0.50400001928E-02 0. -1.
        1   -1    0    0  501    0  0.00000000000E+00  0.00000000000E+00 -0.19267746131E+04  0.19267746131E+04  0.50400001928E-02 0.  1.
    10030    2    1    2    0    0  0.00000000000E+00  0.00000000000E+00 -0.24616779650E+03  0.36073814297E+04  0.35989723805E+04 0.  0.
        5    1    3    3  502    0  0.99121173695E+03  0.76131480067E+03  0.11745558049E+04  0.17151397500E+04  0.46999998093E+01 0. -1.
       -5    1    3    3    0  502 -0.99121173695E+03 -0.76131480067E+03 -0.14207236014E+04  0.18922416798E+04  0.46999998093E+01 0.  1.
</event>
<event>
 5   0  0.3215494E-08  0.3597501E+04  0.7818609E-02  0.8091064E-01
        1   -1    0    0  501    0  0.00000000000E+00  0.00000000000E+00  0.20798831592E+04  0.20798831592E+04  0.50400001928E-02 0.  1.
       -1   -1    0    0    0  501  0.00000000000E+00  0.00000000000E+00 -0.15556175875E+04  0.15556175875E+04  0.50400001928E-02 0. -1.
    10030    2    1    2    0    0  0.00000000000E+00  0.00000000000E+00  0.52426557171E+03  0.36355007466E+04  0.35975007004E+04 0.  0.
        4    1    3    3  502    0  0.12625394483E+04  0.10353659197E+04  0.10247648866E+04  0.19277274527E+04  0.12699999809E+01 0.  1.
       -4    1    3    3    0  502 -0.12625394483E+04 -0.10353659197E+04 -0.50049931489E+03  0.17077732939E+04  0.12699999809E+01 0. -1.
</event>
<event>
 5   0  0.1021087E-07  0.3595898E+04  0.7818609E-02  0.8091432E-01
       -2   -1    0    0    0  501  0.00000000000E+00  0.00000000000E+00  0.24318090082E+04  0.24318090082E+04  0.25500000920E-02 0.  1.
        2   -1    0    0  501    0  0.00000000000E+00  0.00000000000E+00 -0.13293068818E+04  0.13293068818E+04  0.25500000920E-02 0. -1.
    10030    2    1    2    0    0  0.00000000000E+00  0.00000000000E+00  0.11025021263E+04  0.37611158900E+04  0.35958979128E+04 0.  0.
        3    1    3    3  502    0 -0.22128362484E+03 -0.13668456923E+04 -0.64834797747E+03  0.15289174926E+04  0.10100000352E+00 0. -1.
       -3    1    3    3    0  502  0.22128362484E+03  0.13668456923E+04  0.17508501038E+04  0.22321983974E+04  0.10100000352E+00 0.  1.
</event>
<event>
 5   0  0.3212523E-08  0.3609064E+04  0.7818609E-02  0.8088419E-01
        1   -1    0    0  501    0  0.00000000000E+00  0.00000000000E+00  0.20391944484E+04  0.20391944484E+04  0.50400001928E-02 0. -1.
       -1   -1    0    0    0  501  0.00000000000E+00  0.00000000000E+00 -0.15968736919E+04  0.15968736919E+04  0.50400001928E-02 0.  1.
    10030    2    1    2    0    0  0.00000000000E+00  0.00000000000E+00  0.44232075654E+03  0.36360681403E+04  0.36090641265E+04 0.  0.
        3    1    3    3  502    0 -0.93928217380E+03  0.15263332695E+04  0.88905196087E+01  0.17922118466E+04  0.10100000352E+00 0. -1.
       -3    1    3    3    0  502  0.93928217380E+03 -0.15263332695E+04  0.43343023693E+03  0.18438562937E+04  0.10100000352E+00 0.  1.
</event>
<event>
 5   0  0.3202875E-08  0.3594774E+04  0.7818609E-02  0.8091690E-01
       -4   -1    0    0    0  501  0.00000000000E+00  0.00000000000E+00  0.19122123146E+04  0.19122127363E+04  0.12699999809E+01 0. -1.
        4   -1    0    0  501    0  0.00000000000E+00  0.00000000000E+00 -0.16894563245E+04  0.16894568018E+04  0.12699999809E+01 0.  1.
    10030    2    1    2    0    0  0.00000000000E+00  0.00000000000E+00  0.22275599014E+03  0.36016695381E+04  0.35947744339E+04 0.  0.
        3    1    3    3  502    0 -0.11624459577E+04  0.11529201099E+04  0.85448478624E+03  0.18467944240E+04  0.10100000352E+00 0. -1.
       -3    1    3    3    0  502  0.11624459577E+04 -0.11529201099E+04 -0.63172879610E+03  0.17548751142E+04  0.10100000352E+00 0.  1.
</event>
<event>
 5   0  0.1021087E-07  0.3591190E+04  0.7818609E-02  0.8092513E-01
       -2   -1    0    0    0  501  0.00000000000E+00  0.00000000000E+00  0.12425751860E+04  0.12425751860E+04  0.25500000920E-02 0. -1.
        2   -1    0    0  501    0  0.00000000000E+00  0.00000000000E+00 -0.25947420090E+04  0.25947420090E+04  0.25500000920E-02 0.  1.
    10030    2    1    2    0    0  0.00000000000E+00  0.00000000000E+00 -0.13521668230E+04  0.38373171950E+04  0.35911903511E+04 0.  0.
        3    1    3    3  502    0  0.44586766373E+03  0.43515654194E+02  0.11819013065E+04  0.12639550206E+04  0.10100000352E+00 0. -1.
       -3    1    3    3    0  502 -0.44586766373E+03 -0.43515654194E+02 -0.25340681294E+04  0.25733621744E+04  0.10100000352E+00 0.  1.
</event>
<event>
 5   0  0.3212523E-08  0.3601608E+04  0.7818609E-02  0.8090123E-01
       -1   -1    0    0    0  501  0.00000000000E+00  0.00000000000E+00  0.20082133114E+04  0.20082133114E+04  0.50400001928E-02 0. -1.
        1   -1    0    0  501    0  0.00000000000E+00  0.00000000000E+00 -0.16148163185E+04  0.16148163185E+04  0.50400001928E-02 0.  1.
    10030    2    1    2    0    0  0.00000000000E+00  0.00000000000E+00  0.39339699295E+03  0.36230296299E+04  0.36016083220E+04 0.  0.
        3    1    3    3  502    0 -0.75515538378E+03  0.21425723732E+03 -0.14336599775E+04  0.16344866958E+04  0.10100000352E+00 0.  1.
       -3    1    3    3    0  502  0.75515538378E+03 -0.21425723732E+03  0.18270569704E+04  0.19885429341E+04  0.10100000352E+00 0. -1.
</event>
<event>
 5   0  0.1029908E-07  0.3555409E+04  0.7818609E-02  0.8100783E-01
        2   -1    0    0  501    0  0.00000000000E+00  0.00000000000E+00  0.20411198947E+04  0.20411198947E+04  0.25500000920E-02 0. -1.
       -2   -1    0    0    0  501  0.00000000000E+00  0.00000000000E+00 -0.15482840329E+04  0.15482840329E+04  0.25500000920E-02 0.  1.
    10030    2    1    2    0    0  0.00000000000E+00  0.00000000000E+00  0.49283586177E+03  0.35894039276E+04  0.35554090298E+04 0.  0.
        4    1    3    3  502    0  0.76555951596E+03  0.13134484733E+04  0.11766418317E+04  0.19224244790E+04  0.12699999809E+01 0. -1.
       -4    1    3    3    0  502 -0.76555951596E+03 -0.13134484733E+04 -0.68380596993E+03  0.16669794486E+04  0.12699999809E+01 0.  1.
</event>
<event>
 5   0  0.3202875E-08  0.3662339E+04  0.7818609E-02  0.8076360E-01
        1   -1    0    0  501    0  0.00000000000E+00  0.00000000000E+00  0.20097709371E+04  0.20097709372E+04  0.50400001928E-02 0.  1.
       -1   -1    0    0    0  501  0.00000000000E+00  0.00000000000E+00 -0.16684393177E+04  0.16684393177E+04  0.50400001928E-02 0. -1.
    10030    2    1    2    0    0  0.00000000000E+00  0.00000000000E+00  0.34133161949E+03  0.36782102548E+04  0.36623385158E+04 0.  0.
        2    1    3    3  502    0 -0.11265531124E+03  0.24240420796E+03  0.19900712081E+04  0.20079428360E+04  0.25500000920E-02 0.  1.
       -2    1    3    3    0  502  0.11265531124E+03 -0.24240420796E+03 -0.16487395886E+04  0.16702674188E+04  0.25500000920E-02 0. -1.
</event>
<event>
 5   0  0.3202875E-08  0.3591193E+04  0.7818609E-02  0.8092512E-01
        1   -1    0    0  501    0  0.00000000000E+00  0.00000000000E+00  0.19470215774E+04  0.19470215774E+04  0.50400001928E-02 0. -1.
       -1   -1    0    0    0  501  0.00000000000E+00  0.00000000000E+00 -0.16559484780E+04  0.16559484780E+04  0.50400001928E-02 0.  1.
    10030    2    1    2    0    0  0.00000000000E+00  0.00000000000E+00  0.29107309935E+03  0.36029700554E+04  0.35911933491E+04 0.  0.
        2    1    3    3  502    0 -0.13950007057E+03  0.65133087340E+03  0.18184804613E+04  0.19366371277E+04  0.25500000920E-02 0. -1.
       -2    1    3    3    0  502  0.13950007057E+03 -0.65133087340E+03 -0.15274073620E+04  0.16663329276E+04  0.25500000920E-02 0.  1.
</event>
<event>
 5   0  0.3215494E-08  0.3599309E+04  0.7818609E-02  0.8090650E-01
        1   -1    0    0  501    0  0.00000000000E+00  0.00000000000E+00  0.18216273796E+04  0.18216273797E+04  0.50400001928E-02 0. -1.
       -1   -1    0    0    0  501  0.00000000000E+00  0.00000000000E+00 -0.17779470921E+04  0.17779470921E+04  0.50400001928E-02 0.  1.
    10030    2    1    2    0    0  0.00000000000E+00  0.00000000000E+00  0.43680287541E+02  0.35995744718E+04  0.35993094352E+04 0.  0.
        4    1    3    3  502    0  0.75736428385E+03  0.10640508918E+04  0.12600551081E+04  0.18148127857E+04  0.12699999809E+01 0. -1.
       -4    1    3    3    0  502 -0.75736428385E+03 -0.10640508918E+04 -0.12163748206E+04  0.17847616860E+04  0.12699999809E+01 0.  1.
</event>
<event>
 5   0  0.3212523E-08  0.3595282E+04  0.7818609E-02  0.8091573E-01
       -1   -1    0    0    0  501  0.00000000000E+00  0.00000000000E+00  0.14259951294E+04  0.14259951294E+04  0.50400001928E-02 0. -1.
        1   -1    0    0  501    0  0.00000000000E+00  0.00000000000E+00 -0.22661460238E+04  0.22661460238E+04  0.50400001928E-02 0.  1.
    10030    2    1    2    0    0  0.00000000000E+00  0.00000000000E+00 -0.84015089442E+03  0.36921411532E+04  0.35952820153E+04 0.  0.
        3    1    3    3  502    0 -0.10210017086E+04  0.53380194257E+03  0.99699998167E+03  0.15236134603E+04  0.10100000352E+00 0. -1.
       -3    1    3    3    0  502  0.10210017086E+04 -0.53380194257E+03 -0.18371508761E+04  0.21685276928E+04  0.10100000352E+00 0.  1.
</event>
<event>
 5   0  0.3279988E-08  0.3557372E+04  0.7818609E-02  0.8100326E-01
        1   -1    0    0  501    0  0.00000000000E+00  0.00000000000E+00  0.13779184882E+04  0.13779184882E+04  0.50400001928E-02 0.  1.
       -1   -1    0    0    0  501  0.00000000000E+00  0.00000000000E+00 -0.22960170291E+04  0.22960170291E+04  0.50400001928E-02 0. -1.
    10030    2    1    2    0    0  0.00000000000E+00  0.00000000000E+00 -0.91809854095E+03  0.36739355173E+04  0.35573722400E+04 0.  0.
        5    1    3    3  502    0 -0.46800720281E+03 -0.51247537235E+03  0.12323061577E+04  0.14143062983E+04  0.46999998093E+01 0.  1.
       -5    1    3    3    0  502  0.46800720281E+03  0.51247537235E+03 -0.21504046987E+04  0.22596292190E+04  0.46999998093E+01 0. -1.
</event>
<event>
 5   0  0.1021087E-07  0.3587454E+04  0.7818609E-02  0.8093372E-01
       -2   -1    0    0    0  501  0.00000000000E+00  0.00000000000E+00  0.12862346685E+04  0.12862346685E+04  0.25500000920E-02 0.  1.
        2   -1    0    0  501    0  0.00000000000E+00  0.00000000000E+00 -0.25014532245E+04  0.25014532245E+04  0.25500000920E-02 0. -1.
    10030    2    1    2    0    0  0.00000000000E+00  0.00000000000E+00 -0.12152185560E+04  0.37876878929E+04  0.35874536144E+04 0.  0.
        3    1    3    3  502    0 -0.16565972261E+04  0.43162525583E+03 -0.42140547190E+02  0.17124224266E+04  0.10100000352E+00 0.  1.
       -3    1    3    3    0  502  0.16565972261E+04 -0.43162525583E+03 -0.11730780088E+04  0.20752654664E+04  0.10100000352E+00 0. -1.
</event>
<event>
 5   0  0.3202875E-08  0.3599940E+04  0.7818609E-02  0.8090505E-01
        1   -1    0    0  501    0  0.00000000000E+00  0.00000000000E+00  0.13939899112E+04  0.13939899112E+04  0.50400001928E-02 0.  1.
       -1   -1    0    0    0  501  0.00000000000E+00  0.00000000000E+00 -0.23241866349E+04  0.23241866350E+04  0.50400001928E-02 0. -1.
    10030    2    1    2    0    0  0.00000000000E+00  0.00000000000E+00 -0.93019672376E+03  0.37181765462E+04  0.35999404000E+04 0.  0.
        1    1    3    3  502    0  0.88187799490E+03 -0.12841234366E+04 -0.13964984998E+04  0.20921017801E+04  0.50400001928E-02 0. -1.
       -1    1    3    3    0  502 -0.88187799490E+03  0.12841234366E+04  0.46630177605E+03  0.16260747660E+04  0.50400001928E-02 0.  1.
</event>
<event>
 5   0  0.1017794E-07  0.3598617E+04  0.7818609E-02  0.8090809E-01
        2   -1    0    0  501    0  0.00000000000E+00  0.00000000000E+00  0.12961026330E+04  0.12961026330E+04  0.25500000920E-02 0. -1.
       -2   -1    0    0    0  501  0.00000000000E+00  0.00000000000E+00 -0.24978813586E+04  0.24978813586E+04  0.25500000920E-02 0.  1.
    10030    2    1    2    0    0  0.00000000000E+00  0.00000000000E+00 -0.12017787256E+04  0.37939839916E+04  0.35986167375E+04 0.  0.
        1    1    3    3  502    0 -0.88367121597E+03 -0.14811577785E+04 -0.11413682234E+04  0.20681935606E+04  0.50400001928E-02 0.  1.
       -1    1    3    3    0  502  0.88367121597E+03  0.14811577785E+04 -0.60410502158E+02  0.17257904310E+04  0.50400001928E-02 0. -1.
</event>
<event>
 5   0  0.3212523E-08  0.3606879E+04  0.7818609E-02  0.8088918E-01
        1   -1    0    0  501    0  0.00000000000E+00  0.00000000000E+00  0.21281629646E+04  0.21281629647E+04  0.50400001928E-02 0. -1.
       -1   -1    0    0    0  501  0.00000000000E+00  0.00000000000E+00 -0.15282638382E+04  0.15282638382E+04  0.50400001928E-02 0.  1.
    10030    2    1    2    0    0  0.00000000000E+00  0.00000000000E+00  0.59989912650E+03  0.36564268028E+04  0.36068792609E+04 0.  0.
        3    1    3    3  502    0 -0.36951432309E+03  0.62301614597E+03  0.19742135749E+04  0.21029049438E+04  0.10100000352E+00 0. -1.
       -3    1    3    3    0  502  0.36951432309E+03 -0.62301614597E+03 -0.13743144484E+04  0.15535218590E+04  0.10100000352E+00 0.  1.
</event>
<event>
 5   0  0.3202875E-08  0.3605454E+04  0.7818609E-02  0.8089244E-01
       -1   -1    0    0    0  501  0.00000000000E+00  0.00000000000E+00  0.11019407680E+04  0.11019407681E+04  0.50400001928E-02 0. -1.
        1   -1    0    0  501    0  0.00000000000E+00  0.00000000000E+00 -0.29491825012E+04  0.29491825012E+04  0.50400001928E-02 0.  1.
    10030    2    1    2    0    0  0.00000000000E+00  0.00000000000E+00 -0.18472417332E+04  0.40511232692E+04  0.36054538857E+04 0.  0.
        2    1    3    3  502    0 -0.45910356323E+03  0.14857269795E+04 -0.19483035188E+04  0.24927990976E+04  0.25500000920E-02 0.  1.
       -2    1    3    3    0  502  0.45910356323E+03 -0.14857269795E+04  0.10106178565E+03  0.15583241717E+04  0.25500000920E-02 0. -1.
</event>
<event>
 5   0  0.3279988E-08  0.3601519E+04  0.7818609E-02  0.8090144E-01
        1   -1    0    0  501    0  0.00000000000E+00  0.00000000000E+00  0.21023211232E+04  0.21023211232E+04  0.50400001928E-02 0. -1.
       -1   -1    0    0    0  501  0.00000000000E+00  0.00000000000E+00 -0.15424542326E+04  0.15424542326E+04  0.50400001928E-02 0.  1.
    10030    2    1    2    0    0  0.00000000000E+00  0.00000000000E+00  0.55986689065E+03  0.36447753558E+04  0.36015186323E+04 0.  0.
        5    1    3    3  502    0  0.89750925473E+02 -0.16664616888E+04 -0.40462445468E+03  0.17172340633E+04  0.46999998093E+01 0.  1.
       -5    1    3    3    0  502 -0.89750925473E+02  0.16664616888E+04  0.96449134534E+03  0.19275412925E+04  0.46999998093E+01 0. -1.
</event>
<event>
 5   0  0.9905335E-08  0.3600952E+04  0.7818609E-02  0.8090274E-01
       -2   -1    0    0    0  501  0.00000000000E+00  0.00000000000E+00  0.14551877014E+04  0.14551877014E+04  0.25500000920E-02 0. -1.
        2   -1    0    0  501    0  0.00000000000E+00  0.00000000000E+00 -0.22276943750E+04  0.22276943750E+04  0.25500000920E-02 0.  1.
    10030    2    1    2    0    0  0.00000000000E+00  0.00000000000E+00 -0.77250667353E+03  0.36828820764E+04  0.36009517947E+04 0.  0.
        5    1    3    3  502    0 -0.78567141822E+03 -0.15943640870E+04 -0.67986513267E+03  0.19030278789E+04  0.46999998093E+01 0. -1.
       -5    1    3    3    0  502  0.78567141822E+03  0.15943640870E+04 -0.92641540862E+02  0.17798541975E+04  0.46999998093E+01 0.  1.
</event>
<event>
 5   0  0.9905335E-08  0.3603739E+04  0.7818609E-02  0.8089636E-01
       -2   -1    0    0    0  501  0.00000000000E+00  0.00000000000E+00  0.20259874313E+04  0.20259874313E+04  0.25500000920E-02 0. -1.
        2   -1    0    0  501    0  0.00000000000E+00  0.00000000000E+00 -0.16025434252E+04  0.16025434252E+04  0.25500000920E-02 0.  1.
    10030    2    1    2    0    0  0.00000000000E+00  0.00000000000E+00  0.42344400612E+03  0.36285308564E+04  0.36037385241E+04 0.  0.
        5    1    3    3  502    0 -0.22640305203E+03 -0.15170632886E+04 -0.74028327634E+03  0.17031678669E+04  0.46999998093E+01 0.  1.
       -5    1    3    3    0  502  0.22640305203E+03  0.15170632886E+04  0.11637272825E+04  0.19253629895E+04  0.46999998093E+01 0. -1.
</event>
<event>
 5   0  0.9905335E-08  0.3602617E+04  0.7818609E-02  0.8089893E-01
       -2   -1    0    0    0  501  0.00000000000E+00  0.00000000000E+00  0.23503583539E+04  0.23503583539E+04  0.25500000920E-02 0. -1.
        2   -1    0    0  501    0  0.00000000000E+00  0.00000000000E+00 -0.13805177566E+04  0.13805177566E+04  0.25500000920E-02 0.  1.
    10030    2    1    2    0    0  0.00000000000E+00  0.00000000000E+00  0.96984059724E+03  0.37308761105E+04  0.36026165169E+04 0.  0.
        5    1    3    3  502    0  0.15397239567E+04 -0.29270463257E+03  0.14043711032E+04  0.21044491323E+04  0.46999998093E+01 0. -1.
       -5    1    3    3    0  502 -0.15397239567E+04  0.29270463257E+03 -0.43453050594E+03  0.16264269782E+04  0.46999998093E+01 0.  1.
</event>
<event>
 5   0  0.3215494E-08  0.3591778E+04  0.7818609E-02  0.8092378E-01
        1   -1    0    0  501    0  0.00000000000E+00  0.00000000000E+00  0.12997563604E+04  0.12997563604E+04  0.50400001928E-02 0.  1.
       -1   -1    0    0    0  501  0.00000000000E+00  0.00000000000E+00 -0.24814014659E+04  0.24814014659E+04  0.50400001928E-02 0. -1.
    10030    2    1    2    0    0  0.00000000000E+00  0.00000000000E+00 -0.11816451055E+04  0.37811578263E+04  0.35917780209E+04 0.  0.
        4    1    3    3  502    0  0.11403885568E+04  0.36627148535E+03 -0.19994999897E+04  0.23308030125E+04  0.12699999809E+01 0. -1.
       -4    1    3    3    0  502 -0.11403885568E+04 -0.36627148535E+03  0.81785488417E+03  0.14503548138E+04  0.12699999809E+01 0.  1.
</event>
<event>
 5   0  0.1044678E-07  0.3599725E+04  0.7818609E-02  0.8090555E-01
        2   -1    0    0  501    0  0.00000000000E+00  0.00000000000E+00  0.16477424221E+04  0.16477424221E+04  0.25500000920E-02 0. -1.
       -2   -1    0    0    0  501  0.00000000000E+00  0.00000000000E+00 -0.19660262360E+04  0.19660262360E+04  0.25500000920E-02 0.  1.
    10030    2    1    2    0    0  0.00000000000E+00  0.00000000000E+00 -0.31828381392E+03  0.36137686580E+04  0.35997248961E+04 0.  0.
        2    1    3    3  502    0 -0.48016049893E+03 -0.12626580623E+04  0.10348869495E+04  0.17017198610E+04  0.25500000920E-02 0. -1.
       -2    1    3    3    0  502  0.48016049893E+03  0.12626580623E+04 -0.13531707634E+04  0.19120487970E+04  0.25500000920E-02 0.  1.
</event>
<event>
 5   0  0.1021087E-07  0.3603965E+04  0.7818609E-02  0.8089584E-01
        2   -1    0    0  501    0  0.00000000000E+00  0.00000000000E+00  0.13712473936E+04  0.13712473936E+04  0.25500000920E-02 0. -1.
       -2   -1    0    0    0  501  0.00000000000E+00  0.00000000000E+00 -0.23680192686E+04  0.23680192686E+04  0.25500000920E-02 0.  1.
    10030    2    1    2    0    0  0.00000000000E+00  0.00000000000E+00 -0.99677187497E+03  0.37392666622E+04  0.36039646225E+04 0.  0.
        3    1    3    3  502    0  0.49458905361E+03 -0.11586780085E+04  0.83838897192E+03  0.15132908305E+04  0.10100000352E+00 0. -1.
       -3    1    3    3    0  502 -0.49458905361E+03  0.11586780085E+04 -0.18351608469E+04  0.22259758317E+04  0.10100000352E+00 0.  1.
</event>
<event>
 5   0  0.3212523E-08  0.3596080E+04  0.7818609E-02  0.8091390E-01
       -1   -1    0    0    0  501  0.00000000000E+00  0.00000000000E+00  0.18120801249E+04  0.18120801249E+04  0.50400001928E-02 0.  1.
        1   -1    0    0  501    0  0.00000000000E+00  0.00000000000E+00 -0.17841082467E+04  0.17841082467E+04  0.50400001928E-02 0. -1.
    10030    2    1    2    0    0  0.00000000000E+00  0.00000000000E+00  0.27971878285E+02  0.35961883716E+04  0.35960795845E+04 0.  0.
        3    1    3    3  502    0  0.22315571942E+03  0.39652489496E+03  0.17535547642E+04  0.18116249029E+04  0.10100000352E+00 0.  1.
       -3    1    3    3    0  502 -0.22315571942E+03 -0.39652489496E+03 -0.17255828859E+04  0.17845634687E+04  0.10100000352E+00 0. -1.
</event>
<event>
 5   0  0.1021087E-07  0.3612874E+04  0.7818609E-02  0.8087549E-01
       -2   -1    0    0    0  501  0.00000000000E+00  0.00000000000E+00  0.10007217917E+04  0.10007217917E+04  0.25500000920E-02 0.  1.
        2   -1    0    0  501    0  0.00000000000E+00  0.00000000000E+00 -0.32608601981E+04  0.32608601981E+04  0.25500000920E-02 0. -1.
    10030    2    1    2    0    0  0.00000000000E+00  0.00000000000E+00 -0.22601384064E+04  0.42615819898E+04  0.36128735709E+04 0.  0.
        3    1    3    3  502    0  0.95393934309E+03  0.13263140628E+03 -0.29327523910E+04  0.30868475760E+04  0.10100000352E+00 0. -1.
       -3    1    3    3    0  502 -0.95393934309E+03 -0.13263140628E+03  0.67261398468E+03  0.11747344137E+04  0.10100000352E+00 0.  1.
</event>
<event>
 5   0  0.3202875E-08  0.3600077E+04  0.7818609E-02  0.8090474E-01
       -1   -1    0    0    0  501  0.00000000000E+00  0.00000000000E+00  0.13137340958E+04  0.13137340958E+04  0.50400001928E-02 0.  1.
        1   -1    0    0  501    0  0.00000000000E+00  0.00000000000E+00 -0.24663576669E+04  0.24663576669E+04  0.50400001928E-02 0. -1.
    10030    2    1    2    0    0  0.00000000000E+00  0.00000000000E+00 -0.11526235711E+04  0.37800917627E+04  0.36000767545E+04 0.  0.
        1    1    3    3  502    0 -0.22086530943E+02 -0.38885613656E+03  0.12689596314E+04  0.13273867017E+04  0.50400001928E-02 0.  1.
       -1    1    3    3    0  502  0.22086530943E+02  0.38885613656E+03 -0.24215832025E+04  0.24527050610E+04  0.50400001928E-02 0. -1.
</event>
<event>
 5   0  0.9905335E-08  0.3604303E+04  0.7818609E-02  0.8089507E-01
       -2   -1    0    0    0  501  0.00000000000E+00  0.00000000000E+00  0.13901307109E+04  0.13901307109E+04  0.25500000920E-02 0.  1.
        2   -1    0    0  501    0  0.00000000000E+00  0.00000000000E+00 -0.23362911507E+04  0.23362911507E+04  0.25500000920E-02 0. -1.
    10030    2    1    2    0    0  0.00000000000E+00  0.00000000000E+00 -0.94616043973E+03  0.37264218616E+04  0.36043030273E+04 0.  0.
        5    1    3    3  502    0 -0.60770103953E+03 -0.16714799168E+04 -0.17239607667E+03  0.17868654574E+04  0.46999998093E+01 0.  1.
       -5    1    3    3    0  502  0.60770103953E+03  0.16714799168E+04 -0.77376436307E+03  0.19395564042E+04  0.46999998093E+01 0. -1.
</event>
<event>
 5   0  0.3212523E-08  0.3598618E+04  0.7818609E-02  0.8090808E-01
       -1   -1    0    0    0  501  0.00000000000E+00  0.00000000000E+00  0.10872459268E+04  0.10872459268E+04  0.50400001928E-02 0. -1.
        1   -1    0    0  501    0  0.00000000000E+00  0.00000000000E+00 -0.29777194895E+04  0.29777194895E+04  0.50400001928E-02 0.  1.
    10030    2    1    2    0    0  0.00000000000E+00  0.00000000000E+00 -0.18904735627E+04  0.40649654163E+04  0.35986182827E+04 0.  0.
        3    1    3    3  502    0  0.17617988357E+04 -0.31464643684E+03 -0.73519409798E+03  0.19347991858E+04  0.10100000352E+00 0.  1.
       -3    1    3    3    0  502 -0.17617988357E+04  0.31464643684E+03 -0.11552794647E+04  0.21301662305E+04  0.10100000352E+00 0. -1.
</event>
<event>
 5   0  0.1044678E-07  0.3600140E+04  0.7818609E-02  0.8090460E-01
       -2   -1    0    0    0  501  0.00000000000E+00  0.00000000000E+00  0.15102380895E+04  0.15102380895E+04  0.25500000920E-02 0.  1.
        2   -1    0    0  501    0  0.00000000000E+00  0.00000000000E+00 -0.21455244108E+04  0.21455244108E+04  0.25500000920E-02 0. -1.
    10030    2    1    2    0    0  0.00000000000E+00  0.00000000000E+00 -0.63528632130E+03  0.36557625003E+04  0.36001403790E+04 0.  0.
        2    1    3    3  502    0  0.12510574841E+04 -0.12168020626E+04  0.13019284757E+03  0.17500577892E+04  0.25500000920E-02 0.  1.
       -2    1    3    3    0  502 -0.12510574841E+04  0.12168020626E+04 -0.76547916886E+03  0.19057047111E+04  0.25500000920E-02 0. -1.
</event>
<event>
 5   0  0.3279988E-08  0.3594875E+04  0.7818609E-02  0.8091667E-01
       -1   -1    0    0    0  501  0.00000000000E+00  0.00000000000E+00  0.17744716009E+04  0.17744716009E+04  0.50400001928E-02 0.  1.
        1   -1    0    0  501    0  0.00000000000E+00  0.00000000000E+00 -0.18207001909E+04  0.18207001909E+04  0.50400001928E-02 0. -1.
    10030    2    1    2    0    0  0.00000000000E+00  0.00000000000E+00 -0.46228590003E+02  0.35951717918E+04  0.35948745639E+04 0.  0.
        5    1    3    3  502    0  0.83361440239E+03 -0.15131133189E+04 -0.51947559560E+03  0.18039683678E+04  0.46999998093E+01 0. -1.
       -5    1    3    3    0  502 -0.83361440239E+03  0.15131133189E+04  0.47324700559E+03  0.17912034240E+04  0.46999998093E+01 0.  1.
</event>
<event>
 5   0  0.3202875E-08  0.3597871E+04  0.7818609E-02  0.8090980E-01
       -1   -1    0    0    0  501  0.00000000000E+00  0.00000000000E+00  0.18266375346E+04  0.18266375346E+04  0.50400001928E-02 0.  1.
        1   -1    0    0  501    0  0.00000000000E+00  0.00000000000E+00 -0.17716537015E+04  0.17716537015E+04  0.50400001928E-02 0. -1.
    10030    2    1    2    0    0  0.00000000000E+00  0.00000000000E+00  0.54983833076E+02  0.35982912362E+04  0.35978711203E+04 0.  0.
        2    1    3    3  502    0 -0.15560830598E+04 -0.82862836650E+03 -0.33052989846E+03  0.17936748514E+04  0.25500000920E-02 0. -1.
       -2    1    3    3    0  502  0.15560830598E+04  0.82862836650E+03  0.38551373154E+03  0.18046163847E+04  0.25500000920E-02 0.  1.
</event>
<event>
 5   0  0.3202875E-08  0.3601152E+04  0.7818609E-02  0.8090228E-01
        3   -1    0    0  501    0  0.00000000000E+00  0.00000000000E+00  0.22240711072E+04  0.22240711095E+04  0.10100000352E+00 0. -1.
       -3   -1    0    0    0  501  0.00000000000E+00  0.00000000000E+00 -0.14577208460E+04  0.14577208495E+04  0.10100000352E+00 0.  1.
    10030    2    1    2    0    0  0.00000000000E+00  0.00000000000E+00  0.76635026122E+03  0.36817919589E+04  0.36011524969E+04 0.  0.
        2    1    3    3  502    0 -0.11120914503E+04 -0.13697194561E+04  0.75066243516E+03  0.19173869912E+04  0.25500000920E-02 0.  1.
       -2    1    3    3    0  502  0.11120914503E+04  0.13697194561E+04  0.15687826055E+02  0.17644049678E+04  0.25500000920E-02 0. -1.
</event>
<event>
 5   0  0.9905335E-08  0.3604485E+04  0.7818609E-02  0.8089465E-01
       -2   -1    0    0    0  501  0.00000000000E+00  0.00000000000E+00  0.13434797276E+04  0.13434797276E+04  0.25500000920E-02 0.  1.
        2   -1    0    0  501    0  0.00000000000E+00  0.00000000000E+00 -0.24176601667E+04  0.24176601667E+04  0.25500000920E-02 0. -1.
    10030    2    1    2    0    0  0.00000000000E+00  0.00000000000E+00 -0.10741804391E+04  0.37611398943E+04  0.36044846634E+04 0.  0.
        5    1    3    3  502    0  0.19384467036E+03 -0.16812350857E+04  0.10945855134E+03  0.16959158098E+04  0.46999998093E+01 0.  1.
       -5    1    3    3    0  502 -0.19384467036E+03  0.16812350857E+04 -0.11836389905E+04  0.20652240845E+04  0.46999998093E+01 0. -1.
</event>
<event>
 5   0  0.3279988E-08  0.3595035E+04  0.7818609E-02  0.8091630E-01
        1   -1    0    0  501    0  0.00000000000E+00  0.00000000000E+00  0.12353584850E+04  0.12353584851E+04  0.50400001928E-02 0.  1.
       -1   -1    0    0    0  501  0.00000000000E+00  0.00000000000E+00 -0.26154912438E+04  0.26154912438E+04  0.50400001928E-02 0. -1.
    10030    2    1    2    0    0  0.00000000000E+00  0.00000000000E+00 -0.13801327587E+04  0.38508497289E+04  0.35950350767E+04 0.  0.
        5    1    3    3  502    0 -0.33851961435E+03 -0.15059458792E+04 -0.16767990323E+04  0.22790668277E+04  0.46999998093E+01 0. -1.
       -5    1    3    3    0  502  0.33851961435E+03  0.15059458792E+04  0.29666627359E+03  0.15717829011E+04  0.46999998093E+01 0.  1.
</event>
<event>
 5   0  0.1017794E-07  0.3605058E+04  0.7818609E-02  0.8089334E-01
       -2   -1    0    0    0  501  0.00000000000E+00  0.00000000000E+00  0.17412749759E+04  0.17412749759E+04  0.25500000920E-02 0. -1.
        2   -1    0    0  501    0  0.00000000000E+00  0.00000000000E+00 -0.18659377833E+04  0.18659377833E+04  0.25500000920E-02 0.  1.
    10030    2    1    2    0    0  0.00000000000E+00  0.00000000000E+00 -0.12466280740E+03  0.36072127591E+04  0.36050579848E+04 0.  0.
        1    1    3    3  502    0  0.16765620032E+04 -0.58229469611E+03 -0.37745377003E+03  0.18144967931E+04  0.50400001928E-02 0. -1.
       -1    1    3    3    0  502 -0.16765620032E+04  0.58229469611E+03  0.25279096263E+03  0.17927159660E+04  0.50400001928E-02 0.  1.
</event>
<event>
 5   0  0.9905335E-08  0.3593163E+04  0.7818609E-02  0.8092060E-01
       -2   -1    0    0    0  501  0.00000000000E+00  0.00000000000E+00  0.24775671139E+04  0.24775671139E+04  0.25500000920E-02 0. -1.
        2   -1    0    0  501    0  0.00000000000E+00  0.00000000000E+00 -0.13027721448E+04  0.13027721448E+04  0.25500000920E-02 0.  1.
    10030    2    1    2    0    0  0.00000000000E+00  0.00000000000E+00  0.11747949692E+04  0.37803392587E+04  0.35931631874E+04 0.  0.
        5    1    3    3  502    0 -0.16671680429E+04  0.33338066743E+03  0.11982377517E+04  0.20799970559E+04  0.46999998093E+01 0. -1.
       -5    1    3    3    0  502  0.16671680429E+04 -0.33338066743E+03 -0.23442782502E+02  0.17003422029E+04  0.46999998093E+01 0.  1.
</event>
<event>
 5   0  0.9905335E-08  0.3601410E+04  0.7818609E-02  0.8090169E-01
       -2   -1    0    0    0  501  0.00000000000E+00  0.00000000000E+00  0.16004058219E+04  0.16004058219E+04  0.25500000920E-02 0.  1.
        2   -1    0    0  501    0  0.00000000000E+00  0.00000000000E+00 -0.20260731923E+04  0.20260731923E+04  0.25500000920E-02 0. -1.
    10030    2    1    2    0    0  0.00000000000E+00  0.00000000000E+00 -0.42566737044E+03  0.36264790142E+04  0.36014104640E+04 0.  0.
        5    1    3    3  502    0 -0.68091337093E+03  0.11774341992E+04 -0.14010998314E+04  0.19527153248E+04  0.46999998093E+01 0. -1.
       -5    1    3    3    0  502  0.68091337093E+03 -0.11774341992E+04  0.97543246095E+03  0.16737636894E+04  0.46999998093E+01 0.  1.
</event>
<event>
 5   0  0.3279988E-08  0.3603378E+04  0.7818609E-02  0.8089718E-01
       -1   -1    0    0    0  501  0.00000000000E+00  0.00000000000E+00  0.11133861636E+04  0.11133861636E+04  0.50400001928E-02 0.  1.
        1   -1    0    0  501    0  0.00000000000E+00  0.00000000000E+00 -0.29155054601E+04  0.29155054601E+04  0.50400001928E-02 0. -1.
    10030    2    1    2    0    0  0.00000000000E+00  0.00000000000E+00 -0.18021192966E+04  0.40288916237E+04  0.36033781035E+04 0.  0.
        5    1    3    3  502    0 -0.13089788043E+04  0.52218773057E+03  0.35396832898E+03  0.14530730209E+04  0.46999998093E+01 0.  1.
       -5    1    3    3    0  502  0.13089788043E+04 -0.52218773057E+03 -0.21560876255E+04  0.25758186029E+04  0.46999998093E+01 0. -1.
</event>
<event>
 5   0  0.3202875E-08  0.3599423E+04  0.7818609E-02  0.8090624E-01
       -3   -1    0    0    0  501  0.00000000000E+00  0.00000000000E+00  0.16130894151E+04  0.16130894182E+04  0.10100000352E+00 0.  1.
        3   -1    0    0  501    0  0.00000000000E+00  0.00000000000E+00 -0.20079238231E+04  0.20079238256E+04  0.10100000352E+00 0. -1.
    10030    2    1    2    0    0  0.00000000000E+00  0.00000000000E+00 -0.39483440802E+03  0.36210132439E+04  0.35994225512E+04 0.  0.
        2    1    3    3  502    0 -0.35471145452E+03 -0.16266229177E+04 -0.88506573188E+03  0.18854876510E+04  0.25500000920E-02 0. -1.
       -2    1    3    3    0  502  0.35471145452E+03  0.16266229177E+04  0.49023132386E+03  0.17355255928E+04  0.25500000920E-02 0.  1.
</event>
<event>
 5   0  0.9905335E-08  0.3596381E+04  0.7818609E-02  0.8091321E-01
        2   -1    0    0  501    0  0.00000000000E+00  0.00000000000E+00  0.11732080640E+04  0.11732080640E+04  0.25500000920E-02 0. -1.
       -2   -1    0    0    0  501  0.00000000000E+00  0.00000000000E+00 -0.27561085483E+04  0.27561085483E+04  0.25500000920E-02 0.  1.
    10030    2    1    2    0    0  0.00000000000E+00  0.00000000000E+00 -0.15829004844E+04  0.39293166123E+04  0.35963808330E+04 0.  0.
        5    1    3    3  502    0  0.15615143918E+04 -0.83951862648E+03 -0.46304465651E+03  0.18323621814E+04  0.46999998093E+01 0. -1.
       -5    1    3    3    0  502 -0.15615143918E+04  0.83951862648E+03 -0.11198558279E+04  0.20969544309E+04  0.46999998093E+01 0.  1.
</event>
<event>
 5   0  0.3215494E-08  0.3597793E+04  0.7818609E-02  0.8090997E-01
       -1   -1    0    0    0  501  0.00000000000E+00  0.00000000000E+00  0.18338900012E+04  0.18338900012E+04  0.50400001928E-02 0.  1.
        1   -1    0    0  501    0  0.00000000000E+00  0.00000000000E+00 -0.17645709294E+04  0.17645709294E+04  0.50400001928E-02 0. -1.
    10030    2    1    2    0    0  0.00000000000E+00  0.00000000000E+00  0.69319071823E+02  0.35984609306E+04  0.35977932036E+04 0.  0.
        4    1    3    3  502    0 -0.13137673440E+04 -0.56331573046E+03  0.11269785769E+04  0.18202723895E+04  0.12699999809E+01 0.  1.
       -4    1    3    3    0  502  0.13137673440E+04  0.56331573046E+03 -0.10576595051E+04  0.17781885411E+04  0.12699999809E+01 0. -1.
</event>
<event>
 5   0  0.1017794E-07  0.3599133E+04  0.7818609E-02  0.8090690E-01
        2   -1    0    0  501    0  0.00000000000E+00  0.00000000000E+00  0.17789937951E+04  0.17789937951E+04  0.25500000920E-02 0.  1.
       -2   -1    0    0    0  501  0.00000000000E+00  0.00000000000E+00 -0.18203772240E+04  0.18203772240E+04  0.25500000920E-02 0. -1.
    10030    2    1    2    0    0  0.00000000000E+00  0.00000000000E+00 -0.41383428866E+02  0.35993710191E+04  0.35991331102E+04 0.  0.
        1    1    3    3  502    0  0.55589531347E+03 -0.58247724005E+03  0.15888059986E+04  0.17811804614E+04  0.50400001928E-02 0.  1.
       -1    1    3    3    0  502 -0.55589531347E+03  0.58247724005E+03 -0.16301894275E+04  0.18181905577E+04  0.50400001928E-02 0. -1.
</event>
<event>
 5   0  0.3279988E-08  0.3593451E+04  0.7818609E-02  0.8091993E-01
        1   -1    0    0  501    0  0.00000000000E+00  0.00000000000E+00  0.19100325460E+04  0.19100325460E+04  0.50400001928E-02 0.  1.
       -1   -1    0    0    0  501  0.00000000000E+00  0.00000000000E+00 -0.16901401981E+04  0.16901401981E+04  0.50400001928E-02 0. -1.
    10030    2    1    2    0    0  0.00000000000E+00  0.00000000000E+00  0.21989234786E+03  0.36001727441E+04  0.35934511466E+04 0.  0.
        5    1    3    3  502    0 -0.32572170567E+00  0.61857401337E+03 -0.15800899428E+04  0.16968618781E+04  0.46999998093E+01 0. -1.
       -5    1    3    3    0  502  0.32572170567E+00 -0.61857401337E+03  0.17999822906E+04  0.19033108660E+04  0.46999998093E+01 0.  1.
</event>
<event>
 5   0  0.3202875E-08  0.3588501E+04  0.7818609E-02  0.8093131E-01
       -1   -1    0    0    0  501  0.00000000000E+00  0.00000000000E+00  0.12851349412E+04  0.12851349412E+04  0.50400001928E-02 0.  1.
        1   -1    0    0  501    0  0.00000000000E+00  0.00000000000E+00 -0.25050559004E+04  0.25050559004E+04  0.50400001928E-02 0. -1.
    10030    2    1    2    0    0  0.00000000000E+00  0.00000000000E+00 -0.12199209592E+04  0.37901908416E+04  0.35885010059E+04 0.  0.
        1    1    3    3  502    0  0.11572299120E+04 -0.60628237721E+03  0.68903168994E+03  0.14769983277E+04  0.50400001928E-02 0.  1.
       -1    1    3    3    0  502 -0.11572299120E+04  0.60628237721E+03 -0.19089526491E+04  0.23131925140E+04  0.50400001928E-02 0. -1.
</event>
<event>
 5   0  0.3202875E-08  0.3602788E+04  0.7818609E-02  0.8089853E-01
        1   -1    0    0  501    0  0.00000000000E+00  0.00000000000E+00  0.15683667794E+04  0.15683667794E+04  0.50400001928E-02 0.  1.
       -1   -1    0    0    0  501  0.00000000000E+00  0.00000000000E+00 -0.20690442441E+04  0.20690442441E+04  0.50400001928E-02 0. -1.
    10030    2    1    2    0    0  0.00000000000E+00  0.00000000000E+00 -0.50067746474E+03  0.36374110235E+04  0.36027879524E+04 0.  0.
        1    1    3    3  502    0 -0.84239660468E+03  0.15765733852E+04 -0.25024662247E+02  0.17876917834E+04  0.50400001928E-02 0. -1.
       -1    1    3    3    0  502  0.84239660468E+03 -0.15765733852E+04 -0.47565280249E+03  0.18497192401E+04  0.50400001928E-02 0.  1.
</event>
<event>
 5   0  0.3215494E-08  0.3597790E+04  0.7818609E-02  0.8090998E-01
       -1   -1    0    0    0  501  0.00000000000E+00  0.00000000000E+00  0.12548608844E+04  0.12548608844E+04  0.50400001928E-02 0. -1.
        1   -1    0    0  501    0  0.00000000000E+00  0.00000000000E+00 -0.25787908446E+04  0.25787908447E+04  0.50400001928E-02 0.  1.
    10030    2    1    2    0    0  0.00000000000E+00  0.00000000000E+00 -0.13239299603E+04  0.38336517290E+04  0.35977902996E+04 0.  0.
        4    1    3    3  502    0 -0.91364215319E+03  0.13829612742E+04  0.82933715749E+02  0.16595793094E+04  0.12699999809E+01 0. -1.
       -4    1    3    3    0  502  0.91364215319E+03 -0.13829612742E+04 -0.14068636760E+04  0.21740724196E+04  0.12699999809E+01 0.  1.
</event>
<event>
 5   0  0.1029908E-07  0.3591958E+04  0.7818609E-02  0.8092336E-01
       -2   -1    0    0    0  501  0.00000000000E+00  0.00000000000E+00  0.16201715943E+04  0.16201715943E+04  0.25500000920E-02 0. -1.
        2   -1    0    0  501    0  0.00000000000E+00  0.00000000000E+00 -0.19908636849E+04  0.19908636849E+04  0.25500000920E-02 0.  1.
    10030    2    1    2    0    0  0.00000000000E+00  0.00000000000E+00 -0.37069209063E+03  0.36110352792E+04  0.35919581236E+04 0.  0.
        4    1    3    3  502    0 -0.92842765613E+03  0.13343516623E+04 -0.95298969703E+03  0.18843203674E+04  0.12699999809E+01 0. -1.
       -4    1    3    3    0  502  0.92842765613E+03 -0.13343516623E+04  0.58229760640E+03  0.17267149118E+04  0.12699999809E+01 0.  1.
</event>
<event>
 5   0  0.1021087E-07  0.3608113E+04  0.7818609E-02  0.8088636E-01
        2   -1    0    0  501    0  0.00000000000E+00  0.00000000000E+00  0.32396926446E+04  0.32396926446E+04  0.25500000920E-02 0. -1.
       -2   -1    0    0    0  501  0.00000000000E+00  0.00000000000E+00 -0.10046074627E+04  0.10046074627E+04  0.25500000920E-02 0.  1.
    10030    2    1    2    0    0  0.00000000000E+00  0.00000000000E+00  0.22350851818E+04  0.42443001073E+04  0.36081127519E+04 0.  0.
        3    1    3    3  502    0  0.63506691239E+03 -0.59029645695E+03 -0.74344818264E+03  0.11421362006E+04  0.10100000352E+00 0.  1.
       -3    1    3    3    0  502 -0.63506691239E+03  0.59029645695E+03  0.29785333645E+04  0.31021639067E+04  0.10100000352E+00 0. -1.
</event>
<event>
 5   0  0.3202875E-08  0.3611446E+04  0.7818609E-02  0.8087875E-01
        1   -1    0    0  501    0  0.00000000000E+00  0.00000000000E+00  0.28584965216E+04  0.28584965216E+04  0.50400001928E-02 0.  1.
       -1   -1    0    0    0  501  0.00000000000E+00  0.00000000000E+00 -0.11406818114E+04  0.11406818114E+04  0.50400001928E-02 0. -1.
    10030    2    1    2    0    0  0.00000000000E+00  0.00000000000E+00  0.17178147102E+04  0.39991783330E+04  0.36114456885E+04 0.  0.
        1    1    3    3  502    0  0.56791236566E+03 -0.62146835798E+03  0.26278773026E+04  0.27594359012E+04  0.50400001928E-02 0.  1.
       -1    1    3    3    0  502 -0.56791236566E+03  0.62146835798E+03 -0.91006259249E+03  0.12397424318E+04  0.50400001928E-02 0. -1.
</event>
<event>
 5   0  0.9905335E-08  0.3598911E+04  0.7818609E-02  0.8090741E-01
        2   -1    0    0  501    0  0.00000000000E+00  0.00000000000E+00  0.32075790258E+04  0.32075790258E+04  0.25500000920E-02 0. -1.
       -2   -1    0    0    0  501  0.00000000000E+00  0.00000000000E+00 -0.10094968287E+04  0.10094968287E+04  0.25500000920E-02 0.  1.
    10030    2    1    2    0    0  0.00000000000E+00  0.00000000000E+00  0.21980821971E+04  0.42170758545E+04  0.35989114211E+04 0.  0.
        5    1    3    3  502    0  0.16702499936E+04  0.44769516617E+02  0.31625395872E+03  0.17005228629E+04  0.46999998093E+01 0.  1.
       -5    1    3    3    0  502 -0.16702499936E+04 -0.44769516617E+02  0.18818282384E+04  0.25165529916E+04  0.46999998093E+01 0. -1.
</event>
<event>
 5   0  0.1021087E-07  0.3601000E+04  0.7818609E-02  0.8090263E-01
       -2   -1    0    0    0  501  0.00000000000E+00  0.00000000000E+00  0.19954108302E+04  0.19954108302E+04  0.25500000920E-02 0. -1.
        2   -1    0    0  501    0  0.00000000000E+00  0.00000000000E+00 -0.16246283600E+04  0.16246283600E+04  0.25500000920E-02 0.  1.
    10030    2    1    2    0    0  0.00000000000E+00  0.00000000000E+00  0.37078247020E+03  0.36200391903E+04  0.36010004303E+04 0.  0.
        3    1    3    3  502    0 -0.61655536619E+03  0.91167368398E+03  0.16178853129E+04  0.19567427837E+04  0.10100000352E+00 0. -1.
       -3    1    3    3    0  502  0.61655536619E+03 -0.91167368398E+03 -0.12471028427E+04  0.16632964066E+04  0.10100000352E+00 0.  1.
</event>
<event>
 5   0  0.1029908E-07  0.3601382E+04  0.7818609E-02  0.8090175E-01
       -2   -1    0    0    0  501  0.00000000000E+00  0.00000000000E+00  0.12386196219E+04  0.12386196219E+04  0.25500000920E-02 0.  1.
        2   -1    0    0  501    0  0.00000000000E+00  0.00000000000E+00 -0.26178239337E+04  0.26178239337E+04  0.25500000920E-02 0. -1.
    10030    2    1    2    0    0  0.00000000000E+00  0.00000000000E+00 -0.13792043118E+04  0.38564435556E+04  0.36013820075E+04 0.  0.
        4    1    3    3  502    0 -0.32404063004E+03 -0.49413395226E+03  0.11318413555E+04  0.12768074090E+04  0.12699999809E+01 0.  1.
       -4    1    3    3    0  502  0.32404063004E+03  0.49413395226E+03 -0.25110456673E+04  0.25796361466E+04  0.12699999809E+01 0. -1.
</event>
<event>
 5   0  0.1044678E-07  0.3584545E+04  0.7818609E-02  0.8094041E-01
       -2   -1    0    0    0  501  0.00000000000E+00  0.00000000000E+00  0.12711226484E+04  0.12711226484E+04  0.25500000920E-02 0. -1.
        2   -1    0    0  501    0  0.00000000000E+00  0.00000000000E+00 -0.25270900470E+04  0.25270900470E+04  0.25500000920E-02 0.  1.
    10030    2    1    2    0    0  0.00000000000E+00  0.00000000000E+00 -0.12559673985E+04  0.37982126954E+04  0.35845453789E+04 0.  0.
        2    1    3    3  502    0 -0.47127177538E+03  0.41220189801E+03  0.11514743862E+04  0.13106871301E+04  0.25500000920E-02 0. -1.
       -2    1    3    3    0  502  0.47127177538E+03 -0.41220189801E+03 -0.24074417847E+04  0.24875255653E+04  0.25500000920E-02 0.  1.
</event>
<event>
 5   0  0.1044678E-07  0.3602677E+04  0.7818609E-02  0.8089879E-01
       -2   -1    0    0    0  501  0.00000000000E+00  0.00000000000E+00  0.13002555512E+04  0.13002555512E+04  0.25500000920E-02 0. -1.
        2   -1    0    0  501    0  0.00000000000E+00  0.00000000000E+00 -0.24955255896E+04  0.24955255896E+04  0.25500000920E-02 0.  1.
    10030    2    1    2    0    0  0.00000000000E+00  0.00000000000E+00 -0.11952700384E+04  0.37957811408E+04  0.36026773384E+04 0.  0.
        2    1    3    3  502    0 -0.36968431251E+03 -0.72509830581E+03 -0.22907500129E+04  0.24310429173E+04  0.25500000920E-02 0.  1.
       -2    1    3    3    0  502  0.36968431251E+03  0.72509830581E+03  0.10954799746E+04  0.13647382235E+04  0.25500000920E-02 0. -1.
</event>
<event>
 5   0  0.1044678E-07  0.3538135E+04  0.7818609E-02  0.8104812E-01
        2   -1    0    0  501    0  0.00000000000E+00  0.00000000000E+00  0.17694291668E+04  0.17694291669E+04  0.25500000920E-02 0. -1.
       -2   -1    0    0    0  501  0.00000000000E+00  0.00000000000E+00 -0.17687054406E+04  0.17687054406E+04  0.25500000920E-02 0.  1.
    10030    2    1    2    0    0  0.00000000000E+00  0.00000000000E+00  0.72372626183E+00  0.35381346074E+04  0.35381345334E+04 0.  0.
        2    1    3    3  502    0 -0.62986388148E+03 -0.47453978369E+03 -0.15832045496E+04  0.17687433848E+04  0.25500000920E-02 0.  1.
       -2    1    3    3    0  502  0.62986388148E+03  0.47453978369E+03  0.15839282759E+04  0.17693912226E+04  0.25500000920E-02 0. -1.
</event>
<event>
 5   0  0.1021087E-07  0.3610920E+04  0.7818609E-02  0.8087995E-01
        2   -1    0    0  501    0  0.00000000000E+00  0.00000000000E+00  0.94254072078E+03  0.94254072078E+03  0.25500000920E-02 0.  1.
       -2   -1    0    0    0  501  0.00000000000E+00  0.00000000000E+00 -0.34584035302E+04  0.34584035302E+04  0.25500000920E-02 0. -1.
    10030    2    1    2    0    0  0.00000000000E+00  0.00000000000E+00 -0.25158628094E+04  0.44009442509E+04  0.36109201908E+04 0.  0.
        3    1    3    3  502    0  0.13104700671E+04 -0.11177053713E+04 -0.19177548993E+04  0.25776696759E+04  0.10100000352E+00 0.  1.
       -3    1    3    3    0  502 -0.13104700671E+04  0.11177053713E+04 -0.59810791009E+03  0.18232745751E+04  0.10100000352E+00 0. -1.
</event>
<event>
 5   0  0.1029908E-07  0.3597123E+04  0.7818609E-02  0.8091151E-01
        2   -1    0    0  501    0  0.00000000000E+00  0.00000000000E+00  0.20612292653E+04  0.20612292653E+04  0.25500000920E-02 0.  1.
       -2   -1    0    0    0  501  0.00000000000E+00  0.00000000000E+00 -0.15693662109E+04  0.15693662109E+04  0.25500000920E-02 0. -1.
    10030    2    1    2    0    0  0.00000000000E+00  0.00000000000E+00  0.49186305442E+03  0.36305954762E+04  0.35971230514E+04 0.  0.
        4    1    3    3  502    0 -0.12174925786E+04 -0.61199654320E+03 -0.93887170718E+03  0.16547838660E+04  0.12699999809E+01 0. -1.
       -4    1    3    3    0  502  0.12174925786E+04  0.61199654320E+03  0.14307347616E+04  0.19758116101E+04  0.12699999809E+01 0.  1.
</event>
<event>
 5   0  0.1017794E-07  0.3599151E+04  0.7818609E-02  0.8090686E-01
        2   -1    0    0  501    0  0.00000000000E+00  0.00000000000E+00  0.18973543082E+04  0.18973543082E+04  0.25500000920E-02 0.  1.
       -2   -1    0    0    0  501  0.00000000000E+00  0.00000000000E+00 -0.17068355028E+04  0.17068355028E+04  0.25500000920E-02 0. -1.
    10030    2    1    2    0    0  0.00000000000E+00  0.00000000000E+00  0.19051880532E+03  0.36041898110E+04  0.35991508413E+04 0.  0.
        1    1    3    3  502    0  0.13122054137E+04  0.47955082311E+03  0.12311400412E+04  0.18621379758E+04  0.50400001928E-02 0.  1.
       -1    1    3    3    0  502 -0.13122054137E+04 -0.47955082311E+03 -0.10406212359E+04  0.17420518352E+04  0.50400001928E-02 0. -1.
</event>
<event>
 5   0  0.3202875E-08  0.3602948E+04  0.7818609E-02  0.8089817E-01
       -1   -1    0    0    0  501  0.00000000000E+00  0.00000000000E+00  0.21611405371E+04  0.21611405371E+04  0.50400001928E-02 0.  1.
        1   -1    0    0  501    0  0.00000000000E+00  0.00000000000E+00 -0.15016644174E+04  0.15016644174E+04  0.50400001928E-02 0. -1.
    10030    2    1    2    0    0  0.00000000000E+00  0.00000000000E+00  0.65947611977E+03  0.36628049545E+04  0.36029475964E+04 0.  0.
        1    1    3    3  502    0 -0.42740174663E+03  0.17476761305E+04  0.42215339593E+03  0.18480415580E+04  0.50400001928E-02 0.  1.
       -1    1    3    3    0  502  0.42740174663E+03 -0.17476761305E+04  0.23732272383E+03  0.18147633966E+04  0.50400001928E-02 0. -1.
</event>
<event>
 5   0  0.3212523E-08  0.3600437E+04  0.7818609E-02  0.8090392E-01
        1   -1    0    0  501    0  0.00000000000E+00  0.00000000000E+00  0.29616747583E+04  0.29616747583E+04  0.50400001928E-02 0. -1.
       -1   -1    0    0    0  501  0.00000000000E+00  0.00000000000E+00 -0.10942414125E+04  0.10942414125E+04  0.50400001928E-02 0.  1.
    10030    2    1    2    0    0  0.00000000000E+00  0.00000000000E+00  0.18674333458E+04  0.40559161708E+04  0.36004372907E+04 0.  0.
        3    1    3    3  502    0  0.12587293290E+04  0.45196271330E+03  0.22912002221E+04  0.26529734800E+04  0.10100000352E+00 0. -1.
       -3    1    3    3    0  502 -0.12587293290E+04 -0.45196271330E+03 -0.42376687630E+03  0.14029426908E+04  0.10100000352E+00 0.  1.
</event>
<event>
 5   0  0.3202875E-08  0.3609983E+04  0.7818609E-02  0.8088209E-01
        1   -1    0    0  501    0  0.00000000000E+00  0.00000000000E+00  0.19656545840E+04  0.19656545840E+04  0.50400001928E-02 0. -1.
       -1   -1    0    0    0  501  0.00000000000E+00  0.00000000000E+00 -0.16574600191E+04  0.16574600191E+04  0.50400001928E-02 0.  1.
    10030    2    1    2    0    0  0.00000000000E+00  0.00000000000E+00  0.30819456493E+03  0.36231146031E+04  0.36099827614E+04 0.  0.
        1    1    3    3  502    0  0.52038908972E+03 -0.15891119343E+04 -0.52801634435E+03  0.17535343750E+04  0.50400001928E-02 0.  1.
       -1    1    3    3    0  502 -0.52038908972E+03  0.15891119343E+04  0.83621090929E+03  0.18695802281E+04  0.50400001928E-02 0. -1.
</event>
<event>
 5   0  0.1029908E-07  0.3611326E+04  0.7818609E-02  0.8087902E-01
        2   -1    0    0  501    0  0.00000000000E+00  0.00000000000E+00  0.15170158327E+04  0.15170158327E+04  0.25500000920E-02 0. -1.
       -2   -1    0    0    0  501  0.00000000000E+00  0.00000000000E+00 -0.21492322929E+04  0.21492322929E+04  0.25500000920E-02 0.  1.
    10030    2    1    2    0    0  0.00000000000E+00  0.00000000000E+00 -0.63221646024E+03  0.36662481256E+04  0.36113263029E+04 0.  0.
        4    1    3    3  502    0 -0.85770365245E+03 -0.56489500826E+03  0.11916232433E+04  0.15731272970E+04  0.12699999809E+01 0. -1.
       -4    1    3    3    0  502  0.85770365245E+03  0.56489500826E+03 -0.18238397036E+04  0.20931208286E+04  0.12699999809E+01 0.  1.
</event>
<event>
 5   0  0.1044678E-07  0.3603734E+04  0.7818609E-02  0.8089637E-01
       -2   -1    0    0    0  501  0.00000000000E+00  0.00000000000E+00  0.17655299095E+04  0.17655299095E+04  0.25500000920E-02 0. -1.
        2   -1    0    0  501    0  0.00000000000E+00  0.00000000000E+00 -0.18389517321E+04  0.18389517321E+04  0.25500000920E-02 0.  1.
    10030    2    1    2    0    0  0.00000000000E+00  0.00000000000E+00 -0.73421822605E+02  0.36044816416E+04  0.36037337777E+04 0.  0.
        2    1    3    3  502    0 -0.15396771027E+03 -0.44554143547E+03 -0.17761839668E+04  0.18376731783E+04  0.25500000920E-02 0.  1.
       -2    1    3    3    0  502  0.15396771027E+03  0.44554143547E+03  0.17027621441E+04  0.17668084633E+04  0.25500000920E-02 0. -1.
</event>
<event>
 5   0  0.1044678E-07  0.3596897E+04  0.7818609E-02  0.8091203E-01
        2   -1    0    0  501    0  0.00000000000E+00  0.00000000000E+00  0.26874767159E+04  0.26874767159E+04  0.25500000920E-02 0.  1.
       -2   -1    0    0    0  501  0.00000000000E+00  0.00000000000E+00 -0.12035147031E+04  0.12035147031E+04  0.25500000920E-02 0. -1.
    10030    2    1    2    0    0  0.00000000000E+00  0.00000000000E+00  0.14839620128E+04  0.38909914190E+04  0.35968974085E+04 0.  0.
        2    1    3    3  502    0  0.62070339765E+03  0.32784567967E+03  0.25331608679E+04  0.26286231149E+04  0.25500000920E-02 0.  1.
       -2    1    3    3    0  502 -0.62070339765E+03 -0.32784567967E+03 -0.10491988551E+04  0.12623683041E+04  0.25500000920E-02 0. -1.
</event>
<event>
 5   0  0.1017794E-07  0.3582760E+04  0.7818609E-02  0.8094452E-01
       -2   -1    0    0    0  501  0.00000000000E+00  0.00000000000E+00  0.13894312127E+04  0.13894312127E+04  0.25500000920E-02 0. -1.
        2   -1    0    0  501    0  0.00000000000E+00  0.00000000000E+00 -0.23096081529E+04  0.23096081529E+04  0.25500000920E-02 0.  1.
    10030    2    1    2    0    0  0.00000000000E+00  0.00000000000E+00 -0.92017694016E+03  0.36990393657E+04  0.35827596385E+04 0.  0.
        1    1    3    3  502    0 -0.52081637698E+03  0.94364469428E+02 -0.22270317596E+04  0.22890663621E+04  0.50400001928E-02 0.  1.
       -1    1    3    3    0  502  0.52081637698E+03 -0.94364469428E+02  0.13068548195E+04  0.14099730036E+04  0.50400001928E-02 0. -1.
</event>
<event>
 5   0  0.9905335E-08  0.3604228E+04  0.7818609E-02  0.8089524E-01
        2   -1    0    0  501    0  0.00000000000E+00  0.00000000000E+00  0.12437276813E+04  0.12437276813E+04  0.25500000920E-02 0.  1.
       -2   -1    0    0    0  501  0.00000000000E+00  0.00000000000E+00 -0.26111950719E+04  0.26111950719E+04  0.25500000920E-02 0. -1.
    10030    2    1    2    0    0  0.00000000000E+00  0.00000000000E+00 -0.13674673906E+04  0.38549227532E+04  0.36042284013E+04 0.  0.
        5    1    3    3  502    0 -0.35472438680E+03 -0.13551091997E+04  0.52890051323E+03  0.14973002961E+04  0.46999998093E+01 0.  1.
       -5    1    3    3    0  502  0.35472438680E+03  0.13551091997E+04 -0.18963679038E+04  0.23576224571E+04  0.46999998093E+01 0. -1.
</event>
<event>
 5   0  0.3202875E-08  0.3603235E+04  0.7818609E-02  0.8089751E-01
       -1   -1    0    0    0  501  0.00000000000E+00  0.00000000000E+00  0.12158980171E+04  0.12158980171E+04  0.50400001928E-02 0.  1.
        1   -1    0    0  501    0  0.00000000000E+00  0.00000000000E+00 -0.26694885303E+04  0.26694885303E+04  0.50400001928E-02 0. -1.
    10030    2    1    2    0    0  0.00000000000E+00  0.00000000000E+00 -0.14535905132E+04  0.38853865475E+04  0.36032351080E+04 0.  0.
        2    1    3    3  502    0  0.17755698366E+04  0.26840166177E+03 -0.57002100013E+03  0.18840413046E+04  0.25500000920E-02 0.  1.
       -2    1    3    3    0  502 -0.17755698366E+04 -0.26840166177E+03 -0.88356951309E+03  0.20013452429E+04  0.25500000920E-02 0. -1.
</event>
<event>
 5   0  0.3212523E-08  0.3616437E+04  0.7818609E-02  0.8086737E-01
        1   -1    0    0  501    0  0.00000000000E+00  0.00000000000E+00  0.28672832187E+04  0.28672832187E+04  0.50400001928E-02 0. -1.
       -1   -1    0    0    0  501  0.00000000000E+00  0.00000000000E+00 -0.11403320058E+04  0.11403320058E+04  0.50400001928E-02 0.  1.
    10030    2    1    2    0    0  0.00000000000E+00  0.00000000000E+00  0.17269512129E+04  0.40076152245E+04  0.36164373762E+04 0.  0.
        3    1    3    3  502    0  0.55448976618E+03 -0.15243539553E+04  0.17489977782E+04  0.23853945418E+04  0.10100000352E+00 0. -1.
       -3    1    3    3    0  502 -0.55448976618E+03  0.15243539553E+04 -0.22046565248E+02  0.16222206826E+04  0.10100000352E+00 0.  1.
</event>
<event>
 5   0  0.3202875E-08  0.3600581E+04  0.7818609E-02  0.8090359E-01
        1   -1    0    0  501    0  0.00000000000E+00  0.00000000000E+00  0.11139048431E+04  0.11139048431E+04  0.50400001928E-02 0.  1.
       -1   -1    0    0    0  501  0.00000000000E+00  0.00000000000E+00 -0.29096259175E+04  0.29096259175E+04  0.50400001928E-02 0. -1.
    10030    2    1    2    0    0  0.00000000000E+00  0.00000000000E+00 -0.17957210744E+04  0.40235307606E+04  0.36005812870E+04 0.  0.
        1    1    3    3  502    0  0.26665766988E+03  0.16380366301E+04 -0.11821118321E+03  0.16638041346E+04  0.50400001928E-02 0. -1.
       -1    1    3    3    0  502 -0.26665766988E+03 -0.16380366301E+04 -0.16775098912E+04  0.23597266260E+04  0.50400001928E-02 0.  1.
</event>
<event>
 5   0  0.3202875E-08  0.3612100E+04  0.7818609E-02  0.8087726E-01
       -1   -1    0    0    0  501  0.00000000000E+00  0.00000000000E+00  0.20603700222E+04  0.20603700222E+04  0.50400001928E-02 0.  1.
        1   -1    0    0  501    0  0.00000000000E+00  0.00000000000E+00 -0.15831217039E+04  0.15831217039E+04  0.50400001928E-02 0. -1.
    10030    2    1    2    0    0  0.00000000000E+00  0.00000000000E+00  0.47724831835E+03  0.36434917261E+04  0.36120999434E+04 0.  0.
        2    1    3    3  502    0  0.15029220985E+04 -0.71151682082E+03  0.94957975378E+03  0.19148714655E+04  0.25500000920E-02 0.  1.
       -2    1    3    3    0  502 -0.15029220985E+04  0.71151682082E+03 -0.47233143543E+03  0.17286202606E+04  0.25500000920E-02 0. -1.
</event>
<event>
 5   0  0.1021087E-07  0.3593490E+04  0.7818609E-02  0.8091985E-01
        2   -1    0    0  501    0  0.00000000000E+00  0.00000000000E+00  0.11538302450E+04  0.11538302450E+04  0.25500000920E-02 0. -1.
       -2   -1    0    0    0  501  0.00000000000E+00  0.00000000000E+00 -0.27978915243E+04  0.27978915243E+04  0.25500000920E-02 0.  1.
    10030    2    1    2    0    0  0.00000000000E+00  0.00000000000E+00 -0.16440612792E+04  0.39517217693E+04  0.35934895926E+04 0.  0.
        3    1    3    3  502    0 -0.23732400298E+03 -0.14757430999E+04 -0.19184993638E+04  0.24320321129E+04  0.10100000352E+00 0.  1.
       -3    1    3    3    0  502  0.23732400298E+03  0.14757430999E+04  0.27443808456E+03  0.15196896564E+04  0.10100000352E+00 0. -1.
</event>
<event>
 5   0  0.3202875E-08  0.3609564E+04  0.7818609E-02  0.8088305E-01
        1   -1    0    0  501    0  0.00000000000E+00  0.00000000000E+00  0.24130242382E+04  0.24130242382E+04  0.50400001928E-02 0.  1.
       -1   -1    0    0    0  501  0.00000000000E+00  0.00000000000E+00 -0.13498568280E+04  0.13498568280E+04  0.50400001928E-02 0. -1.
    10030    2    1    2    0    0  0.00000000000E+00  0.00000000000E+00  0.10631674102E+04  0.37628810662E+04  0.36095635437E+04 0.  0.
        2    1    3    3  502    0 -0.93482775978E+01 -0.12331806681E+04  0.19052859286E+04  0.22695674522E+04  0.25500000920E-02 0.  1.
       -2    1    3    3    0  502  0.93482775978E+01  0.12331806681E+04 -0.84211851845E+03  0.14933136139E+04  0.25500000920E-02 0. -1.
</event>
<event>
 5   0  0.9905335E-08  0.3603039E+04  0.7818609E-02  0.8089796E-01
        2   -1    0    0  501    0  0.00000000000E+00  0.00000000000E+00  0.20536590838E+04  0.20536590838E+04  0.25500000920E-02 0.  1.
       -2   -1    0    0    0  501  0.00000000000E+00  0.00000000000E+00 -0.15803368578E+04  0.15803368578E+04  0.25500000920E-02 0. -1.
    10030    2    1    2    0    0  0.00000000000E+00  0.00000000000E+00  0.47332222595E+03  0.36339959416E+04  0.36030393522E+04 0.  0.
        5    1    3    3  502    0  0.55510475850E+03  0.63349416177E+03 -0.13695019013E+04  0.16077977776E+04  0.46999998093E+01 0. -1.
       -5    1    3    3    0  502 -0.55510475850E+03 -0.63349416177E+03  0.18428241272E+04  0.20261981640E+04  0.46999998093E+01 0.  1.
</event>
<event>
 5   0  0.1017794E-07  0.3606006E+04  0.7818609E-02  0.8089117E-01
       -2   -1    0    0    0  501  0.00000000000E+00  0.00000000000E+00  0.13140267173E+04  0.13140267173E+04  0.25500000920E-02 0. -1.
        2   -1    0    0  501    0  0.00000000000E+00  0.00000000000E+00 -0.24739379971E+04  0.24739379971E+04  0.25500000920E-02 0.  1.
    10030    2    1    2    0    0  0.00000000000E+00  0.00000000000E+00 -0.11599112798E+04  0.37879647144E+04  0.36060064477E+04 0.  0.
        1    1    3    3  502    0 -0.14779840776E+04  0.20173403521E+03  0.48391020546E+03  0.15682163886E+04  0.50400001928E-02 0. -1.
       -1    1    3    3    0  502  0.14779840776E+04 -0.20173403521E+03 -0.16438214853E+04  0.22197483258E+04  0.50400001928E-02 0.  1.
</event>
<event>
 5   0  0.3279988E-08  0.3602247E+04  0.7818609E-02  0.8089977E-01
        1   -1    0    0  501    0  0.00000000000E+00  0.00000000000E+00  0.26478027410E+04  0.26478027410E+04  0.50400001928E-02 0.  1.
       -1   -1    0    0    0  501  0.00000000000E+00  0.00000000000E+00 -0.12251839788E+04  0.12251839788E+04  0.50400001928E-02 0. -1.
    10030    2    1    2    0    0  0.00000000000E+00  0.00000000000E+00  0.14226187622E+04  0.38729867198E+04  0.36022467974E+04 0.  0.
        5    1    3    3  502    0  0.71937345232E+03 -0.67173172612E+03  0.23330897629E+04  0.25322029159E+04  0.46999998093E+01 0.  1.
       -5    1    3    3    0  502 -0.71937345232E+03  0.67173172612E+03 -0.91047100065E+03  0.13407838039E+04  0.46999998093E+01 0. -1.
</event>
<event>
 5   0  0.3212523E-08  0.3573544E+04  0.7818609E-02  0.8096579E-01
       -1   -1    0    0    0  501  0.00000000000E+00  0.00000000000E+00  0.24647844551E+04  0.24647844551E+04  0.50400001928E-02 0. -1.
        1   -1    0    0  501    0  0.00000000000E+00  0.00000000000E+00 -0.12952672274E+04  0.12952672274E+04  0.50400001928E-02 0.  1.
    10030    2    1    2    0    0  0.00000000000E+00  0.00000000000E+00  0.11695172276E+04  0.37600516825E+04  0.35735441944E+04 0.  0.
        3    1    3    3  502    0 -0.11406114017E+04  0.50702120065E+03  0.19299551624E+04  0.22984324673E+04  0.10100000352E+00 0. -1.
       -3    1    3    3    0  502  0.11406114017E+04 -0.50702120065E+03 -0.76043793471E+03  0.14616192152E+04  0.10100000352E+00 0.  1.
</event>
<event>
 5   0  0.3202875E-08  0.3601784E+04  0.7818609E-02  0.8090083E-01
        1   -1    0    0  501    0  0.00000000000E+00  0.00000000000E+00  0.17566697889E+04  0.17566697889E+04  0.50400001928E-02 0.  1.
       -1   -1    0    0    0  501  0.00000000000E+00  0.00000000000E+00 -0.18462271878E+04  0.18462271878E+04  0.50400001928E-02 0. -1.
    10030    2    1    2    0    0  0.00000000000E+00  0.00000000000E+00 -0.89557398907E+02  0.36028969767E+04  0.36017837383E+04 0.  0.
        1    1    3    3  502    0  0.15919805139E+03  0.16922135178E+04 -0.64017768406E+03  0.18162483521E+04  0.50400001928E-02 0. -1.
       -1    1    3    3    0  502 -0.15919805139E+03 -0.16922135178E+04  0.55062028515E+03  0.17866486246E+04  0.50400001928E-02 0.  1.
</event>
<event>
 5   0  0.3279988E-08  0.3574261E+04  0.7818609E-02  0.8096413E-01
       -1   -1    0    0    0  501  0.00000000000E+00  0.00000000000E+00  0.15228953134E+04  0.15228953134E+04  0.50400001928E-02 0. -1.
        1   -1    0    0  501    0  0.00000000000E+00  0.00000000000E+00 -0.20972122538E+04  0.20972122538E+04  0.50400001928E-02 0.  1.
    10030    2    1    2    0    0  0.00000000000E+00  0.00000000000E+00 -0.57431694038E+03  0.36201075673E+04  0.35742606019E+04 0.  0.
        5    1    3    3  502    0 -0.61649438723E+03  0.16430257276E+04  0.55131725359E+02  0.17557506851E+04  0.46999998093E+01 0. -1.
       -5    1    3    3    0  502  0.61649438723E+03 -0.16430257276E+04 -0.62944866573E+03  0.18643568821E+04  0.46999998093E+01 0.  1.
</event>
<event>
 5   0  0.1044678E-07  0.3599836E+04  0.7818609E-02  0.8090529E-01
       -2   -1    0    0    0  501  0.00000000000E+00  0.00000000000E+00  0.11504204887E+04  0.11504204887E+04  0.25500000920E-02 0.  1.
        2   -1    0    0  501    0  0.00000000000E+00  0.00000000000E+00 -0.28161050899E+04  0.28161050899E+04  0.25500000920E-02 0. -1.
    10030    2    1    2    0    0  0.00000000000E+00  0.00000000000E+00 -0.16656846012E+04  0.39665255786E+04  0.35998361039E+04 0.  0.
        2    1    3    3  502    0  0.46628107031E+02  0.67355163124E+03  0.10056048481E+04  0.12112337061E+04  0.25500000920E-02 0.  1.
       -2    1    3    3    0  502 -0.46628107031E+02 -0.67355163124E+03 -0.26712894493E+04  0.27552918725E+04  0.25500000920E-02 0. -1.
</event>
<event>
 5   0  0.3202875E-08  0.3606195E+04  0.7818609E-02  0.8089074E-01
       -1   -1    0    0    0  501  0.00000000000E+00  0.00000000000E+00  0.10373138803E+04  0.10373138803E+04  0.50400001928E-02 0.  1.
        1   -1    0    0  501    0  0.00000000000E+00  0.00000000000E+00 -0.31342116542E+04  0.31342116542E+04  0.50400001928E-02 0. -1.
    10030    2    1    2    0    0  0.00000000000E+00  0.00000000000E+00 -0.20968977739E+04  0.41715255346E+04  0.36061953651E+04 0.  0.
        2    1    3    3  502    0 -0.42593042521E+02 -0.10403468437E+04 -0.27513038890E+04  0.29417356802E+04  0.25500000920E-02 0. -1.
       -2    1    3    3    0  502  0.42593042521E+02  0.10403468437E+04  0.65440611512E+03  0.12297898544E+04  0.25500000920E-02 0.  1.
</event>
<event>
 5   0  0.9905335E-08  0.3584916E+04  0.7818609E-02  0.8093956E-01
       -2   -1    0    0    0  501  0.00000000000E+00  0.00000000000E+00  0.23495268527E+04  0.23495268527E+04  0.25500000920E-02 0. -1.
        2   -1    0    0  501    0  0.00000000000E+00  0.00000000000E+00 -0.13674693217E+04  0.13674693217E+04  0.25500000920E-02 0.  1.
    10030    2    1    2    0    0  0.00000000000E+00  0.00000000000E+00  0.98205753099E+03  0.37169961745E+04  0.35849161171E+04 0.  0.
        5    1    3    3  502    0 -0.11719352458E+04 -0.13559373300E+04  0.52188314486E+03  0.18666500396E+04  0.46999998093E+01 0. -1.
       -5    1    3    3    0  502  0.11719352458E+04  0.13559373300E+04  0.46017438613E+03  0.18503461349E+04  0.46999998093E+01 0.  1.
</event>
<event>
 5   0  0.3202875E-08  0.3609371E+04  0.7818609E-02  0.8088349E-01
       -1   -1    0    0    0  501  0.00000000000E+00  0.00000000000E+00  0.10537943958E+04  0.10537943958E+04  0.50400001928E-02 0. -1.
        1   -1    0    0  501    0  0.00000000000E+00  0.00000000000E+00 -0.30906303020E+04  0.30906303020E+04  0.50400001928E-02 0.  1.
    10030    2    1    2    0    0  0.00000000000E+00  0.00000000000E+00 -0.20368359062E+04  0.41444246979E+04  0.36093705223E+04 0.  0.
        1    1    3    3  502    0  0.83080054478E+03  0.66842332047E+03  0.65339374817E+03  0.12505769351E+04  0.50400001928E-02 0. -1.
       -1    1    3    3    0  502 -0.83080054478E+03 -0.66842332047E+03 -0.26902296544E+04  0.28938477627E+04  0.50400001928E-02 0.  1.
</event>
<event>
 5   0  0.1021087E-07  0.3645704E+04  0.7818609E-02  0.8080102E-01
        2   -1    0    0  501    0  0.00000000000E+00  0.00000000000E+00  0.14425575387E+04  0.14425575387E+04  0.25500000920E-02 0. -1.
       -2   -1    0    0    0  501  0.00000000000E+00  0.00000000000E+00 -0.23034021635E+04  0.23034021635E+04  0.25500000920E-02 0.  1.
    10030    2    1    2    0    0  0.00000000000E+00  0.00000000000E+00 -0.86084462479E+03  0.37459597022E+04  0.36457044069E+04 0.  0.
        3    1    3    3  502    0 -0.93167896923E+03  0.14986475345E+04  0.39112400259E+02  0.17650778805E+04  0.10100000352E+00 0.  1.
       -3    1    3    3    0  502  0.93167896923E+03 -0.14986475345E+04 -0.89995702504E+03  0.19808818217E+04  0.10100000352E+00 0. -1.
</event>
<event>
 5   0  0.9905335E-08  0.3597607E+04  0.7818609E-02  0.8091040E-01
        2   -1    0    0  501    0  0.00000000000E+00  0.00000000000E+00  0.11417165891E+04  0.11417165891E+04  0.25500000920E-02 0.  1.
       -2   -1    0    0    0  501  0.00000000000E+00  0.00000000000E+00 -0.28340609098E+04  0.28340609098E+04  0.25500000920E-02 0. -1.
    10030    2    1    2    0    0  0.00000000000E+00  0.00000000000E+00 -0.16923443206E+04  0.39757774989E+04  0.35976071799E+04 0.  0.
        5    1    3    3  502    0  0.16421487212E+04  0.12812046698E+03 -0.16450770987E+04  0.23279536136E+04  0.46999998093E+01 0. -1.
       -5    1    3    3    0  502 -0.16421487212E+04 -0.12812046698E+03 -0.47267221891E+02  0.16478238852E+04  0.46999998093E+01 0.  1.
</event>
<event>
 5   0  0.9905335E-08  0.3688277E+04  0.7818609E-02  0.8070565E-01
       -2   -1    0    0    0  501  0.00000000000E+00  0.00000000000E+00  0.18687282876E+04  0.18687282876E+04  0.25500000920E-02 0.  1.
        2   -1    0    0  501    0  0.00000000000E+00  0.00000000000E+00 -0.18198719218E+04  0.18198719218E+04  0.25500000920E-02 0. -1.
    10030    2    1    2    0    0  0.00000000000E+00  0.00000000000E+00  0.48856365828E+02  0.36886002093E+04  0.36882766382E+04 0.  0.
        5    1    3    3  502    0  0.56189281952E+03  0.10898152148E+04 -0.13531552949E+04  0.18260536918E+04  0.46999998093E+01 0. -1.
       -5    1    3    3    0  502 -0.56189281952E+03 -0.10898152148E+04  0.14020116608E+04  0.18625465176E+04  0.46999998093E+01 0.  1.
</event>
<event>
 5   0  0.1021087E-07  0.3583107E+04  0.7818609E-02  0.8094372E-01
        2   -1    0    0  501    0  0.00000000000E+00  0.00000000000E+00  0.26160248714E+04  0.26160248714E+04  0.25500000920E-02 0.  1.
       -2   -1    0    0    0  501  0.00000000000E+00  0.00000000000E+00 -0.12269241790E+04  0.12269241790E+04  0.25500000920E-02 0. -1.
    10030    2    1    2    0    0  0.00000000000E+00  0.00000000000E+00  0.13891006924E+04  0.38429490504E+04  0.35831071252E+04 0.  0.
        3    1    3    3  502    0 -0.13554430476E+04 -0.65394988282E+03  0.17370405546E+04  0.22983007207E+04  0.10100000352E+00 0.  1.
       -3    1    3    3    0  502  0.13554430476E+04  0.65394988282E+03 -0.34793986217E+03  0.15446483297E+04  0.10100000352E+00 0. -1.
</event>
<event>
 5   0  0.3202875E-08  0.3605711E+04  0.7818609E-02  0.8089185E-01
        1   -1    0    0  501    0  0.00000000000E+00  0.00000000000E+00  0.17335770743E+04  0.17335770743E+04  0.50400001928E-02 0. -1.
       -1   -1    0    0    0  501  0.00000000000E+00  0.00000000000E+00 -0.18749024403E+04  0.18749024403E+04  0.50400001928E-02 0.  1.
    10030    2    1    2    0    0  0.00000000000E+00  0.00000000000E+00 -0.14132536606E+03  0.36084795146E+04  0.36057109630E+04 0.  0.
        1    1    3    3  502    0  0.14526604485E+03 -0.77839908395E+03 -0.16915607402E+04  0.18677219000E+04  0.50400001928E-02 0.  1.
       -1    1    3    3    0  502 -0.14526604485E+03  0.77839908395E+03  0.15502353742E+04  0.17407576147E+04  0.50400001928E-02 0. -1.
</event>
<event>
 5   0  0.3215494E-08  0.3603369E+04  0.7818609E-02  0.8089720E-01
        1   -1    0    0  501    0  0.00000000000E+00  0.00000000000E+00  0.13683265812E+04  0.13683265812E+04  0.50400001928E-02 0.  1.
       -1   -1    0    0    0  501  0.00000000000E+00  0.00000000000E+00 -0.23722897396E+04  0.23722897396E+04  0.50400001928E-02 0. -1.
    10030    2    1    2    0    0  0.00000000000E+00  0.00000000000E+00 -0.10039631584E+04  0.37406163208E+04  0.36033690396E+04 0.  0.
        4    1    3    3  502    0 -0.17737595008E+04 -0.34026825339E+02 -0.82808832623E+03  0.19578336192E+04  0.12699999809E+01 0. -1.
       -4    1    3    3    0  502  0.17737595008E+04  0.34026825339E+02 -0.17587483216E+03  0.17827827016E+04  0.12699999809E+01 0.  1.
</event>
<event>
 5   0  0.3279988E-08  0.3610683E+04  0.7818609E-02  0.8088049E-01
        1   -1    0    0  501    0  0.00000000000E+00  0.00000000000E+00  0.26752773503E+04  0.26752773503E+04  0.50400001928E-02 0. -1.
       -1   -1    0    0    0  501  0.00000000000E+00  0.00000000000E+00 -0.12182877299E+04  0.12182877299E+04  0.50400001928E-02 0.  1.
    10030    2    1    2    0    0  0.00000000000E+00  0.00000000000E+00  0.14569896204E+04  0.38935650803E+04  0.36106827997E+04 0.  0.
        5    1    3    3  502    0  0.11918119315E+04 -0.20585998765E+03 -0.71682726714E+03  0.14059364977E+04  0.46999998093E+01 0.  1.
       -5    1    3    3    0  502 -0.11918119315E+04  0.20585998765E+03  0.21738168875E+04  0.24876285826E+04  0.46999998093E+01 0. -1.
</event>
<event>
 5   0  0.1044678E-07  0.3602898E+04  0.7818609E-02  0.8089828E-01
       -2   -1    0    0    0  501  0.00000000000E+00  0.00000000000E+00  0.20951526150E+04  0.20951526150E+04  0.25500000920E-02 0. -1.
        2   -1    0    0  501    0  0.00000000000E+00  0.00000000000E+00 -0.15489172980E+04  0.15489172980E+04  0.25500000920E-02 0.  1.
    10030    2    1    2    0    0  0.00000000000E+00  0.00000000000E+00  0.54623531701E+03  0.36440699130E+04  0.36028977934E+04 0.  0.
        2    1    3    3  502    0 -0.15137002321E+04  0.57142015358E+03  0.10742606565E+04  0.19421239257E+04  0.25500000920E-02 0. -1.
       -2    1    3    3    0  502  0.15137002321E+04 -0.57142015358E+03 -0.52802533954E+03  0.17019459873E+04  0.25500000920E-02 0.  1.
</event>
<event>
 5   0  0.3212523E-08  0.3601570E+04  0.7818609E-02  0.8090132E-01
       -1   -1    0    0    0  501  0.00000000000E+00  0.00000000000E+00  0.21091864897E+04  0.21091864897E+04  0.50400001928E-02 0.  1.
        1   -1    0    0  501    0  0.00000000000E+00  0.00000000000E+00 -0.15374773366E+04  0.15374773366E+04  0.50400001928E-02 0. -1.
    10030    2    1    2    0    0  0.00000000000E+00  0.00000000000E+00  0.57170915308E+03  0.36466638263E+04  0.36015698947E+04 0.  0.
        3    1    3    3  502    0  0.13610421456E+04  0.55749716432E+03  0.13378959671E+04  0.19882666922E+04  0.10100000352E+00 0.  1.
       -3    1    3    3    0  502 -0.13610421456E+04 -0.55749716432E+03 -0.76618681398E+03  0.16583971341E+04  0.10100000352E+00 0. -1.
</event>
<event>
 5   0  0.3215494E-08  0.3601624E+04  0.7818609E-02  0.8090120E-01
        1   -1    0    0  501    0  0.00000000000E+00  0.00000000000E+00  0.26028280692E+04  0.26028280692E+04  0.50400001928E-02 0. -1.
       -1   -1    0    0    0  501  0.00000000000E+00  0.00000000000E+00 -0.12459235224E+04  0.12459235224E+04  0.50400001928E-02 0.  1.
    10030    2    1    2    0    0  0.00000000000E+00  0.00000000000E+00  0.13569045468E+04  0.38487515916E+04  0.36016244758E+04 0.  0.
        4    1    3    3  502    0  0.31190017721E+03  0.11667879317E+04 -0.74895852288E+03  0.14211320417E+04  0.12699999809E+01 0.  1.
       -4    1    3    3    0  502 -0.31190017721E+03 -0.11667879317E+04  0.21058630696E+04  0.24276195499E+04  0.12699999809E+01 0. -1.
</event>
<event>
 5   0  0.1029908E-07  0.3595593E+04  0.7818609E-02  0.8091502E-01
        2   -1    0    0  501    0  0.00000000000E+00  0.00000000000E+00  0.15172993914E+04  0.15172993914E+04  0.25500000920E-02 0.  1.
       -2   -1    0    0    0  501  0.00000000000E+00  0.00000000000E+00 -0.21301485730E+04  0.21301485730E+04  0.25500000920E-02 0. -1.
    10030    2    1    2    0    0  0.00000000000E+00  0.00000000000E+00 -0.61284918167E+03  0.36474479644E+04  0.35955934884E+04 0.  0.
        4    1    3    3  502    0 -0.56499817648E+03 -0.10762362724E+04 -0.16501271213E+04  0.20494947140E+04  0.12699999809E+01 0. -1.
       -4    1    3    3    0  502  0.56499817648E+03  0.10762362724E+04  0.10372779396E+04  0.15979532504E+04  0.12699999809E+01 0.  1.
</event>
<event>
 5   0  0.3215494E-08  0.3599244E+04  0.7818609E-02  0.8090665E-01
        1   -1    0    0  501    0  0.00000000000E+00  0.00000000000E+00  0.15681997970E+04  0.15681997970E+04  0.50400001928E-02 0.  1.
       -1   -1    0    0    0  501  0.00000000000E+00  0.00000000000E+00 -0.20651959508E+04  0.20651959508E+04  0.50400001928E-02 0. -1.
    10030    2    1    2    0    0  0.00000000000E+00  0.00000000000E+00 -0.49699615386E+03  0.36333957478E+04  0.35992442933E+04 0.  0.
        4    1    3    3  502    0 -0.74464853218E+03  0.39982053899E+03  0.13553756484E+04  0.15973110721E+04  0.12699999809E+01 0.  1.
       -4    1    3    3    0  502  0.74464853218E+03 -0.39982053899E+03 -0.18523718023E+04  0.20360846757E+04  0.12699999809E+01 0. -1.
</event>
<event>
 5   0  0.3215494E-08  0.3596377E+04  0.7818609E-02  0.8091322E-01
        1   -1    0    0  501    0  0.00000000000E+00  0.00000000000E+00  0.26486200508E+04  0.26486200508E+04  0.50400001928E-02 0.  1.
       -1   -1    0    0    0  501  0.00000000000E+00  0.00000000000E+00 -0.12208176744E+04  0.12208176745E+04  0.50400001928E-02 0. -1.
    10030    2    1    2    0    0  0.00000000000E+00  0.00000000000E+00  0.14278023763E+04  0.38694377252E+04  0.35963771609E+04 0.  0.
        4    1    3    3  502    0 -0.50658541566E+03 -0.74677306207E+03  0.23873671411E+04  0.25522190872E+04  0.12699999809E+01 0.  1.
       -4    1    3    3    0  502  0.50658541566E+03  0.74677306207E+03 -0.95956476481E+03  0.13172186380E+04  0.12699999809E+01 0. -1.
</event>
<event>
 5   0  0.3202875E-08  0.3601449E+04  0.7818609E-02  0.8090160E-01
       -1   -1    0    0    0  501  0.00000000000E+00  0.00000000000E+00  0.13624295570E+04  0.13624295571E+04  0.50400001928E-02 0.  1.
        1   -1    0    0  501    0  0.00000000000E+00  0.00000000000E+00 -0.23800187921E+04  0.23800187921E+04  0.50400001928E-02 0. -1.
    10030    2    1    2    0    0  0.00000000000E+00  0.00000000000E+00 -0.10175892350E+04  0.37424483491E+04  0.36014485689E+04 0.  0.
        1    1    3    3  502    0 -0.14230109518E+04 -0.15468287314E+03  0.62655603270E+03  0.15625170150E+04  0.50400001928E-02 0.  1.
       -1    1    3    3    0  502  0.14230109518E+04  0.15468287314E+03 -0.16441452677E+04  0.21799313341E+04  0.50400001928E-02 0. -1.
</event>
<event>
 5   0  0.1017794E-07  0.3603873E+04  0.7818609E-02  0.8089605E-01
        2   -1    0    0  501    0  0.00000000000E+00  0.00000000000E+00  0.19259287469E+04  0.19259287469E+04  0.25500000920E-02 0. -1.
       -2   -1    0    0    0  501  0.00000000000E+00  0.00000000000E+00 -0.16859268350E+04  0.16859268350E+04  0.25500000920E-02 0.  1.
    10030    2    1    2    0    0  0.00000000000E+00  0.00000000000E+00  0.24000191184E+03  0.36118555819E+04  0.36038728927E+04 0.  0.
        1    1    3    3  502    0 -0.68096382552E+03  0.12079045819E+04 -0.10332998124E+04  0.17292928361E+04  0.50400001928E-02 0.  1.
       -1    1    3    3    0  502  0.68096382552E+03 -0.12079045819E+04  0.12733017243E+04  0.18825627458E+04  0.50400001928E-02 0. -1.
</event>
<event>
 5   0  0.3212523E-08  0.3601314E+04  0.7818609E-02  0.8090191E-01
        1   -1    0    0  501    0  0.00000000000E+00  0.00000000000E+00  0.13928047910E+04  0.13928047910E+04  0.50400001928E-02 0.  1.
       -1   -1    0    0    0  501  0.00000000000E+00  0.00000000000E+00 -0.23279403644E+04  0.23279403644E+04  0.50400001928E-02 0. -1.
    10030    2    1    2    0    0  0.00000000000E+00  0.00000000000E+00 -0.93513557336E+03  0.37207451554E+04  0.36013144782E+04 0.  0.
        3    1    3    3  502    0  0.70331031991E+03 -0.22360735454E+03  0.12293757045E+04  0.14338794538E+04  0.10100000352E+00 0.  1.
       -3    1    3    3    0  502 -0.70331031991E+03  0.22360735454E+03 -0.21645112778E+04  0.22868657016E+04  0.10100000352E+00 0. -1.
</event>
<event>
 5   0  0.1044678E-07  0.3603373E+04  0.7818609E-02  0.8089719E-01
       -2   -1    0    0    0  501  0.00000000000E+00  0.00000000000E+00  0.14958158756E+04  0.14958158756E+04  0.25500000920E-02 0. -1.
        2   -1    0    0  501    0  0.00000000000E+00  0.00000000000E+00 -0.21701033672E+04  0.21701033672E+04  0.25500000920E-02 0.  1.
    10030    2    1    2    0    0  0.00000000000E+00  0.00000000000E+00 -0.67428749161E+03  0.36659192428E+04  0.36033734574E+04 0.  0.
        2    1    3    3  502    0  0.10480170042E+04  0.68942037624E+01  0.11537929476E+04  0.15587255490E+04  0.25500000920E-02 0. -1.
       -2    1    3    3    0  502 -0.10480170042E+04 -0.68942037624E+01 -0.18280804392E+04  0.21071936938E+04  0.25500000920E-02 0.  1.
</event>
<event>
 5   0  0.1021087E-07  0.3593143E+04  0.7818609E-02  0.8092064E-01
       -2   -1    0    0    0  501  0.00000000000E+00  0.00000000000E+00  0.13272827052E+04  0.13272827052E+04  0.25500000920E-02 0. -1.
        2   -1    0    0  501    0  0.00000000000E+00  0.00000000000E+00 -0.24317877243E+04  0.24317877243E+04  0.25500000920E-02 0.  1.
    10030    2    1    2    0    0  0.00000000000E+00  0.00000000000E+00 -0.11045050191E+04  0.37590704295E+04  0.35931433532E+04 0.  0.
        3    1    3    3  502    0 -0.33013585397E+03 -0.12724148574E+04  0.72889607978E+03  0.15031030426E+04  0.10100000352E+00 0. -1.
       -3    1    3    3    0  502  0.33013585397E+03  0.12724148574E+04 -0.18334010989E+04  0.22559673869E+04  0.10100000352E+00 0.  1.
</event>
<event>
 5   0  0.3279988E-08  0.3602014E+04  0.7818609E-02  0.8090030E-01
        1   -1    0    0  501    0  0.00000000000E+00  0.00000000000E+00  0.21160494611E+04  0.21160494611E+04  0.50400001928E-02 0. -1.
       -1   -1    0    0    0  501  0.00000000000E+00  0.00000000000E+00 -0.15328690119E+04  0.15328690119E+04  0.50400001928E-02 0.  1.
    10030    2    1    2    0    0  0.00000000000E+00  0.00000000000E+00  0.58318044925E+03  0.36489184730E+04  0.36020142401E+04 0.  0.
        5    1    3    3  502    0  0.98264333074E+03 -0.12111682503E+04  0.12039218976E+04  0.19702706595E+04  0.46999998093E+01 0. -1.
       -5    1    3    3    0  502 -0.98264333074E+03  0.12111682503E+04 -0.62074144839E+03  0.16786478135E+04  0.46999998093E+01 0.  1.
</event>
<event>
 5   0  0.1029908E-07  0.3602339E+04  0.7818609E-02  0.8089956E-01
       -2   -1    0    0    0  501  0.00000000000E+00  0.00000000000E+00  0.13546681054E+04  0.13546681054E+04  0.25500000920E-02 0.  1.
        2   -1    0    0  501    0  0.00000000000E+00  0.00000000000E+00 -0.23948384416E+04  0.23948384416E+04  0.25500000920E-02 0. -1.
    10030    2    1    2    0    0  0.00000000000E+00  0.00000000000E+00 -0.10401703362E+04  0.37495065469E+04  0.36023388260E+04 0.  0.
        4    1    3    3  502    0  0.10683458241E+04  0.13920002094E+04 -0.97055080258E+02  0.17573982714E+04  0.12699999809E+01 0. -1.
       -4    1    3    3    0  502 -0.10683458241E+04 -0.13920002094E+04 -0.94311525591E+03  0.19921082756E+04  0.12699999809E+01 0.  1.
</event>
<event>
 5   0  0.1029908E-07  0.3600662E+04  0.7818609E-02  0.8090340E-01
       -2   -1    0    0    0  501  0.00000000000E+00  0.00000000000E+00  0.18390915906E+04  0.18390915906E+04  0.25500000920E-02 0. -1.
        2   -1    0    0  501    0  0.00000000000E+00  0.00000000000E+00 -0.17623876527E+04  0.17623876527E+04  0.25500000920E-02 0.  1.
    10030    2    1    2    0    0  0.00000000000E+00  0.00000000000E+00  0.76703937916E+02  0.36014792433E+04  0.36006623343E+04 0.  0.
        4    1    3    3  502    0 -0.11554181101E+04  0.50599395041E+03  0.13232327685E+04  0.18281048820E+04  0.12699999809E+01 0. -1.
       -4    1    3    3    0  502  0.11554181101E+04 -0.50599395041E+03 -0.12465288305E+04  0.17733743613E+04  0.12699999809E+01 0.  1.
</event>
<event>
 5   0  0.1044678E-07  0.3588537E+04  0.7818609E-02  0.8093123E-01
        2   -1    0    0  501    0  0.00000000000E+00  0.00000000000E+00  0.16776617562E+04  0.16776617562E+04  0.25500000920E-02 0.  1.
       -2   -1    0    0    0  501  0.00000000000E+00  0.00000000000E+00 -0.19189797995E+04  0.19189797995E+04  0.25500000920E-02 0. -1.
    10030    2    1    2    0    0  0.00000000000E+00  0.00000000000E+00 -0.24131804325E+03  0.35966415557E+04  0.35885367606E+04 0.  0.
        2    1    3    3  502    0 -0.87093942266E+03 -0.89802118847E+03  0.11684891572E+04  0.17118248869E+04  0.25500000920E-02 0.  1.
       -2    1    3    3    0  502  0.87093942266E+03  0.89802118847E+03 -0.14098072004E+04  0.18848166689E+04  0.25500000920E-02 0. -1.
</event>
<event>
 5   0  0.3279988E-08  0.3594453E+04  0.7818609E-02  0.8091763E-01
        1   -1    0    0  501    0  0.00000000000E+00  0.00000000000E+00  0.18658802290E+04  0.18658802290E+04  0.50400001928E-02 0. -1.
       -1   -1    0    0    0  501  0.00000000000E+00  0.00000000000E+00 -0.17310991010E+04  0.17310991010E+04  0.50400001928E-02 0.  1.
    10030    2    1    2    0    0  0.00000000000E+00  0.00000000000E+00  0.13478112796E+03  0.35969793300E+04  0.35944532752E+04 0.  0.
        5    1    3    3  502    0 -0.15198009776E+03 -0.82278334317E+03  0.16590840831E+04  0.18581314444E+04  0.46999998093E+01 0. -1.
       -5    1    3    3    0  502  0.15198009776E+03  0.82278334317E+03 -0.15243029552E+04  0.17388478855E+04  0.46999998093E+01 0.  1.
</event>
<event>
 5   0  0.1021087E-07  0.3598830E+04  0.7818609E-02  0.8090760E-01
        2   -1    0    0  501    0  0.00000000000E+00  0.00000000000E+00  0.18748488384E+04  0.18748488384E+04  0.25500000920E-02 0. -1.
       -2   -1    0    0    0  501  0.00000000000E+00  0.00000000000E+00 -0.17270164482E+04  0.17270164482E+04  0.25500000920E-02 0.  1.
    10030    2    1    2    0    0  0.00000000000E+00  0.00000000000E+00  0.14783239025E+03  0.36018652866E+04  0.35988302443E+04 0.  0.
        3    1    3    3  502    0 -0.11520421587E+04 -0.54144609471E+03  0.13468102098E+04  0.18531763975E+04  0.10100000352E+00 0. -1.
       -3    1    3    3    0  502  0.11520421587E+04  0.54144609471E+03 -0.11989778196E+04  0.17486888891E+04  0.10100000352E+00 0.  1.
</event>
<event>
 5   0  0.3212523E-08  0.3602935E+04  0.7818609E-02  0.8089820E-01
       -1   -1    0    0    0  501  0.00000000000E+00  0.00000000000E+00  0.13085352994E+04  0.13085352994E+04  0.50400001928E-02 0. -1.
        1   -1    0    0  501    0  0.00000000000E+00  0.00000000000E+00 -0.24800905577E+04  0.24800905577E+04  0.50400001928E-02 0.  1.
    10030    2    1    2    0    0  0.00000000000E+00  0.00000000000E+00 -0.11715552583E+04  0.37886258571E+04  0.36029354923E+04 0.  0.
        3    1    3    3  502    0  0.47737021726E+03 -0.17367195340E+04 -0.54921542918E+03  0.18830068141E+04  0.10100000352E+00 0.  1.
       -3    1    3    3    0  502 -0.47737021726E+03  0.17367195340E+04 -0.62233982908E+03  0.19056190430E+04  0.10100000352E+00 0. -1.
</event>
<event>
 5   0  0.1029908E-07  0.3573610E+04  0.7818609E-02  0.8096563E-01
        2   -1    0    0  501    0  0.00000000000E+00  0.00000000000E+00  0.16109126291E+04  0.16109126291E+04  0.25500000920E-02 0. -1.
       -2   -1    0    0    0  501  0.00000000000E+00  0.00000000000E+00 -0.19819027868E+04  0.19819027868E+04  0.25500000920E-02 0.  1.
    10030    2    1    2    0    0  0.00000000000E+00  0.00000000000E+00 -0.37099015768E+03  0.35928154159E+04  0.35736100676E+04 0.  0.
        4    1    3    3  502    0  0.11196379092E+03 -0.75531244791E+03 -0.18096141361E+04  0.19641124507E+04  0.12699999809E+01 0.  1.
       -4    1    3    3    0  502 -0.11196379092E+03  0.75531244791E+03  0.14386239784E+04  0.16287029652E+04  0.12699999809E+01 0. -1.
</event>
<event>
 5   0  0.3215494E-08  0.3603670E+04  0.7818609E-02  0.8089651E-01
       -1   -1    0    0    0  501  0.00000000000E+00  0.00000000000E+00  0.13667218644E+04  0.13667218645E+04  0.50400001928E-02 0. -1.
        1   -1    0    0  501    0  0.00000000000E+00  0.00000000000E+00 -0.23754722017E+04  0.23754722017E+04  0.50400001928E-02 0.  1.
    10030    2    1    2    0    0  0.00000000000E+00  0.00000000000E+00 -0.10087503373E+04  0.37421940662E+04  0.36036702382E+04 0.  0.
        4    1    3    3  502    0  0.88720133626E+03  0.13741684487E+04 -0.12891656193E+04  0.20826460917E+04  0.12699999809E+01 0.  1.
       -4    1    3    3    0  502 -0.88720133626E+03 -0.13741684487E+04  0.28041528199E+03  0.16595479745E+04  0.12699999809E+01 0. -1.
</event>
<event>
 5   0  0.3212523E-08  0.3610587E+04  0.7818609E-02  0.8088071E-01
       -1   -1    0    0    0  501  0.00000000000E+00  0.00000000000E+00  0.18231002506E+04  0.18231002506E+04  0.50400001928E-02 0.  1.
        1   -1    0    0  501    0  0.00000000000E+00  0.00000000000E+00 -0.17876610848E+04  0.17876610848E+04  0.50400001928E-02 0. -1.
    10030    2    1    2    0    0  0.00000000000E+00  0.00000000000E+00  0.35439165767E+02  0.36107613354E+04  0.36105874157E+04 0.  0.
        3    1    3    3  502    0 -0.17254767795E+04  0.44015877855E+03 -0.27906987054E+03  0.18024677168E+04  0.10100000352E+00 0.  1.
       -3    1    3    3    0  502  0.17254767795E+04 -0.44015877855E+03  0.31450903630E+03  0.18082936186E+04  0.10100000352E+00 0. -1.
</event>
<event>
 5   0  0.1044678E-07  0.3606555E+04  0.7818609E-02  0.8088992E-01
       -2   -1    0    0    0  501  0.00000000000E+00  0.00000000000E+00  0.14601782569E+04  0.14601782569E+04  0.25500000920E-02 0.  1.
        2   -1    0    0  501    0  0.00000000000E+00  0.00000000000E+00 -0.22269944377E+04  0.22269944377E+04  0.25500000920E-02 0. -1.
    10030    2    1    2    0    0  0.00000000000E+00  0.00000000000E+00 -0.76681618079E+03  0.36871726945E+04  0.36065545087E+04 0.  0.
        2    1    3    3  502    0  0.59470939265E+03  0.13579435708E+04 -0.14330611328E+04  0.20618812317E+04  0.25500000920E-02 0. -1.
       -2    1    3    3    0  502 -0.59470939265E+03 -0.13579435708E+04  0.66624495197E+03  0.16252914629E+04  0.25500000920E-02 0.  1.
</event>
<event>
 5   0  0.3212523E-08  0.3598611E+04  0.7818609E-02  0.8090810E-01
       -1   -1    0    0    0  501  0.00000000000E+00  0.00000000000E+00  0.27962808775E+04  0.27962808775E+04  0.50400001928E-02 0.  1.
        1   -1    0    0  501    0  0.00000000000E+00  0.00000000000E+00 -0.11577880647E+04  0.11577880647E+04  0.50400001928E-02 0. -1.
    10030    2    1    2    0    0  0.00000000000E+00  0.00000000000E+00  0.16384928128E+04  0.39540689423E+04  0.35986111908E+04 0.  0.
        3    1    3    3  502    0 -0.64269002304E+03  0.16501769785E+04  0.11690752846E+04  0.21219970681E+04  0.10100000352E+00 0. -1.
       -3    1    3    3    0  502  0.64269002304E+03 -0.16501769785E+04  0.46941752820E+03  0.18320718741E+04  0.10100000352E+00 0.  1.
</event>
<event>
 5   0  0.1017794E-07  0.3603358E+04  0.7818609E-02  0.8089723E-01
       -2   -1    0    0    0  501  0.00000000000E+00  0.00000000000E+00  0.17403647016E+04  0.17403647016E+04  0.25500000920E-02 0. -1.
        2   -1    0    0  501    0  0.00000000000E+00  0.00000000000E+00 -0.18651531817E+04  0.18651531817E+04  0.25500000920E-02 0.  1.
    10030    2    1    2    0    0  0.00000000000E+00  0.00000000000E+00 -0.12478848015E+03  0.36055178833E+04  0.36033577455E+04 0.  0.
        1    1    3    3  502    0 -0.96942307364E+03 -0.98836902728E+02 -0.15787224238E+04  0.18552396935E+04  0.50400001928E-02 0.  1.
       -1    1    3    3    0  502  0.96942307364E+03  0.98836902728E+02  0.14539339436E+04  0.17502781898E+04  0.50400001928E-02 0. -1.
</event>
<event>
 5   0  0.1017794E-07  0.3595026E+04  0.7818609E-02  0.8091632E-01
       -2   -1    0    0    0  501  0.00000000000E+00  0.00000000000E+00  0.17743984096E+04  0.17743984096E+04  0.25500000920E-02 0.  1.
        2   -1    0    0  501    0  0.00000000000E+00  0.00000000000E+00 -0.18209282667E+04  0.18209282667E+04  0.25500000920E-02 0. -1.
    10030    2    1    2    0    0  0.00000000000E+00  0.00000000000E+00 -0.46529857060E+02  0.35953266763E+04  0.35950255745E+04 0.  0.
        1    1    3    3  502    0  0.16253834483E+04 -0.59014821285E+03 -0.51412774955E+03  0.18040159672E+04  0.50400001928E-02 0. -1.
       -1    1    3    3    0  502 -0.16253834483E+04  0.59014821285E+03  0.46759789249E+03  0.17913107090E+04  0.50400001928E-02 0.  1.
</event>
<event>
 5   0  0.1021087E-07  0.3594490E+04  0.7818609E-02  0.8091755E-01
       -2   -1    0    0    0  501  0.00000000000E+00  0.00000000000E+00  0.28395325315E+04  0.28395325315E+04  0.25500000920E-02 0.  1.
        2   -1    0    0  501    0  0.00000000000E+00  0.00000000000E+00 -0.11375427243E+04  0.11375427243E+04  0.25500000920E-02 0. -1.
    10030    2    1    2    0    0  0.00000000000E+00  0.00000000000E+00  0.17019898072E+04  0.39770752558E+04  0.35944899897E+04 0.  0.
        3    1    3    3  502    0  0.50677840212E+03 -0.60216793328E+03 -0.93673376298E+03  0.12234789420E+04  0.10100000352E+00 0. -1.
       -3    1    3    3    0  502 -0.50677840212E+03  0.60216793328E+03  0.26387235702E+04  0.27535963137E+04  0.10100000352E+00 0.  1.
</event>
<event>
 5   0  0.1021087E-07  0.3599480E+04  0.7818609E-02  0.8090611E-01
       -2   -1    0    0    0  501  0.00000000000E+00  0.00000000000E+00  0.23100574723E+04  0.23100574723E+04  0.25500000920E-02 0. -1.
        2   -1    0    0  501    0  0.00000000000E+00  0.00000000000E+00 -0.14021572428E+04  0.14021572428E+04  0.25500000920E-02 0.  1.
    10030    2    1    2    0    0  0.00000000000E+00  0.00000000000E+00  0.90790022952E+03  0.37122147151E+04  0.35994798602E+04 0.  0.
        3    1    3    3  502    0  0.27501512562E+03  0.61504789446E+03 -0.12671945219E+04  0.14351652164E+04  0.10100000352E+00 0.  1.
       -3    1    3    3    0  502 -0.27501512562E+03 -0.61504789446E+03  0.21750947514E+04  0.22770494987E+04  0.10100000352E+00 0. -1.
</event>
<event>
 5   0  0.9905335E-08  0.3583875E+04  0.7818609E-02  0.8094195E-01
       -2   -1    0    0    0  501  0.00000000000E+00  0.00000000000E+00  0.17987059824E+04  0.17987059824E+04  0.25500000920E-02 0.  1.
        2   -1    0    0  501    0  0.00000000000E+00  0.00000000000E+00 -0.17851948575E+04  0.17851948575E+04  0.25500000920E-02 0. -1.
    10030    2    1    2    0    0  0.00000000000E+00  0.00000000000E+00  0.13511124852E+02  0.35839008399E+04  0.35838753717E+04 0.  0.
        5    1    3    3  502    0  0.11897339382E+04  0.71871568609E+03 -0.11241810746E+04  0.17876868461E+04  0.46999998093E+01 0.  1.
       -5    1    3    3    0  502 -0.11897339382E+04 -0.71871568609E+03  0.11376921995E+04  0.17962139939E+04  0.46999998093E+01 0. -1.
</event>
<event>
 5   0  0.3212523E-08  0.3551008E+04  0.7818609E-02  0.8101807E-01
       -1   -1    0    0    0  501  0.00000000000E+00  0.00000000000E+00  0.13181473567E+04  0.13181473567E+04  0.50400001928E-02 0. -1.
        1   -1    0    0  501    0  0.00000000000E+00  0.00000000000E+00 -0.23915491263E+04  0.23915491263E+04  0.50400001928E-02 0.  1.
    10030    2    1    2    0    0  0.00000000000E+00  0.00000000000E+00 -0.10734017696E+04  0.37096964830E+04  0.35510078339E+04 0.  0.
        3    1    3    3  502    0  0.14872236236E+04  0.77336638676E+03 -0.11480752040E+04  0.20317495807E+04  0.10100000352E+00 0.  1.
       -3    1    3    3    0  502 -0.14872236236E+04 -0.77336638676E+03  0.74673434362E+02  0.16779469022E+04  0.10100000352E+00 0. -1.
</event>
<event>
 5   0  0.3215494E-08  0.3602619E+04  0.7818609E-02  0.8089892E-01
        1   -1    0    0  501    0  0.00000000000E+00  0.00000000000E+00  0.18960190124E+04  0.18960190124E+04  0.50400001928E-02 0.  1.
       -1   -1    0    0    0  501  0.00000000000E+00  0.00000000000E+00 -0.17113306390E+04  0.17113306390E+04  0.50400001928E-02 0. -1.
    10030    2    1    2    0    0  0.00000000000E+00  0.00000000000E+00  0.18468837346E+03  0.36073496514E+04  0.36026187298E+04 0.  0.
        4    1    3    3  502    0 -0.77599281507E+03 -0.14298586945E+04  0.86669864398E+03  0.18433200719E+04  0.12699999809E+01 0.  1.
       -4    1    3    3    0  502  0.77599281507E+03  0.14298586945E+04 -0.68201027051E+03  0.17640295795E+04  0.12699999809E+01 0. -1.
</event>
<event>
 5   0  0.1029908E-07  0.3595715E+04  0.7818609E-02  0.8091474E-01
        2   -1    0    0  501    0  0.00000000000E+00  0.00000000000E+00  0.22965372181E+04  0.22965372181E+04  0.25500000920E-02 0.  1.
       -2   -1    0    0    0  501  0.00000000000E+00  0.00000000000E+00 -0.14074632380E+04  0.14074632380E+04  0.25500000920E-02 0. -1.
    10030    2    1    2    0    0  0.00000000000E+00  0.00000000000E+00  0.88907398017E+03  0.37040004561E+04  0.35957150661E+04 0.  0.
        4    1    3    3  502    0 -0.16110721801E+04 -0.21666981518E+03  0.12356430811E+04  0.20418900106E+04  0.12699999809E+01 0.  1.
       -4    1    3    3    0  502  0.16110721801E+04  0.21666981518E+03 -0.34656910097E+03  0.16621104455E+04  0.12699999809E+01 0. -1.
</event>
<event>
 5   0  0.3212523E-08  0.3583438E+04  0.7818609E-02  0.8094296E-01
        1   -1    0    0  501    0  0.00000000000E+00  0.00000000000E+00  0.10621550158E+04  0.10621550159E+04  0.50400001928E-02 0.  1.
       -1   -1    0    0    0  501  0.00000000000E+00  0.00000000000E+00 -0.30223989105E+04  0.30223989105E+04  0.50400001928E-02 0. -1.
    10030    2    1    2    0    0  0.00000000000E+00  0.00000000000E+00 -0.19602438947E+04  0.40845539264E+04  0.35834375467E+04 0.  0.
        3    1    3    3  502    0 -0.10308414846E+04 -0.14072886207E+04 -0.14461498459E+04  0.22659313351E+04  0.10100000352E+00 0. -1.
       -3    1    3    3    0  502  0.10308414846E+04  0.14072886207E+04 -0.51409404879E+03  0.18186225913E+04  0.10100000352E+00 0.  1.
</event>
<event>
 5   0  0.3215494E-08  0.3600116E+04  0.7818609E-02  0.8090465E-01
        1   -1    0    0  501    0  0.00000000000E+00  0.00000000000E+00  0.24820697268E+04  0.24820697268E+04  0.50400001928E-02 0. -1.
       -1   -1    0    0    0  501  0.00000000000E+00  0.00000000000E+00 -0.13054459708E+04  0.13054459708E+04  0.50400001928E-02 0.  1.
    10030    2    1    2    0    0  0.00000000000E+00  0.00000000000E+00  0.11766237560E+04  0.37875156977E+04  0.36001155116E+04 0.  0.
        4    1    3    3  502    0 -0.11842586640E+03 -0.10954458539E+04 -0.90922325074E+03  0.14285359069E+04  0.12699999809E+01 0.  1.
       -4    1    3    3    0  502  0.11842586640E+03  0.10954458539E+04  0.20858470068E+04  0.23589797908E+04  0.12699999809E+01 0. -1.
</event>
<event>
 5   0  0.3279988E-08  0.3597030E+04  0.7818609E-02  0.8091172E-01
       -1   -1    0    0    0  501  0.00000000000E+00  0.00000000000E+00  0.19383091335E+04  0.19383091335E+04  0.50400001928E-02 0.  1.
        1   -1    0    0  501    0  0.00000000000E+00  0.00000000000E+00 -0.16688032201E+04  0.16688032201E+04  0.50400001928E-02 0. -1.
    10030    2    1    2    0    0  0.00000000000E+00  0.00000000000E+00  0.26950591340E+03  0.36071123535E+04  0.35970301769E+04 0.  0.
        5    1    3    3  502    0  0.48828257858E+03 -0.44425371963E+03  0.18124195159E+04  0.19289032728E+04  0.46999998093E+01 0.  1.
       -5    1    3    3    0  502 -0.48828257858E+03  0.44425371963E+03 -0.15429136025E+04  0.16782090808E+04  0.46999998093E+01 0. -1.
</event>
<event>
 5   0  0.3212523E-08  0.3601170E+04  0.7818609E-02  0.8090224E-01
        1   -1    0    0  501    0  0.00000000000E+00  0.00000000000E+00  0.18625395130E+04  0.18625395130E+04  0.50400001928E-02 0. -1.
       -1   -1    0    0    0  501  0.00000000000E+00  0.00000000000E+00 -0.17406913130E+04  0.17406913130E+04  0.50400001928E-02 0.  1.
    10030    2    1    2    0    0  0.00000000000E+00  0.00000000000E+00  0.12184819995E+03  0.36032308260E+04  0.36011700046E+04 0.  0.
        3    1    3    3  502    0 -0.12944448091E+04 -0.79010243634E+03  0.10321788892E+04  0.18344597279E+04  0.10100000352E+00 0. -1.
       -3    1    3    3    0  502  0.12944448091E+04  0.79010243634E+03 -0.91033068921E+03  0.17687710982E+04  0.10100000352E+00 0.  1.
</event>
<event>
 5   0  0.3279988E-08  0.3597429E+04  0.7818609E-02  0.8091081E-01
        1   -1    0    0  501    0  0.00000000000E+00  0.00000000000E+00  0.21028758706E+04  0.21028758706E+04  0.50400001928E-02 0.  1.
       -1   -1    0    0    0  501  0.00000000000E+00  0.00000000000E+00 -0.15385474135E+04  0.15385474135E+04  0.50400001928E-02 0. -1.
    10030    2    1    2    0    0  0.00000000000E+00  0.00000000000E+00  0.56432845710E+03  0.36414232840E+04  0.35974292107E+04 0.  0.
        5    1    3    3  502    0  0.52044722574E+03 -0.12185300905E+04 -0.94912909663E+03  0.16298923364E+04  0.46999998093E+01 0. -1.
       -5    1    3    3    0  502 -0.52044722574E+03  0.12185300905E+04  0.15134575537E+04  0.20115309476E+04  0.46999998093E+01 0.  1.
</event>
<event>
 5   0  0.3202875E-08  0.3605967E+04  0.7818609E-02  0.8089126E-01
       -1   -1    0    0    0  501  0.00000000000E+00  0.00000000000E+00  0.33409298077E+04  0.33409298077E+04  0.50400001928E-02 0. -1.
        1   -1    0    0  501    0  0.00000000000E+00  0.00000000000E+00 -0.97300737800E+03  0.97300737801E+03  0.50400001928E-02 0.  1.
    10030    2    1    2    0    0  0.00000000000E+00  0.00000000000E+00  0.23679224297E+04  0.43139371857E+04  0.36059669174E+04 0.  0.
        2    1    3    3  502    0 -0.14036035397E+04 -0.11258034663E+04  0.10464452955E+04  0.20814860311E+04  0.25500000920E-02 0.  1.
       -2    1    3    3    0  502  0.14036035397E+04  0.11258034663E+04  0.13214771342E+04  0.22324511546E+04  0.25500000920E-02 0. -1.
</event>
<event>
 5   0  0.3202875E-08  0.3597703E+04  0.7818609E-02  0.8091018E-01
       -1   -1    0    0    0  501  0.00000000000E+00  0.00000000000E+00  0.17591635822E+04  0.17591635822E+04  0.50400001928E-02 0.  1.
        1   -1    0    0  501    0  0.00000000000E+00  0.00000000000E+00 -0.18394348500E+04  0.18394348500E+04  0.50400001928E-02 0. -1.
    10030    2    1    2    0    0  0.00000000000E+00  0.00000000000E+00 -0.80271267844E+02  0.35985984322E+04  0.35977030450E+04 0.  0.
        2    1    3    3  502    0 -0.94727404095E+03  0.15151544664E+04 -0.24717901965E+03  0.18039175794E+04  0.25500000920E-02 0. -1.
       -2    1    3    3    0  502  0.94727404095E+03 -0.15151544664E+04  0.16690775181E+03  0.17946808528E+04  0.25500000920E-02 0.  1.
</event>
<event>
 5   0  0.9905335E-08  0.3602276E+04  0.7818609E-02  0.8089971E-01
       -2   -1    0    0    0  501  0.00000000000E+00  0.00000000000E+00  0.16435260923E+04  0.16435260923E+04  0.25500000920E-02 0.  1.
        2   -1    0    0  501    0  0.00000000000E+00  0.00000000000E+00 -0.19738648668E+04  0.19738648668E+04  0.25500000920E-02 0. -1.
    10030    2    1    2    0    0  0.00000000000E+00  0.00000000000E+00 -0.33033877453E+03  0.36173909592E+04  0.36022761756E+04 0.  0.
        5    1    3    3  502    0  0.14730183225E+04  0.10227625538E+04 -0.33395228873E+03  0.18241086703E+04  0.46999998093E+01 0.  1.
       -5    1    3    3    0  502 -0.14730183225E+04 -0.10227625538E+04  0.36135141973E+01  0.17932822888E+04  0.46999998093E+01 0. -1.
</event>
<event>
 5   0  0.3212523E-08  0.3600882E+04  0.7818609E-02  0.8090290E-01
       -1   -1    0    0    0  501  0.00000000000E+00  0.00000000000E+00  0.18444256018E+04  0.18444256018E+04  0.50400001928E-02 0.  1.
        1   -1    0    0  501    0  0.00000000000E+00  0.00000000000E+00 -0.17575057724E+04  0.17575057724E+04  0.50400001928E-02 0. -1.
    10030    2    1    2    0    0  0.00000000000E+00  0.00000000000E+00  0.86919829471E+02  0.36019313742E+04  0.36008824707E+04 0.  0.
        3    1    3    3  502    0 -0.40415891844E+03 -0.27349820706E+03 -0.16900893161E+04  0.17591326293E+04  0.10100000352E+00 0. -1.
       -3    1    3    3    0  502  0.40415891844E+03  0.27349820706E+03  0.17770091456E+04  0.18427987449E+04  0.10100000352E+00 0.  1.
</event>
<event>
 5   0  0.9905335E-08  0.3595967E+04  0.7818609E-02  0.8091416E-01
       -2   -1    0    0    0  501  0.00000000000E+00  0.00000000000E+00  0.16353995997E+04  0.16353995997E+04  0.25500000920E-02 0. -1.
        2   -1    0    0  501    0  0.00000000000E+00  0.00000000000E+00 -0.19767312803E+04  0.19767312803E+04  0.25500000920E-02 0.  1.
    10030    2    1    2    0    0  0.00000000000E+00  0.00000000000E+00 -0.34133168058E+03  0.36121308801E+04  0.35959674885E+04 0.  0.
        5    1    3    3  502    0 -0.10809582398E+04  0.52706641552E+03 -0.15132564574E+04  0.19329347941E+04  0.46999998093E+01 0.  1.
       -5    1    3    3    0  502  0.10809582398E+04 -0.52706641552E+03  0.11719247768E+04  0.16791960859E+04  0.46999998093E+01 0. -1.
</event>
<event>
 5   0  0.3212523E-08  0.3623466E+04  0.7818609E-02  0.8085138E-01
        1   -1    0    0  501    0  0.00000000000E+00  0.00000000000E+00  0.16447265740E+04  0.16447265740E+04  0.50400001928E-02 0.  1.
       -1   -1    0    0    0  501  0.00000000000E+00  0.00000000000E+00 -0.19956968822E+04  0.19956968822E+04  0.50400001928E-02 0. -1.
    10030    2    1    2    0    0  0.00000000000E+00  0.00000000000E+00 -0.35097030820E+03  0.36404234561E+04  0.36234655763E+04 0.  0.
        3    1    3    3  502    0 -0.41620636651E+03  0.17155839664E+04  0.23375346490E+03  0.17807573607E+04  0.10100000352E+00 0.  1.
       -3    1    3    3    0  502  0.41620636651E+03 -0.17155839664E+04 -0.58472377310E+03  0.18596660954E+04  0.10100000352E+00 0. -1.
</event>
<event>
 5   0  0.1029908E-07  0.3548911E+04  0.7818609E-02  0.8102296E-01
       -2   -1    0    0    0  501  0.00000000000E+00  0.00000000000E+00  0.13030597502E+04  0.13030597502E+04  0.25500000920E-02 0.  1.
        2   -1    0    0  501    0  0.00000000000E+00  0.00000000000E+00 -0.24163833826E+04  0.24163833826E+04  0.25500000920E-02 0. -1.
    10030    2    1    2    0    0  0.00000000000E+00  0.00000000000E+00 -0.11133236324E+04  0.37194431328E+04  0.35489107777E+04 0.  0.
        4    1    3    3  502    0  0.65086144502E+02 -0.62879711680E+03 -0.22943650390E+04  0.23798601987E+04  0.12699999809E+01 0. -1.
       -4    1    3    3    0  502 -0.65086144502E+02  0.62879711680E+03  0.11810414066E+04  0.13395829341E+04  0.12699999809E+01 0.  1.
</event>
<event>
 5   0  0.3215494E-08  0.3584607E+04  0.7818609E-02  0.8094027E-01
        1   -1    0    0  501    0  0.00000000000E+00  0.00000000000E+00  0.11429352990E+04  0.11429352990E+04  0.50400001928E-02 0.  1.
       -1   -1    0    0    0  501  0.00000000000E+00  0.00000000000E+00 -0.28106161301E+04  0.28106161301E+04  0.50400001928E-02 0. -1.
    10030    2    1    2    0    0  0.00000000000E+00  0.00000000000E+00 -0.16676808311E+04  0.39535514291E+04  0.35846073074E+04 0.  0.
        4    1    3    3  502    0 -0.13348892415E+04  0.52451633584E+03  0.35163885498E+03  0.14767187175E+04  0.12699999809E+01 0.  1.
       -4    1    3    3    0  502  0.13348892415E+04 -0.52451633584E+03 -0.20193196861E+04  0.24768327116E+04  0.12699999809E+01 0. -1.
</event>
<event>
 5   0  0.1029908E-07  0.3609471E+04  0.7818609E-02  0.8088326E-01
       -2   -1    0    0    0  501  0.00000000000E+00  0.00000000000E+00  0.19449647261E+04  0.19449647261E+04  0.25500000920E-02 0. -1.
        2   -1    0    0  501    0  0.00000000000E+00  0.00000000000E+00 -0.16746170456E+04  0.16746170456E+04  0.25500000920E-02 0.  1.
    10030    2    1    2    0    0  0.00000000000E+00  0.00000000000E+00  0.27034768050E+03  0.36195817717E+04  0.36094714756E+04 0.  0.
        4    1    3    3  502    0 -0.14673341683E+04  0.51144139781E+03 -0.78523561886E+03  0.17410452190E+04  0.12699999809E+01 0.  1.
       -4    1    3    3    0  502  0.14673341683E+04 -0.51144139781E+03  0.10555832994E+04  0.18785365526E+04  0.12699999809E+01 0. -1.
</event>
<event>
 5   0  0.1044678E-07  0.3598143E+04  0.7818609E-02  0.8090917E-01
       -2   -1    0    0    0  501  0.00000000000E+00  0.00000000000E+00  0.14503088215E+04  0.14503088215E+04  0.25500000920E-02 0.  1.
        2   -1    0    0  501    0  0.00000000000E+00  0.00000000000E+00 -0.22317032402E+04  0.22317032402E+04  0.25500000920E-02 0. -1.
    10030    2    1    2    0    0  0.00000000000E+00  0.00000000000E+00 -0.78139441866E+03  0.36820120617E+04  0.35981433525E+04 0.  0.
        2    1    3    3  502    0  0.25199417842E+03  0.81372044138E+03 -0.20122517492E+04  0.21851313748E+04  0.25500000920E-02 0. -1.
       -2    1    3    3    0  502 -0.25199417842E+03 -0.81372044138E+03  0.12308573306E+04  0.14968806869E+04  0.25500000920E-02 0.  1.
</event>
<event>
 5   0  0.3202875E-08  0.3599158E+04  0.7818609E-02  0.8090685E-01
       -1   -1    0    0    0  501  0.00000000000E+00  0.00000000000E+00  0.19431959099E+04  0.19431959099E+04  0.50400001928E-02 0. -1.
        1   -1    0    0  501    0  0.00000000000E+00  0.00000000000E+00 -0.16665761707E+04  0.16665761707E+04  0.50400001928E-02 0.  1.
    10030    2    1    2    0    0  0.00000000000E+00  0.00000000000E+00  0.27661973921E+03  0.36097720807E+04  0.35991576784E+04 0.  0.
        1    1    3    3  502    0 -0.47077263464E+03 -0.12685568745E+04 -0.10516209478E+04  0.17137006843E+04  0.50400001928E-02 0.  1.
       -1    1    3    3    0  502  0.47077263464E+03  0.12685568745E+04  0.13282406871E+04  0.18960713964E+04  0.50400001928E-02 0. -1.
</event>
<event>
 5   0  0.3202875E-08  0.3596738E+04  0.7818609E-02  0.8091239E-01
       -1   -1    0    0    0  501  0.00000000000E+00  0.00000000000E+00  0.12946987171E+04  0.12946987171E+04  0.50400001928E-02 0.  1.
        1   -1    0    0  501    0  0.00000000000E+00  0.00000000000E+00 -0.24979795423E+04  0.24979795423E+04  0.50400001928E-02 0. -1.
    10030    2    1    2    0    0  0.00000000000E+00  0.00000000000E+00 -0.12032808252E+04  0.37926782595E+04  0.35967379159E+04 0.  0.
        1    1    3    3  502    0 -0.57410760262E+03 -0.11685592805E+04  0.70650674055E+03  0.14813109416E+04  0.50400001928E-02 0.  1.
       -1    1    3    3    0  502  0.57410760262E+03  0.11685592805E+04 -0.19097875658E+04  0.23113673178E+04  0.50400001928E-02 0. -1.
</event>
<event>
 5   0  0.9905335E-08  0.3615316E+04  0.7818609E-02  0.8086992E-01
        2   -1    0    0  501    0  0.00000000000E+00  0.00000000000E+00  0.13698110342E+04  0.13698110342E+04  0.25500000920E-02 0. -1.
       -2   -1    0    0    0  501  0.00000000000E+00  0.00000000000E+00 -0.23854583976E+04  0.23854583976E+04  0.25500000920E-02 0.  1.
    10030    2    1    2    0    0  0.00000000000E+00  0.00000000000E+00 -0.10156473634E+04  0.37552694319E+04  0.36153158837E+04 0.  0.
        5    1    3    3  502    0 -0.43608065401E+03  0.19009088099E+03 -0.23192671636E+04  0.23675563660E+04  0.46999998093E+01 0.  1.
       -5    1    3    3    0  502  0.43608065401E+03 -0.19009088099E+03  0.13036198002E+04  0.13877130659E+04  0.46999998093E+01 0. -1.
</event>
<event>
 5   0  0.1021087E-07  0.3600312E+04  0.7818609E-02  0.8090420E-01
        2   -1    0    0  501    0  0.00000000000E+00  0.00000000000E+00  0.20194074918E+04  0.20194074918E+04  0.25500000920E-02 0. -1.
       -2   -1    0    0    0  501  0.00000000000E+00  0.00000000000E+00 -0.16047091629E+04  0.16047091629E+04  0.25500000920E-02 0.  1.
    10030    2    1    2    0    0  0.00000000000E+00  0.00000000000E+00  0.41469832895E+03  0.36241166547E+04  0.36003120452E+04 0.  0.
        3    1    3    3  502    0 -0.86981941568E+03 -0.41081010466E+03  0.17389913088E+04  0.19873201907E+04  0.10100000352E+00 0. -1.
       -3    1    3    3    0  502  0.86981941568E+03  0.41081010466E+03 -0.13242929799E+04  0.16367964640E+04  0.10100000352E+00 0.  1.
</event>
<event>
 5   0  0.9905335E-08  0.3597782E+04  0.7818609E-02  0.8091000E-01
        2   -1    0    0  501    0  0.00000000000E+00  0.00000000000E+00  0.27272776342E+04  0.27272776342E+04  0.25500000920E-02 0.  1.
       -2   -1    0    0    0  501  0.00000000000E+00  0.00000000000E+00 -0.11865342625E+04  0.11865342625E+04  0.25500000920E-02 0. -1.
    10030    2    1    2    0    0  0.00000000000E+00  0.00000000000E+00  0.15407433718E+04  0.39138118967E+04  0.35977817367E+04 0.  0.
        5    1    3    3  502    0 -0.24545466927E+03  0.71514958156E+03  0.25460187408E+04  0.26559217679E+04  0.46999998093E+01 0.  1.
       -5    1    3    3    0  502  0.24545466927E+03 -0.71514958156E+03 -0.10052753690E+04  0.12578901288E+04  0.46999998093E+01 0. -1.
</event>
<event>
 5   0  0.3202875E-08  0.3600189E+04  0.7818609E-02  0.8090448E-01
        1   -1    0    0  501    0  0.00000000000E+00  0.00000000000E+00  0.18945839555E+04  0.18945839555E+04  0.50400001928E-02 0. -1.
       -1   -1    0    0    0  501  0.00000000000E+00  0.00000000000E+00 -0.17103176686E+04  0.17103176686E+04  0.50400001928E-02 0.  1.
    10030    2    1    2    0    0  0.00000000000E+00  0.00000000000E+00  0.18426628697E+03  0.36049016241E+04  0.36001891138E+04 0.  0.
        2    1    3    3  502    0 -0.30518379705E+03  0.62382421190E+03 -0.15707774668E+04  0.17174503333E+04  0.25500000920E-02 0.  1.
       -2    1    3    3    0  502  0.30518379705E+03 -0.62382421190E+03  0.17550437538E+04  0.18874512908E+04  0.25500000920E-02 0. -1.
</event>
<event>
 5   0  0.1029908E-07  0.3557660E+04  0.7818609E-02  0.8100260E-01
       -2   -1    0    0    0  501  0.00000000000E+00  0.00000000000E+00  0.15371516032E+04  0.15371516032E+04  0.25500000920E-02 0.  1.
        2   -1    0    0  501    0  0.00000000000E+00  0.00000000000E+00 -0.20585061037E+04  0.20585061037E+04  0.25500000920E-02 0. -1.
    10030    2    1    2    0    0  0.00000000000E+00  0.00000000000E+00 -0.52135450047E+03  0.35956577069E+04  0.35576598811E+04 0.  0.
        4    1    3    3  502    0  0.67532398056E+03 -0.44128590407E+03  0.13416383356E+04  0.15655001642E+04  0.12699999809E+01 0.  1.
       -4    1    3    3    0  502 -0.67532398056E+03  0.44128590407E+03 -0.18629928360E+04  0.20301575426E+04  0.12699999809E+01 0. -1.
</event>
<event>
 5   0  0.3212523E-08  0.3585407E+04  0.7818609E-02  0.8093843E-01
       -1   -1    0    0    0  501  0.00000000000E+00  0.00000000000E+00  0.13299610541E+04  0.13299610541E+04  0.50400001928E-02 0.  1.
        1   -1    0    0  501    0  0.00000000000E+00  0.00000000000E+00 -0.24164504713E+04  0.24164504713E+04  0.50400001928E-02 0. -1.
    10030    2    1    2    0    0  0.00000000000E+00  0.00000000000E+00 -0.10864894171E+04  0.37464115254E+04  0.35854065410E+04 0.  0.
        3    1    3    3  502    0 -0.17510831974E+04 -0.35683426849E+03 -0.69161375448E+03  0.19162339771E+04  0.10100000352E+00 0. -1.
       -3    1    3    3    0  502  0.17510831974E+04  0.35683426849E+03 -0.39487566263E+03  0.18301775483E+04  0.10100000352E+00 0.  1.
</event>
<event>
 5   0  0.1021087E-07  0.3604202E+04  0.7818609E-02  0.8089530E-01
       -2   -1    0    0    0  501  0.00000000000E+00  0.00000000000E+00  0.12093593955E+04  0.12093593955E+04  0.25500000920E-02 0.  1.
        2   -1    0    0  501    0  0.00000000000E+00  0.00000000000E+00 -0.26853627236E+04  0.26853627236E+04  0.25500000920E-02 0. -1.
    10030    2    1    2    0    0  0.00000000000E+00  0.00000000000E+00 -0.14760033281E+04  0.38947221191E+04  0.36042023473E+04 0.  0.
        3    1    3    3  502    0 -0.89010315334E+03 -0.12161836062E+04  0.32965793226E+03  0.15427444863E+04  0.10100000352E+00 0.  1.
       -3    1    3    3    0  502  0.89010315334E+03  0.12161836062E+04 -0.18056612604E+04  0.23519776328E+04  0.10100000352E+00 0. -1.
</event>
<event>
 5   0  0.3202875E-08  0.3601456E+04  0.7818609E-02  0.8090158E-01
       -1   -1    0    0    0  501  0.00000000000E+00  0.00000000000E+00  0.10800006495E+04  0.10800006496E+04  0.50400001928E-02 0. -1.
        1   -1    0    0  501    0  0.00000000000E+00  0.00000000000E+00 -0.30024253052E+04  0.30024253052E+04  0.50400001928E-02 0.  1.
    10030    2    1    2    0    0  0.00000000000E+00  0.00000000000E+00 -0.19224246557E+04  0.40824259548E+04  0.36014559722E+04 0.  0.
        1    1    3    3  502    0  0.58519728963E+03  0.19433318460E+03  0.95659675038E+03  0.11381118562E+04  0.50400001928E-02 0. -1.
       -1    1    3    3    0  502 -0.58519728963E+03 -0.19433318460E+03 -0.28790214061E+04  0.29443140986E+04  0.50400001928E-02 0.  1.
</event>
<event>
 5   0  0.9905335E-08  0.3599125E+04  0.7818609E-02  0.8090692E-01
        2   -1    0    0  501    0  0.00000000000E+00  0.00000000000E+00  0.18555775775E+04  0.18555775775E+04  0.25500000920E-02 0. -1.
       -2   -1    0    0    0  501  0.00000000000E+00  0.00000000000E+00 -0.17452384533E+04  0.17452384533E+04  0.25500000920E-02 0.  1.
    10030    2    1    2    0    0  0.00000000000E+00  0.00000000000E+00  0.11033912420E+03  0.36008160307E+04  0.35991250832E+04 0.  0.
        5    1    3    3  502    0 -0.45622344103E+03 -0.57210424082E+03  0.17000101552E+04  0.18508105544E+04  0.46999998093E+01 0. -1.
       -5    1    3    3    0  502  0.45622344103E+03  0.57210424082E+03 -0.15896710310E+04  0.17500054763E+04  0.46999998093E+01 0.  1.
</event>
<event>
 5   0  0.3215494E-08  0.3611514E+04  0.7818609E-02  0.8087859E-01
        1   -1    0    0  501    0  0.00000000000E+00  0.00000000000E+00  0.21056108467E+04  0.21056108467E+04  0.50400001928E-02 0. -1.
       -1   -1    0    0    0  501  0.00000000000E+00  0.00000000000E+00 -0.15486041242E+04  0.15486041242E+04  0.50400001928E-02 0.  1.
    10030    2    1    2    0    0  0.00000000000E+00  0.00000000000E+00  0.55700672249E+03  0.36542149709E+04  0.36115136113E+04 0.  0.
        4    1    3    3  502    0 -0.17220868513E+04 -0.41014015765E+03 -0.82021150298E+02  0.17721532536E+04  0.12699999809E+01 0. -1.
       -4    1    3    3    0  502  0.17220868513E+04  0.41014015765E+03  0.63902787279E+03  0.18820617172E+04  0.12699999809E+01 0.  1.
</event>
<event>
 5   0  0.1044678E-07  0.3602502E+04  0.7818609E-02  0.8089919E-01
        2   -1    0    0  501    0  0.00000000000E+00  0.00000000000E+00  0.23824610689E+04  0.23824610689E+04  0.25500000920E-02 0.  1.
       -2   -1    0    0    0  501  0.00000000000E+00  0.00000000000E+00 -0.13618295138E+04  0.13618295138E+04  0.25500000920E-02 0. -1.
    10030    2    1    2    0    0  0.00000000000E+00  0.00000000000E+00  0.10206315550E+04  0.37442905827E+04  0.36025023520E+04 0.  0.
        2    1    3    3  502    0  0.95682285870E+03 -0.39967817998E+03 -0.10204910580E+04  0.14548727195E+04  0.25500000920E-02 0. -1.
       -2    1    3    3    0  502 -0.95682285870E+03  0.39967817998E+03  0.20411226131E+04  0.22894178632E+04  0.25500000920E-02 0.  1.
</event>
<event>
 5   0  0.1021087E-07  0.3598308E+04  0.7818609E-02  0.8090879E-01
       -2   -1    0    0    0  501  0.00000000000E+00  0.00000000000E+00  0.20083399488E+04  0.20083399488E+04  0.25500000920E-02 0.  1.
        2   -1    0    0  501    0  0.00000000000E+00  0.00000000000E+00 -0.16117565635E+04  0.16117565635E+04  0.25500000920E-02 0. -1.
    10030    2    1    2    0    0  0.00000000000E+00  0.00000000000E+00  0.39658338523E+03  0.36200965123E+04  0.35983079881E+04 0.  0.
        3    1    3    3  502    0  0.14379311005E+04 -0.29437623812E+03 -0.84851437238E+03  0.16953701277E+04  0.10100000352E+00 0. -1.
       -3    1    3    3    0  502 -0.14379311005E+04  0.29437623812E+03  0.12450977576E+04  0.19247263846E+04  0.10100000352E+00 0.  1.
</event>
<event>
 5   0  0.3279988E-08  0.3589385E+04  0.7818609E-02  0.8092927E-01
       -1   -1    0    0    0  501  0.00000000000E+00  0.00000000000E+00  0.10347619900E+04  0.10347619900E+04  0.50400001928E-02 0. -1.
        1   -1    0    0  501    0  0.00000000000E+00  0.00000000000E+00 -0.31127171226E+04  0.31127171226E+04  0.50400001928E-02 0.  1.
    10030    2    1    2    0    0  0.00000000000E+00  0.00000000000E+00 -0.20779551326E+04  0.41474791126E+04  0.35893851084E+04 0.  0.
        5    1    3    3  502    0  0.64035771754E+03 -0.84114246546E+03  0.63680200040E+03  0.12341464789E+04  0.46999998093E+01 0. -1.
       -5    1    3    3    0  502 -0.64035771754E+03  0.84114246546E+03 -0.27147571330E+04  0.29133326337E+04  0.46999998093E+01 0.  1.
</event>
<event>
 5   0  0.3202875E-08  0.3598228E+04  0.7818609E-02  0.8090898E-01
        1   -1    0    0  501    0  0.00000000000E+00  0.00000000000E+00  0.12434631640E+04  0.12434631640E+04  0.50400001928E-02 0.  1.
       -1   -1    0    0    0  501  0.00000000000E+00  0.00000000000E+00 -0.26030616490E+04  0.26030616490E+04  0.50400001928E-02 0. -1.
    10030    2    1    2    0    0  0.00000000000E+00  0.00000000000E+00 -0.13595984849E+04  0.38465248130E+04  0.35982280496E+04 0.  0.
        2    1    3    3  502    0 -0.96404243771E+03 -0.83046000440E+03 -0.20394838878E+04  0.24038586001E+04  0.25500000920E-02 0. -1.
       -2    1    3    3    0  502  0.96404243771E+03  0.83046000440E+03  0.67988540290E+03  0.14426662129E+04  0.25500000920E-02 0.  1.
</event>
<event>
 5   0  0.1017794E-07  0.3601611E+04  0.7818609E-02  0.8090123E-01
       -2   -1    0    0    0  501  0.00000000000E+00  0.00000000000E+00  0.21480208538E+04  0.21480208538E+04  0.25500000920E-02 0. -1.
        2   -1    0    0  501    0  0.00000000000E+00  0.00000000000E+00 -0.15097155017E+04  0.15097155017E+04  0.25500000920E-02 0.  1.
    10030    2    1    2    0    0  0.00000000000E+00  0.00000000000E+00  0.63830535207E+03  0.36577363555E+04  0.36016109623E+04 0.  0.
        1    1    3    3  502    0 -0.34793611057E+03  0.32369217886E+02  0.21132586256E+04  0.21419545564E+04  0.50400001928E-02 0. -1.
       -1    1    3    3    0  502  0.34793611057E+03 -0.32369217886E+02 -0.14749532735E+04  0.15157817990E+04  0.50400001928E-02 0.  1.
</event>
<event>
 5   0  0.1044678E-07  0.3599343E+04  0.7818609E-02  0.8090642E-01
        2   -1    0    0  501    0  0.00000000000E+00  0.00000000000E+00  0.25511190979E+04  0.25511190979E+04  0.25500000920E-02 0.  1.
       -2   -1    0    0    0  501  0.00000000000E+00  0.00000000000E+00 -0.12695675682E+04  0.12695675682E+04  0.25500000920E-02 0. -1.
    10030    2    1    2    0    0  0.00000000000E+00  0.00000000000E+00  0.12815515298E+04  0.38206866661E+04  0.35993433119E+04 0.  0.
        2    1    3    3  502    0 -0.61230771536E+03  0.93667026499E+02 -0.11528450031E+04  0.13087191644E+04  0.25500000920E-02 0. -1.
       -2    1    3    3    0  502  0.61230771536E+03 -0.93667026499E+02  0.24343965329E+04  0.25119675017E+04  0.25500000920E-02 0.  1.
</event>
<event>
 5   0  0.3202875E-08  0.3595991E+04  0.7818609E-02  0.8091411E-01
       -1   -1    0    0    0  501  0.00000000000E+00  0.00000000000E+00  0.21745651785E+04  0.21745651785E+04  0.50400001928E-02 0. -1.
        1   -1    0    0  501    0  0.00000000000E+00  0.00000000000E+00 -0.14866365081E+04  0.14866365081E+04  0.50400001928E-02 0.  1.
    10030    2    1    2    0    0  0.00000000000E+00  0.00000000000E+00  0.68792867048E+03  0.36612016866E+04  0.35959910921E+04 0.  0.
        2    1    3    3  502    0  0.12691030767E+04 -0.10165226912E+04  0.11252435554E+04  0.19774008345E+04  0.25500000920E-02 0. -1.
       -2    1    3    3    0  502 -0.12691030767E+04  0.10165226912E+04 -0.43731488496E+03  0.16838008521E+04  0.25500000920E-02 0.  1.
</event>
<event>
 5   0  0.1029908E-07  0.3599310E+04  0.7818609E-02  0.8090650E-01
       -2   -1    0    0    0  501  0.00000000000E+00  0.00000000000E+00  0.14160991567E+04  0.14160991567E+04  0.25500000920E-02 0.  1.
        2   -1    0    0  501    0  0.00000000000E+00  0.00000000000E+00 -0.22870987870E+04  0.22870987870E+04  0.25500000920E-02 0. -1.
    10030    2    1    2    0    0  0.00000000000E+00  0.00000000000E+00 -0.87099963029E+03  0.37031979437E+04  0.35993103026E+04 0.  0.
        4    1    3    3  502    0  0.48234735786E+03  0.97976354781E+03  0.10362283053E+04  0.15054455476E+04  0.12699999809E+01 0.  1.
       -4    1    3    3    0  502 -0.48234735786E+03 -0.97976354781E+03 -0.19072279356E+04  0.21977523961E+04  0.12699999809E+01 0. -1.
</event>
<event>
 5   0  0.9905335E-08  0.3600487E+04  0.7818609E-02  0.8090380E-01
        2   -1    0    0  501    0  0.00000000000E+00  0.00000000000E+00  0.18098251675E+04  0.18098251675E+04  0.25500000920E-02 0.  1.
       -2   -1    0    0    0  501  0.00000000000E+00  0.00000000000E+00 -0.17907121950E+04  0.17907121950E+04  0.25500000920E-02 0. -1.
    10030    2    1    2    0    0  0.00000000000E+00  0.00000000000E+00  0.19112972520E+02  0.36005373624E+04  0.36004866328E+04 0.  0.
        5    1    3    3  502    0  0.10189227973E+04 -0.13021070145E+03 -0.14688741027E+04  0.17924206296E+04  0.46999998093E+01 0. -1.
       -5    1    3    3    0  502 -0.10189227973E+04  0.13021070145E+03  0.14879870753E+04  0.18081167329E+04  0.46999998093E+01 0.  1.
</event>
<event>
 5   0  0.1029908E-07  0.3600493E+04  0.7818609E-02  0.8090379E-01
        2   -1    0    0  501    0  0.00000000000E+00  0.00000000000E+00  0.24495189628E+04  0.24495189628E+04  0.25500000920E-02 0.  1.
       -2   -1    0    0    0  501  0.00000000000E+00  0.00000000000E+00 -0.13230709068E+04  0.13230709068E+04  0.25500000920E-02 0. -1.
    10030    2    1    2    0    0  0.00000000000E+00  0.00000000000E+00  0.11264480561E+04  0.37725898696E+04  0.36004928970E+04 0.  0.
        4    1    3    3  502    0 -0.68499473413E+03  0.11325590759E+04  0.18417859007E+04  0.22680574867E+04  0.12699999809E+01 0.  1.
       -4    1    3    3    0  502  0.68499473413E+03 -0.11325590759E+04 -0.71533784463E+03  0.15045323829E+04  0.12699999809E+01 0. -1.
</event>
<event>
 5   0  0.1044678E-07  0.3595909E+04  0.7818609E-02  0.8091429E-01
       -2   -1    0    0    0  501  0.00000000000E+00  0.00000000000E+00  0.14302746462E+04  0.14302746462E+04  0.25500000920E-02 0. -1.
        2   -1    0    0  501    0  0.00000000000E+00  0.00000000000E+00 -0.22601532192E+04  0.22601532192E+04  0.25500000920E-02 0.  1.
    10030    2    1    2    0    0  0.00000000000E+00  0.00000000000E+00 -0.82987857300E+03  0.36904278654E+04  0.35959087007E+04 0.  0.
        2    1    3    3  502    0  0.46259005820E+02 -0.50363019851E+01 -0.22595351428E+04  0.22600142303E+04  0.25500000920E-02 0.  1.
       -2    1    3    3    0  502 -0.46259005820E+02  0.50363019851E+01  0.14296565698E+04  0.14304136351E+04  0.25500000920E-02 0. -1.
</event>
<event>
 5   0  0.9905335E-08  0.3611029E+04  0.7818609E-02  0.8087970E-01
       -2   -1    0    0    0  501  0.00000000000E+00  0.00000000000E+00  0.16496600859E+04  0.16496600859E+04  0.25500000920E-02 0. -1.
        2   -1    0    0  501    0  0.00000000000E+00  0.00000000000E+00 -0.19760938496E+04  0.19760938496E+04  0.25500000920E-02 0.  1.
    10030    2    1    2    0    0  0.00000000000E+00  0.00000000000E+00 -0.32643376365E+03  0.36257539355E+04  0.36110292991E+04 0.  0.
        5    1    3    3  502    0 -0.16949327940E+04 -0.55622003337E+03 -0.44307038745E+03  0.18380727297E+04  0.46999998093E+01 0.  1.
       -5    1    3    3    0  502  0.16949327940E+04  0.55622003337E+03  0.11663662380E+03  0.17876812058E+04  0.46999998093E+01 0. -1.
</event>
<event>
 5   0  0.3202875E-08  0.3600528E+04  0.7818609E-02  0.8090371E-01
       -1   -1    0    0    0  501  0.00000000000E+00  0.00000000000E+00  0.13303049855E+04  0.13303049855E+04  0.50400001928E-02 0.  1.
        1   -1    0    0  501    0  0.00000000000E+00  0.00000000000E+00 -0.24362463455E+04  0.24362463455E+04  0.50400001928E-02 0. -1.
    10030    2    1    2    0    0  0.00000000000E+00  0.00000000000E+00 -0.11059413599E+04  0.37665513310E+04  0.36005281053E+04 0.  0.
        1    1    3    3  502    0 -0.13836820605E+04 -0.67711291120E+03  0.42159409022E+03  0.15971222608E+04  0.50400001928E-02 0.  1.
       -1    1    3    3    0  502  0.13836820605E+04  0.67711291120E+03 -0.15275354502E+04  0.21694290702E+04  0.50400001928E-02 0. -1.
</event>
<event>
 5   0  0.1021087E-07  0.3594512E+04  0.7818609E-02  0.8091750E-01
       -2   -1    0    0    0  501  0.00000000000E+00  0.00000000000E+00  0.12202794552E+04  0.12202794552E+04  0.25500000920E-02 0.  1.
        2   -1    0    0  501    0  0.00000000000E+00  0.00000000000E+00 -0.26470405332E+04  0.26470405332E+04  0.25500000920E-02 0. -1.
    10030    2    1    2    0    0  0.00000000000E+00  0.00000000000E+00 -0.14267610780E+04  0.38673199885E+04  0.35945120280E+04 0.  0.
        3    1    3    3  502    0  0.86649511304E+03  0.82359362108E+03  0.73048948594E+03  0.14009764926E+04  0.10100000352E+00 0.  1.
       -3    1    3    3    0  502 -0.86649511304E+03 -0.82359362108E+03 -0.21572505640E+04  0.24663434959E+04  0.10100000352E+00 0. -1.
</event>
<event>
 5   0  0.3202875E-08  0.3598310E+04  0.7818609E-02  0.8090879E-01
       -1   -1    0    0    0  501  0.00000000000E+00  0.00000000000E+00  0.16063513321E+04  0.16063513321E+04  0.50400001928E-02 0. -1.
        1   -1    0    0  501    0  0.00000000000E+00  0.00000000000E+00 -0.20150997505E+04  0.20150997505E+04  0.50400001928E-02 0.  1.
    10030    2    1    2    0    0  0.00000000000E+00  0.00000000000E+00 -0.40874841843E+03  0.36214510826E+04  0.35983096968E+04 0.  0.
        1    1    3    3  502    0 -0.92399914555E+03 -0.13949541866E+04 -0.86990346506E+03  0.18858429527E+04  0.50400001928E-02 0.  1.
       -1    1    3    3    0  502  0.92399914555E+03  0.13949541866E+04  0.46115504664E+03  0.17356081299E+04  0.50400001928E-02 0. -1.
</event>
<event>
 5   0  0.1044678E-07  0.3604534E+04  0.7818609E-02  0.8089454E-01
        2   -1    0    0  501    0  0.00000000000E+00  0.00000000000E+00  0.17807916374E+04  0.17807916374E+04  0.25500000920E-02 0.  1.
       -2   -1    0    0    0  501  0.00000000000E+00  0.00000000000E+00 -0.18240009239E+04  0.18240009239E+04  0.25500000920E-02 0. -1.
    10030    2    1    2    0    0  0.00000000000E+00  0.00000000000E+00 -0.43209286521E+02  0.36047925613E+04  0.36045335853E+04 0.  0.
        2    1    3    3  502    0 -0.17396849153E+03  0.10345855694E+04 -0.14871563671E+04  0.18199632955E+04  0.25500000920E-02 0. -1.
       -2    1    3    3    0  502  0.17396849153E+03 -0.10345855694E+04  0.14439470806E+04  0.17848292658E+04  0.25500000920E-02 0.  1.
</event>
<event>
 5   0  0.9905335E-08  0.3591305E+04  0.7818609E-02  0.8092486E-01
        2   -1    0    0  501    0  0.00000000000E+00  0.00000000000E+00  0.29167650502E+04  0.29167650502E+04  0.25500000920E-02 0. -1.
       -2   -1    0    0    0  501  0.00000000000E+00  0.00000000000E+00 -0.11054600253E+04  0.11054600253E+04  0.25500000920E-02 0.  1.
    10030    2    1    2    0    0  0.00000000000E+00  0.00000000000E+00  0.18113050249E+04  0.40222250754E+04  0.35913045908E+04 0.  0.
        5    1    3    3  502    0  0.38561327235E+03  0.14691829314E+04 -0.16693830742E+03  0.15280990053E+04  0.46999998093E+01 0.  1.
       -5    1    3    3    0  502 -0.38561327235E+03 -0.14691829314E+04  0.19782433323E+04  0.24941260701E+04  0.46999998093E+01 0. -1.
</event>
<event>
 5   0  0.3212523E-08  0.3603003E+04  0.7818609E-02  0.8089804E-01
       -1   -1    0    0    0  501  0.00000000000E+00  0.00000000000E+00  0.14045895139E+04  0.14045895139E+04  0.50400001928E-02 0.  1.
        1   -1    0    0  501    0  0.00000000000E+00  0.00000000000E+00 -0.23105742613E+04  0.23105742613E+04  0.50400001928E-02 0. -1.
    10030    2    1    2    0    0  0.00000000000E+00  0.00000000000E+00 -0.90598474745E+03  0.37151637752E+04  0.36030034019E+04 0.  0.
        3    1    3    3  502    0  0.78469685197E+03  0.63669692347E+03 -0.19908199815E+04  0.22325985601E+04  0.10100000352E+00 0. -1.
       -3    1    3    3    0  502 -0.78469685197E+03 -0.63669692347E+03  0.10848352340E+04  0.14825652151E+04  0.10100000352E+00 0.  1.
</event>
<event>
 5   0  0.3202875E-08  0.3591815E+04  0.7818609E-02  0.8092369E-01
        1   -1    0    0  501    0  0.00000000000E+00  0.00000000000E+00  0.12244445135E+04  0.12244445135E+04  0.50400001928E-02 0. -1.
       -1   -1    0    0    0  501  0.00000000000E+00  0.00000000000E+00 -0.26340793815E+04  0.26340793815E+04  0.50400001928E-02 0.  1.
    10030    2    1    2    0    0  0.00000000000E+00  0.00000000000E+00 -0.14096348681E+04  0.38585238950E+04  0.35918151660E+04 0.  0.
        1    1    3    3  502    0  0.11998858223E+04  0.63990913170E+03 -0.19649846186E+04  0.23896389339E+04  0.50400001928E-02 0.  1.
       -1    1    3    3    0  502 -0.11998858223E+04 -0.63990913170E+03  0.55534975049E+03  0.14688849611E+04  0.50400001928E-02 0. -1.
</event>
<event>
 5   0  0.3279988E-08  0.3593817E+04  0.7818609E-02  0.8091909E-01
       -1   -1    0    0    0  501  0.00000000000E+00  0.00000000000E+00  0.16138744080E+04  0.16138744080E+04  0.50400001928E-02 0.  1.
        1   -1    0    0  501    0  0.00000000000E+00  0.00000000000E+00 -0.20007014885E+04  0.20007014885E+04  0.50400001928E-02 0. -1.
    10030    2    1    2    0    0  0.00000000000E+00  0.00000000000E+00 -0.38682708050E+03  0.36145758966E+04  0.35938174303E+04 0.  0.
        5    1    3    3  502    0 -0.15338408861E+04 -0.25376869693E+03 -0.10996130747E+04  0.19042682111E+04  0.46999998093E+01 0. -1.
       -5    1    3    3    0  502  0.15338408861E+04  0.25376869693E+03  0.71278599424E+03  0.17103076855E+04  0.46999998093E+01 0.  1.
</event>
<event>
 5   0  0.3212523E-08  0.3599655E+04  0.7818609E-02  0.8090571E-01
       -1   -1    0    0    0  501  0.00000000000E+00  0.00000000000E+00  0.11573902196E+04  0.11573902196E+04  0.50400001928E-02 0. -1.
        1   -1    0    0  501    0  0.00000000000E+00  0.00000000000E+00 -0.27988646844E+04  0.27988646844E+04  0.50400001928E-02 0.  1.
    10030    2    1    2    0    0  0.00000000000E+00  0.00000000000E+00 -0.16414744648E+04  0.39562549040E+04  0.35996547678E+04 0.  0.
        3    1    3    3  502    0 -0.26771378417E+02  0.12640627962E+04  0.58709914779E+03  0.13940074889E+04  0.10100000352E+00 0. -1.
       -3    1    3    3    0  502  0.26771378417E+02 -0.12640627962E+04 -0.22285736126E+04  0.25622474151E+04  0.10100000352E+00 0.  1.
</event>
<event>
 5   0  0.9905335E-08  0.3600362E+04  0.7818609E-02  0.8090409E-01
        2   -1    0    0  501    0  0.00000000000E+00  0.00000000000E+00  0.25104559663E+04  0.25104559663E+04  0.25500000920E-02 0. -1.
       -2   -1    0    0    0  501  0.00000000000E+00  0.00000000000E+00 -0.12908616438E+04  0.12908616438E+04  0.25500000920E-02 0.  1.
    10030    2    1    2    0    0  0.00000000000E+00  0.00000000000E+00  0.12195943225E+04  0.38013176102E+04  0.36003618238E+04 0.  0.
        5    1    3    3  502    0 -0.11382521006E+04 -0.13273300627E+04  0.10617136573E+04  0.20456492661E+04  0.46999998093E+01 0.  1.
       -5    1    3    3    0  502  0.11382521006E+04  0.13273300627E+04  0.15788066516E+03  0.17556683440E+04  0.46999998093E+01 0. -1.
</event>
<event>
 5   0  0.9905335E-08  0.3567603E+04  0.7818609E-02  0.8097953E-01
        2   -1    0    0  501    0  0.00000000000E+00  0.00000000000E+00  0.13575603245E+04  0.13575603245E+04  0.25500000920E-02 0. -1.
       -2   -1    0    0    0  501  0.00000000000E+00  0.00000000000E+00 -0.23438715810E+04  0.23438715810E+04  0.25500000920E-02 0.  1.
    10030    2    1    2    0    0  0.00000000000E+00  0.00000000000E+00 -0.98631125650E+03  0.37014319056E+04  0.35676025923E+04 0.  0.
        5    1    3    3  502    0  0.12901247169E+04 -0.11588086078E+04 -0.92676357379E+03  0.19662583722E+04  0.46999998093E+01 0. -1.
       -5    1    3    3    0  502 -0.12901247169E+04  0.11588086078E+04 -0.59547682701E+02  0.17351735334E+04  0.46999998093E+01 0.  1.
</event>
<event>
 5   0  0.3202875E-08  0.3604054E+04  0.7818609E-02  0.8089564E-01
       -1   -1    0    0    0  501  0.00000000000E+00  0.00000000000E+00  0.12912790913E+04  0.12912790913E+04  0.50400001928E-02 0.  1.
        1   -1    0    0  501    0  0.00000000000E+00  0.00000000000E+00 -0.25147946664E+04  0.25147946664E+04  0.50400001928E-02 0. -1.
    10030    2    1    2    0    0  0.00000000000E+00  0.00000000000E+00 -0.12235155751E+04  0.38060737577E+04  0.36040542569E+04 0.  0.
        1    1    3    3  502    0 -0.17946135486E+04 -0.58960716035E+02 -0.77256811513E+03  0.19547316050E+04  0.50400001928E-02 0. -1.
       -1    1    3    3    0  502  0.17946135486E+04  0.58960716035E+02 -0.45094745995E+03  0.18513421528E+04  0.50400001928E-02 0.  1.
</event>
<event>
 5   0  0.3202875E-08  0.3602623E+04  0.7818609E-02  0.8089891E-01
       -3   -1    0    0    0  501  0.00000000000E+00  0.00000000000E+00  0.16168865134E+04  0.16168865166E+04  0.10100000352E+00 0.  1.
        3   -1    0    0  501    0  0.00000000000E+00  0.00000000000E+00 -0.20067722168E+04  0.20067722194E+04  0.10100000352E+00 0. -1.
    10030    2    1    2    0    0  0.00000000000E+00  0.00000000000E+00 -0.38988570339E+03  0.36236587360E+04  0.36026229019E+04 0.  0.
        2    1    3    3  502    0 -0.11906043987E+04 -0.13298265035E+04 -0.43873296060E+03  0.18380598397E+04  0.25500000920E-02 0.  1.
       -2    1    3    3    0  502  0.11906043987E+04  0.13298265035E+04  0.48847257216E+02  0.17855988962E+04  0.25500000920E-02 0. -1.
</event>
<event>
 5   0  0.1021087E-07  0.3617175E+04  0.7818609E-02  0.8086569E-01
        2   -1    0    0  501    0  0.00000000000E+00  0.00000000000E+00  0.16833002355E+04  0.16833002355E+04  0.25500000920E-02 0. -1.
       -2   -1    0    0    0  501  0.00000000000E+00  0.00000000000E+00 -0.19431996090E+04  0.19431996090E+04  0.25500000920E-02 0.  1.
    10030    2    1    2    0    0  0.00000000000E+00  0.00000000000E+00 -0.25989937355E+03  0.36264998445E+04  0.36171747868E+04 0.  0.
        3    1    3    3  502    0 -0.13036371165E+04 -0.10250231229E+04 -0.85350697854E+03  0.18651049050E+04  0.10100000352E+00 0.  1.
       -3    1    3    3    0  502  0.13036371165E+04  0.10250231229E+04  0.59360760499E+03  0.17613949395E+04  0.10100000352E+00 0. -1.
</event>
<event>
 5   0  0.9905335E-08  0.3603008E+04  0.7818609E-02  0.8089803E-01
        2   -1    0    0  501    0  0.00000000000E+00  0.00000000000E+00  0.27572708289E+04  0.27572708289E+04  0.25500000920E-02 0. -1.
       -2   -1    0    0    0  501  0.00000000000E+00  0.00000000000E+00 -0.11770395093E+04  0.11770395093E+04  0.25500000920E-02 0.  1.
    10030    2    1    2    0    0  0.00000000000E+00  0.00000000000E+00  0.15802313196E+04  0.39343103383E+04  0.36030080231E+04 0.  0.
        5    1    3    3  502    0  0.10274455905E+03  0.12859620809E+04 -0.58294114843E+03  0.14156614675E+04  0.46999998093E+01 0.  1.
       -5    1    3    3    0  502 -0.10274455905E+03 -0.12859620809E+04  0.21631724680E+04  0.25186488708E+04  0.46999998093E+01 0. -1.
</event>
<event>
 5   0  0.1029908E-07  0.3602734E+04  0.7818609E-02  0.8089866E-01
        2   -1    0    0  501    0  0.00000000000E+00  0.00000000000E+00  0.29495105444E+04  0.29495105444E+04  0.25500000920E-02 0.  1.
       -2   -1    0    0    0  501  0.00000000000E+00  0.00000000000E+00 -0.11001564578E+04  0.11001564579E+04  0.25500000920E-02 0. -1.
    10030    2    1    2    0    0  0.00000000000E+00  0.00000000000E+00  0.18493540866E+04  0.40496670023E+04  0.36027340024E+04 0.  0.
        4    1    3    3  502    0 -0.38238903692E+02 -0.14551060270E+04 -0.26815843886E+03  0.14801034845E+04  0.12699999809E+01 0. -1.
       -4    1    3    3    0  502  0.38238903692E+02  0.14551060270E+04  0.21175125254E+04  0.25695635178E+04  0.12699999809E+01 0.  1.
</event>
<event>
 5   0  0.3212523E-08  0.3599922E+04  0.7818609E-02  0.8090509E-01
       -1   -1    0    0    0  501  0.00000000000E+00  0.00000000000E+00  0.17664081777E+04  0.17664081777E+04  0.50400001928E-02 0. -1.
        1   -1    0    0  501    0  0.00000000000E+00  0.00000000000E+00 -0.18341515378E+04  0.18341515378E+04  0.50400001928E-02 0.  1.
    10030    2    1    2    0    0  0.00000000000E+00  0.00000000000E+00 -0.67743360096E+02  0.36005597155E+04  0.35999223745E+04 0.  0.
        3    1    3    3  502    0 -0.34632126541E+03 -0.70235455758E+03  0.15871002672E+04  0.17697817977E+04  0.10100000352E+00 0. -1.
       -3    1    3    3    0  502  0.34632126541E+03  0.70235455758E+03 -0.16548436272E+04  0.18307779178E+04  0.10100000352E+00 0.  1.
</event>
<event>
 5   0  0.3215494E-08  0.3598678E+04  0.7818609E-02  0.8090795E-01
       -1   -1    0    0    0  501  0.00000000000E+00  0.00000000000E+00  0.14806922923E+04  0.14806922923E+04  0.50400001928E-02 0. -1.
        1   -1    0    0  501    0  0.00000000000E+00  0.00000000000E+00 -0.21865584127E+04  0.21865584127E+04  0.50400001928E-02 0.  1.
    10030    2    1    2    0    0  0.00000000000E+00  0.00000000000E+00 -0.70586612033E+03  0.36672507050E+04  0.35986776396E+04 0.  0.
        4    1    3    3  502    0 -0.15786130762E+04  0.58240201738E+03 -0.10025814456E+04  0.19586685585E+04  0.12699999809E+01 0.  1.
       -4    1    3    3    0  502  0.15786130762E+04 -0.58240201738E+03  0.29671532523E+03  0.17085821465E+04  0.12699999809E+01 0. -1.
</event>
<event>
 5   0  0.3215494E-08  0.3602949E+04  0.7818609E-02  0.8089816E-01
        1   -1    0    0  501    0  0.00000000000E+00  0.00000000000E+00  0.20725897343E+04  0.20725897343E+04  0.50400001928E-02 0.  1.
       -1   -1    0    0    0  501  0.00000000000E+00  0.00000000000E+00 -0.15658240963E+04  0.15658240963E+04  0.50400001928E-02 0. -1.
    10030    2    1    2    0    0  0.00000000000E+00  0.00000000000E+00  0.50676563795E+03  0.36384138306E+04  0.36029493184E+04 0.  0.
        4    1    3    3  502    0 -0.12647888641E+03 -0.43845405588E+03 -0.15064903705E+04  0.15740882177E+04  0.12699999809E+01 0. -1.
       -4    1    3    3    0  502  0.12647888641E+03  0.43845405588E+03  0.20132560084E+04  0.20643256129E+04  0.12699999809E+01 0.  1.
</event>
<event>
 5   0  0.3215494E-08  0.3611758E+04  0.7818609E-02  0.8087804E-01
        1   -1    0    0  501    0  0.00000000000E+00  0.00000000000E+00  0.20699743529E+04  0.20699743529E+04  0.50400001928E-02 0. -1.
       -1   -1    0    0    0  501  0.00000000000E+00  0.00000000000E+00 -0.15754783716E+04  0.15754783716E+04  0.50400001928E-02 0.  1.
    10030    2    1    2    0    0  0.00000000000E+00  0.00000000000E+00  0.49449598122E+03  0.36454527245E+04  0.36117584763E+04 0.  0.
        4    1    3    3  502    0  0.85522712098E+03 -0.12765133417E+04 -0.71044437606E+03  0.16928179360E+04  0.12699999809E+01 0.  1.
       -4    1    3    3    0  502 -0.85522712098E+03  0.12765133417E+04  0.12049403573E+04  0.19526347885E+04  0.12699999809E+01 0. -1.
</event>
<event>
 5   0  0.3202875E-08  0.3599613E+04  0.7818609E-02  0.8090580E-01
        1   -1    0    0  501    0  0.00000000000E+00  0.00000000000E+00  0.21155595014E+04  0.21155595014E+04  0.50400001928E-02 0.  1.
       -1   -1    0    0    0  501  0.00000000000E+00  0.00000000000E+00 -0.15311806999E+04  0.15311806999E+04  0.50400001928E-02 0. -1.
    10030    2    1    2    0    0  0.00000000000E+00  0.00000000000E+00  0.58437880145E+03  0.36467402013E+04  0.35996132448E+04 0.  0.
        1    1    3    3  502    0  0.14865667805E+04 -0.99308797583E+03  0.50275510014E+03  0.18571126006E+04  0.50400001928E-02 0.  1.
       -1    1    3    3    0  502 -0.14865667805E+04  0.99308797583E+03  0.81623701308E+02  0.17896276007E+04  0.50400001928E-02 0. -1.
</event>
<event>
 5   0  0.3279988E-08  0.3602204E+04  0.7818609E-02  0.8089987E-01
       -1   -1    0    0    0  501  0.00000000000E+00  0.00000000000E+00  0.12922777208E+04  0.12922777208E+04  0.50400001928E-02 0. -1.
        1   -1    0    0  501    0  0.00000000000E+00  0.00000000000E+00 -0.25102721719E+04  0.25102721720E+04  0.50400001928E-02 0.  1.
    10030    2    1    2    0    0  0.00000000000E+00  0.00000000000E+00 -0.12179944511E+04  0.38025498928E+04  0.36022042147E+04 0.  0.
        5    1    3    3  502    0 -0.74564640914E+03 -0.15931064479E+04 -0.10177952339E+04  0.20322170036E+04  0.46999998093E+01 0.  1.
       -5    1    3    3    0  502  0.74564640914E+03  0.15931064479E+04 -0.20019921724E+03  0.17703328891E+04  0.46999998093E+01 0. -1.
</event>
<event>
 5   0  0.1029908E-07  0.3599907E+04  0.7818609E-02  0.8090513E-01
        2   -1    0    0  501    0  0.00000000000E+00  0.00000000000E+00  0.18377201647E+04  0.18377201647E+04  0.25500000920E-02 0.  1.
       -2   -1    0    0    0  501  0.00000000000E+00  0.00000000000E+00 -0.17629629130E+04  0.17629629130E+04  0.25500000920E-02 0. -1.
    10030    2    1    2    0    0  0.00000000000E+00  0.00000000000E+00  0.74757251734E+02  0.36006830777E+04  0.35999069404E+04 0.  0.
        4    1    3    3  502    0  0.17345822919E+04  0.34881237509E+03  0.36818408715E+03  0.18072097099E+04  0.12699999809E+01 0.  1.
       -4    1    3    3    0  502 -0.17345822919E+04 -0.34881237509E+03 -0.29342683542E+03  0.17934733678E+04  0.12699999809E+01 0. -1.
</event>
<event>
 5   0  0.3202875E-08  0.3639209E+04  0.7818609E-02  0.8081569E-01
        3   -1    0    0  501    0  0.00000000000E+00  0.00000000000E+00  0.18929851447E+04  0.18929851474E+04  0.10100000352E+00 0. -1.
       -3   -1    0    0    0  501  0.00000000000E+00  0.00000000000E+00 -0.17490680182E+04  0.17490680212E+04  0.10100000352E+00 0.  1.
    10030    2    1    2    0    0  0.00000000000E+00  0.00000000000E+00  0.14391712649E+03  0.36420531686E+04  0.36392085875E+04 0.  0.
        2    1    3    3  502    0  0.93701674449E+03  0.42758752414E+03  0.15731738403E+04  0.18803476812E+04  0.25500000920E-02 0. -1.
       -2    1    3    3    0  502 -0.93701674449E+03 -0.42758752414E+03 -0.14292567138E+04  0.17617054874E+04  0.25500000920E-02 0.  1.
</event>
<event>
 5   0  0.1029908E-07  0.3603241E+04  0.7818609E-02  0.8089750E-01
        2   -1    0    0  501    0  0.00000000000E+00  0.00000000000E+00  0.18235554164E+04  0.18235554164E+04  0.25500000920E-02 0.  1.
       -2   -1    0    0    0  501  0.00000000000E+00  0.00000000000E+00 -0.17799496495E+04  0.17799496495E+04  0.25500000920E-02 0. -1.
    10030    2    1    2    0    0  0.00000000000E+00  0.00000000000E+00  0.43605766946E+02  0.36035050659E+04  0.36032412211E+04 0.  0.
        4    1    3    3  502    0  0.97153559170E+03  0.15059593393E+04  0.20631645823E+03  0.18039853190E+04  0.12699999809E+01 0.  1.
       -4    1    3    3    0  502 -0.97153559170E+03 -0.15059593393E+04 -0.16271069128E+03  0.17995197469E+04  0.12699999809E+01 0. -1.
</event>
<event>
 5   0  0.3202875E-08  0.3626444E+04  0.7818609E-02  0.8084461E-01
        1   -1    0    0  501    0  0.00000000000E+00  0.00000000000E+00  0.25177146654E+04  0.25177146654E+04  0.50400001928E-02 0. -1.
       -1   -1    0    0    0  501  0.00000000000E+00  0.00000000000E+00 -0.13058561410E+04  0.13058561410E+04  0.50400001928E-02 0.  1.
    10030    2    1    2    0    0  0.00000000000E+00  0.00000000000E+00  0.12118585244E+04  0.38235708064E+04  0.36264435234E+04 0.  0.
        1    1    3    3  502    0  0.59919519384E+03 -0.15444784569E+04 -0.17124407450E+03  0.16654648351E+04  0.50400001928E-02 0.  1.
       -1    1    3    3    0  502 -0.59919519384E+03  0.15444784569E+04  0.13831025989E+04  0.21581059712E+04  0.50400001928E-02 0. -1.
</event>
<event>
 5   0  0.1017794E-07  0.3600225E+04  0.7818609E-02  0.8090440E-01
       -2   -1    0    0    0  501  0.00000000000E+00  0.00000000000E+00  0.12108041615E+04  0.12108041615E+04  0.25500000920E-02 0.  1.
        2   -1    0    0  501    0  0.00000000000E+00  0.00000000000E+00 -0.26762416564E+04  0.26762416564E+04  0.25500000920E-02 0. -1.
    10030    2    1    2    0    0  0.00000000000E+00  0.00000000000E+00 -0.14654374949E+04  0.38870458178E+04  0.36002247344E+04 0.  0.
        1    1    3    3  502    0  0.15351311600E+04 -0.28058906720E+03  0.23600638497E+03  0.15783082452E+04  0.50400001928E-02 0. -1.
       -1    1    3    3    0  502 -0.15351311600E+04  0.28058906720E+03 -0.17014438799E+04  0.23087375726E+04  0.50400001928E-02 0.  1.
</event>
<event>
 5   0  0.3212523E-08  0.3598525E+04  0.7818609E-02  0.8090830E-01
       -1   -1    0    0    0  501  0.00000000000E+00  0.00000000000E+00  0.14127610003E+04  0.14127610003E+04  0.50400001928E-02 0. -1.
        1   -1    0    0  501    0  0.00000000000E+00  0.00000000000E+00 -0.22915024729E+04  0.22915024729E+04  0.50400001928E-02 0.  1.
    10030    2    1    2    0    0  0.00000000000E+00  0.00000000000E+00 -0.87874147254E+03  0.37042634732E+04  0.35985248788E+04 0.  0.
        3    1    3    3  502    0 -0.96194727597E+03 -0.14169093345E+04  0.12853829501E+03  0.17174098892E+04  0.10100000352E+00 0. -1.
       -3    1    3    3    0  502  0.96194727597E+03  0.14169093345E+04 -0.10072797676E+04  0.19868535840E+04  0.10100000352E+00 0.  1.
</event>
<event>
 5   0  0.1044678E-07  0.3607265E+04  0.7818609E-02  0.8088830E-01
       -2   -1    0    0    0  501  0.00000000000E+00  0.00000000000E+00  0.13821134816E+04  0.13821134816E+04  0.25500000920E-02 0. -1.
        2   -1    0    0  501    0  0.00000000000E+00  0.00000000000E+00 -0.23537066144E+04  0.23537066144E+04  0.25500000920E-02 0.  1.
    10030    2    1    2    0    0  0.00000000000E+00  0.00000000000E+00 -0.97159313281E+03  0.37358200959E+04  0.36072646941E+04 0.  0.
        2    1    3    3  502    0 -0.24825017625E+03 -0.10739761693E+04  0.99267828253E+03  0.14833958119E+04  0.25500000920E-02 0. -1.
       -2    1    3    3    0  502  0.24825017625E+03  0.10739761693E+04 -0.19642714153E+04  0.22524242840E+04  0.25500000920E-02 0.  1.
</event>
<event>
 5   0  0.3202875E-08  0.3577486E+04  0.7818609E-02  0.8095668E-01
        1   -1    0    0  501    0  0.00000000000E+00  0.00000000000E+00  0.11716933414E+04  0.11716933414E+04  0.50400001928E-02 0. -1.
       -1   -1    0    0    0  501  0.00000000000E+00  0.00000000000E+00 -0.27307496225E+04  0.27307496225E+04  0.50400001928E-02 0.  1.
    10030    2    1    2    0    0  0.00000000000E+00  0.00000000000E+00 -0.15590562812E+04  0.39024429639E+04  0.35774857929E+04 0.  0.
        1    1    3    3  502    0 -0.13856474159E+04  0.46673562243E+03 -0.19035319596E+04  0.24002697397E+04  0.50400001928E-02 0.  1.
       -1    1    3    3    0  502  0.13856474159E+04 -0.46673562243E+03  0.34447567840E+03  0.15021732242E+04  0.50400001928E-02 0. -1.
</event>
<event>
 5   0  0.3279988E-08  0.3602740E+04  0.7818609E-02  0.8089864E-01
        1   -1    0    0  501    0  0.00000000000E+00  0.00000000000E+00  0.16204729897E+04  0.16204729897E+04  0.50400001928E-02 0.  1.
       -1   -1    0    0    0  501  0.00000000000E+00  0.00000000000E+00 -0.20024612715E+04  0.20024612715E+04  0.50400001928E-02 0. -1.
    10030    2    1    2    0    0  0.00000000000E+00  0.00000000000E+00 -0.38198828185E+03  0.36229342612E+04  0.36027402923E+04 0.  0.
        5    1    3    3  502    0  0.41537749241E+03 -0.15728962721E+03 -0.19465267046E+04  0.19965637455E+04  0.46999998093E+01 0. -1.
       -5    1    3    3    0  502 -0.41537749241E+03  0.15728962721E+03  0.15645384228E+04  0.16263705157E+04  0.46999998093E+01 0.  1.
</event>
<event>
 5   0  0.3202875E-08  0.3603499E+04  0.7818609E-02  0.8089691E-01
       -1   -1    0    0    0  501  0.00000000000E+00  0.00000000000E+00  0.13892160736E+04  0.13892160736E+04  0.50400001928E-02 0.  1.
        1   -1    0    0  501    0  0.00000000000E+00  0.00000000000E+00 -0.23367860752E+04  0.23367860752E+04  0.50400001928E-02 0. -1.
    10030    2    1    2    0    0  0.00000000000E+00  0.00000000000E+00 -0.94757000159E+03  0.37260021488E+04  0.36034987311E+04 0.  0.
        1    1    3    3  502    0  0.10552071240E+04  0.11012077369E+04  0.51808595819E+03  0.16107556036E+04  0.50400001928E-02 0.  1.
       -1    1    3    3    0  502 -0.10552071240E+04 -0.11012077369E+04 -0.14656559598E+04  0.21152465452E+04  0.50400001928E-02 0. -1.
</event>
<event>
 5   0  0.9905335E-08  0.3591280E+04  0.7818609E-02  0.8092492E-01
        2   -1    0    0  501    0  0.00000000000E+00  0.00000000000E+00  0.23575300984E+04  0.23575300984E+04  0.25500000920E-02 0. -1.
       -2   -1    0    0    0  501  0.00000000000E+00  0.00000000000E+00 -0.13676698782E+04  0.13676698782E+04  0.25500000920E-02 0.  1.
    10030    2    1    2    0    0  0.00000000000E+00  0.00000000000E+00  0.98986022018E+03  0.37251999766E+04  0.35912799404E+04 0.  0.
        5    1    3    3  502    0  0.69053615698E+03  0.73794803127E+03  0.20344916947E+04  0.22716923266E+04  0.46999998093E+01 0. -1.
       -5    1    3    3    0  502 -0.69053615698E+03 -0.73794803127E+03 -0.10446314745E+04  0.14535076500E+04  0.46999998093E+01 0.  1.
</event>
<event>
 5   0  0.1021087E-07  0.3609701E+04  0.7818609E-02  0.8088273E-01
       -2   -1    0    0    0  501  0.00000000000E+00  0.00000000000E+00  0.13714741409E+04  0.13714741409E+04  0.25500000920E-02 0. -1.
        2   -1    0    0  501    0  0.00000000000E+00  0.00000000000E+00 -0.23751701823E+04  0.23751701823E+04  0.25500000920E-02 0.  1.
    10030    2    1    2    0    0  0.00000000000E+00  0.00000000000E+00 -0.10036960414E+04  0.37466443232E+04  0.36097005334E+04 0.  0.
        3    1    3    3  502    0 -0.16908325384E+04 -0.12381661128E+03 -0.11443970667E+04  0.20454559107E+04  0.10100000352E+00 0.  1.
       -3    1    3    3    0  502  0.16908325384E+04  0.12381661128E+03  0.14070102532E+03  0.17011884125E+04  0.10100000352E+00 0. -1.
</event>
<event>
 5   0  0.1017794E-07  0.3592961E+04  0.7818609E-02  0.8092106E-01
        2   -1    0    0  501    0  0.00000000000E+00  0.00000000000E+00  0.11406671940E+04  0.11406671940E+04  0.25500000920E-02 0.  1.
       -2   -1    0    0    0  501  0.00000000000E+00  0.00000000000E+00 -0.28293463702E+04  0.28293463702E+04  0.25500000920E-02 0. -1.
    10030    2    1    2    0    0  0.00000000000E+00  0.00000000000E+00 -0.16886791762E+04  0.39700135643E+04  0.35929612217E+04 0.  0.
        1    1    3    3  502    0 -0.14474885295E+04  0.42112795083E+03  0.23532541176E+03  0.15257620534E+04  0.50400001928E-02 0.  1.
       -1    1    3    3    0  502  0.14474885295E+04 -0.42112795083E+03 -0.19240045880E+04  0.24442515109E+04  0.50400001928E-02 0. -1.
</event>
<event>
 5   0  0.3202875E-08  0.3601950E+04  0.7818609E-02  0.8090045E-01
       -1   -1    0    0    0  501  0.00000000000E+00  0.00000000000E+00  0.19515729225E+04  0.19515729225E+04  0.50400001928E-02 0. -1.
        1   -1    0    0  501    0  0.00000000000E+00  0.00000000000E+00 -0.16619984345E+04  0.16619984345E+04  0.50400001928E-02 0.  1.
    10030    2    1    2    0    0  0.00000000000E+00  0.00000000000E+00  0.28957448795E+03  0.36135713570E+04  0.36019501062E+04 0.  0.
        2    1    3    3  502    0  0.21190734836E+03 -0.14083212744E+04  0.12507220912E+04  0.18954100574E+04  0.25500000920E-02 0. -1.
       -2    1    3    3    0  502 -0.21190734836E+03  0.14083212744E+04 -0.96114760326E+03  0.17181612996E+04  0.25500000920E-02 0.  1.
</event>
<event>
 5   0  0.3202875E-08  0.3603022E+04  0.7818609E-02  0.8089800E-01
       -1   -1    0    0    0  501  0.00000000000E+00  0.00000000000E+00  0.11592684806E+04  0.11592684806E+04  0.50400001928E-02 0.  1.
        1   -1    0    0  501    0  0.00000000000E+00  0.00000000000E+00 -0.27995608895E+04  0.27995608895E+04  0.50400001928E-02 0. -1.
    10030    2    1    2    0    0  0.00000000000E+00  0.00000000000E+00 -0.16402924089E+04  0.39588293702E+04  0.36030224528E+04 0.  0.
        1    1    3    3  502    0  0.16260783010E+04  0.73244489198E+03 -0.10999217325E+04  0.20953362447E+04  0.50400001928E-02 0. -1.
       -1    1    3    3    0  502 -0.16260783010E+04 -0.73244489198E+03 -0.54037067640E+03  0.18634931255E+04  0.50400001928E-02 0.  1.
</event>
<event>
 5   0  0.9905335E-08  0.3606388E+04  0.7818609E-02  0.8089030E-01
        2   -1    0    0  501    0  0.00000000000E+00  0.00000000000E+00  0.12920807429E+04  0.12920807429E+04  0.25500000920E-02 0.  1.
       -2   -1    0    0    0  501  0.00000000000E+00  0.00000000000E+00 -0.25164896758E+04  0.25164896758E+04  0.25500000920E-02 0. -1.
    10030    2    1    2    0    0  0.00000000000E+00  0.00000000000E+00 -0.12244089330E+04  0.38085704187E+04  0.36063875830E+04 0.  0.
        5    1    3    3  502    0  0.65304006091E+03  0.87528795723E+03 -0.21275327721E+04  0.23914447757E+04  0.46999998093E+01 0. -1.
       -5    1    3    3    0  502 -0.65304006091E+03 -0.87528795723E+03  0.90312383909E+03  0.14171256430E+04  0.46999998093E+01 0.  1.
</event>
<event>
 5   0  0.3279988E-08  0.3584830E+04  0.7818609E-02  0.8093975E-01
       -1   -1    0    0    0  501  0.00000000000E+00  0.00000000000E+00  0.18047614806E+04  0.18047614806E+04  0.50400001928E-02 0.  1.
        1   -1    0    0  501    0  0.00000000000E+00  0.00000000000E+00 -0.17801528510E+04  0.17801528510E+04  0.50400001928E-02 0. -1.
    10030    2    1    2    0    0  0.00000000000E+00  0.00000000000E+00  0.24608629581E+02  0.35849143316E+04  0.35848298677E+04 0.  0.
        5    1    3    3  502    0 -0.69378783423E+03 -0.16465285605E+04  0.15489570204E+03  0.17934359838E+04  0.46999998093E+01 0.  1.
       -5    1    3    3    0  502  0.69378783423E+03  0.16465285605E+04 -0.13028707246E+03  0.17914783478E+04  0.46999998093E+01 0. -1.
</event>
<event>
 5   0  0.3215494E-08  0.3600592E+04  0.7818609E-02  0.8090356E-01
       -1   -1    0    0    0  501  0.00000000000E+00  0.00000000000E+00  0.14231308534E+04  0.14231308534E+04  0.50400001928E-02 0.  1.
        1   -1    0    0  501    0  0.00000000000E+00  0.00000000000E+00 -0.22774193235E+04  0.22774193235E+04  0.50400001928E-02 0. -1.
    10030    2    1    2    0    0  0.00000000000E+00  0.00000000000E+00 -0.85428847018E+03  0.37005501769E+04  0.36005920099E+04 0.  0.
        4    1    3    3  502    0  0.52786492565E+03  0.11685542272E+04  0.87162427949E+03  0.15504485993E+04  0.12699999809E+01 0.  1.
       -4    1    3    3    0  502 -0.52786492565E+03 -0.11685542272E+04 -0.17259127497E+04  0.21501015776E+04  0.12699999809E+01 0. -1.
</event>
<event>
 5   0  0.9905335E-08  0.3597739E+04  0.7818609E-02  0.8091010E-01
       -2   -1    0    0    0  501  0.00000000000E+00  0.00000000000E+00  0.21666301900E+04  0.21666301900E+04  0.25500000920E-02 0.  1.
        2   -1    0    0  501    0  0.00000000000E+00  0.00000000000E+00 -0.14935317647E+04  0.14935317647E+04  0.25500000920E-02 0. -1.
    10030    2    1    2    0    0  0.00000000000E+00  0.00000000000E+00  0.67309842532E+03  0.36601619547E+04  0.35977387404E+04 0.  0.
        5    1    3    3  502    0  0.69775135561E+03  0.77656563763E+03 -0.11537906358E+04  0.15560096610E+04  0.46999998093E+01 0. -1.
       -5    1    3    3    0  502 -0.69775135561E+03 -0.77656563763E+03  0.18268890611E+04  0.21041522938E+04  0.46999998093E+01 0.  1.
</event>
<event>
 5   0  0.3202875E-08  0.3606352E+04  0.7818609E-02  0.8089038E-01
       -3   -1    0    0    0  501  0.00000000000E+00  0.00000000000E+00  0.19367144187E+04  0.19367144213E+04  0.10100000352E+00 0.  1.
        3   -1    0    0  501    0  0.00000000000E+00  0.00000000000E+00 -0.16788453346E+04  0.16788453376E+04  0.10100000352E+00 0. -1.
    10030    2    1    2    0    0  0.00000000000E+00  0.00000000000E+00  0.25786908412E+03  0.36155597590E+04  0.36063521606E+04 0.  0.
        5    1    3    3  502    0  0.88552278118E+03  0.15102827401E+04 -0.30381243534E+03  0.17769154839E+04  0.46999998093E+01 0. -1.
       -5    1    3    3    0  502 -0.88552278118E+03 -0.15102827401E+04  0.56168151946E+03  0.18386442751E+04  0.46999998093E+01 0.  1.
</event>
<event>
 5   0  0.9905335E-08  0.3606531E+04  0.7818609E-02  0.8088997E-01
       -2   -1    0    0    0  501  0.00000000000E+00  0.00000000000E+00  0.24661924493E+04  0.24661924493E+04  0.25500000920E-02 0.  1.
        2   -1    0    0  501    0  0.00000000000E+00  0.00000000000E+00 -0.13185371183E+04  0.13185371183E+04  0.25500000920E-02 0. -1.
    10030    2    1    2    0    0  0.00000000000E+00  0.00000000000E+00  0.11476553310E+04  0.37847295676E+04  0.36065309012E+04 0.  0.
        5    1    3    3  502    0  0.55307483575E+03 -0.43460233272E+03  0.23162822615E+04  0.24207347163E+04  0.46999998093E+01 0.  1.
       -5    1    3    3    0  502 -0.55307483575E+03  0.43460233272E+03 -0.11686269306E+04  0.13639948513E+04  0.46999998093E+01 0. -1.
</event>
<event>
 5   0  0.1029908E-07  0.3600476E+04  0.7818609E-02  0.8090383E-01
        2   -1    0    0  501    0  0.00000000000E+00  0.00000000000E+00  0.18264355199E+04  0.18264355199E+04  0.25500000920E-02 0.  1.
       -2   -1    0    0    0  501  0.00000000000E+00  0.00000000000E+00 -0.17744163559E+04  0.17744163559E+04  0.25500000920E-02 0. -1.
    10030    2    1    2    0    0  0.00000000000E+00  0.00000000000E+00  0.52019163966E+02  0.36008518758E+04  0.36004761127E+04 0.  0.
        4    1    3    3  502    0  0.38657109393E+03  0.15917837620E+04 -0.72082312602E+03  0.17896369317E+04  0.12699999809E+01 0.  1.
       -4    1    3    3    0  502 -0.38657109393E+03 -0.15917837620E+04  0.77284228999E+03  0.18112149441E+04  0.12699999809E+01 0. -1.
</event>
<event>
 5   0  0.1017794E-07  0.3599366E+04  0.7818609E-02  0.8090637E-01
        2   -1    0    0  501    0  0.00000000000E+00  0.00000000000E+00  0.18043018006E+04  0.18043018006E+04  0.25500000920E-02 0.  1.
       -2   -1    0    0    0  501  0.00000000000E+00  0.00000000000E+00 -0.17950755832E+04  0.17950755832E+04  0.25500000920E-02 0. -1.
    10030    2    1    2    0    0  0.00000000000E+00  0.00000000000E+00  0.92262174302E+01  0.35993773837E+04  0.35993655590E+04 0.  0.
        1    1    3    3  502    0  0.30789284724E+03  0.28008052309E+03 -0.17462824177E+04  0.17952006538E+04  0.50400001928E-02 0. -1.
       -1    1    3    3    0  502 -0.30789284724E+03 -0.28008052309E+03  0.17555086352E+04  0.18041767300E+04  0.50400001928E-02 0.  1.
</event>
<event>
 5   0  0.1017794E-07  0.3603864E+04  0.7818609E-02  0.8089607E-01
       -2   -1    0    0    0  501  0.00000000000E+00  0.00000000000E+00  0.24363376426E+04  0.24363376426E+04  0.25500000920E-02 0. -1.
        2   -1    0    0  501    0  0.00000000000E+00  0.00000000000E+00 -0.13327209632E+04  0.13327209632E+04  0.25500000920E-02 0.  1.
    10030    2    1    2    0    0  0.00000000000E+00  0.00000000000E+00  0.11036166794E+04  0.37690586058E+04  0.36038636210E+04 0.  0.
        1    1    3    3  502    0 -0.70056589356E+02  0.15210649691E+03  0.24281815565E+04  0.24339494620E+04  0.50400001928E-02 0. -1.
       -1    1    3    3    0  502  0.70056589356E+02 -0.15210649691E+03 -0.13245648771E+04  0.13351091438E+04  0.50400001928E-02 0.  1.
</event>
<event>
 5   0  0.3202875E-08  0.3593940E+04  0.7818609E-02  0.8091881E-01
       -1   -1    0    0    0  501  0.00000000000E+00  0.00000000000E+00  0.13387714476E+04  0.13387714477E+04  0.50400001928E-02 0. -1.
        1   -1    0    0  501    0  0.00000000000E+00  0.00000000000E+00 -0.24119883333E+04  0.24119883333E+04  0.50400001928E-02 0.  1.
    10030    2    1    2    0    0  0.00000000000E+00  0.00000000000E+00 -0.10732168857E+04  0.37507597810E+04  0.35939399621E+04 0.  0.
        2    1    3    3  502    0 -0.17948888193E+04 -0.17462466099E+01 -0.62682211763E+03  0.19011930176E+04  0.25500000920E-02 0.  1.
       -2    1    3    3    0  502  0.17948888193E+04  0.17462466099E+01 -0.44639476804E+03  0.18495667634E+04  0.25500000920E-02 0. -1.
</event>
<event>
 5   0  0.1017794E-07  0.3601543E+04  0.7818609E-02  0.8090138E-01
       -2   -1    0    0    0  501  0.00000000000E+00  0.00000000000E+00  0.23477511744E+04  0.23477511744E+04  0.25500000920E-02 0.  1.
        2   -1    0    0  501    0  0.00000000000E+00  0.00000000000E+00 -0.13812273359E+04  0.13812273359E+04  0.25500000920E-02 0. -1.
    10030    2    1    2    0    0  0.00000000000E+00  0.00000000000E+00  0.96652383851E+03  0.37289785102E+04  0.36015430581E+04 0.  0.
        1    1    3    3  502    0  0.11602332607E+04  0.79786271894E+03 -0.67897722061E+03  0.15632454073E+04  0.50400001928E-02 0. -1.
       -1    1    3    3    0  502 -0.11602332607E+04 -0.79786271894E+03  0.16455010591E+04  0.21657331029E+04  0.50400001928E-02 0.  1.
</event>
<event>
 5   0  0.3279988E-08  0.3608037E+04  0.7818609E-02  0.8088653E-01
        1   -1    0    0  501    0  0.00000000000E+00  0.00000000000E+00  0.16416197262E+04  0.16416197262E+04  0.50400001928E-02 0. -1.
       -1   -1    0    0    0  501  0.00000000000E+00  0.00000000000E+00 -0.19824826308E+04  0.19824826308E+04  0.50400001928E-02 0.  1.
    10030    2    1    2    0    0  0.00000000000E+00  0.00000000000E+00 -0.34086290454E+03  0.36241023570E+04  0.36080369142E+04 0.  0.
        5    1    3    3  502    0 -0.16889785752E+04 -0.30846007469E+03 -0.72666997639E+03  0.18643678794E+04  0.46999998093E+01 0.  1.
       -5    1    3    3    0  502  0.16889785752E+04  0.30846007469E+03  0.38580707185E+03  0.17597344776E+04  0.46999998093E+01 0. -1.
</event>
<event>
 5   0  0.3212523E-08  0.3586172E+04  0.7818609E-02  0.8093666E-01
       -1   -1    0    0    0  501  0.00000000000E+00  0.00000000000E+00  0.17117970044E+04  0.17117970044E+04  0.50400001928E-02 0. -1.
        1   -1    0    0  501    0  0.00000000000E+00  0.00000000000E+00 -0.18782355860E+04  0.18782355860E+04  0.50400001928E-02 0.  1.
    10030    2    1    2    0    0  0.00000000000E+00  0.00000000000E+00 -0.16643858163E+03  0.35900325904E+04  0.35861723604E+04 0.  0.
        3    1    3    3  502    0  0.73632183581E+02 -0.15966105656E+04 -0.89684937423E+03  0.18327372444E+04  0.10100000352E+00 0.  1.
       -3    1    3    3    0  502 -0.73632183581E+02  0.15966105656E+04  0.73041079260E+03  0.17572953460E+04  0.10100000352E+00 0. -1.
</event>
<event>
 5   0  0.1029908E-07  0.3612630E+04  0.7818609E-02  0.8087605E-01
        2   -1    0    0  501    0  0.00000000000E+00  0.00000000000E+00  0.13468819572E+04  0.13468819572E+04  0.25500000920E-02 0. -1.
       -2   -1    0    0    0  501  0.00000000000E+00  0.00000000000E+00 -0.24224650751E+04  0.24224650751E+04  0.25500000920E-02 0.  1.
    10030    2    1    2    0    0  0.00000000000E+00  0.00000000000E+00 -0.10755831179E+04  0.37693470323E+04  0.36126303445E+04 0.  0.
        4    1    3    3  502    0  0.11760289394E+04  0.13181646514E+04 -0.93120370327E+03  0.19969336655E+04  0.12699999809E+01 0.  1.
       -4    1    3    3    0  502 -0.11760289394E+04 -0.13181646514E+04 -0.14437941467E+03  0.17724133668E+04  0.12699999809E+01 0. -1.
</event>
<event>
 5   0  0.3202875E-08  0.3632158E+04  0.7818609E-02  0.8083165E-01
        1   -1    0    0  501    0  0.00000000000E+00  0.00000000000E+00  0.17342544805E+04  0.17342544805E+04  0.50400001928E-02 0.  1.
       -1   -1    0    0    0  501  0.00000000000E+00  0.00000000000E+00 -0.19017646280E+04  0.19017646280E+04  0.50400001928E-02 0. -1.
    10030    2    1    2    0    0  0.00000000000E+00  0.00000000000E+00 -0.16751014742E+03  0.36360191085E+04  0.36321584916E+04 0.  0.
        1    1    3    3  502    0  0.11294093320E+04 -0.95680886523E+03  0.96954920058E+03  0.17694841893E+04  0.50400001928E-02 0.  1.
       -1    1    3    3    0  502 -0.11294093320E+04  0.95680886523E+03 -0.11370593480E+04  0.18665349192E+04  0.50400001928E-02 0. -1.
</event>
<event>
 5   0  0.1021087E-07  0.3614449E+04  0.7818609E-02  0.8087190E-01
        2   -1    0    0  501    0  0.00000000000E+00  0.00000000000E+00  0.25374730303E+04  0.25374730303E+04  0.25500000920E-02 0.  1.
       -2   -1    0    0    0  501  0.00000000000E+00  0.00000000000E+00 -0.12871312074E+04  0.12871312074E+04  0.25500000920E-02 0. -1.
    10030    2    1    2    0    0  0.00000000000E+00  0.00000000000E+00  0.12503418229E+04  0.38246042378E+04  0.36144491837E+04 0.  0.
        3    1    3    3  502    0 -0.12119257242E+04  0.11238016049E+04  0.13986776023E+04  0.21651773723E+04  0.10100000352E+00 0.  1.
       -3    1    3    3    0  502  0.12119257242E+04 -0.11238016049E+04 -0.14833577943E+03  0.16594268655E+04  0.10100000352E+00 0. -1.
</event>
<event>
 5   0  0.1021087E-07  0.3582468E+04  0.7818609E-02  0.8094519E-01
       -2   -1    0    0    0  501  0.00000000000E+00  0.00000000000E+00  0.21559879174E+04  0.21559879174E+04  0.25500000920E-02 0. -1.
        2   -1    0    0  501    0  0.00000000000E+00  0.00000000000E+00 -0.14881900746E+04  0.14881900746E+04  0.25500000920E-02 0.  1.
    10030    2    1    2    0    0  0.00000000000E+00  0.00000000000E+00  0.66779784274E+03  0.36441779920E+04  0.35824683221E+04 0.  0.
        3    1    3    3  502    0 -0.75179792544E+03  0.16071728676E+04  0.58372059450E+03  0.18678689702E+04  0.10100000352E+00 0.  1.
       -3    1    3    3    0  502  0.75179792544E+03 -0.16071728676E+04  0.84077248239E+02  0.17763090218E+04  0.10100000352E+00 0. -1.
</event>
<event>
 5   0  0.1021087E-07  0.3602235E+04  0.7818609E-02  0.8089980E-01
       -2   -1    0    0    0  501  0.00000000000E+00  0.00000000000E+00  0.17361956868E+04  0.17361956868E+04  0.25500000920E-02 0.  1.
        2   -1    0    0  501    0  0.00000000000E+00  0.00000000000E+00 -0.18684665875E+04  0.18684665875E+04  0.25500000920E-02 0. -1.
    10030    2    1    2    0    0  0.00000000000E+00  0.00000000000E+00 -0.13227090073E+03  0.36046622743E+04  0.36022346565E+04 0.  0.
        3    1    3    3  502    0  0.83131136280E+03  0.15015733340E+04 -0.61260105069E+03  0.18223833616E+04  0.10100000352E+00 0. -1.
       -3    1    3    3    0  502 -0.83131136280E+03 -0.15015733340E+04  0.48033014996E+03  0.17822789126E+04  0.10100000352E+00 0.  1.
</event>
<event>
 5   0  0.3202875E-08  0.3602091E+04  0.7818609E-02  0.8090013E-01
        1   -1    0    0  501    0  0.00000000000E+00  0.00000000000E+00  0.14319693437E+04  0.14319693437E+04  0.50400001928E-02 0. -1.
       -1   -1    0    0    0  501  0.00000000000E+00  0.00000000000E+00 -0.22652479191E+04  0.22652479191E+04  0.50400001928E-02 0.  1.
    10030    2    1    2    0    0  0.00000000000E+00  0.00000000000E+00 -0.83327857542E+03  0.36972172628E+04  0.36020913792E+04 0.  0.
        2    1    3    3  502    0 -0.12869590369E+04  0.42723878147E+03  0.79997699008E+03  0.15744077374E+04  0.25500000920E-02 0. -1.
       -2    1    3    3    0  502  0.12869590369E+04 -0.42723878147E+03 -0.16332555655E+04  0.21228095254E+04  0.25500000920E-02 0.  1.
</event>
<event>
 5   0  0.9905335E-08  0.3604386E+04  0.7818609E-02  0.8089488E-01
       -2   -1    0    0    0  501  0.00000000000E+00  0.00000000000E+00  0.20317847319E+04  0.20317847319E+04  0.25500000920E-02 0. -1.
        2   -1    0    0  501    0  0.00000000000E+00  0.00000000000E+00 -0.15985454947E+04  0.15985454947E+04  0.25500000920E-02 0.  1.
    10030    2    1    2    0    0  0.00000000000E+00  0.00000000000E+00  0.43323923717E+03  0.36303302266E+04  0.36043863995E+04 0.  0.
        5    1    3    3  502    0 -0.86499201810E+03  0.12049335638E+04 -0.81437033410E+03  0.16921280140E+04  0.46999998093E+01 0.  1.
       -5    1    3    3    0  502  0.86499201810E+03 -0.12049335638E+04  0.12476095713E+04  0.19382022126E+04  0.46999998093E+01 0. -1.
</event>
<event>
 5   0  0.9905335E-08  0.3602996E+04  0.7818609E-02  0.8089806E-01
       -2   -1    0    0    0  501  0.00000000000E+00  0.00000000000E+00  0.12365122791E+04  0.12365122791E+04  0.25500000920E-02 0.  1.
        2   -1    0    0  501    0  0.00000000000E+00  0.00000000000E+00 -0.26246365232E+04  0.26246365232E+04  0.25500000920E-02 0. -1.
    10030    2    1    2    0    0  0.00000000000E+00  0.00000000000E+00 -0.13881242441E+04  0.38611488023E+04  0.36029961360E+04 0.  0.
        5    1    3    3  502    0 -0.11520240319E+03  0.12711590796E+04 -0.20564721904E+04  0.24203753757E+04  0.46999998093E+01 0. -1.
       -5    1    3    3    0  502  0.11520240319E+03 -0.12711590796E+04  0.66834794628E+03  0.14407734266E+04  0.46999998093E+01 0.  1.
</event>
<event>
 5   0  0.1029908E-07  0.3598168E+04  0.7818609E-02  0.8090912E-01
       -2   -1    0    0    0  501  0.00000000000E+00  0.00000000000E+00  0.14676127554E+04  0.14676127554E+04  0.25500000920E-02 0. -1.
        2   -1    0    0  501    0  0.00000000000E+00  0.00000000000E+00 -0.22054199474E+04  0.22054199474E+04  0.25500000920E-02 0.  1.
    10030    2    1    2    0    0  0.00000000000E+00  0.00000000000E+00 -0.73780719207E+03  0.36730327028E+04  0.35981675591E+04 0.  0.
        4    1    3    3  502    0 -0.43791395955E+03  0.69447671391E+03 -0.20030340664E+04  0.21647664138E+04  0.12699999809E+01 0.  1.
       -4    1    3    3    0  502  0.43791395955E+03 -0.69447671391E+03  0.12652268743E+04  0.15082662890E+04  0.12699999809E+01 0. -1.
</event>
<event>
 5   0  0.1029908E-07  0.3586281E+04  0.7818609E-02  0.8093642E-01
       -2   -1    0    0    0  501  0.00000000000E+00  0.00000000000E+00  0.13921810464E+04  0.13921810464E+04  0.25500000920E-02 0.  1.
        2   -1    0    0  501    0  0.00000000000E+00  0.00000000000E+00 -0.23095790248E+04  0.23095790248E+04  0.25500000920E-02 0. -1.
    10030    2    1    2    0    0  0.00000000000E+00  0.00000000000E+00 -0.91739797834E+03  0.37017600712E+04  0.35862806045E+04 0.  0.
        4    1    3    3  502    0  0.32039530641E+02  0.36351655576E+03  0.13534461479E+04  0.14017806198E+04  0.12699999809E+01 0.  1.
       -4    1    3    3    0  502 -0.32039530641E+02 -0.36351655576E+03 -0.22708441263E+04  0.22999794514E+04  0.12699999809E+01 0. -1.
</event>
<event>
 5   0  0.3215494E-08  0.3591710E+04  0.7818609E-02  0.8092393E-01
        1   -1    0    0  501    0  0.00000000000E+00  0.00000000000E+00  0.15468905322E+04  0.15468905322E+04  0.50400001928E-02 0. -1.
       -1   -1    0    0    0  501  0.00000000000E+00  0.00000000000E+00 -0.20848891349E+04  0.20848891349E+04  0.50400001928E-02 0.  1.
    10030    2    1    2    0    0  0.00000000000E+00  0.00000000000E+00 -0.53799860277E+03  0.36317796671E+04  0.35917100459E+04 0.  0.
        4    1    3    3  502    0 -0.17482691039E+04 -0.41038274434E+03 -0.28449323507E+03  0.18181850484E+04  0.12699999809E+01 0.  1.
       -4    1    3    3    0  502  0.17482691039E+04  0.41038274434E+03 -0.25350536770E+03  0.18135946187E+04  0.12699999809E+01 0. -1.
</event>
<event>
 5   0  0.1021087E-07  0.3596064E+04  0.7818609E-02  0.8091394E-01
        2   -1    0    0  501    0  0.00000000000E+00  0.00000000000E+00  0.13148633437E+04  0.13148633437E+04  0.25500000920E-02 0. -1.
       -2   -1    0    0    0  501  0.00000000000E+00  0.00000000000E+00 -0.24587492794E+04  0.24587492794E+04  0.25500000920E-02 0.  1.
    10030    2    1    2    0    0  0.00000000000E+00  0.00000000000E+00 -0.11438859357E+04  0.37736126231E+04  0.35960641256E+04 0.  0.
        3    1    3    3  502    0  0.16272971707E+04 -0.64808865979E+03 -0.14593850137E+03  0.17576726228E+04  0.10100000352E+00 0. -1.
       -3    1    3    3    0  502 -0.16272971707E+04  0.64808865979E+03 -0.99794743433E+03  0.20159400003E+04  0.10100000352E+00 0.  1.
</event>
<event>
 5   0  0.3215494E-08  0.3587449E+04  0.7818609E-02  0.8093373E-01
        1   -1    0    0  501    0  0.00000000000E+00  0.00000000000E+00  0.24057126298E+04  0.24057126298E+04  0.50400001928E-02 0. -1.
       -1   -1    0    0    0  501  0.00000000000E+00  0.00000000000E+00 -0.13374200667E+04  0.13374200667E+04  0.50400001928E-02 0.  1.
    10030    2    1    2    0    0  0.00000000000E+00  0.00000000000E+00  0.10682925631E+04  0.37431326965E+04  0.35874494259E+04 0.  0.
        4    1    3    3  502    0  0.45207006367E+02  0.12198504711E+04 -0.83718333935E+03  0.14801879616E+04  0.12699999809E+01 0.  1.
       -4    1    3    3    0  502 -0.45207006367E+02 -0.12198504711E+04  0.19054759025E+04  0.22629447348E+04  0.12699999809E+01 0. -1.
</event>
<event>
 5   0  0.1017794E-07  0.3601797E+04  0.7818609E-02  0.8090080E-01
        2   -1    0    0  501    0  0.00000000000E+00  0.00000000000E+00  0.12758896595E+04  0.12758896595E+04  0.25500000920E-02 0. -1.
       -2   -1    0    0    0  501  0.00000000000E+00  0.00000000000E+00 -0.25419407485E+04  0.25419407485E+04  0.25500000920E-02 0.  1.
    10030    2    1    2    0    0  0.00000000000E+00  0.00000000000E+00 -0.12660510890E+04  0.38178304080E+04  0.36017972825E+04 0.  0.
        1    1    3    3  502    0 -0.17754914430E+03 -0.31480957512E+03 -0.25031026866E+04  0.25290614518E+04  0.50400001928E-02 0.  1.
       -1    1    3    3    0  502  0.17754914430E+03  0.31480957512E+03  0.12370515976E+04  0.12887689562E+04  0.50400001928E-02 0. -1.
</event>
<event>
 5   0  0.1044678E-07  0.3609266E+04  0.7818609E-02  0.8088373E-01
       -2   -1    0    0    0  501  0.00000000000E+00  0.00000000000E+00  0.11347040829E+04  0.11347040829E+04  0.25500000920E-02 0.  1.
        2   -1    0    0  501    0  0.00000000000E+00  0.00000000000E+00 -0.28700875350E+04  0.28700875350E+04  0.25500000920E-02 0. -1.
    10030    2    1    2    0    0  0.00000000000E+00  0.00000000000E+00 -0.17353834521E+04  0.40047916179E+04  0.36092658779E+04 0.  0.
        2    1    3    3  502    0  0.67420698603E+03 -0.47442228191E+03 -0.26489382399E+04  0.27742576233E+04  0.25500000920E-02 0.  1.
       -2    1    3    3    0  502 -0.67420698603E+03  0.47442228191E+03  0.91355478783E+03  0.12305339946E+04  0.25500000920E-02 0. -1.
</event>
<event>
 5   0  0.3202875E-08  0.3595582E+04  0.7818609E-02  0.8091504E-01
       -1   -1    0    0    0  501  0.00000000000E+00  0.00000000000E+00  0.25685992536E+04  0.25685992536E+04  0.50400001928E-02 0.  1.
        1   -1    0    0  501    0  0.00000000000E+00  0.00000000000E+00 -0.12582938617E+04  0.12582938618E+04  0.50400001928E-02 0. -1.
    10030    2    1    2    0    0  0.00000000000E+00  0.00000000000E+00  0.13103053919E+04  0.38268931154E+04  0.35955821082E+04 0.  0.
        1    1    3    3  502    0 -0.11204166149E+03  0.12578927492E+04  0.20170008167E+04  0.23797352367E+04  0.50400001928E-02 0.  1.
       -1    1    3    3    0  502  0.11204166149E+03 -0.12578927492E+04 -0.70669542481E+03  0.14471578787E+04  0.50400001928E-02 0. -1.
</event>
<event>
 5   0  0.3202875E-08  0.3620472E+04  0.7818609E-02  0.8085818E-01
        1   -1    0    0  501    0  0.00000000000E+00  0.00000000000E+00  0.15758817699E+04  0.15758817699E+04  0.50400001928E-02 0. -1.
       -1   -1    0    0    0  501  0.00000000000E+00  0.00000000000E+00 -0.20794415286E+04  0.20794415286E+04  0.50400001928E-02 0.  1.
    10030    2    1    2    0    0  0.00000000000E+00  0.00000000000E+00 -0.50355975876E+03  0.36553232985E+04  0.36204717906E+04 0.  0.
        2    1    3    3  502    0 -0.83690856352E+03  0.68131911075E+03  0.12156007336E+04  0.16255143241E+04  0.25500000920E-02 0. -1.
       -2    1    3    3    0  502  0.83690856352E+03 -0.68131911075E+03 -0.17191604923E+04  0.20298089744E+04  0.25500000920E-02 0.  1.
</event>
<event>
 5   0  0.1029908E-07  0.3612840E+04  0.7818609E-02  0.8087557E-01
       -2   -1    0    0    0  501  0.00000000000E+00  0.00000000000E+00  0.19296834576E+04  0.19296834576E+04  0.25500000920E-02 0. -1.
        2   -1    0    0  501    0  0.00000000000E+00  0.00000000000E+00 -0.16910302017E+04  0.16910302017E+04  0.25500000920E-02 0.  1.
    10030    2    1    2    0    0  0.00000000000E+00  0.00000000000E+00  0.23865325596E+03  0.36207136593E+04  0.36128398838E+04 0.  0.
        4    1    3    3  502    0  0.11823605224E+04 -0.33803567814E+03 -0.12067755521E+04  0.17229490331E+04  0.12699999809E+01 0.  1.
       -4    1    3    3    0  502 -0.11823605224E+04  0.33803567814E+03  0.14454288080E+04  0.18977646262E+04  0.12699999809E+01 0. -1.
</event>
<event>
 5   0  0.1029908E-07  0.3616201E+04  0.7818609E-02  0.8086791E-01
        2   -1    0    0  501    0  0.00000000000E+00  0.00000000000E+00  0.11351671009E+04  0.11351671009E+04  0.25500000920E-02 0.  1.
       -2   -1    0    0    0  501  0.00000000000E+00  0.00000000000E+00 -0.28799520590E+04  0.28799520590E+04  0.25500000920E-02 0. -1.
    10030    2    1    2    0    0  0.00000000000E+00  0.00000000000E+00 -0.17447849580E+04  0.40151191599E+04  0.36162006745E+04 0.  0.
        4    1    3    3  502    0  0.10072089349E+04  0.11198459551E+04  0.23831054877E+03  0.15248994499E+04  0.12699999809E+01 0. -1.
       -4    1    3    3    0  502 -0.10072089349E+04 -0.11198459551E+04 -0.19830955068E+04  0.24902197100E+04  0.12699999809E+01 0.  1.
</event>
<event>
 5   0  0.3215494E-08  0.3605216E+04  0.7818609E-02  0.8089298E-01
        1   -1    0    0  501    0  0.00000000000E+00  0.00000000000E+00  0.20457284692E+04  0.20457284692E+04  0.50400001928E-02 0. -1.
       -1   -1    0    0    0  501  0.00000000000E+00  0.00000000000E+00 -0.15883808849E+04  0.15883808849E+04  0.50400001928E-02 0.  1.
    10030    2    1    2    0    0  0.00000000000E+00  0.00000000000E+00  0.45734758434E+03  0.36341093541E+04  0.36052162189E+04 0.  0.
        4    1    3    3  502    0  0.98083505060E+03 -0.13553989514E+04  0.90505862254E+03  0.19021767629E+04  0.12699999809E+01 0. -1.
       -4    1    3    3    0  502 -0.98083505060E+03  0.13553989514E+04 -0.44771103820E+03  0.17319325913E+04  0.12699999809E+01 0.  1.
</event>
<event>
 5   0  0.3202875E-08  0.3604644E+04  0.7818609E-02  0.8089429E-01
        1   -1    0    0  501    0  0.00000000000E+00  0.00000000000E+00  0.19956767164E+04  0.19956767164E+04  0.50400001928E-02 0.  1.
       -1   -1    0    0    0  501  0.00000000000E+00  0.00000000000E+00 -0.16277005532E+04  0.16277005532E+04  0.50400001928E-02 0. -1.
    10030    2    1    2    0    0  0.00000000000E+00  0.00000000000E+00  0.36797616319E+03  0.36233772696E+04  0.36046437246E+04 0.  0.
        2    1    3    3  502    0 -0.39632118478E+03  0.14821638462E+04  0.11346749267E+04  0.19082367090E+04  0.25500000920E-02 0.  1.
       -2    1    3    3    0  502  0.39632118478E+03 -0.14821638462E+04 -0.76669876349E+03  0.17151405605E+04  0.25500000920E-02 0. -1.
</event>
<event>
 5   0  0.9905335E-08  0.3602528E+04  0.7818609E-02  0.8089913E-01
        2   -1    0    0  501    0  0.00000000000E+00  0.00000000000E+00  0.22110389239E+04  0.22110389239E+04  0.25500000920E-02 0.  1.
       -2   -1    0    0    0  501  0.00000000000E+00  0.00000000000E+00 -0.14674335411E+04  0.14674335411E+04  0.25500000920E-02 0. -1.
    10030    2    1    2    0    0  0.00000000000E+00  0.00000000000E+00  0.74360538280E+03  0.36784724651E+04  0.36025283776E+04 0.  0.
        5    1    3    3  502    0 -0.13915897335E+04 -0.39824104543E+03  0.14665101807E+04  0.20605319985E+04  0.46999998093E+01 0.  1.
       -5    1    3    3    0  502  0.13915897335E+04  0.39824104543E+03 -0.72290479789E+03  0.16179404666E+04  0.46999998093E+01 0. -1.
</event>
<event>
 5   0  0.3202875E-08  0.3594899E+04  0.7818609E-02  0.8091661E-01
       -4   -1    0    0    0  501  0.00000000000E+00  0.00000000000E+00  0.19829350838E+04  0.19829354905E+04  0.12699999809E+01 0.  1.
        4   -1    0    0  501    0  0.00000000000E+00  0.00000000000E+00 -0.16293138989E+04  0.16293143939E+04  0.12699999809E+01 0. -1.
    10030    2    1    2    0    0  0.00000000000E+00  0.00000000000E+00  0.35362118492E+03  0.36122498844E+04  0.35948993428E+04 0.  0.
        2    1    3    3  502    0  0.10840237772E+04 -0.99519343899E+03 -0.86030843654E+03  0.17045961799E+04  0.25500000920E-02 0. -1.
       -2    1    3    3    0  502 -0.10840237772E+04  0.99519343899E+03  0.12139296215E+04  0.19076537045E+04  0.25500000920E-02 0.  1.
</event>
<event>
 5   0  0.3279988E-08  0.3594257E+04  0.7818609E-02  0.8091809E-01
        1   -1    0    0  501    0  0.00000000000E+00  0.00000000000E+00  0.12930939281E+04  0.12930939281E+04  0.50400001928E-02 0.  1.
       -1   -1    0    0    0  501  0.00000000000E+00  0.00000000000E+00 -0.24976298278E+04  0.24976298278E+04  0.50400001928E-02 0. -1.
    10030    2    1    2    0    0  0.00000000000E+00  0.00000000000E+00 -0.12045358997E+04  0.37907237559E+04  0.35942565100E+04 0.  0.
        5    1    3    3  502    0  0.78993320150E+03 -0.11098008641E+04 -0.18385162768E+04  0.22881906850E+04  0.46999998093E+01 0. -1.
       -5    1    3    3    0  502 -0.78993320150E+03  0.11098008641E+04  0.63398037708E+03  0.15025330709E+04  0.46999998093E+01 0.  1.
</event>
<event>
 5   0  0.1044678E-07  0.3601547E+04  0.7818609E-02  0.8090137E-01
        2   -1    0    0  501    0  0.00000000000E+00  0.00000000000E+00  0.10090420690E+04  0.10090420690E+04  0.25500000920E-02 0.  1.
       -2   -1    0    0    0  501  0.00000000000E+00  0.00000000000E+00 -0.32137271263E+04  0.32137271263E+04  0.25500000920E-02 0. -1.
    10030    2    1    2    0    0  0.00000000000E+00  0.00000000000E+00 -0.22046850573E+04  0.42227691953E+04  0.36015473723E+04 0.  0.
        2    1    3    3  502    0  0.15630032784E+04 -0.86033491098E+03 -0.13886563401E+04  0.22608674968E+04  0.25500000920E-02 0.  1.
       -2    1    3    3    0  502 -0.15630032784E+04  0.86033491098E+03 -0.81602871718E+03  0.19619016985E+04  0.25500000920E-02 0. -1.
</event>
<event>
 5   0  0.3215494E-08  0.3612791E+04  0.7818609E-02  0.8087568E-01
       -1   -1    0    0    0  501  0.00000000000E+00  0.00000000000E+00  0.28332663710E+04  0.28332663710E+04  0.50400001928E-02 0.  1.
        1   -1    0    0  501    0  0.00000000000E+00  0.00000000000E+00 -0.11516970928E+04  0.11516970928E+04  0.50400001928E-02 0. -1.
    10030    2    1    2    0    0  0.00000000000E+00  0.00000000000E+00  0.16815692783E+04  0.39849634638E+04  0.36127909669E+04 0.  0.
        4    1    3    3  502    0 -0.41193901306E+03  0.17510619169E+04  0.65903315680E+03  0.19157864970E+04  0.12699999809E+01 0. -1.
       -4    1    3    3    0  502  0.41193901306E+03 -0.17510619169E+04  0.10225361215E+04  0.20691769668E+04  0.12699999809E+01 0.  1.
</event>
<event>
 5   0  0.1021087E-07  0.3600796E+04  0.7818609E-02  0.8090309E-01
        2   -1    0    0  501    0  0.00000000000E+00  0.00000000000E+00  0.27640334642E+04  0.27640334642E+04  0.25500000920E-02 0. -1.
       -2   -1    0    0    0  501  0.00000000000E+00  0.00000000000E+00 -0.11727186540E+04  0.11727186540E+04  0.25500000920E-02 0.  1.
    10030    2    1    2    0    0  0.00000000000E+00  0.00000000000E+00  0.15913148102E+04  0.39367521182E+04  0.36007963585E+04 0.  0.
        3    1    3    3  502    0  0.54266769812E+03 -0.49049204382E+03 -0.10029340517E+04  0.12413490234E+04  0.10100000352E+00 0.  1.
       -3    1    3    3    0  502 -0.54266769812E+03  0.49049204382E+03  0.25942488619E+04  0.26954030948E+04  0.10100000352E+00 0. -1.
</event>
<event>
 5   0  0.3202875E-08  0.3601995E+04  0.7818609E-02  0.8090035E-01
        1   -1    0    0  501    0  0.00000000000E+00  0.00000000000E+00  0.14998958986E+04  0.14998958986E+04  0.50400001928E-02 0.  1.
       -1   -1    0    0    0  501  0.00000000000E+00  0.00000000000E+00 -0.21625446568E+04  0.21625446568E+04  0.50400001928E-02 0. -1.
    10030    2    1    2    0    0  0.00000000000E+00  0.00000000000E+00 -0.66264875819E+03  0.36624405554E+04  0.36019949257E+04 0.  0.
        2    1    3    3  502    0 -0.31015764966E+03 -0.12887610040E+04  0.90835210278E+03  0.16069244649E+04  0.25500000920E-02 0.  1.
       -2    1    3    3    0  502  0.31015764966E+03  0.12887610040E+04 -0.15710008610E+04  0.20555160905E+04  0.25500000920E-02 0. -1.
</event>
<event>
 5   0  0.1044678E-07  0.3618744E+04  0.7818609E-02  0.8086212E-01
        2   -1    0    0  501    0  0.00000000000E+00  0.00000000000E+00  0.15569567259E+04  0.15569567259E+04  0.25500000920E-02 0.  1.
       -2   -1    0    0    0  501  0.00000000000E+00  0.00000000000E+00 -0.21027085877E+04  0.21027085877E+04  0.25500000920E-02 0. -1.
    10030    2    1    2    0    0  0.00000000000E+00  0.00000000000E+00 -0.54575186185E+03  0.36596653136E+04  0.36187435821E+04 0.  0.
        2    1    3    3  502    0  0.24704487614E+03  0.30227993391E+03  0.15138576460E+04  0.15633839265E+04  0.25500000920E-02 0.  1.
       -2    1    3    3    0  502 -0.24704487614E+03 -0.30227993391E+03 -0.20596095078E+04  0.20962813871E+04  0.25500000920E-02 0. -1.
</event>
<event>
 5   0  0.3212523E-08  0.3600794E+04  0.7818609E-02  0.8090310E-01
        1   -1    0    0  501    0  0.00000000000E+00  0.00000000000E+00  0.22202713265E+04  0.22202713265E+04  0.50400001928E-02 0.  1.
       -1   -1    0    0    0  501  0.00000000000E+00  0.00000000000E+00 -0.14599245456E+04  0.14599245456E+04  0.50400001928E-02 0. -1.
    10030    2    1    2    0    0  0.00000000000E+00  0.00000000000E+00  0.76034678091E+03  0.36801958721E+04  0.36007935833E+04 0.  0.
        3    1    3    3  502    0  0.24686153144E+03 -0.69118083073E+03  0.20604323179E+04  0.21872477919E+04  0.10100000352E+00 0.  1.
       -3    1    3    3    0  502 -0.24686153144E+03  0.69118083073E+03 -0.13000855370E+04  0.14929480802E+04  0.10100000352E+00 0. -1.
</event>
<event>
 5   0  0.1044678E-07  0.3598762E+04  0.7818609E-02  0.8090775E-01
        2   -1    0    0  501    0  0.00000000000E+00  0.00000000000E+00  0.10132861131E+04  0.10132861131E+04  0.25500000920E-02 0.  1.
       -2   -1    0    0    0  501  0.00000000000E+00  0.00000000000E+00 -0.31953187478E+04  0.31953187478E+04  0.25500000920E-02 0. -1.
    10030    2    1    2    0    0  0.00000000000E+00  0.00000000000E+00 -0.21820326347E+04  0.42086048608E+04  0.35987620727E+04 0.  0.
        2    1    3    3  502    0 -0.76688051736E+03 -0.16266460977E+04 -0.10199880806E+04  0.20674764665E+04  0.25500000920E-02 0. -1.
       -2    1    3    3    0  502  0.76688051736E+03  0.16266460977E+04 -0.11620445541E+04  0.21411283943E+04  0.25500000920E-02 0.  1.
</event>
<event>
 5   0  0.3279988E-08  0.3610202E+04  0.7818609E-02  0.8088159E-01
       -1   -1    0    0    0  501  0.00000000000E+00  0.00000000000E+00  0.19689944917E+04  0.19689944917E+04  0.50400001928E-02 0. -1.
        1   -1    0    0  501    0  0.00000000000E+00  0.00000000000E+00 -0.16548492250E+04  0.16548492250E+04  0.50400001928E-02 0.  1.
    10030    2    1    2    0    0  0.00000000000E+00  0.00000000000E+00  0.31414526664E+03  0.36238437167E+04  0.36102016612E+04 0.  0.
        5    1    3    3  502    0  0.15363333273E+04  0.15776223568E+03 -0.78088752818E+03  0.17306115790E+04  0.46999998093E+01 0.  1.
       -5    1    3    3    0  502 -0.15363333273E+04 -0.15776223568E+03  0.10950327948E+04  0.18932321377E+04  0.46999998093E+01 0. -1.
</event>
<event>
 5   0  0.3215494E-08  0.3603345E+04  0.7818609E-02  0.8089726E-01
       -1   -1    0    0    0  501  0.00000000000E+00  0.00000000000E+00  0.22082287874E+04  0.22082287874E+04  0.50400001928E-02 0.  1.
        1   -1    0    0  501    0  0.00000000000E+00  0.00000000000E+00 -0.14699671498E+04  0.14699671498E+04  0.50400001928E-02 0. -1.
    10030    2    1    2    0    0  0.00000000000E+00  0.00000000000E+00  0.73826163760E+03  0.36781959371E+04  0.36033449885E+04 0.  0.
        4    1    3    3  502    0  0.53532283686E+03  0.14274851775E+04 -0.61088410660E+03  0.16423962604E+04  0.12699999809E+01 0. -1.
       -4    1    3    3    0  502 -0.53532283686E+03 -0.14274851775E+04  0.13491457442E+04  0.20357996767E+04  0.12699999809E+01 0.  1.
</event>
<event>
 5   0  0.1021087E-07  0.3601956E+04  0.7818609E-02  0.8090044E-01
        2   -1    0    0  501    0  0.00000000000E+00  0.00000000000E+00  0.15794142556E+04  0.15794142556E+04  0.25500000920E-02 0. -1.
       -2   -1    0    0    0  501  0.00000000000E+00  0.00000000000E+00 -0.20536226617E+04  0.20536226617E+04  0.25500000920E-02 0.  1.
    10030    2    1    2    0    0  0.00000000000E+00  0.00000000000E+00 -0.47420840616E+03  0.36330369173E+04  0.36019555286E+04 0.  0.
        3    1    3    3  502    0 -0.90206028798E+03  0.95833631679E+03 -0.14771025935E+04  0.19783713860E+04  0.10100000352E+00 0.  1.
       -3    1    3    3    0  502  0.90206028798E+03 -0.95833631679E+03  0.10028941873E+04  0.16546655313E+04  0.10100000352E+00 0. -1.
</event>
<event>
 5   0  0.3212523E-08  0.3606409E+04  0.7818609E-02  0.8089025E-01
       -1   -1    0    0    0  501  0.00000000000E+00  0.00000000000E+00  0.17737565672E+04  0.17737565672E+04  0.50400001928E-02 0.  1.
        1   -1    0    0  501    0  0.00000000000E+00  0.00000000000E+00 -0.18331408727E+04  0.18331408727E+04  0.50400001928E-02 0. -1.
    10030    2    1    2    0    0  0.00000000000E+00  0.00000000000E+00 -0.59384305455E+02  0.36068974399E+04  0.36064085523E+04 0.  0.
        3    1    3    3  502    0  0.16133234755E+04 -0.80325655073E+03  0.29577405658E+02  0.18024729003E+04  0.10100000352E+00 0. -1.
       -3    1    3    3    0  502 -0.16133234755E+04  0.80325655073E+03 -0.88961711113E+02  0.18044245396E+04  0.10100000352E+00 0.  1.
</event>
<event>
 5   0  0.3202875E-08  0.3609040E+04  0.7818609E-02  0.8088424E-01
       -1   -1    0    0    0  501  0.00000000000E+00  0.00000000000E+00  0.16684602712E+04  0.16684602712E+04  0.50400001928E-02 0.  1.
        1   -1    0    0  501    0  0.00000000000E+00  0.00000000000E+00 -0.19516750894E+04  0.19516750895E+04  0.50400001928E-02 0. -1.
    10030    2    1    2    0    0  0.00000000000E+00  0.00000000000E+00 -0.28321481827E+03  0.36201353606E+04  0.36090399549E+04 0.  0.
        2    1    3    3  502    0 -0.12167440766E+04  0.12795229254E+04 -0.51510585869E+03  0.18392876638E+04  0.25500000920E-02 0. -1.
       -2    1    3    3    0  502  0.12167440766E+04 -0.12795229254E+04  0.23189104042E+03  0.17808476968E+04  0.25500000920E-02 0.  1.
</event>
<event>
 5   0  0.3202875E-08  0.3598245E+04  0.7818609E-02  0.8090894E-01
        1   -1    0    0  501    0  0.00000000000E+00  0.00000000000E+00  0.22471064275E+04  0.22471064275E+04  0.50400001928E-02 0. -1.
       -1   -1    0    0    0  501  0.00000000000E+00  0.00000000000E+00 -0.14404486961E+04  0.14404486962E+04  0.50400001928E-02 0.  1.
    10030    2    1    2    0    0  0.00000000000E+00  0.00000000000E+00  0.80665773139E+03  0.36875551237E+04  0.35982448631E+04 0.  0.
        2    1    3    3  502    0  0.58164566052E+02  0.13968096036E+04 -0.75720121496E+03  0.15899100180E+04  0.25500000920E-02 0.  1.
       -2    1    3    3    0  502 -0.58164566052E+02 -0.13968096036E+04  0.15638589463E+04  0.20976451057E+04  0.25500000920E-02 0. -1.
</event>
<event>
 5   0  0.1029908E-07  0.3599057E+04  0.7818609E-02  0.8090708E-01
        2   -1    0    0  501    0  0.00000000000E+00  0.00000000000E+00  0.20749219509E+04  0.20749219509E+04  0.25500000920E-02 0.  1.
       -2   -1    0    0    0  501  0.00000000000E+00  0.00000000000E+00 -0.15606861669E+04  0.15606861669E+04  0.25500000920E-02 0. -1.
    10030    2    1    2    0    0  0.00000000000E+00  0.00000000000E+00  0.51423578396E+03  0.36356081178E+04  0.35990565354E+04 0.  0.
        4    1    3    3  502    0 -0.63953858856E+03  0.12257399412E+04 -0.90647134892E+03  0.16532210769E+04  0.12699999809E+01 0. -1.
       -4    1    3    3    0  502  0.63953858856E+03 -0.12257399412E+04  0.14207071329E+04  0.19823870409E+04  0.12699999809E+01 0.  1.
</event>
<event>
 5   0  0.3202875E-08  0.3600817E+04  0.7818609E-02  0.8090304E-01
        1   -1    0    0  501    0  0.00000000000E+00  0.00000000000E+00  0.27146808240E+04  0.27146808240E+04  0.50400001928E-02 0.  1.
       -1   -1    0    0    0  501  0.00000000000E+00  0.00000000000E+00 -0.11940524894E+04  0.11940524894E+04  0.50400001928E-02 0. -1.
    10030    2    1    2    0    0  0.00000000000E+00  0.00000000000E+00  0.15206283346E+04  0.39087333135E+04  0.36008173494E+04 0.  0.
        1    1    3    3  502    0  0.11057281546E+04 -0.18738551724E+03 -0.76857321431E+03  0.13595781955E+04  0.50400001928E-02 0. -1.
       -1    1    3    3    0  502 -0.11057281546E+04  0.18738551724E+03  0.22892015489E+04  0.25491551180E+04  0.50400001928E-02 0.  1.
</event>
<event>
 5   0  0.3202875E-08  0.3629672E+04  0.7818609E-02  0.8083729E-01
       -1   -1    0    0    0  501  0.00000000000E+00  0.00000000000E+00  0.27028825243E+04  0.27028825243E+04  0.50400001928E-02 0.  1.
        1   -1    0    0  501    0  0.00000000000E+00  0.00000000000E+00 -0.12185616234E+04  0.12185616234E+04  0.50400001928E-02 0. -1.
    10030    2    1    2    0    0  0.00000000000E+00  0.00000000000E+00  0.14843209009E+04  0.39214441477E+04  0.36296715645E+04 0.  0.
        1    1    3    3  502    0 -0.34956562781E+03 -0.64483432749E+03  0.25356071960E+04  0.26395664967E+04  0.50400001928E-02 0.  1.
       -1    1    3    3    0  502  0.34956562781E+03  0.64483432749E+03 -0.10512862950E+04  0.12818776510E+04  0.50400001928E-02 0. -1.
</event>
<event>
 5   0  0.9905335E-08  0.3598545E+04  0.7818609E-02  0.8090825E-01
       -2   -1    0    0    0  501  0.00000000000E+00  0.00000000000E+00  0.26553902941E+04  0.26553902941E+04  0.25500000920E-02 0.  1.
        2   -1    0    0  501    0  0.00000000000E+00  0.00000000000E+00 -0.12191736305E+04  0.12191736305E+04  0.25500000920E-02 0. -1.
    10030    2    1    2    0    0  0.00000000000E+00  0.00000000000E+00  0.14362166636E+04  0.38745639246E+04  0.35985451645E+04 0.  0.
        5    1    3    3  502    0 -0.62768534175E+03 -0.67927631216E+03 -0.94362988122E+03  0.13213117116E+04  0.46999998093E+01 0. -1.
       -5    1    3    3    0  502  0.62768534175E+03  0.67927631216E+03  0.23798465448E+04  0.25532522130E+04  0.46999998093E+01 0.  1.
</event>
<event>
 5   0  0.1017794E-07  0.3583679E+04  0.7818609E-02  0.8094241E-01
       -2   -1    0    0    0  501  0.00000000000E+00  0.00000000000E+00  0.15800334016E+04  0.15800334016E+04  0.25500000920E-02 0.  1.
        2   -1    0    0  501    0  0.00000000000E+00  0.00000000000E+00 -0.20320379906E+04  0.20320379906E+04  0.25500000920E-02 0. -1.
    10030    2    1    2    0    0  0.00000000000E+00  0.00000000000E+00 -0.45200458897E+03  0.36120713922E+04  0.35836785003E+04 0.  0.
        1    1    3    3  502    0  0.45008696482E+03 -0.78124439229E+03 -0.17867430009E+04  0.20013424564E+04  0.50400001928E-02 0. -1.
       -1    1    3    3    0  502 -0.45008696482E+03  0.78124439229E+03  0.13347384119E+04  0.16107289358E+04  0.50400001928E-02 0.  1.
</event>
<event>
 5   0  0.1017794E-07  0.3516110E+04  0.7818609E-02  0.8109983E-01
        2   -1    0    0  501    0  0.00000000000E+00  0.00000000000E+00  0.26391208818E+04  0.26391208818E+04  0.25500000920E-02 0.  1.
       -2   -1    0    0    0  501  0.00000000000E+00  0.00000000000E+00 -0.11711315529E+04  0.11711315529E+04  0.25500000920E-02 0. -1.
    10030    2    1    2    0    0  0.00000000000E+00  0.00000000000E+00  0.14679893289E+04  0.38102524347E+04  0.35161102011E+04 0.  0.
        1    1    3    3  502    0 -0.37862321881E+03  0.15760559641E+04  0.14717164644E+04  0.21893508845E+04  0.50400001928E-02 0.  1.
       -1    1    3    3    0  502  0.37862321881E+03 -0.15760559641E+04 -0.37271354462E+01  0.16209015502E+04  0.50400001928E-02 0. -1.
</event>
<event>
 5   0  0.3212523E-08  0.3599701E+04  0.7818609E-02  0.8090560E-01
        1   -1    0    0  501    0  0.00000000000E+00  0.00000000000E+00  0.24809907145E+04  0.24809907145E+04  0.50400001928E-02 0. -1.
       -1   -1    0    0    0  501  0.00000000000E+00  0.00000000000E+00 -0.13057132365E+04  0.13057132366E+04  0.50400001928E-02 0.  1.
    10030    2    1    2    0    0  0.00000000000E+00  0.00000000000E+00  0.11752774779E+04  0.37867039510E+04  0.35997013296E+04 0.  0.
        3    1    3    3  502    0 -0.35773050254E+03  0.12038072050E+04 -0.76865809331E+03  0.14723987822E+04  0.10100000352E+00 0.  1.
       -3    1    3    3    0  502  0.35773050254E+03 -0.12038072050E+04  0.19439355712E+04  0.23143051688E+04  0.10100000352E+00 0. -1.
</event>
<event>
 5   0  0.9905335E-08  0.3568810E+04  0.7818609E-02  0.8097674E-01
       -2   -1    0    0    0  501  0.00000000000E+00  0.00000000000E+00  0.31601672142E+04  0.31601672142E+04  0.25500000920E-02 0.  1.
        2   -1    0    0  501    0  0.00000000000E+00  0.00000000000E+00 -0.10075736867E+04  0.10075736867E+04  0.25500000920E-02 0. -1.
    10030    2    1    2    0    0  0.00000000000E+00  0.00000000000E+00  0.21525935275E+04  0.41677409008E+04  0.35688100709E+04 0.  0.
        5    1    3    3  502    0  0.81332868134E+03 -0.14906942349E+04  0.43622029296E+03  0.17532778102E+04  0.46999998093E+01 0. -1.
       -5    1    3    3    0  502 -0.81332868134E+03  0.14906942349E+04  0.17163732345E+04  0.24144630906E+04  0.46999998093E+01 0.  1.
</event>
<event>
 5   0  0.1044678E-07  0.3589676E+04  0.7818609E-02  0.8092861E-01
       -2   -1    0    0    0  501  0.00000000000E+00  0.00000000000E+00  0.26473311531E+04  0.26473311531E+04  0.25500000920E-02 0.  1.
        2   -1    0    0  501    0  0.00000000000E+00  0.00000000000E+00 -0.12168647933E+04  0.12168647933E+04  0.25500000920E-02 0. -1.
    10030    2    1    2    0    0  0.00000000000E+00  0.00000000000E+00  0.14304663598E+04  0.38641959464E+04  0.35896763512E+04 0.  0.
        2    1    3    3  502    0  0.13068594764E+04  0.66937220114E+02 -0.60715889100E+03  0.14425686124E+04  0.25500000920E-02 0. -1.
       -2    1    3    3    0  502 -0.13068594764E+04 -0.66937220114E+02  0.20376252508E+04  0.24216273341E+04  0.25500000920E-02 0.  1.
</event>
<event>
 5   0  0.3279988E-08  0.3539759E+04  0.7818609E-02  0.8104432E-01
        1   -1    0    0  501    0  0.00000000000E+00  0.00000000000E+00  0.19046552230E+04  0.19046552230E+04  0.50400001928E-02 0. -1.
       -1   -1    0    0    0  501  0.00000000000E+00  0.00000000000E+00 -0.16446407918E+04  0.16446407918E+04  0.50400001928E-02 0.  1.
    10030    2    1    2    0    0  0.00000000000E+00  0.00000000000E+00  0.26001443121E+03  0.35492960148E+04  0.35397591297E+04 0.  0.
        5    1    3    3  502    0  0.58909525808E+03  0.16319338873E+04  0.48053475703E+03  0.18003269643E+04  0.46999998093E+01 0. -1.
       -5    1    3    3    0  502 -0.58909525808E+03 -0.16319338873E+04 -0.22052032583E+03  0.17489690505E+04  0.46999998093E+01 0.  1.
</event>
<event>
 5   0  0.1017794E-07  0.3593522E+04  0.7818609E-02  0.8091977E-01
        2   -1    0    0  501    0  0.00000000000E+00  0.00000000000E+00  0.19109115275E+04  0.19109115275E+04  0.25500000920E-02 0. -1.
       -2   -1    0    0    0  501  0.00000000000E+00  0.00000000000E+00 -0.16894293714E+04  0.16894293714E+04  0.25500000920E-02 0.  1.
    10030    2    1    2    0    0  0.00000000000E+00  0.00000000000E+00  0.22148215615E+03  0.36003408989E+04  0.35935219831E+04 0.  0.
        1    1    3    3  502    0 -0.21060780770E+03 -0.16178780267E+04 -0.64332585724E+03  0.17537825169E+04  0.50400001928E-02 0.  1.
       -1    1    3    3    0  502  0.21060780770E+03  0.16178780267E+04  0.86480801340E+03  0.18465583820E+04  0.50400001928E-02 0. -1.
</event>
<event>
 5   0  0.1029908E-07  0.3598670E+04  0.7818609E-02  0.8090796E-01
       -2   -1    0    0    0  501  0.00000000000E+00  0.00000000000E+00  0.16722483464E+04  0.16722483464E+04  0.25500000920E-02 0. -1.
        2   -1    0    0  501    0  0.00000000000E+00  0.00000000000E+00 -0.19360796508E+04  0.19360796508E+04  0.25500000920E-02 0.  1.
    10030    2    1    2    0    0  0.00000000000E+00  0.00000000000E+00 -0.26383130435E+03  0.36083279972E+04  0.35986697512E+04 0.  0.
        4    1    3    3  502    0  0.12253112516E+04 -0.12492665410E+04  0.28819550807E+03  0.17734465928E+04  0.12699999809E+01 0.  1.
       -4    1    3    3    0  502 -0.12253112516E+04  0.12492665410E+04 -0.55202681241E+03  0.18348814044E+04  0.12699999809E+01 0. -1.
</event>
<event>
 5   0  0.1017794E-07  0.3595253E+04  0.7818609E-02  0.8091580E-01
       -2   -1    0    0    0  501  0.00000000000E+00  0.00000000000E+00  0.16208547086E+04  0.16208547086E+04  0.25500000920E-02 0.  1.
        2   -1    0    0  501    0  0.00000000000E+00  0.00000000000E+00 -0.19936772519E+04  0.19936772519E+04  0.25500000920E-02 0. -1.
    10030    2    1    2    0    0  0.00000000000E+00  0.00000000000E+00 -0.37282254331E+03  0.36145319606E+04  0.35952530711E+04 0.  0.
        1    1    3    3  502    0 -0.14135444526E+04  0.20908768592E+03  0.91014159836E+03  0.16941615357E+04  0.50400001928E-02 0.  1.
       -1    1    3    3    0  502  0.14135444526E+04 -0.20908768592E+03 -0.12829641417E+04  0.19203704249E+04  0.50400001928E-02 0. -1.
</event>
<event>
 5   0  0.1044678E-07  0.3630287E+04  0.7818609E-02  0.8083589E-01
       -2   -1    0    0    0  501  0.00000000000E+00  0.00000000000E+00  0.18684477805E+04  0.18684477805E+04  0.25500000920E-02 0. -1.
        2   -1    0    0  501    0  0.00000000000E+00  0.00000000000E+00 -0.17633603618E+04  0.17633603618E+04  0.25500000920E-02 0.  1.
    10030    2    1    2    0    0  0.00000000000E+00  0.00000000000E+00  0.10508741869E+03  0.36318081423E+04  0.36302874565E+04 0.  0.
        2    1    3    3  502    0  0.10577055197E+04 -0.62499835474E+03 -0.12841981919E+04  0.17772250577E+04  0.25500000920E-02 0.  1.
       -2    1    3    3    0  502 -0.10577055197E+04  0.62499835474E+03  0.13892856106E+04  0.18545830846E+04  0.25500000920E-02 0. -1.
</event>
<event>
 5   0  0.3202875E-08  0.3571081E+04  0.7818609E-02  0.8097148E-01
       -1   -1    0    0    0  501  0.00000000000E+00  0.00000000000E+00  0.16459596794E+04  0.16459596794E+04  0.50400001928E-02 0.  1.
        1   -1    0    0  501    0  0.00000000000E+00  0.00000000000E+00 -0.19369581013E+04  0.19369581013E+04  0.50400001928E-02 0. -1.
    10030    2    1    2    0    0  0.00000000000E+00  0.00000000000E+00 -0.29099842191E+03  0.35829177807E+04  0.35710810327E+04 0.  0.
        2    1    3    3  502    0  0.76307440022E+03 -0.55708187661E+03 -0.16656225596E+04  0.19149206951E+04  0.25500000920E-02 0. -1.
       -2    1    3    3    0  502 -0.76307440022E+03  0.55708187661E+03  0.13746241377E+04  0.16679970856E+04  0.25500000920E-02 0.  1.
</event>
<event>
 5   0  0.3202875E-08  0.3599999E+04  0.7818609E-02  0.8090492E-01
       -1   -1    0    0    0  501  0.00000000000E+00  0.00000000000E+00  0.15553442365E+04  0.15553442365E+04  0.50400001928E-02 0.  1.
        1   -1    0    0  501    0  0.00000000000E+00  0.00000000000E+00 -0.20831389596E+04  0.20831389596E+04  0.50400001928E-02 0. -1.
    10030    2    1    2    0    0  0.00000000000E+00  0.00000000000E+00 -0.52779472309E+03  0.36384831961E+04  0.35999989859E+04 0.  0.
        2    1    3    3  502    0  0.86857829106E+03 -0.67046760364E+02  0.13280837534E+04  0.15883104142E+04  0.25500000920E-02 0.  1.
       -2    1    3    3    0  502 -0.86857829106E+03  0.67046760364E+02 -0.18558784765E+04  0.20501727818E+04  0.25500000920E-02 0. -1.
</event>
<event>
 5   0  0.1017794E-07  0.3594659E+04  0.7818609E-02  0.8091716E-01
        2   -1    0    0  501    0  0.00000000000E+00  0.00000000000E+00  0.24365455365E+04  0.24365455365E+04  0.25500000920E-02 0.  1.
       -2   -1    0    0    0  501  0.00000000000E+00  0.00000000000E+00 -0.13258089897E+04  0.13258089897E+04  0.25500000920E-02 0. -1.
    10030    2    1    2    0    0  0.00000000000E+00  0.00000000000E+00  0.11107365468E+04  0.37623545262E+04  0.35946593586E+04 0.  0.
        1    1    3    3  502    0 -0.24802869982E+03  0.12932614977E+04 -0.72495203045E+03  0.15031962559E+04  0.50400001928E-02 0. -1.
       -1    1    3    3    0  502  0.24802869982E+03 -0.12932614977E+04  0.18356885772E+04  0.22591582702E+04  0.50400001928E-02 0.  1.
</event>
<event>
 5   0  0.3212523E-08  0.3602605E+04  0.7818609E-02  0.8089895E-01
        1   -1    0    0  501    0  0.00000000000E+00  0.00000000000E+00  0.19983352032E+04  0.19983352032E+04  0.50400001928E-02 0. -1.
       -1   -1    0    0    0  501  0.00000000000E+00  0.00000000000E+00 -0.16236968058E+04  0.16236968058E+04  0.50400001928E-02 0.  1.
    10030    2    1    2    0    0  0.00000000000E+00  0.00000000000E+00  0.37463839748E+03  0.36220320090E+04  0.36026048833E+04 0.  0.
        3    1    3    3  502    0  0.29805889225E+03  0.14927883236E+03  0.19670534442E+04  0.19950996305E+04  0.10100000352E+00 0. -1.
       -3    1    3    3    0  502 -0.29805889225E+03 -0.14927883236E+03 -0.15924150467E+04  0.16269323785E+04  0.10100000352E+00 0.  1.
</event>
<event>
 5   0  0.3279988E-08  0.3599631E+04  0.7818609E-02  0.8090576E-01
       -1   -1    0    0    0  501  0.00000000000E+00  0.00000000000E+00  0.14677386324E+04  0.14677386325E+04  0.50400001928E-02 0. -1.
        1   -1    0    0  501    0  0.00000000000E+00  0.00000000000E+00 -0.22070250595E+04  0.22070250595E+04  0.50400001928E-02 0.  1.
    10030    2    1    2    0    0  0.00000000000E+00  0.00000000000E+00 -0.73928642703E+03  0.36747636919E+04  0.35996310603E+04 0.  0.
        5    1    3    3  502    0  0.24561215203E+03  0.89138678316E+03 -0.19460294468E+04  0.21545181420E+04  0.46999998093E+01 0.  1.
       -5    1    3    3    0  502 -0.24561215203E+03 -0.89138678316E+03  0.12067430198E+04  0.15202455500E+04  0.46999998093E+01 0. -1.
</event>
<event>
 5   0  0.1021087E-07  0.3590625E+04  0.7818609E-02  0.8092643E-01
        2   -1    0    0  501    0  0.00000000000E+00  0.00000000000E+00  0.11670321360E+04  0.11670321360E+04  0.25500000920E-02 0.  1.
       -2   -1    0    0    0  501  0.00000000000E+00  0.00000000000E+00 -0.27618316063E+04  0.27618316063E+04  0.25500000920E-02 0. -1.
    10030    2    1    2    0    0  0.00000000000E+00  0.00000000000E+00 -0.15947994703E+04  0.39288637423E+04  0.35906245912E+04 0.  0.
        3    1    3    3  502    0 -0.13980785173E+04  0.77453286282E+03  0.97320265307E+02  0.16012482444E+04  0.10100000352E+00 0.  1.
       -3    1    3    3    0  502  0.13980785173E+04 -0.77453286282E+03 -0.16921197356E+04  0.23276154979E+04  0.10100000352E+00 0. -1.
</event>
<event>
 5   0  0.3215494E-08  0.3599274E+04  0.7818609E-02  0.8090658E-01
        1   -1    0    0  501    0  0.00000000000E+00  0.00000000000E+00  0.23891806934E+04  0.23891806934E+04  0.50400001928E-02 0.  1.
       -1   -1    0    0    0  501  0.00000000000E+00  0.00000000000E+00 -0.13555665932E+04  0.13555665932E+04  0.50400001928E-02 0. -1.
    10030    2    1    2    0    0  0.00000000000E+00  0.00000000000E+00  0.10336141003E+04  0.37447472866E+04  0.35992741119E+04 0.  0.
        4    1    3    3  502    0  0.39017199502E+03  0.24101082329E+03 -0.12937498109E+04  0.13726290791E+04  0.12699999809E+01 0. -1.
       -4    1    3    3    0  502 -0.39017199502E+03 -0.24101082329E+03  0.23273639112E+04  0.23721182075E+04  0.12699999809E+01 0.  1.
</event>
<event>
 5   0  0.1044678E-07  0.3600455E+04  0.7818609E-02  0.8090388E-01
       -2   -1    0    0    0  501  0.00000000000E+00  0.00000000000E+00  0.18158866330E+04  0.18158866330E+04  0.25500000920E-02 0. -1.
        2   -1    0    0  501    0  0.00000000000E+00  0.00000000000E+00 -0.17847032132E+04  0.17847032132E+04  0.25500000920E-02 0.  1.
    10030    2    1    2    0    0  0.00000000000E+00  0.00000000000E+00  0.31183419795E+02  0.36005898461E+04  0.36004548094E+04 0.  0.
        2    1    3    3  502    0  0.17942899438E+04 -0.48859692529E+01  0.16160551923E+03  0.18015594964E+04  0.25500000920E-02 0. -1.
       -2    1    3    3    0  502 -0.17942899438E+04  0.48859692529E+01 -0.13042209943E+03  0.17990303497E+04  0.25500000920E-02 0.  1.
</event>
<event>
 5   0  0.3202875E-08  0.3589453E+04  0.7818609E-02  0.8092912E-01
       -1   -1    0    0    0  501  0.00000000000E+00  0.00000000000E+00  0.12978264936E+04  0.12978264936E+04  0.50400001928E-02 0.  1.
        1   -1    0    0  501    0  0.00000000000E+00  0.00000000000E+00 -0.24818749843E+04  0.24818749844E+04  0.50400001928E-02 0. -1.
    10030    2    1    2    0    0  0.00000000000E+00  0.00000000000E+00 -0.11840484907E+04  0.37797014780E+04  0.35894529436E+04 0.  0.
        1    1    3    3  502    0  0.18148276684E+03  0.52884088154E+03 -0.23878280000E+04  0.24524133482E+04  0.50400001928E-02 0. -1.
       -1    1    3    3    0  502 -0.18148276684E+03 -0.52884088154E+03  0.12037795093E+04  0.13272881298E+04  0.50400001928E-02 0.  1.
</event>
<event>
 5   0  0.3202875E-08  0.3588558E+04  0.7818609E-02  0.8093118E-01
        1   -1    0    0  501    0  0.00000000000E+00  0.00000000000E+00  0.14948632600E+04  0.14948632600E+04  0.50400001928E-02 0. -1.
       -1   -1    0    0    0  501  0.00000000000E+00  0.00000000000E+00 -0.21536667522E+04  0.21536667522E+04  0.50400001928E-02 0.  1.
    10030    2    1    2    0    0  0.00000000000E+00  0.00000000000E+00 -0.65880349219E+03  0.36485300122E+04  0.35885580960E+04 0.  0.
        1    1    3    3  502    0  0.71891785138E+03 -0.26296428700E+03 -0.19793107877E+04  0.21221838487E+04  0.50400001928E-02 0.  1.
       -1    1    3    3    0  502 -0.71891785138E+03  0.26296428700E+03  0.13205072955E+04  0.15263461635E+04  0.50400001928E-02 0. -1.
</event>
<event>
 5   0  0.9905335E-08  0.3579883E+04  0.7818609E-02  0.8095115E-01
       -2   -1    0    0    0  501  0.00000000000E+00  0.00000000000E+00  0.14444955208E+04  0.14444955208E+04  0.25500000920E-02 0.  1.
        2   -1    0    0  501    0  0.00000000000E+00  0.00000000000E+00 -0.22179999344E+04  0.22179999344E+04  0.25500000920E-02 0. -1.
    10030    2    1    2    0    0  0.00000000000E+00  0.00000000000E+00 -0.77350441364E+03  0.36624954552E+04  0.35798832217E+04 0.  0.
        5    1    3    3  502    0 -0.16341793019E+04 -0.51938324023E+03  0.13848384129E+03  0.17203199718E+04  0.46999998093E+01 0.  1.
       -5    1    3    3    0  502  0.16341793019E+04  0.51938324023E+03 -0.91198825493E+03  0.19421754834E+04  0.46999998093E+01 0. -1.
</event>
<event>
 5   0  0.3212523E-08  0.3700235E+04  0.7818609E-02  0.8067910E-01
       -1   -1    0    0    0  501  0.00000000000E+00  0.00000000000E+00  0.15757365335E+04  0.15757365335E+04  0.50400001928E-02 0.  1.
        1   -1    0    0  501    0  0.00000000000E+00  0.00000000000E+00 -0.21722759129E+04  0.21722759130E+04  0.50400001928E-02 0. -1.
    10030    2    1    2    0    0  0.00000000000E+00  0.00000000000E+00 -0.59653937949E+03  0.37480124464E+04  0.37002348665E+04 0.  0.
        3    1    3    3  502    0 -0.30251296685E+02  0.11203693348E+04  0.11927395576E+04  0.16366949165E+04  0.10100000352E+00 0.  1.
       -3    1    3    3    0  502  0.30251296685E+02 -0.11203693348E+04 -0.17892789371E+04  0.21113175299E+04  0.10100000352E+00 0. -1.
</event>
<event>
 5   0  0.3279988E-08  0.3595654E+04  0.7818609E-02  0.8091488E-01
        1   -1    0    0  501    0  0.00000000000E+00  0.00000000000E+00  0.22769445052E+04  0.22769445052E+04  0.50400001928E-02 0.  1.
       -1   -1    0    0    0  501  0.00000000000E+00  0.00000000000E+00 -0.14195260039E+04  0.14195260039E+04  0.50400001928E-02 0. -1.
    10030    2    1    2    0    0  0.00000000000E+00  0.00000000000E+00  0.85741850130E+03  0.36964705092E+04  0.35956540071E+04 0.  0.
        5    1    3    3  502    0 -0.74279103486E+03 -0.11014772053E+04 -0.81652043267E+03  0.15593967623E+04  0.46999998093E+01 0. -1.
       -5    1    3    3    0  502  0.74279103486E+03  0.11014772053E+04  0.16739389340E+04  0.21370737469E+04  0.46999998093E+01 0.  1.
</event>
<event>
 5   0  0.1044678E-07  0.3599113E+04  0.7818609E-02  0.8090695E-01
       -2   -1    0    0    0  501  0.00000000000E+00  0.00000000000E+00  0.11294439661E+04  0.11294439661E+04  0.25500000920E-02 0. -1.
        2   -1    0    0  501    0  0.00000000000E+00  0.00000000000E+00 -0.28672546785E+04  0.28672546785E+04  0.25500000920E-02 0.  1.
    10030    2    1    2    0    0  0.00000000000E+00  0.00000000000E+00 -0.17378107125E+04  0.39966986446E+04  0.35991129440E+04 0.  0.
        2    1    3    3  502    0 -0.70631721492E+03 -0.13319863631E+04 -0.19599543117E+04  0.24727500043E+04  0.25500000920E-02 0.  1.
       -2    1    3    3    0  502  0.70631721492E+03  0.13319863631E+04  0.22214359925E+03  0.15239486403E+04  0.25500000920E-02 0. -1.
</event>
<event>
 5   0  0.1029908E-07  0.3630791E+04  0.7818609E-02  0.8083475E-01
       -2   -1    0    0    0  501  0.00000000000E+00  0.00000000000E+00  0.13388416748E+04  0.13388416748E+04  0.25500000920E-02 0.  1.
        2   -1    0    0  501    0  0.00000000000E+00  0.00000000000E+00 -0.24615764235E+04  0.24615764235E+04  0.25500000920E-02 0. -1.
    10030    2    1    2    0    0  0.00000000000E+00  0.00000000000E+00 -0.11227347487E+04  0.38004180984E+04  0.36307911543E+04 0.  0.
        4    1    3    3  502    0 -0.56315729119E+03 -0.16972540049E+04 -0.23395641933E+03  0.18034839924E+04  0.12699999809E+01 0.  1.
       -4    1    3    3    0  502  0.56315729119E+03  0.16972540049E+04 -0.88877832940E+03  0.19969341060E+04  0.12699999809E+01 0. -1.
</event>
<event>
 5   0  0.3212523E-08  0.3604150E+04  0.7818609E-02  0.8089542E-01
        1   -1    0    0  501    0  0.00000000000E+00  0.00000000000E+00  0.14486322914E+04  0.14486322914E+04  0.50400001928E-02 0.  1.
       -1   -1    0    0    0  501  0.00000000000E+00  0.00000000000E+00 -0.22417524986E+04  0.22417524986E+04  0.50400001928E-02 0. -1.
    10030    2    1    2    0    0  0.00000000000E+00  0.00000000000E+00 -0.79312020721E+03  0.36903847900E+04  0.36041504180E+04 0.  0.
        3    1    3    3  502    0  0.54473779837E+03 -0.17014435267E+04 -0.15463226140E+03  0.17931983968E+04  0.10100000352E+00 0.  1.
       -3    1    3    3    0  502 -0.54473779837E+03  0.17014435267E+04 -0.63848794582E+03  0.18971863933E+04  0.10100000352E+00 0. -1.
</event>
<event>
 5   0  0.1044678E-07  0.3601520E+04  0.7818609E-02  0.8090144E-01
       -2   -1    0    0    0  501  0.00000000000E+00  0.00000000000E+00  0.23080970193E+04  0.23080970193E+04  0.25500000920E-02 0. -1.
        2   -1    0    0  501    0  0.00000000000E+00  0.00000000000E+00 -0.14049397329E+04  0.14049397329E+04  0.25500000920E-02 0.  1.
    10030    2    1    2    0    0  0.00000000000E+00  0.00000000000E+00  0.90315728642E+03  0.37130367522E+04  0.36015203510E+04 0.  0.
        2    1    3    3  502    0 -0.29302928298E+02 -0.17742261106E+04  0.76766656015E+03  0.19334034500E+04  0.25500000920E-02 0. -1.
       -2    1    3    3    0  502  0.29302928298E+02  0.17742261106E+04  0.13549072627E+03  0.17796333021E+04  0.25500000920E-02 0.  1.
</event>
<event>
 5   0  0.1029908E-07  0.3595889E+04  0.7818609E-02  0.8091434E-01
        2   -1    0    0  501    0  0.00000000000E+00  0.00000000000E+00  0.14791907425E+04  0.14791907425E+04  0.25500000920E-02 0. -1.
       -2   -1    0    0    0  501  0.00000000000E+00  0.00000000000E+00 -0.21853870426E+04  0.21853870426E+04  0.25500000920E-02 0.  1.
    10030    2    1    2    0    0  0.00000000000E+00  0.00000000000E+00 -0.70619630005E+03  0.36645777851E+04  0.35958889206E+04 0.  0.
        4    1    3    3  502    0  0.15394790181E+04  0.14856076074E+03  0.58122266238E+03  0.16522370723E+04  0.12699999809E+01 0. -1.
       -4    1    3    3    0  502 -0.15394790181E+04 -0.14856076074E+03 -0.12874189624E+04  0.20123407129E+04  0.12699999809E+01 0.  1.
</event>
<event>
 5   0  0.1021087E-07  0.3606593E+04  0.7818609E-02  0.8088983E-01
       -2   -1    0    0    0  501  0.00000000000E+00  0.00000000000E+00  0.12055756354E+04  0.12055756354E+04  0.25500000920E-02 0. -1.
        2   -1    0    0  501    0  0.00000000000E+00  0.00000000000E+00 -0.26973651613E+04  0.26973651613E+04  0.25500000920E-02 0.  1.
    10030    2    1    2    0    0  0.00000000000E+00  0.00000000000E+00 -0.14917895259E+04  0.39029407968E+04  0.36065926958E+04 0.  0.
        3    1    3    3  502    0  0.13108003281E+04  0.42799156075E+02 -0.20852715386E+04  0.24634095615E+04  0.10100000352E+00 0.  1.
       -3    1    3    3    0  502 -0.13108003281E+04 -0.42799156075E+02  0.59348201269E+03  0.14395312353E+04  0.10100000352E+00 0. -1.
</event>
<event>
 5   0  0.3279988E-08  0.3621116E+04  0.7818609E-02  0.8085672E-01
        1   -1    0    0  501    0  0.00000000000E+00  0.00000000000E+00  0.18818664437E+04  0.18818664437E+04  0.50400001928E-02 0.  1.
       -1   -1    0    0    0  501  0.00000000000E+00  0.00000000000E+00 -0.17419514903E+04  0.17419514903E+04  0.50400001928E-02 0. -1.
    10030    2    1    2    0    0  0.00000000000E+00  0.00000000000E+00  0.13991495340E+03  0.36238179341E+04  0.36211158812E+04 0.  0.
        5    1    3    3  502    0 -0.48916938188E+03  0.16520965509E+04  0.62659934335E+03  0.18334008086E+04  0.46999998093E+01 0.  1.
       -5    1    3    3    0  502  0.48916938188E+03 -0.16520965509E+04 -0.48668438995E+03  0.17904171255E+04  0.46999998093E+01 0. -1.
</event>
<event>
 5   0  0.1044678E-07  0.3600070E+04  0.7818609E-02  0.8090476E-01
        2   -1    0    0  501    0  0.00000000000E+00  0.00000000000E+00  0.28497027142E+04  0.28497027142E+04  0.25500000920E-02 0.  1.
       -2   -1    0    0    0  501  0.00000000000E+00  0.00000000000E+00 -0.11370049904E+04  0.11370049904E+04  0.25500000920E-02 0. -1.
    10030    2    1    2    0    0  0.00000000000E+00  0.00000000000E+00  0.17126977239E+04  0.39867077046E+04  0.36000701144E+04 0.  0.
        2    1    3    3  502    0  0.70369415054E+03  0.86753176938E+03  0.24194389383E+04  0.26648605226E+04  0.25500000920E-02 0.  1.
       -2    1    3    3    0  502 -0.70369415054E+03 -0.86753176938E+03 -0.70674121448E+03  0.13218471820E+04  0.25500000920E-02 0. -1.
</event>
<event>
 5   0  0.3215494E-08  0.3605202E+04  0.7818609E-02  0.8089301E-01
       -1   -1    0    0    0  501  0.00000000000E+00  0.00000000000E+00  0.21624674250E+04  0.21624674250E+04  0.50400001928E-02 0.  1.
        1   -1    0    0  501    0  0.00000000000E+00  0.00000000000E+00 -0.15026220532E+04  0.15026220532E+04  0.50400001928E-02 0. -1.
    10030    2    1    2    0    0  0.00000000000E+00  0.00000000000E+00  0.65984537188E+03  0.36650894782E+04  0.36052024865E+04 0.  0.
        4    1    3    3  502    0 -0.17568629499E+04  0.40272817900E+03  0.35507674853E+03  0.18370733575E+04  0.12699999809E+01 0. -1.
       -4    1    3    3    0  502  0.17568629499E+04 -0.40272817900E+03  0.30476862335E+03  0.18280161207E+04  0.12699999809E+01 0.  1.
</event>
<event>
 5   0  0.1044678E-07  0.3512457E+04  0.7818609E-02  0.8110844E-01
       -2   -1    0    0    0  501  0.00000000000E+00  0.00000000000E+00  0.24378423457E+04  0.24378423457E+04  0.25500000920E-02 0. -1.
        2   -1    0    0  501    0  0.00000000000E+00  0.00000000000E+00 -0.12651919835E+04  0.12651919835E+04  0.25500000920E-02 0.  1.
    10030    2    1    2    0    0  0.00000000000E+00  0.00000000000E+00  0.11726503622E+04  0.37030343292E+04  0.35124570277E+04 0.  0.
        2    1    3    3  502    0  0.20280670207E+03  0.19173281888E+03 -0.12416633343E+04  0.12726428674E+04  0.25500000920E-02 0.  1.
       -2    1    3    3    0  502 -0.20280670207E+03 -0.19173281888E+03  0.24143136965E+04  0.24303914618E+04  0.25500000920E-02 0. -1.
</event>
<event>
 5   0  0.3279988E-08  0.3615439E+04  0.7818609E-02  0.8086964E-01
       -1   -1    0    0    0  501  0.00000000000E+00  0.00000000000E+00  0.19276800421E+04  0.19276800421E+04  0.50400001928E-02 0.  1.
        1   -1    0    0  501    0  0.00000000000E+00  0.00000000000E+00 -0.16952242774E+04  0.16952242774E+04  0.50400001928E-02 0. -1.
    10030    2    1    2    0    0  0.00000000000E+00  0.00000000000E+00  0.23245576470E+03  0.36229043195E+04  0.36154391194E+04 0.  0.
        5    1    3    3  502    0  0.15302990531E+04 -0.33747073662E+03  0.10192691129E+04  0.18693938334E+04  0.46999998093E+01 0.  1.
       -5    1    3    3    0  502 -0.15302990531E+04  0.33747073662E+03 -0.78681334825E+03  0.17535104861E+04  0.46999998093E+01 0. -1.
</event>
<event>
 5   0  0.3279988E-08  0.3607649E+04  0.7818609E-02  0.8088742E-01
       -1   -1    0    0    0  501  0.00000000000E+00  0.00000000000E+00  0.13830939964E+04  0.13830939964E+04  0.50400001928E-02 0.  1.
        1   -1    0    0  501    0  0.00000000000E+00  0.00000000000E+00 -0.23525393631E+04  0.23525393631E+04  0.50400001928E-02 0. -1.
    10030    2    1    2    0    0  0.00000000000E+00  0.00000000000E+00 -0.96944536665E+03  0.37356333595E+04  0.36076491345E+04 0.  0.
        5    1    3    3  502    0 -0.17190947739E+04 -0.47054877432E+03 -0.77216373041E+03  0.19424113641E+04  0.46999998093E+01 0.  1.
       -5    1    3    3    0  502  0.17190947739E+04  0.47054877432E+03 -0.19728163624E+03  0.17932219954E+04  0.46999998093E+01 0. -1.
</event>
<event>
 5   0  0.3212523E-08  0.3639714E+04  0.7818609E-02  0.8081455E-01
        1   -1    0    0  501    0  0.00000000000E+00  0.00000000000E+00  0.10041902237E+04  0.10041902237E+04  0.50400001928E-02 0.  1.
       -1   -1    0    0    0  501  0.00000000000E+00  0.00000000000E+00 -0.32980590819E+04  0.32980590819E+04  0.50400001928E-02 0. -1.
    10030    2    1    2    0    0  0.00000000000E+00  0.00000000000E+00 -0.22938688583E+04  0.43022493056E+04  0.36397135531E+04 0.  0.
        3    1    3    3  502    0 -0.99277636713E+03 -0.11021826965E+04 -0.23931026345E+04  0.28155553344E+04  0.10100000352E+00 0. -1.
       -3    1    3    3    0  502  0.99277636713E+03  0.11021826965E+04  0.99233776233E+02  0.14866939712E+04  0.10100000352E+00 0.  1.
</event>
<event>
 5   0  0.3202875E-08  0.3597384E+04  0.7818609E-02  0.8091091E-01
        1   -1    0    0  501    0  0.00000000000E+00  0.00000000000E+00  0.12679878320E+04  0.12679878320E+04  0.50400001928E-02 0.  1.
       -1   -1    0    0    0  501  0.00000000000E+00  0.00000000000E+00 -0.25515166363E+04  0.25515166363E+04  0.50400001928E-02 0. -1.
    10030    2    1    2    0    0  0.00000000000E+00  0.00000000000E+00 -0.12835288044E+04  0.38195044683E+04  0.35973835203E+04 0.  0.
        2    1    3    3  502    0  0.12943399338E+04  0.47579702145E+03  0.58435283178E+03  0.14977205687E+04  0.25500000920E-02 0.  1.
       -2    1    3    3    0  502 -0.12943399338E+04 -0.47579702145E+03 -0.18678816361E+04  0.23217838996E+04  0.25500000920E-02 0. -1.
</event>
<event>
 5   0  0.9905335E-08  0.3595660E+04  0.7818609E-02  0.8091487E-01
       -2   -1    0    0    0  501  0.00000000000E+00  0.00000000000E+00  0.22625322751E+04  0.22625322751E+04  0.25500000920E-02 0. -1.
        2   -1    0    0  501    0  0.00000000000E+00  0.00000000000E+00 -0.14285731280E+04  0.14285731280E+04  0.25500000920E-02 0.  1.
    10030    2    1    2    0    0  0.00000000000E+00  0.00000000000E+00  0.83395914708E+03  0.36911054032E+04  0.35956600560E+04 0.  0.
        5    1    3    3  502    0 -0.10674385194E+04 -0.13865016586E+04 -0.67221264268E+01  0.17498225964E+04  0.46999998093E+01 0. -1.
       -5    1    3    3    0  502  0.10674385194E+04  0.13865016586E+04  0.84068127350E+03  0.19412828067E+04  0.46999998093E+01 0.  1.
</event>
<event>
 5   0  0.3215494E-08  0.3601694E+04  0.7818609E-02  0.8090104E-01
       -1   -1    0    0    0  501  0.00000000000E+00  0.00000000000E+00  0.23569816130E+04  0.23569816130E+04  0.50400001928E-02 0. -1.
        1   -1    0    0  501    0  0.00000000000E+00  0.00000000000E+00 -0.13759332514E+04  0.13759332515E+04  0.50400001928E-02 0.  1.
    10030    2    1    2    0    0  0.00000000000E+00  0.00000000000E+00  0.98104836156E+03  0.37329148645E+04  0.36016936985E+04 0.  0.
        4    1    3    3  502    0 -0.12376167471E+04  0.12562959481E+03  0.18401057531E+04  0.22211413290E+04  0.12699999809E+01 0.  1.
       -4    1    3    3    0  502  0.12376167471E+04 -0.12562959481E+03 -0.85905739153E+03  0.15117735355E+04  0.12699999809E+01 0. -1.
</event>
<event>
 5   0  0.3279988E-08  0.3599311E+04  0.7818609E-02  0.8090650E-01
        1   -1    0    0  501    0  0.00000000000E+00  0.00000000000E+00  0.13527338414E+04  0.13527338415E+04  0.50400001928E-02 0. -1.
       -1   -1    0    0    0  501  0.00000000000E+00  0.00000000000E+00 -0.23942326018E+04  0.23942326018E+04  0.50400001928E-02 0.  1.
    10030    2    1    2    0    0  0.00000000000E+00  0.00000000000E+00 -0.10414987603E+04  0.37469664433E+04  0.35993107478E+04 0.  0.
        5    1    3    3  502    0 -0.77891859868E+03 -0.55355614055E+03 -0.21083010054E+04  0.23147556682E+04  0.46999998093E+01 0.  1.
       -5    1    3    3    0  502  0.77891859868E+03  0.55355614055E+03  0.10668022451E+04  0.14322107750E+04  0.46999998093E+01 0. -1.
</event>
<event>
 5   0  0.1044678E-07  0.3601609E+04  0.7818609E-02  0.8090123E-01
       -2   -1    0    0    0  501  0.00000000000E+00  0.00000000000E+00  0.17450972690E+04  0.17450972690E+04  0.25500000920E-02 0. -1.
        2   -1    0    0  501    0  0.00000000000E+00  0.00000000000E+00 -0.18582897410E+04  0.18582897410E+04  0.25500000920E-02 0.  1.
    10030    2    1    2    0    0  0.00000000000E+00  0.00000000000E+00 -0.11319247200E+03  0.36033870100E+04  0.36016087250E+04 0.  0.
        2    1    3    3  502    0 -0.81350984299E+03  0.13067439360E+04 -0.99167975141E+03  0.18310670955E+04  0.25500000920E-02 0.  1.
       -2    1    3    3    0  502  0.81350984299E+03 -0.13067439360E+04  0.87848727941E+03  0.17723199144E+04  0.25500000920E-02 0. -1.
</event>
<event>
 5   0  0.3202875E-08  0.3615824E+04  0.7818609E-02  0.8086877E-01
       -1   -1    0    0    0  501  0.00000000000E+00  0.00000000000E+00  0.16621530651E+04  0.16621530651E+04  0.50400001928E-02 0.  1.
        1   -1    0    0  501    0  0.00000000000E+00  0.00000000000E+00 -0.19664524360E+04  0.19664524360E+04  0.50400001928E-02 0. -1.
    10030    2    1    2    0    0  0.00000000000E+00  0.00000000000E+00 -0.30429937089E+03  0.36286055011E+04  0.36158235266E+04 0.  0.
        2    1    3    3  502    0 -0.12152061636E+04 -0.12505443697E+04 -0.63128663611E+03  0.18544837712E+04  0.25500000920E-02 0. -1.
       -2    1    3    3    0  502  0.12152061636E+04  0.12505443697E+04  0.32698726522E+03  0.17741217299E+04  0.25500000920E-02 0.  1.
</event>
<event>
 5   0  0.9905335E-08  0.3601037E+04  0.7818609E-02  0.8090254E-01
        2   -1    0    0  501    0  0.00000000000E+00  0.00000000000E+00  0.28323448733E+04  0.28323448733E+04  0.25500000920E-02 0. -1.
       -2   -1    0    0    0  501  0.00000000000E+00  0.00000000000E+00 -0.11445873522E+04  0.11445873523E+04  0.25500000920E-02 0.  1.
    10030    2    1    2    0    0  0.00000000000E+00  0.00000000000E+00  0.16877575210E+04  0.39769322255E+04  0.36010365836E+04 0.  0.
        5    1    3    3  502    0  0.48774314594E+03  0.75493572548E+03  0.25668696011E+04  0.27196806734E+04  0.46999998093E+01 0. -1.
       -5    1    3    3    0  502 -0.48774314594E+03 -0.75493572548E+03 -0.87911208009E+03  0.12572515521E+04  0.46999998093E+01 0.  1.
</event>
<event>
 5   0  0.3202875E-08  0.3602100E+04  0.7818609E-02  0.8090011E-01
        1   -1    0    0  501    0  0.00000000000E+00  0.00000000000E+00  0.18692613045E+04  0.18692613045E+04  0.50400001928E-02 0.  1.
       -1   -1    0    0    0  501  0.00000000000E+00  0.00000000000E+00 -0.17353278826E+04  0.17353278826E+04  0.50400001928E-02 0. -1.
    10030    2    1    2    0    0  0.00000000000E+00  0.00000000000E+00  0.13393342196E+03  0.36045891871E+04  0.36021000883E+04 0.  0.
        1    1    3    3  502    0 -0.11785410207E+04 -0.12706664095E+04 -0.42350379544E+03  0.17840704937E+04  0.50400001928E-02 0. -1.
       -1    1    3    3    0  502  0.11785410207E+04  0.12706664095E+04  0.55743721740E+03  0.18205186934E+04  0.50400001928E-02 0.  1.
</event>
<event>
 5   0  0.1021087E-07  0.3605242E+04  0.7818609E-02  0.8089292E-01
       -2   -1    0    0    0  501  0.00000000000E+00  0.00000000000E+00  0.13418814135E+04  0.13418814135E+04  0.25500000920E-02 0. -1.
        2   -1    0    0  501    0  0.00000000000E+00  0.00000000000E+00 -0.24215572019E+04  0.24215572019E+04  0.25500000920E-02 0.  1.
    10030    2    1    2    0    0  0.00000000000E+00  0.00000000000E+00 -0.10796757884E+04  0.37634386155E+04  0.36052420729E+04 0.  0.
        3    1    3    3  502    0 -0.89219360526E+03  0.96009401303E+03 -0.18317428052E+04  0.22523480321E+04  0.10100000352E+00 0.  1.
       -3    1    3    3    0  502  0.89219360526E+03 -0.96009401303E+03  0.75206701681E+03  0.15110905834E+04  0.10100000352E+00 0. -1.
</event>
<event>
 5   0  0.9905335E-08  0.3626239E+04  0.7818609E-02  0.8084508E-01
        2   -1    0    0  501    0  0.00000000000E+00  0.00000000000E+00  0.17410107458E+04  0.17410107458E+04  0.25500000920E-02 0. -1.
       -2   -1    0    0    0  501  0.00000000000E+00  0.00000000000E+00 -0.18882149186E+04  0.18882149186E+04  0.25500000920E-02 0.  1.
    10030    2    1    2    0    0  0.00000000000E+00  0.00000000000E+00 -0.14720417282E+03  0.36292256645E+04  0.36262390786E+04 0.  0.
        5    1    3    3  502    0  0.62993951054E+03 -0.64797215621E+03  0.14995349346E+04  0.17508051897E+04  0.46999998093E+01 0. -1.
       -5    1    3    3    0  502 -0.62993951054E+03  0.64797215621E+03 -0.16467391074E+04  0.18784204748E+04  0.46999998093E+01 0.  1.
</event>
<event>
 5   0  0.3202875E-08  0.3608489E+04  0.7818609E-02  0.8088550E-01
        1   -1    0    0  501    0  0.00000000000E+00  0.00000000000E+00  0.98645673981E+03  0.98645673982E+03  0.50400001928E-02 0. -1.
       -1   -1    0    0    0  501  0.00000000000E+00  0.00000000000E+00 -0.32999906521E+04  0.32999906522E+04  0.50400001928E-02 0.  1.
    10030    2    1    2    0    0  0.00000000000E+00  0.00000000000E+00 -0.23135339123E+04  0.42864473920E+04  0.36084888916E+04 0.  0.
        1    1    3    3  502    0 -0.42114299129E+03  0.17417640284E+04 -0.90704480037E+03  0.20084405940E+04  0.50400001928E-02 0.  1.
       -1    1    3    3    0  502  0.42114299129E+03 -0.17417640284E+04 -0.14064891120E+04  0.22780067980E+04  0.50400001928E-02 0. -1.
</event>
<event>
 5   0  0.1044678E-07  0.3599335E+04  0.7818609E-02  0.8090644E-01
       -2   -1    0    0    0  501  0.00000000000E+00  0.00000000000E+00  0.14473563894E+04  0.14473563894E+04  0.25500000920E-02 0.  1.
        2   -1    0    0  501    0  0.00000000000E+00  0.00000000000E+00 -0.22377373699E+04  0.22377373700E+04  0.25500000920E-02 0. -1.
    10030    2    1    2    0    0  0.00000000000E+00  0.00000000000E+00 -0.79038098053E+03  0.36850937594E+04  0.35993352054E+04 0.  0.
        2    1    3    3  502    0  0.69710801543E+03  0.99373205415E+03  0.96512765167E+03  0.15507850801E+04  0.25500000920E-02 0.  1.
       -2    1    3    3    0  502 -0.69710801543E+03 -0.99373205415E+03 -0.17555086322E+04  0.21343086793E+04  0.25500000920E-02 0. -1.
</event>
<event>
 5   0  0.9905335E-08  0.3607728E+04  0.7818609E-02  0.8088724E-01
       -2   -1    0    0    0  501  0.00000000000E+00  0.00000000000E+00  0.14078282982E+04  0.14078282982E+04  0.25500000920E-02 0.  1.
        2   -1    0    0  501    0  0.00000000000E+00  0.00000000000E+00 -0.23113083834E+04  0.23113083834E+04  0.25500000920E-02 0. -1.
    10030    2    1    2    0    0  0.00000000000E+00  0.00000000000E+00 -0.90348008525E+03  0.37191366816E+04  0.36077280097E+04 0.  0.
        5    1    3    3  502    0 -0.36273745224E+03  0.78671085475E+03  0.11793367724E+04  0.14633351431E+04  0.46999998093E+01 0.  1.
       -5    1    3    3    0  502  0.36273745224E+03 -0.78671085475E+03 -0.20828168577E+04  0.22558015385E+04  0.46999998093E+01 0. -1.
</event>
<event>
 5   0  0.3215494E-08  0.3596352E+04  0.7818609E-02  0.8091328E-01
       -1   -1    0    0    0  501  0.00000000000E+00  0.00000000000E+00  0.12681643815E+04  0.12681643815E+04  0.50400001928E-02 0.  1.
        1   -1    0    0  501    0  0.00000000000E+00  0.00000000000E+00 -0.25496979060E+04  0.25496979060E+04  0.50400001928E-02 0. -1.
    10030    2    1    2    0    0  0.00000000000E+00  0.00000000000E+00 -0.12815335245E+04  0.38178622875E+04  0.35963515223E+04 0.  0.
        4    1    3    3  502    0  0.52989477994E+03 -0.86464738597E+02 -0.24626196084E+04  0.25204685234E+04  0.12699999809E+01 0. -1.
       -4    1    3    3    0  502 -0.52989477994E+03  0.86464738597E+02  0.11810860839E+04  0.12973937641E+04  0.12699999809E+01 0.  1.
</event>
<event>
 5   0  0.9905335E-08  0.3602350E+04  0.7818609E-02  0.8089954E-01
       -2   -1    0    0    0  501  0.00000000000E+00  0.00000000000E+00  0.12614820108E+04  0.12614820108E+04  0.25500000920E-02 0. -1.
        2   -1    0    0  501    0  0.00000000000E+00  0.00000000000E+00 -0.25717618567E+04  0.25717618567E+04  0.25500000920E-02 0.  1.
    10030    2    1    2    0    0  0.00000000000E+00  0.00000000000E+00 -0.13102798459E+04  0.38332438675E+04  0.36023499654E+04 0.  0.
        5    1    3    3  502    0  0.11010519889E+03 -0.16720979508E+03  0.12495987764E+04  0.12655439393E+04  0.46999998093E+01 0. -1.
       -5    1    3    3    0  502 -0.11010519889E+03  0.16720979508E+03 -0.25598786223E+04  0.25676999282E+04  0.46999998093E+01 0.  1.
</event>
<event>
 5   0  0.3215494E-08  0.3584228E+04  0.7818609E-02  0.8094114E-01
       -1   -1    0    0    0  501  0.00000000000E+00  0.00000000000E+00  0.11722081913E+04  0.11722081913E+04  0.50400001928E-02 0. -1.
        1   -1    0    0  501    0  0.00000000000E+00  0.00000000000E+00 -0.27398480569E+04  0.27398480569E+04  0.50400001928E-02 0.  1.
    10030    2    1    2    0    0  0.00000000000E+00  0.00000000000E+00 -0.15676398656E+04  0.39120562483E+04  0.35842278585E+04 0.  0.
        4    1    3    3  502    0 -0.33713654720E+03 -0.93510761378E+03 -0.24113768799E+04  0.26082230293E+04  0.12699999809E+01 0.  1.
       -4    1    3    3    0  502  0.33713654720E+03  0.93510761378E+03  0.84373701428E+03  0.13038332190E+04  0.12699999809E+01 0. -1.
</event>
<event>
 5   0  0.3279988E-08  0.3577235E+04  0.7818609E-02  0.8095726E-01
       -1   -1    0    0    0  501  0.00000000000E+00  0.00000000000E+00  0.17459523806E+04  0.17459523806E+04  0.50400001928E-02 0. -1.
        1   -1    0    0  501    0  0.00000000000E+00  0.00000000000E+00 -0.18323248951E+04  0.18323248951E+04  0.50400001928E-02 0.  1.
    10030    2    1    2    0    0  0.00000000000E+00  0.00000000000E+00 -0.86372514575E+02  0.35782772757E+04  0.35772346933E+04 0.  0.
        5    1    3    3  502    0  0.59719085297E+03 -0.10905842842E+04  0.12429251951E+04  0.17580944589E+04  0.46999998093E+01 0. -1.
       -5    1    3    3    0  502 -0.59719085297E+03  0.10905842842E+04 -0.13292977097E+04  0.18201828168E+04  0.46999998093E+01 0.  1.
</event>
<event>
 5   0  0.3279988E-08  0.3516283E+04  0.7818609E-02  0.8109942E-01
        1   -1    0    0  501    0  0.00000000000E+00  0.00000000000E+00  0.23633587427E+04  0.23633587427E+04  0.50400001928E-02 0.  1.
       -1   -1    0    0    0  501  0.00000000000E+00  0.00000000000E+00 -0.13079102169E+04  0.13079102169E+04  0.50400001928E-02 0. -1.
    10030    2    1    2    0    0  0.00000000000E+00  0.00000000000E+00  0.10554485258E+04  0.36712689596E+04  0.35162827223E+04 0.  0.
        5    1    3    3  502    0  0.37173616585E+03 -0.19172820455E+03  0.23106489041E+04  0.23482052571E+04  0.46999998093E+01 0.  1.
       -5    1    3    3    0  502 -0.37173616585E+03  0.19172820455E+03 -0.12552003783E+04  0.13230637026E+04  0.46999998093E+01 0. -1.
</event>
<event>
 5   0  0.1021087E-07  0.3600988E+04  0.7818609E-02  0.8090265E-01
        2   -1    0    0  501    0  0.00000000000E+00  0.00000000000E+00  0.17561308858E+04  0.17561308858E+04  0.25500000920E-02 0. -1.
       -2   -1    0    0    0  501  0.00000000000E+00  0.00000000000E+00 -0.18459778101E+04  0.18459778101E+04  0.25500000920E-02 0.  1.
    10030    2    1    2    0    0  0.00000000000E+00  0.00000000000E+00 -0.89846924384E+02  0.36021086959E+04  0.36009880015E+04 0.  0.
        3    1    3    3  502    0 -0.32958656823E+01 -0.11365592895E+04 -0.14417823302E+04  0.18358960153E+04  0.10100000352E+00 0.  1.
       -3    1    3    3    0  502  0.32958656823E+01  0.11365592895E+04  0.13519354058E+04  0.17662126806E+04  0.10100000352E+00 0. -1.
</event>
<event>
 5   0  0.3279988E-08  0.3591394E+04  0.7818609E-02  0.8092466E-01
        1   -1    0    0  501    0  0.00000000000E+00  0.00000000000E+00  0.19671455381E+04  0.19671455381E+04  0.50400001928E-02 0.  1.
       -1   -1    0    0    0  501  0.00000000000E+00  0.00000000000E+00 -0.16391908221E+04  0.16391908221E+04  0.50400001928E-02 0. -1.
    10030    2    1    2    0    0  0.00000000000E+00  0.00000000000E+00  0.32795471598E+03  0.36063363603E+04  0.35913935523E+04 0.  0.
        5    1    3    3  502    0 -0.17140118573E+04  0.45520520262E+03 -0.11907558167E+03  0.17774277785E+04  0.46999998093E+01 0. -1.
       -5    1    3    3    0  502  0.17140118573E+04 -0.45520520262E+03  0.44703029765E+03  0.18289085818E+04  0.46999998093E+01 0.  1.
</event>
<event>
 5   0  0.3279988E-08  0.3600308E+04  0.7818609E-02  0.8090421E-01
       -1   -1    0    0    0  501  0.00000000000E+00  0.00000000000E+00  0.12198941905E+04  0.12198941905E+04  0.50400001928E-02 0. -1.
        1   -1    0    0  501    0  0.00000000000E+00  0.00000000000E+00 -0.26564222575E+04  0.26564222575E+04  0.50400001928E-02 0.  1.
    10030    2    1    2    0    0  0.00000000000E+00  0.00000000000E+00 -0.14365280670E+04  0.38763164480E+04  0.36003078088E+04 0.  0.
        5    1    3    3  502    0  0.88917555374E+03  0.50752933370E+03 -0.23124201555E+04  0.25289381676E+04  0.46999998093E+01 0.  1.
       -5    1    3    3    0  502 -0.88917555374E+03 -0.50752933370E+03  0.87589208849E+03  0.13473782805E+04  0.46999998093E+01 0. -1.
</event>
<event>
 5   0  0.1021087E-07  0.3605237E+04  0.7818609E-02  0.8089293E-01
        2   -1    0    0  501    0  0.00000000000E+00  0.00000000000E+00  0.23756049556E+04  0.23756049556E+04  0.25500000920E-02 0. -1.
       -2   -1    0    0    0  501  0.00000000000E+00  0.00000000000E+00 -0.13678341774E+04  0.13678341774E+04  0.25500000920E-02 0.  1.
    10030    2    1    2    0    0  0.00000000000E+00  0.00000000000E+00  0.10077707782E+04  0.37434391330E+04  0.36052371074E+04 0.  0.
        3    1    3    3  502    0 -0.10659924410E+03 -0.62645794092E+03  0.22554471222E+04  0.23432572804E+04  0.10100000352E+00 0. -1.
       -3    1    3    3    0  502  0.10659924410E+03  0.62645794092E+03 -0.12476763441E+04  0.14001818526E+04  0.10100000352E+00 0.  1.
</event>
<event>
 5   0  0.1017794E-07  0.3601399E+04  0.7818609E-02  0.8090171E-01
        2   -1    0    0  501    0  0.00000000000E+00  0.00000000000E+00  0.26748652037E+04  0.26748652037E+04  0.25500000920E-02 0. -1.
       -2   -1    0    0    0  501  0.00000000000E+00  0.00000000000E+00 -0.12122174090E+04  0.12122174090E+04  0.25500000920E-02 0.  1.
    10030    2    1    2    0    0  0.00000000000E+00  0.00000000000E+00  0.14626477946E+04  0.38870826127E+04  0.36013987098E+04 0.  0.
        1    1    3    3  502    0 -0.26738000811E+03 -0.15441914163E+04 -0.22587379896E+03  0.15833629312E+04  0.50400001928E-02 0.  1.
       -1    1    3    3    0  502  0.26738000811E+03  0.15441914163E+04  0.16885215936E+04  0.23037196815E+04  0.50400001928E-02 0. -1.
</event>
<event>
 5   0  0.1029908E-07  0.3599632E+04  0.7818609E-02  0.8090576E-01
       -2   -1    0    0    0  501  0.00000000000E+00  0.00000000000E+00  0.32630579572E+04  0.32630579572E+04  0.25500000920E-02 0.  1.
        2   -1    0    0  501    0  0.00000000000E+00  0.00000000000E+00 -0.99273067975E+03  0.99273067976E+03  0.25500000920E-02 0. -1.
    10030    2    1    2    0    0  0.00000000000E+00  0.00000000000E+00  0.22703272774E+04  0.42557886369E+04  0.35996320612E+04 0.  0.
        4    1    3    3  502    0 -0.14321530325E+04 -0.65764743540E+03  0.21629854252E+04  0.26762044056E+04  0.12699999809E+01 0.  1.
       -4    1    3    3    0  502  0.14321530325E+04  0.65764743540E+03  0.10734185227E+03  0.15795842314E+04  0.12699999809E+01 0. -1.
</event>
<event>
 5   0  0.3202875E-08  0.3598163E+04  0.7818609E-02  0.8090913E-01
       -1   -1    0    0    0  501  0.00000000000E+00  0.00000000000E+00  0.12638587337E+04  0.12638587337E+04  0.50400001928E-02 0. -1.
        1   -1    0    0  501    0  0.00000000000E+00  0.00000000000E+00 -0.25609627107E+04  0.25609627107E+04  0.50400001928E-02 0.  1.
    10030    2    1    2    0    0  0.00000000000E+00  0.00000000000E+00 -0.12971039770E+04  0.38248214444E+04  0.35981634696E+04 0.  0.
        2    1    3    3  502    0 -0.14206536960E+04  0.11036710322E+04 -0.66839374153E+03  0.19191396158E+04  0.25500000920E-02 0. -1.
       -2    1    3    3    0  502  0.14206536960E+04 -0.11036710322E+04 -0.62871023546E+03  0.19056818285E+04  0.25500000920E-02 0.  1.
</event>
<event>
 5   0  0.9905335E-08  0.3594220E+04  0.7818609E-02  0.8091817E-01
        2   -1    0    0  501    0  0.00000000000E+00  0.00000000000E+00  0.14919782221E+04  0.14919782221E+04  0.25500000920E-02 0.  1.
       -2   -1    0    0    0  501  0.00000000000E+00  0.00000000000E+00 -0.21646457999E+04  0.21646457999E+04  0.25500000920E-02 0. -1.
    10030    2    1    2    0    0  0.00000000000E+00  0.00000000000E+00 -0.67266757783E+03  0.36566240219E+04  0.35942200221E+04 0.  0.
        5    1    3    3  502    0  0.90058154253E+03 -0.15523336752E+04 -0.24092197330E+03  0.18107601832E+04  0.46999998093E+01 0.  1.
       -5    1    3    3    0  502 -0.90058154253E+03  0.15523336752E+04 -0.43174560453E+03  0.18458638387E+04  0.46999998093E+01 0. -1.
</event>
<event>
 5   0  0.3215494E-08  0.3603463E+04  0.7818609E-02  0.8089699E-01
       -1   -1    0    0    0  501  0.00000000000E+00  0.00000000000E+00  0.30018040362E+04  0.30018040362E+04  0.50400001928E-02 0. -1.
        1   -1    0    0  501    0  0.00000000000E+00  0.00000000000E+00 -0.10814286749E+04  0.10814286749E+04  0.50400001928E-02 0.  1.
    10030    2    1    2    0    0  0.00000000000E+00  0.00000000000E+00  0.19203753613E+04  0.40832327110E+04  0.36034633124E+04 0.  0.
        4    1    3    3  502    0 -0.84285741803E+03  0.25318412030E+03  0.27416804346E+04  0.28794659304E+04  0.12699999809E+01 0. -1.
       -4    1    3    3    0  502  0.84285741803E+03 -0.25318412030E+03 -0.82130507328E+03  0.12037667807E+04  0.12699999809E+01 0.  1.
</event>
<event>
 5   0  0.1017794E-07  0.3604396E+04  0.7818609E-02  0.8089486E-01
        2   -1    0    0  501    0  0.00000000000E+00  0.00000000000E+00  0.21554002293E+04  0.21554002293E+04  0.25500000920E-02 0.  1.
       -2   -1    0    0    0  501  0.00000000000E+00  0.00000000000E+00 -0.15068742309E+04  0.15068742309E+04  0.25500000920E-02 0. -1.
    10030    2    1    2    0    0  0.00000000000E+00  0.00000000000E+00  0.64852599835E+03  0.36622744602E+04  0.36043956846E+04 0.  0.
        1    1    3    3  502    0 -0.30644761262E+03  0.14813028165E+04  0.13196620822E+04  0.20074053365E+04  0.50400001928E-02 0.  1.
       -1    1    3    3    0  502  0.30644761262E+03 -0.14813028165E+04 -0.67113608390E+03  0.16548691237E+04  0.50400001928E-02 0. -1.
</event>
<event>
 5   0  0.9905335E-08  0.3602137E+04  0.7818609E-02  0.8090002E-01
        2   -1    0    0  501    0  0.00000000000E+00  0.00000000000E+00  0.18983301666E+04  0.18983301666E+04  0.25500000920E-02 0. -1.
       -2   -1    0    0    0  501  0.00000000000E+00  0.00000000000E+00 -0.17087897634E+04  0.17087897634E+04  0.25500000920E-02 0.  1.
    10030    2    1    2    0    0  0.00000000000E+00  0.00000000000E+00  0.18954040320E+03  0.36071199301E+04  0.36021366750E+04 0.  0.
        5    1    3    3  502    0 -0.52351616822E+03 -0.38288863422E+02  0.18200262097E+04  0.18942155922E+04  0.46999998093E+01 0. -1.
       -5    1    3    3    0  502  0.52351616822E+03  0.38288863422E+02 -0.16304858065E+04  0.17129043379E+04  0.46999998093E+01 0.  1.
</event>
<event>
 5   0  0.1044678E-07  0.3598042E+04  0.7818609E-02  0.8090940E-01
        2   -1    0    0  501    0  0.00000000000E+00  0.00000000000E+00  0.14610151890E+04  0.14610151890E+04  0.25500000920E-02 0.  1.
       -2   -1    0    0    0  501  0.00000000000E+00  0.00000000000E+00 -0.22152238775E+04  0.22152238775E+04  0.25500000920E-02 0. -1.
    10030    2    1    2    0    0  0.00000000000E+00  0.00000000000E+00 -0.75420868850E+03  0.36762390665E+04  0.35980415406E+04 0.  0.
        2    1    3    3  502    0  0.95601558672E+03  0.15135044826E+04 -0.19486276528E+03  0.18007312732E+04  0.25500000920E-02 0. -1.
       -2    1    3    3    0  502 -0.95601558672E+03 -0.15135044826E+04 -0.55934592322E+03  0.18755077933E+04  0.25500000920E-02 0.  1.
</event>
<event>
 5   0  0.3202875E-08  0.3608219E+04  0.7818609E-02  0.8088612E-01
        1   -1    0    0  501    0  0.00000000000E+00  0.00000000000E+00  0.11477819388E+04  0.11477819388E+04  0.50400001928E-02 0.  1.
       -1   -1    0    0    0  501  0.00000000000E+00  0.00000000000E+00 -0.28357399463E+04  0.28357399463E+04  0.50400001928E-02 0. -1.
    10030    2    1    2    0    0  0.00000000000E+00  0.00000000000E+00 -0.16879580075E+04  0.39835218851E+04  0.36082190030E+04 0.  0.
        1    1    3    3  502    0 -0.41940908214E+03  0.90815826864E+03  0.81356959578E+03  0.12893994363E+04  0.50400001928E-02 0.  1.
       -1    1    3    3    0  502  0.41940908214E+03 -0.90815826864E+03 -0.25015276033E+04  0.26941224488E+04  0.50400001928E-02 0. -1.
</event>
<event>
 5   0  0.3215494E-08  0.3602836E+04  0.7818609E-02  0.8089842E-01
        1   -1    0    0  501    0  0.00000000000E+00  0.00000000000E+00  0.24043890708E+04  0.24043890708E+04  0.50400001928E-02 0. -1.
       -1   -1    0    0    0  501  0.00000000000E+00  0.00000000000E+00 -0.13496598276E+04  0.13496598276E+04  0.50400001928E-02 0.  1.
    10030    2    1    2    0    0  0.00000000000E+00  0.00000000000E+00  0.10547292433E+04  0.37540488984E+04  0.36028362932E+04 0.  0.
        4    1    3    3  502    0 -0.31608277319E+03 -0.17142505226E+04  0.53820809821E+02  0.17439786313E+04  0.12699999809E+01 0.  1.
       -4    1    3    3    0  502  0.31608277319E+03  0.17142505226E+04  0.10009084334E+04  0.20100702672E+04  0.12699999809E+01 0. -1.
</event>
<event>
 5   0  0.1044678E-07  0.3597143E+04  0.7818609E-02  0.8091146E-01
        2   -1    0    0  501    0  0.00000000000E+00  0.00000000000E+00  0.20183354553E+04  0.20183354553E+04  0.25500000920E-02 0. -1.
       -2   -1    0    0    0  501  0.00000000000E+00  0.00000000000E+00 -0.16027365848E+04  0.16027365848E+04  0.25500000920E-02 0.  1.
    10030    2    1    2    0    0  0.00000000000E+00  0.00000000000E+00  0.41559887052E+03  0.36210720401E+04  0.35971433525E+04 0.  0.
        2    1    3    3  502    0  0.17155267253E+03 -0.50907392304E+03  0.19356888694E+04  0.20088499142E+04  0.25500000920E-02 0. -1.
       -2    1    3    3    0  502 -0.17155267253E+03  0.50907392304E+03 -0.15200899989E+04  0.16122221259E+04  0.25500000920E-02 0.  1.
</event>
<event>
 5   0  0.9905335E-08  0.3600980E+04  0.7818609E-02  0.8090267E-01
        2   -1    0    0  501    0  0.00000000000E+00  0.00000000000E+00  0.27264508908E+04  0.27264508908E+04  0.25500000920E-02 0. -1.
       -2   -1    0    0    0  501  0.00000000000E+00  0.00000000000E+00 -0.11890054772E+04  0.11890054772E+04  0.25500000920E-02 0.  1.
    10030    2    1    2    0    0  0.00000000000E+00  0.00000000000E+00  0.15374454136E+04  0.39154563680E+04  0.36009804456E+04 0.  0.
        5    1    3    3  502    0 -0.10791060923E+04 -0.11219125104E+04  0.17524927639E+04  0.23440159166E+04  0.46999998093E+01 0. -1.
       -5    1    3    3    0  502  0.10791060923E+04  0.11219125104E+04 -0.21504735030E+03  0.15714404514E+04  0.46999998093E+01 0.  1.
</event>
<event>
 5   0  0.3202875E-08  0.3657581E+04  0.7818609E-02  0.8077428E-01
       -1   -1    0    0    0  501  0.00000000000E+00  0.00000000000E+00  0.14963281696E+04  0.14963281696E+04  0.50400001928E-02 0.  1.
        1   -1    0    0  501    0  0.00000000000E+00  0.00000000000E+00 -0.22351210777E+04  0.22351210778E+04  0.50400001928E-02 0. -1.
    10030    2    1    2    0    0  0.00000000000E+00  0.00000000000E+00 -0.73879290819E+03  0.37314492473E+04  0.36575809662E+04 0.  0.
        1    1    3    3  502    0 -0.68130616992E+03 -0.10365105767E+03 -0.20975833788E+04  0.22078898681E+04  0.50400001928E-02 0. -1.
       -1    1    3    3    0  502  0.68130616992E+03  0.10365105767E+03  0.13587904706E+04  0.15235593792E+04  0.50400001928E-02 0.  1.
</event>
<event>
 5   0  0.3202875E-08  0.3603168E+04  0.7818609E-02  0.8089767E-01
       -1   -1    0    0    0  501  0.00000000000E+00  0.00000000000E+00  0.15402235731E+04  0.15402235731E+04  0.50400001928E-02 0. -1.
        1   -1    0    0  501    0  0.00000000000E+00  0.00000000000E+00 -0.21072940746E+04  0.21072940746E+04  0.50400001928E-02 0.  1.
    10030    2    1    2    0    0  0.00000000000E+00  0.00000000000E+00 -0.56707050143E+03  0.36475176477E+04  0.36031675005E+04 0.  0.
        2    1    3    3  502    0 -0.15213398008E+04 -0.37552713251E+03 -0.11834136436E+04  0.19636606806E+04  0.25500000920E-02 0.  1.
       -2    1    3    3    0  502  0.15213398008E+04  0.37552713251E+03  0.61634314218E+03  0.16838569671E+04  0.25500000920E-02 0. -1.
</event>
<event>
 5   0  0.1029908E-07  0.3600849E+04  0.7818609E-02  0.8090297E-01
       -2   -1    0    0    0  501  0.00000000000E+00  0.00000000000E+00  0.15388622827E+04  0.15388622827E+04  0.25500000920E-02 0.  1.
        2   -1    0    0  501    0  0.00000000000E+00  0.00000000000E+00 -0.21064447999E+04  0.21064447999E+04  0.25500000920E-02 0. -1.
    10030    2    1    2    0    0  0.00000000000E+00  0.00000000000E+00 -0.56758251721E+03  0.36453070826E+04  0.36008490405E+04 0.  0.
        4    1    3    3  502    0 -0.42483726034E+03  0.69460189252E+03  0.13418268514E+04  0.15695411428E+04  0.12699999809E+01 0.  1.
       -4    1    3    3    0  502  0.42483726034E+03 -0.69460189252E+03 -0.19094093686E+04  0.20757659398E+04  0.12699999809E+01 0. -1.
</event>
<event>
 5   0  0.3202875E-08  0.3626107E+04  0.7818609E-02  0.8084538E-01
        3   -1    0    0  501    0  0.00000000000E+00  0.00000000000E+00  0.21476544801E+04  0.21476544824E+04  0.10100000352E+00 0. -1.
       -3   -1    0    0    0  501  0.00000000000E+00  0.00000000000E+00 -0.15305826888E+04  0.15305826922E+04  0.10100000352E+00 0.  1.
    10030    2    1    2    0    0  0.00000000000E+00  0.00000000000E+00  0.61707179123E+03  0.36782371746E+04  0.36261068817E+04 0.  0.
        5    1    3    3  502    0 -0.25270325180E+03  0.25643140435E+03 -0.14939526183E+04  0.15367278596E+04  0.46999998093E+01 0.  1.
       -5    1    3    3    0  502  0.25270325180E+03 -0.25643140435E+03  0.21110244096E+04  0.21415093150E+04  0.46999998093E+01 0. -1.
</event>
<event>
 5   0  0.1029908E-07  0.3594115E+04  0.7818609E-02  0.8091841E-01
        2   -1    0    0  501    0  0.00000000000E+00  0.00000000000E+00  0.19922422055E+04  0.19922422055E+04  0.25500000920E-02 0.  1.
       -2   -1    0    0    0  501  0.00000000000E+00  0.00000000000E+00 -0.16209951797E+04  0.16209951797E+04  0.25500000920E-02 0. -1.
    10030    2    1    2    0    0  0.00000000000E+00  0.00000000000E+00  0.37124702581E+03  0.36132373852E+04  0.35941146403E+04 0.  0.
        4    1    3    3  502    0 -0.32460213097E+03  0.24607349447E+03  0.19452201998E+04  0.19874108651E+04  0.12699999809E+01 0.  1.
       -4    1    3    3    0  502  0.32460213097E+03 -0.24607349447E+03 -0.15739731740E+04  0.16258265201E+04  0.12699999809E+01 0. -1.
</event>
<event>
 5   0  0.1029908E-07  0.3601194E+04  0.7818609E-02  0.8090218E-01
        2   -1    0    0  501    0  0.00000000000E+00  0.00000000000E+00  0.20852369609E+04  0.20852369609E+04  0.25500000920E-02 0. -1.
       -2   -1    0    0    0  501  0.00000000000E+00  0.00000000000E+00 -0.15548113903E+04  0.15548113903E+04  0.25500000920E-02 0.  1.
    10030    2    1    2    0    0  0.00000000000E+00  0.00000000000E+00  0.53042557059E+03  0.36400483513E+04  0.36011943455E+04 0.  0.
        4    1    3    3  502    0  0.29891670815E+03  0.17447820252E+04 -0.67785195515E+02  0.17714999180E+04  0.12699999809E+01 0.  1.
       -4    1    3    3    0  502 -0.29891670815E+03 -0.17447820252E+04  0.59821076610E+03  0.18685484333E+04  0.12699999809E+01 0. -1.
</event>
<event>
 5   0  0.9905335E-08  0.3605338E+04  0.7818609E-02  0.8089270E-01
       -2   -1    0    0    0  501  0.00000000000E+00  0.00000000000E+00  0.99931254663E+03  0.99931254664E+03  0.25500000920E-02 0. -1.
        2   -1    0    0  501    0  0.00000000000E+00  0.00000000000E+00 -0.32518508153E+04  0.32518508153E+04  0.25500000920E-02 0.  1.
    10030    2    1    2    0    0  0.00000000000E+00  0.00000000000E+00 -0.22525382687E+04  0.42511633620E+04  0.36053378868E+04 0.  0.
        5    1    3    3  502    0  0.14867957656E+04  0.10135298885E+04 -0.12542943831E+04  0.21934176467E+04  0.46999998093E+01 0. -1.
       -5    1    3    3    0  502 -0.14867957656E+04 -0.10135298885E+04 -0.99824388563E+03  0.20577457153E+04  0.46999998093E+01 0.  1.
</event>
<event>
 5   0  0.3202875E-08  0.3604344E+04  0.7818609E-02  0.8089497E-01
       -1   -1    0    0    0  501  0.00000000000E+00  0.00000000000E+00  0.13621198919E+04  0.13621198920E+04  0.50400001928E-02 0.  1.
        1   -1    0    0  501    0  0.00000000000E+00  0.00000000000E+00 -0.23843885296E+04  0.23843885296E+04  0.50400001928E-02 0. -1.
    10030    2    1    2    0    0  0.00000000000E+00  0.00000000000E+00 -0.10222686376E+04  0.37465084216E+04  0.36043435165E+04 0.  0.
        2    1    3    3  502    0 -0.85663765403E+03 -0.16378825467E+03  0.11281456502E+04  0.14259618756E+04  0.25500000920E-02 0.  1.
       -2    1    3    3    0  502  0.85663765403E+03  0.16378825467E+03 -0.21504142878E+04  0.23205465460E+04  0.25500000920E-02 0. -1.
</event>
<event>
 5   0  0.3202875E-08  0.3601360E+04  0.7818609E-02  0.8090180E-01
       -1   -1    0    0    0  501  0.00000000000E+00  0.00000000000E+00  0.14287475441E+04  0.14287475442E+04  0.50400001928E-02 0. -1.
        1   -1    0    0  501    0  0.00000000000E+00  0.00000000000E+00 -0.22694340246E+04  0.22694340246E+04  0.50400001928E-02 0.  1.
    10030    2    1    2    0    0  0.00000000000E+00  0.00000000000E+00 -0.84068648045E+03  0.36981815688E+04  0.36013599038E+04 0.  0.
        1    1    3    3  502    0  0.84863354528E+03  0.10368679458E+04  0.81498428744E+03  0.15682708376E+04  0.50400001928E-02 0. -1.
       -1    1    3    3    0  502 -0.84863354528E+03 -0.10368679458E+04 -0.16556707679E+04  0.21299107312E+04  0.50400001928E-02 0.  1.
</event>
<event>
 5   0  0.3202875E-08  0.3596934E+04  0.7818609E-02  0.8091194E-01
       -3   -1    0    0    0  501  0.00000000000E+00  0.00000000000E+00  0.15236481039E+04  0.15236481072E+04  0.10100000352E+00 0.  1.
        3   -1    0    0  501    0  0.00000000000E+00  0.00000000000E+00 -0.21228551517E+04  0.21228551541E+04  0.10100000352E+00 0. -1.
    10030    2    1    2    0    0  0.00000000000E+00  0.00000000000E+00 -0.59920704785E+03  0.36465032614E+04  0.35969343821E+04 0.  0.
        4    1    3    3  502    0 -0.38598152623E+03  0.17463549519E+04 -0.49127318193E+03  0.18547475054E+04  0.12699999809E+01 0.  1.
       -4    1    3    3    0  502  0.38598152623E+03 -0.17463549519E+04 -0.10793386593E+03  0.17917557560E+04  0.12699999809E+01 0. -1.
</event>
<event>
 5   0  0.1017794E-07  0.3598862E+04  0.7818609E-02  0.8090752E-01
        2   -1    0    0  501    0  0.00000000000E+00  0.00000000000E+00  0.25658639780E+04  0.25658639780E+04  0.25500000920E-02 0. -1.
       -2   -1    0    0    0  501  0.00000000000E+00  0.00000000000E+00 -0.12619346792E+04  0.12619346792E+04  0.25500000920E-02 0.  1.
    10030    2    1    2    0    0  0.00000000000E+00  0.00000000000E+00  0.13039292988E+04  0.38277986571E+04  0.35988624513E+04 0.  0.
        1    1    3    3  502    0 -0.85299637651E+02  0.49980552601E+03  0.24883145634E+04  0.25394469788E+04  0.50400001928E-02 0. -1.
       -1    1    3    3    0  502  0.85299637651E+02 -0.49980552601E+03 -0.11843852646E+04  0.12883516783E+04  0.50400001928E-02 0.  1.
</event>
<event>
 5   0  0.9905335E-08  0.3602420E+04  0.7818609E-02  0.8089938E-01
        2   -1    0    0  501    0  0.00000000000E+00  0.00000000000E+00  0.14904646888E+04  0.14904646888E+04  0.25500000920E-02 0.  1.
       -2   -1    0    0    0  501  0.00000000000E+00  0.00000000000E+00 -0.21767421517E+04  0.21767421517E+04  0.25500000920E-02 0. -1.
    10030    2    1    2    0    0  0.00000000000E+00  0.00000000000E+00 -0.68627746293E+03  0.36672068404E+04  0.36024199165E+04 0.  0.
        5    1    3    3  502    0 -0.12540311831E+04  0.29525920581E+02 -0.16590066610E+04  0.20798536438E+04  0.46999998093E+01 0. -1.
       -5    1    3    3    0  502  0.12540311831E+04 -0.29525920581E+02  0.97272919809E+03  0.15873531967E+04  0.46999998093E+01 0.  1.
</event>
<event>
 5   0  0.1029908E-07  0.3609703E+04  0.7818609E-02  0.8088273E-01
       -2   -1    0    0    0  501  0.00000000000E+00  0.00000000000E+00  0.14502122712E+04  0.14502122712E+04  0.25500000920E-02 0.  1.
        2   -1    0    0  501    0  0.00000000000E+00  0.00000000000E+00 -0.22462149265E+04  0.22462149265E+04  0.25500000920E-02 0. -1.
    10030    2    1    2    0    0  0.00000000000E+00  0.00000000000E+00 -0.79600265535E+03  0.36964271977E+04  0.36097027302E+04 0.  0.
        4    1    3    3  502    0 -0.15697793384E+04 -0.66445513815E+03  0.20935798628E+03  0.17174225401E+04  0.12699999809E+01 0.  1.
       -4    1    3    3    0  502  0.15697793384E+04  0.66445513815E+03 -0.10053606416E+04  0.19790046576E+04  0.12699999809E+01 0. -1.
</event>
<event>
 5   0  0.3279988E-08  0.3598382E+04  0.7818609E-02  0.8090862E-01
        1   -1    0    0  501    0  0.00000000000E+00  0.00000000000E+00  0.21129891433E+04  0.21129891433E+04  0.50400001928E-02 0.  1.
       -1   -1    0    0    0  501  0.00000000000E+00  0.00000000000E+00 -0.15319947810E+04  0.15319947810E+04  0.50400001928E-02 0. -1.
    10030    2    1    2    0    0  0.00000000000E+00  0.00000000000E+00  0.58099436234E+03  0.36449839243E+04  0.35983820474E+04 0.  0.
        5    1    3    3  502    0 -0.16000800107E+04  0.24314212784E+03  0.10866095557E+04  0.19493887636E+04  0.46999998093E+01 0.  1.
       -5    1    3    3    0  502  0.16000800107E+04 -0.24314212784E+03 -0.50561519339E+03  0.16955951607E+04  0.46999998093E+01 0. -1.
</event>
<event>
 5   0  0.3212523E-08  0.3599194E+04  0.7818609E-02  0.8090676E-01
       -1   -1    0    0    0  501  0.00000000000E+00  0.00000000000E+00  0.13845451182E+04  0.13845451182E+04  0.50400001928E-02 0. -1.
        1   -1    0    0  501    0  0.00000000000E+00  0.00000000000E+00 -0.23390706326E+04  0.23390706326E+04  0.50400001928E-02 0.  1.
    10030    2    1    2    0    0  0.00000000000E+00  0.00000000000E+00 -0.95452551449E+03  0.37236157508E+04  0.35991937016E+04 0.  0.
        3    1    3    3  502    0  0.86502826885E+03 -0.70441615115E+02 -0.21082485369E+04  0.22799008379E+04  0.10100000352E+00 0.  1.
       -3    1    3    3    0  502 -0.86502826885E+03  0.70441615115E+02  0.11537230224E+04  0.14437149129E+04  0.10100000352E+00 0. -1.
</event>
<event>
 5   0  0.3202875E-08  0.3604616E+04  0.7818609E-02  0.8089435E-01
        1   -1    0    0  501    0  0.00000000000E+00  0.00000000000E+00  0.18839860589E+04  0.18839860589E+04  0.50400001928E-02 0.  1.
       -1   -1    0    0    0  501  0.00000000000E+00  0.00000000000E+00 -0.17241711007E+04  0.17241711007E+04  0.50400001928E-02 0. -1.
    10030    2    1    2    0    0  0.00000000000E+00  0.00000000000E+00  0.15981495827E+03  0.36081571596E+04  0.36046161054E+04 0.  0.
        2    1    3    3  502    0 -0.51202763734E+03 -0.15159685697E+04 -0.75035372950E+03  0.17673040840E+04  0.25500000920E-02 0. -1.
       -2    1    3    3    0  502  0.51202763734E+03  0.15159685697E+04  0.91016868778E+03  0.18408530756E+04  0.25500000920E-02 0.  1.
</event>
<event>
 5   0  0.3202875E-08  0.3582718E+04  0.7818609E-02  0.8094462E-01
       -1   -1    0    0    0  501  0.00000000000E+00  0.00000000000E+00  0.18949845964E+04  0.18949845964E+04  0.50400001928E-02 0. -1.
        1   -1    0    0  501    0  0.00000000000E+00  0.00000000000E+00 -0.16934001756E+04  0.16934001756E+04  0.50400001928E-02 0.  1.
    10030    2    1    2    0    0  0.00000000000E+00  0.00000000000E+00  0.20158442076E+03  0.35883847720E+04  0.35827181013E+04 0.  0.
        2    1    3    3  502    0  0.16832897003E+04  0.30003229227E+03  0.63594401290E+03  0.18242555685E+04  0.25500000920E-02 0. -1.
       -2    1    3    3    0  502 -0.16832897003E+04 -0.30003229227E+03 -0.43435959214E+03  0.17641292035E+04  0.25500000920E-02 0.  1.
</event>
<event>
 5   0  0.3279988E-08  0.3601437E+04  0.7818609E-02  0.8090163E-01
        1   -1    0    0  501    0  0.00000000000E+00  0.00000000000E+00  0.15366750420E+04  0.15366750420E+04  0.50400001928E-02 0.  1.
       -1   -1    0    0    0  501  0.00000000000E+00  0.00000000000E+00 -0.21101321503E+04  0.21101321503E+04  0.50400001928E-02 0. -1.
    10030    2    1    2    0    0  0.00000000000E+00  0.00000000000E+00 -0.57345710827E+03  0.36468071923E+04  0.36014371635E+04 0.  0.
        5    1    3    3  502    0 -0.14373536381E+04  0.29322634375E+03  0.77074457209E+03  0.16571169105E+04  0.46999998093E+01 0.  1.
       -5    1    3    3    0  502  0.14373536381E+04 -0.29322634375E+03 -0.13442016804E+04  0.19896902817E+04  0.46999998093E+01 0. -1.
</event>
<event>
 5   0  0.1017794E-07  0.3595412E+04  0.7818609E-02  0.8091543E-01
       -2   -1    0    0    0  501  0.00000000000E+00  0.00000000000E+00  0.13759535765E+04  0.13759535765E+04  0.25500000920E-02 0.  1.
        2   -1    0    0  501    0  0.00000000000E+00  0.00000000000E+00 -0.23487329667E+04  0.23487329667E+04  0.25500000920E-02 0. -1.
    10030    2    1    2    0    0  0.00000000000E+00  0.00000000000E+00 -0.97277939020E+03  0.37246865432E+04  0.35954123690E+04 0.  0.
        1    1    3    3  502    0  0.63935224019E+03  0.32297846159E+03 -0.21945104215E+04  0.23084545401E+04  0.50400001928E-02 0. -1.
       -1    1    3    3    0  502 -0.63935224019E+03 -0.32297846159E+03  0.12217310313E+04  0.14162320031E+04  0.50400001928E-02 0.  1.
</event>
<event>
 5   0  0.3215494E-08  0.3595193E+04  0.7818609E-02  0.8091594E-01
        1   -1    0    0  501    0  0.00000000000E+00  0.00000000000E+00  0.21268752735E+04  0.21268752735E+04  0.50400001928E-02 0. -1.
       -1   -1    0    0    0  501  0.00000000000E+00  0.00000000000E+00 -0.15192961890E+04  0.15192961890E+04  0.50400001928E-02 0.  1.
    10030    2    1    2    0    0  0.00000000000E+00  0.00000000000E+00  0.60757908453E+03  0.36461714626E+04  0.35951931785E+04 0.  0.
        4    1    3    3  502    0  0.15649416917E+04 -0.61298584715E+03 -0.34287041908E+03  0.17153296723E+04  0.12699999809E+01 0. -1.
       -4    1    3    3    0  502 -0.15649416917E+04  0.61298584715E+03  0.95044950360E+03  0.19308417903E+04  0.12699999809E+01 0.  1.
</event>
<event>
 5   0  0.3202875E-08  0.3598609E+04  0.7818609E-02  0.8090810E-01
       -1   -1    0    0    0  501  0.00000000000E+00  0.00000000000E+00  0.14842679477E+04  0.14842679477E+04  0.50400001928E-02 0. -1.
        1   -1    0    0  501    0  0.00000000000E+00  0.00000000000E+00 -0.21812073196E+04  0.21812073196E+04  0.50400001928E-02 0.  1.
    10030    2    1    2    0    0  0.00000000000E+00  0.00000000000E+00 -0.69693937197E+03  0.36654752673E+04  0.35986086821E+04 0.  0.
        1    1    3    3  502    0 -0.23489793463E+03  0.58756954314E+03  0.13671915769E+04  0.15065283986E+04  0.50400001928E-02 0. -1.
       -1    1    3    3    0  502  0.23489793463E+03 -0.58756954314E+03 -0.20641309489E+04  0.21589468687E+04  0.50400001928E-02 0.  1.
</event>
<event>
 5   0  0.1029908E-07  0.3591252E+04  0.7818609E-02  0.8092499E-01
        2   -1    0    0  501    0  0.00000000000E+00  0.00000000000E+00  0.23498339595E+04  0.23498339595E+04  0.25500000920E-02 0.  1.
       -2   -1    0    0    0  501  0.00000000000E+00  0.00000000000E+00 -0.13721275671E+04  0.13721275671E+04  0.25500000920E-02 0. -1.
    10030    2    1    2    0    0  0.00000000000E+00  0.00000000000E+00  0.97770639237E+03  0.37219615267E+04  0.35912515668E+04 0.  0.
        4    1    3    3  502    0  0.70549314882E+03  0.54469724714E+03 -0.11266811682E+04  0.14366028476E+04  0.12699999809E+01 0. -1.
       -4    1    3    3    0  502 -0.70549314882E+03 -0.54469724714E+03  0.21043875605E+04  0.22853586791E+04  0.12699999809E+01 0.  1.
</event>
<event>
 5   0  0.3279988E-08  0.3614150E+04  0.7818609E-02  0.8087258E-01
       -1   -1    0    0    0  501  0.00000000000E+00  0.00000000000E+00  0.16101731193E+04  0.16101731193E+04  0.50400001928E-02 0.  1.
        1   -1    0    0  501    0  0.00000000000E+00  0.00000000000E+00 -0.20280556326E+04  0.20280556326E+04  0.50400001928E-02 0. -1.
    10030    2    1    2    0    0  0.00000000000E+00  0.00000000000E+00 -0.41788251331E+03  0.36382287519E+04  0.36141503367E+04 0.  0.
        5    1    3    3  502    0  0.94882648325E+03 -0.14503692061E+04 -0.72387241773E+03  0.18782587406E+04  0.46999998093E+01 0. -1.
       -5    1    3    3    0  502 -0.94882648325E+03  0.14503692061E+04  0.30598990442E+03  0.17599700114E+04  0.46999998093E+01 0.  1.
</event>
<event>
 5   0  0.3202875E-08  0.3593454E+04  0.7818609E-02  0.8091993E-01
       -3   -1    0    0    0  501  0.00000000000E+00  0.00000000000E+00  0.12359661477E+04  0.12359661518E+04  0.10100000352E+00 0.  1.
        3   -1    0    0  501    0  0.00000000000E+00  0.00000000000E+00 -0.26119063752E+04  0.26119063772E+04  0.10100000352E+00 0. -1.
    10030    2    1    2    0    0  0.00000000000E+00  0.00000000000E+00 -0.13759402276E+04  0.38478725290E+04  0.35934539776E+04 0.  0.
        4    1    3    3  502    0 -0.13865353179E+04  0.10619886640E+04 -0.23629259074E+03  0.17624233066E+04  0.12699999809E+01 0.  1.
       -4    1    3    3    0  502  0.13865353179E+04 -0.10619886640E+04 -0.11396476368E+04  0.20854492224E+04  0.12699999809E+01 0. -1.
</event>
<event>
 5   0  0.3215494E-08  0.3600712E+04  0.7818609E-02  0.8090329E-01
       -1   -1    0    0    0  501  0.00000000000E+00  0.00000000000E+00  0.21548626377E+04  0.21548626377E+04  0.50400001928E-02 0. -1.
        1   -1    0    0  501    0  0.00000000000E+00  0.00000000000E+00 -0.15041708426E+04  0.15041708426E+04  0.50400001928E-02 0.  1.
    10030    2    1    2    0    0  0.00000000000E+00  0.00000000000E+00  0.65069179512E+03  0.36590334804E+04  0.36007119016E+04 0.  0.
        4    1    3    3  502    0  0.11218970576E+04 -0.59388441257E+03  0.16227111155E+04  0.20602292786E+04  0.12699999809E+01 0. -1.
       -4    1    3    3    0  502 -0.11218970576E+04  0.59388441257E+03 -0.97201932040E+03  0.15988042017E+04  0.12699999809E+01 0.  1.
</event>
<event>
 5   0  0.1017794E-07  0.3601301E+04  0.7818609E-02  0.8090194E-01
       -2   -1    0    0    0  501  0.00000000000E+00  0.00000000000E+00  0.17164568703E+04  0.17164568703E+04  0.25500000920E-02 0.  1.
        2   -1    0    0  501    0  0.00000000000E+00  0.00000000000E+00 -0.18889734213E+04  0.18889734213E+04  0.25500000920E-02 0. -1.
    10030    2    1    2    0    0  0.00000000000E+00  0.00000000000E+00 -0.17251655096E+03  0.36054302916E+04  0.36013005466E+04 0.  0.
        1    1    3    3  502    0 -0.17537233874E+04  0.33410427189E+03 -0.32141062225E+03  0.18139669711E+04  0.50400001928E-02 0.  1.
       -1    1    3    3    0  502  0.17537233874E+04 -0.33410427189E+03  0.14889407128E+03  0.17914633205E+04  0.50400001928E-02 0. -1.
</event>
<event>
 5   0  0.3215494E-08  0.3599976E+04  0.7818609E-02  0.8090497E-01
       -1   -1    0    0    0  501  0.00000000000E+00  0.00000000000E+00  0.15801154034E+04  0.15801154034E+04  0.50400001928E-02 0. -1.
        1   -1    0    0  501    0  0.00000000000E+00  0.00000000000E+00 -0.20504561721E+04  0.20504561721E+04  0.50400001928E-02 0.  1.
    10030    2    1    2    0    0  0.00000000000E+00  0.00000000000E+00 -0.47034076868E+03  0.36305715756E+04  0.35999763231E+04 0.  0.
        4    1    3    3  502    0  0.24402651583E+03  0.61691434111E+03 -0.19226583634E+04  0.20338999582E+04  0.12699999809E+01 0.  1.
       -4    1    3    3    0  502 -0.24402651583E+03 -0.61691434111E+03  0.14523175948E+04  0.15966716173E+04  0.12699999809E+01 0. -1.
</event>
<event>
 5   0  0.1017794E-07  0.3598189E+04  0.7818609E-02  0.8090907E-01
       -2   -1    0    0    0  501  0.00000000000E+00  0.00000000000E+00  0.14986002416E+04  0.14986002416E+04  0.25500000920E-02 0. -1.
        2   -1    0    0  501    0  0.00000000000E+00  0.00000000000E+00 -0.21598432693E+04  0.21598432693E+04  0.25500000920E-02 0.  1.
    10030    2    1    2    0    0  0.00000000000E+00  0.00000000000E+00 -0.66124302771E+03  0.36584435110E+04  0.35981893476E+04 0.  0.
        1    1    3    3  502    0 -0.75475314421E+03  0.15447868637E+04  0.20808378472E+03  0.17318538115E+04  0.50400001928E-02 0. -1.
       -1    1    3    3    0  502  0.75475314421E+03 -0.15447868637E+04 -0.86932681243E+03  0.19265896994E+04  0.50400001928E-02 0.  1.
</event>
<event>
 5   0  0.1021087E-07  0.3603249E+04  0.7818609E-02  0.8089748E-01
        2   -1    0    0  501    0  0.00000000000E+00  0.00000000000E+00  0.22427642920E+04  0.22427642920E+04  0.25500000920E-02 0.  1.
       -2   -1    0    0    0  501  0.00000000000E+00  0.00000000000E+00 -0.14472548622E+04  0.14472548622E+04  0.25500000920E-02 0. -1.
    10030    2    1    2    0    0  0.00000000000E+00  0.00000000000E+00  0.79550942988E+03  0.36900191542E+04  0.36032493815E+04 0.  0.
        3    1    3    3  502    0 -0.13752745316E+04  0.11489967137E+04  0.20815301279E+03  0.18041344662E+04  0.10100000352E+00 0. -1.
       -3    1    3    3    0  502  0.13752745316E+04 -0.11489967137E+04  0.58735641709E+03  0.18858846880E+04  0.10100000352E+00 0.  1.
</event>
<event>
 5   0  0.1021087E-07  0.3597493E+04  0.7818609E-02  0.8091066E-01
       -2   -1    0    0    0  501  0.00000000000E+00  0.00000000000E+00  0.12673315174E+04  0.12673315174E+04  0.25500000920E-02 0. -1.
        2   -1    0    0  501    0  0.00000000000E+00  0.00000000000E+00 -0.25529928978E+04  0.25529928978E+04  0.25500000920E-02 0.  1.
    10030    2    1    2    0    0  0.00000000000E+00  0.00000000000E+00 -0.12856613804E+04  0.38203244152E+04  0.35974926619E+04 0.  0.
        3    1    3    3  502    0  0.11923544779E+04  0.63677827704E+03 -0.19030518648E+04  0.23342669482E+04  0.10100000352E+00 0.  1.
       -3    1    3    3    0  502 -0.11923544779E+04 -0.63677827704E+03  0.61739048438E+03  0.14860574671E+04  0.10100000352E+00 0. -1.
</event>
<event>
 5   0  0.3202875E-08  0.3600661E+04  0.7818609E-02  0.8090340E-01
        1   -1    0    0  501    0  0.00000000000E+00  0.00000000000E+00  0.15329497586E+04  0.15329497586E+04  0.50400001928E-02 0. -1.
       -1   -1    0    0    0  501  0.00000000000E+00  0.00000000000E+00 -0.21143489096E+04  0.21143489096E+04  0.50400001928E-02 0.  1.
    10030    2    1    2    0    0  0.00000000000E+00  0.00000000000E+00 -0.58139915094E+03  0.36472986682E+04  0.36006614118E+04 0.  0.
        1    1    3    3  502    0 -0.17004206674E+04 -0.29279720954E+03  0.22979436783E+03  0.17406797820E+04  0.50400001928E-02 0. -1.
       -1    1    3    3    0  502  0.17004206674E+04  0.29279720954E+03 -0.81119351877E+03  0.19066188861E+04  0.50400001928E-02 0.  1.
</event>
<event>
 5   0  0.3279988E-08  0.3596326E+04  0.7818609E-02  0.8091334E-01
       -1   -1    0    0    0  501  0.00000000000E+00  0.00000000000E+00  0.24985696657E+04  0.24985696657E+04  0.50400001928E-02 0. -1.
        1   -1    0    0  501    0  0.00000000000E+00  0.00000000000E+00 -0.12940961605E+04  0.12940961606E+04  0.50400001928E-02 0.  1.
    10030    2    1    2    0    0  0.00000000000E+00  0.00000000000E+00  0.12044735051E+04  0.37926658262E+04  0.35963255755E+04 0.  0.
        5    1    3    3  502    0  0.13114237408E+04 -0.70719397547E+03 -0.45940636791E+03  0.15591766570E+04  0.46999998093E+01 0.  1.
       -5    1    3    3    0  502 -0.13114237408E+04  0.70719397547E+03  0.16638798730E+04  0.22334891692E+04  0.46999998093E+01 0. -1.
</event>
<event>
 5   0  0.1021087E-07  0.3602618E+04  0.7818609E-02  0.8089892E-01
       -2   -1    0    0    0  501  0.00000000000E+00  0.00000000000E+00  0.14930266921E+04  0.14930266921E+04  0.25500000920E-02 0.  1.
        2   -1    0    0  501    0  0.00000000000E+00  0.00000000000E+00 -0.21732454947E+04  0.21732454947E+04  0.25500000920E-02 0. -1.
    10030    2    1    2    0    0  0.00000000000E+00  0.00000000000E+00 -0.68021880265E+03  0.36662721868E+04  0.36026176772E+04 0.  0.
        3    1    3    3  502    0 -0.10610217642E+04 -0.14483904444E+04 -0.19224431278E+03  0.18057020655E+04  0.10100000352E+00 0. -1.
       -3    1    3    3    0  502  0.10610217642E+04  0.14483904444E+04 -0.48797448987E+03  0.18605701213E+04  0.10100000352E+00 0.  1.
</event>
<event>
 5   0  0.3279988E-08  0.3602242E+04  0.7818609E-02  0.8089978E-01
       -1   -1    0    0    0  501  0.00000000000E+00  0.00000000000E+00  0.14985719751E+04  0.14985719751E+04  0.50400001928E-02 0.  1.
        1   -1    0    0  501    0  0.00000000000E+00  0.00000000000E+00 -0.21647519327E+04  0.21647519327E+04  0.50400001928E-02 0. -1.
    10030    2    1    2    0    0  0.00000000000E+00  0.00000000000E+00 -0.66617995757E+03  0.36633239078E+04  0.36022418460E+04 0.  0.
        5    1    3    3  502    0  0.33841674846E+03  0.14676817156E+04  0.67127971775E+03  0.16490160895E+04  0.46999998093E+01 0.  1.
       -5    1    3    3    0  502 -0.33841674846E+03 -0.14676817156E+04 -0.13374596753E+04  0.20143078183E+04  0.46999998093E+01 0. -1.
</event>
<event>
 5   0  0.1044678E-07  0.3655560E+04  0.7818609E-02  0.8077882E-01
       -2   -1    0    0    0  501  0.00000000000E+00  0.00000000000E+00  0.25331199052E+04  0.25331199052E+04  0.25500000920E-02 0. -1.
        2   -1    0    0  501    0  0.00000000000E+00  0.00000000000E+00 -0.13188403087E+04  0.13188403087E+04  0.25500000920E-02 0.  1.
    10030    2    1    2    0    0  0.00000000000E+00  0.00000000000E+00  0.12142795965E+04  0.38519602140E+04  0.36555604976E+04 0.  0.
        2    1    3    3  502    0 -0.91177001195E+03 -0.12567225833E+04 -0.40909409183E+03  0.16056257914E+04  0.25500000920E-02 0.  1.
       -2    1    3    3    0  502  0.91177001195E+03  0.12567225833E+04  0.16233736883E+04  0.22463344226E+04  0.25500000920E-02 0. -1.
</event>
<event>
 5   0  0.3212523E-08  0.3624242E+04  0.7818609E-02  0.8084961E-01
        1   -1    0    0  501    0  0.00000000000E+00  0.00000000000E+00  0.14102347712E+04  0.14102347712E+04  0.50400001928E-02 0. -1.
       -1   -1    0    0    0  501  0.00000000000E+00  0.00000000000E+00 -0.23285359316E+04  0.23285359316E+04  0.50400001928E-02 0.  1.
    10030    2    1    2    0    0  0.00000000000E+00  0.00000000000E+00 -0.91830116041E+03  0.37387707028E+04  0.36242418996E+04 0.  0.
        3    1    3    3  502    0 -0.21409671447E+02  0.14799390676E+04  0.61940481849E+03  0.16044751034E+04  0.10100000352E+00 0. -1.
       -3    1    3    3    0  502  0.21409671447E+02 -0.14799390676E+04 -0.15377059789E+04  0.21342955994E+04  0.10100000352E+00 0.  1.
</event>
<event>
 5   0  0.3212523E-08  0.3597035E+04  0.7818609E-02  0.8091171E-01
       -1   -1    0    0    0  501  0.00000000000E+00  0.00000000000E+00  0.12043034965E+04  0.12043034965E+04  0.50400001928E-02 0.  1.
        1   -1    0    0  501    0  0.00000000000E+00  0.00000000000E+00 -0.26859222685E+04  0.26859222685E+04  0.50400001928E-02 0. -1.
    10030    2    1    2    0    0  0.00000000000E+00  0.00000000000E+00 -0.14816187720E+04  0.38902257650E+04  0.35970352121E+04 0.  0.
        3    1    3    3  502    0 -0.12956520690E+04 -0.66109889969E+03 -0.18848084321E+04  0.23808126501E+04  0.10100000352E+00 0. -1.
       -3    1    3    3    0  502  0.12956520690E+04  0.66109889969E+03  0.40318966012E+03  0.15094131149E+04  0.10100000352E+00 0.  1.
</event>
<event>
 5   0  0.3215494E-08  0.3598796E+04  0.7818609E-02  0.8090768E-01
        1   -1    0    0  501    0  0.00000000000E+00  0.00000000000E+00  0.14893208904E+04  0.14893208904E+04  0.50400001928E-02 0.  1.
       -1   -1    0    0    0  501  0.00000000000E+00  0.00000000000E+00 -0.21740333019E+04  0.21740333019E+04  0.50400001928E-02 0. -1.
    10030    2    1    2    0    0  0.00000000000E+00  0.00000000000E+00 -0.68471241143E+03  0.36633541923E+04  0.35987960281E+04 0.  0.
        4    1    3    3  502    0 -0.16018354697E+04  0.83035164145E+02  0.48778516167E+03  0.16765165335E+04  0.12699999809E+01 0.  1.
       -4    1    3    3    0  502  0.16018354697E+04 -0.83035164145E+02 -0.11724975731E+04  0.19868376588E+04  0.12699999809E+01 0. -1.
</event>
<event>
 5   0  0.1029908E-07  0.3601456E+04  0.7818609E-02  0.8090158E-01
        2   -1    0    0  501    0  0.00000000000E+00  0.00000000000E+00  0.25837273163E+04  0.25837273163E+04  0.25500000920E-02 0.  1.
       -2   -1    0    0    0  501  0.00000000000E+00  0.00000000000E+00 -0.12550165955E+04  0.12550165955E+04  0.25500000920E-02 0. -1.
    10030    2    1    2    0    0  0.00000000000E+00  0.00000000000E+00  0.13287107208E+04  0.38387439118E+04  0.36014556281E+04 0.  0.
        4    1    3    3  502    0  0.11894466633E+04  0.94667811880E+03  0.16931631764E+04  0.22754748912E+04  0.12699999809E+01 0.  1.
       -4    1    3    3    0  502 -0.11894466633E+04 -0.94667811880E+03 -0.36445245567E+03  0.15632690206E+04  0.12699999809E+01 0. -1.
</event>
<event>
 5   0  0.3212523E-08  0.3597220E+04  0.7818609E-02  0.8091129E-01
        1   -1    0    0  501    0  0.00000000000E+00  0.00000000000E+00  0.16277297237E+04  0.16277297237E+04  0.50400001928E-02 0.  1.
       -1   -1    0    0    0  501  0.00000000000E+00  0.00000000000E+00 -0.19874290531E+04  0.19874290531E+04  0.50400001928E-02 0. -1.
    10030    2    1    2    0    0  0.00000000000E+00  0.00000000000E+00 -0.35969932931E+03  0.36151587768E+04  0.35972196728E+04 0.  0.
        3    1    3    3  502    0  0.63966951485E+03  0.41334888071E+03  0.14576817811E+04  0.16446490722E+04  0.10100000352E+00 0.  1.
       -3    1    3    3    0  502 -0.63966951485E+03 -0.41334888071E+03 -0.18173811104E+04  0.19705097046E+04  0.10100000352E+00 0. -1.
</event>
<event>
 5   0  0.3279988E-08  0.3601116E+04  0.7818609E-02  0.8090236E-01
       -1   -1    0    0    0  501  0.00000000000E+00  0.00000000000E+00  0.15611295932E+04  0.15611295932E+04  0.50400001928E-02 0. -1.
        1   -1    0    0  501    0  0.00000000000E+00  0.00000000000E+00 -0.20767073987E+04  0.20767073987E+04  0.50400001928E-02 0.  1.
    10030    2    1    2    0    0  0.00000000000E+00  0.00000000000E+00 -0.51557780551E+03  0.36378369919E+04  0.36011161473E+04 0.  0.
        5    1    3    3  502    0  0.10391154188E+04  0.43186278073E+03 -0.16777253626E+04  0.20201610820E+04  0.46999998093E+01 0.  1.
       -5    1    3    3    0  502 -0.10391154188E+04 -0.43186278073E+03  0.11621475571E+04  0.16176759099E+04  0.46999998093E+01 0. -1.
</event>
<event>
 5   0  0.3215494E-08  0.3600656E+04  0.7818609E-02  0.8090342E-01
        1   -1    0    0  501    0  0.00000000000E+00  0.00000000000E+00  0.15086034574E+04  0.15086034574E+04  0.50400001928E-02 0. -1.
       -1   -1    0    0    0  501  0.00000000000E+00  0.00000000000E+00 -0.21484640879E+04  0.21484640879E+04  0.50400001928E-02 0.  1.
    10030    2    1    2    0    0  0.00000000000E+00  0.00000000000E+00 -0.63986063047E+03  0.36570675454E+04  0.36006556910E+04 0.  0.
        4    1    3    3  502    0 -0.64415449425E+03 -0.53111180938E+03  0.13001029656E+04  0.15450838490E+04  0.12699999809E+01 0. -1.
       -4    1    3    3    0  502  0.64415449425E+03  0.53111180938E+03 -0.19399635961E+04  0.21119836963E+04  0.12699999809E+01 0.  1.
</event>
<event>
 5   0  0.1044678E-07  0.3596964E+04  0.7818609E-02  0.8091188E-01
       -2   -1    0    0    0  501  0.00000000000E+00  0.00000000000E+00  0.14871183428E+04  0.14871183428E+04  0.25500000920E-02 0.  1.
        2   -1    0    0  501    0  0.00000000000E+00  0.00000000000E+00 -0.21750368018E+04  0.21750368018E+04  0.25500000920E-02 0. -1.
    10030    2    1    2    0    0  0.00000000000E+00  0.00000000000E+00 -0.68791845901E+03  0.36621551446E+04  0.35969637886E+04 0.  0.
        2    1    3    3  502    0  0.13765576322E+04 -0.83899146055E+03 -0.11557300811E+04  0.19835648731E+04  0.25500000920E-02 0. -1.
       -2    1    3    3    0  502 -0.13765576322E+04  0.83899146055E+03  0.46781162208E+03  0.16785902714E+04  0.25500000920E-02 0.  1.
</event>
<event>
 5   0  0.1029908E-07  0.3584602E+04  0.7818609E-02  0.8094028E-01
       -2   -1    0    0    0  501  0.00000000000E+00  0.00000000000E+00  0.17085541646E+04  0.17085541646E+04  0.25500000920E-02 0.  1.
        2   -1    0    0  501    0  0.00000000000E+00  0.00000000000E+00 -0.18801525359E+04  0.18801525359E+04  0.25500000920E-02 0. -1.
    10030    2    1    2    0    0  0.00000000000E+00  0.00000000000E+00 -0.17159837130E+03  0.35887067005E+04  0.35846017605E+04 0.  0.
        4    1    3    3  502    0 -0.69864738867E+02  0.77643858869E+03  0.15299271695E+04  0.17170954314E+04  0.12699999809E+01 0.  1.
       -4    1    3    3    0  502  0.69864738867E+02 -0.77643858869E+03 -0.17015255408E+04  0.18716112691E+04  0.12699999809E+01 0. -1.
</event>
<event>
 5   0  0.1029908E-07  0.3577124E+04  0.7818609E-02  0.8095752E-01
       -2   -1    0    0    0  501  0.00000000000E+00  0.00000000000E+00  0.12781027556E+04  0.12781027556E+04  0.25500000920E-02 0. -1.
        2   -1    0    0  501    0  0.00000000000E+00  0.00000000000E+00 -0.25028922302E+04  0.25028922302E+04  0.25500000920E-02 0.  1.
    10030    2    1    2    0    0  0.00000000000E+00  0.00000000000E+00 -0.12247894746E+04  0.37809949857E+04  0.35771236804E+04 0.  0.
        4    1    3    3  502    0 -0.17530366457E+04  0.28952829910E+03 -0.82898220477E+03  0.19606573454E+04  0.12699999809E+01 0. -1.
       -4    1    3    3    0  502  0.17530366457E+04 -0.28952829910E+03 -0.39580726981E+03  0.18203376404E+04  0.12699999809E+01 0.  1.
</event>
<event>
 5   0  0.3215494E-08  0.3598788E+04  0.7818609E-02  0.8090769E-01
        1   -1    0    0  501    0  0.00000000000E+00  0.00000000000E+00  0.29044898028E+04  0.29044898028E+04  0.50400001928E-02 0.  1.
       -1   -1    0    0    0  501  0.00000000000E+00  0.00000000000E+00 -0.11147636285E+04  0.11147636285E+04  0.50400001928E-02 0. -1.
    10030    2    1    2    0    0  0.00000000000E+00  0.00000000000E+00  0.17897261743E+04  0.40192534313E+04  0.35987884581E+04 0.  0.
        4    1    3    3  502    0  0.12290396239E+04  0.10643374559E+04  0.17559606286E+04  0.23930633003E+04  0.12699999809E+01 0.  1.
       -4    1    3    3    0  502 -0.12290396239E+04 -0.10643374559E+04  0.33765545776E+02  0.16261901310E+04  0.12699999809E+01 0. -1.
</event>
<event>
 5   0  0.1044678E-07  0.3598295E+04  0.7818609E-02  0.8090882E-01
       -2   -1    0    0    0  501  0.00000000000E+00  0.00000000000E+00  0.17291316015E+04  0.17291316015E+04  0.25500000920E-02 0.  1.
        2   -1    0    0  501    0  0.00000000000E+00  0.00000000000E+00 -0.18719981180E+04  0.18719981180E+04  0.25500000920E-02 0. -1.
    10030    2    1    2    0    0  0.00000000000E+00  0.00000000000E+00 -0.14286651653E+03  0.36011297195E+04  0.35982946538E+04 0.  0.
        2    1    3    3  502    0 -0.15106323682E+04 -0.42965981828E+03 -0.94979976343E+03  0.18354120251E+04  0.25500000920E-02 0. -1.
       -2    1    3    3    0  502  0.15106323682E+04  0.42965981828E+03  0.80693324691E+03  0.17657176944E+04  0.25500000920E-02 0.  1.
</event>
<event>
 5   0  0.1029908E-07  0.3600499E+04  0.7818609E-02  0.8090377E-01
       -2   -1    0    0    0  501  0.00000000000E+00  0.00000000000E+00  0.21587049804E+04  0.21587049804E+04  0.25500000920E-02 0.  1.
        2   -1    0    0  501    0  0.00000000000E+00  0.00000000000E+00 -0.15013162437E+04  0.15013162437E+04  0.25500000920E-02 0. -1.
    10030    2    1    2    0    0  0.00000000000E+00  0.00000000000E+00  0.65738873673E+03  0.36600212241E+04  0.36004993278E+04 0.  0.
        4    1    3    3  502    0 -0.39840864452E+03 -0.11442998205E+04  0.16821502118E+04  0.20731093737E+04  0.12699999809E+01 0.  1.
       -4    1    3    3    0  502  0.39840864452E+03  0.11442998205E+04 -0.10247614751E+04  0.15869118504E+04  0.12699999809E+01 0. -1.
</event>
<event>
 5   0  0.9905335E-08  0.3602714E+04  0.7818609E-02  0.8089870E-01
       -2   -1    0    0    0  501  0.00000000000E+00  0.00000000000E+00  0.17116998172E+04  0.17116998172E+04  0.25500000920E-02 0.  1.
        2   -1    0    0  501    0  0.00000000000E+00  0.00000000000E+00 -0.18957103326E+04  0.18957103326E+04  0.25500000920E-02 0. -1.
    10030    2    1    2    0    0  0.00000000000E+00  0.00000000000E+00 -0.18401051538E+03  0.36074101499E+04  0.36027139936E+04 0.  0.
        5    1    3    3  502    0  0.36740740088E+02 -0.15124320222E+04 -0.10710652816E+04  0.18536459833E+04  0.46999998093E+01 0. -1.
       -5    1    3    3    0  502 -0.36740740088E+02  0.15124320222E+04  0.88705476623E+03  0.17537641666E+04  0.46999998093E+01 0.  1.
</event>
<event>
 5   0  0.3202875E-08  0.3606639E+04  0.7818609E-02  0.8088973E-01
        1   -1    0    0  501    0  0.00000000000E+00  0.00000000000E+00  0.12551544568E+04  0.12551544568E+04  0.50400001928E-02 0.  1.
       -1   -1    0    0    0  501  0.00000000000E+00  0.00000000000E+00 -0.25908846032E+04  0.25908846032E+04  0.50400001928E-02 0. -1.
    10030    2    1    2    0    0  0.00000000000E+00  0.00000000000E+00 -0.13357301464E+04  0.38460390599E+04  0.36066385217E+04 0.  0.
        2    1    3    3  502    0  0.10434600289E+04 -0.36312085758E+03 -0.21877039469E+04  0.24508598794E+04  0.25500000920E-02 0. -1.
       -2    1    3    3    0  502 -0.10434600289E+04  0.36312085758E+03  0.85197380046E+03  0.13951791806E+04  0.25500000920E-02 0.  1.
</event>
<event>
 5   0  0.9905335E-08  0.3598585E+04  0.7818609E-02  0.8090816E-01
       -2   -1    0    0    0  501  0.00000000000E+00  0.00000000000E+00  0.17723446066E+04  0.17723446066E+04  0.25500000920E-02 0. -1.
        2   -1    0    0  501    0  0.00000000000E+00  0.00000000000E+00 -0.18266505207E+04  0.18266505207E+04  0.25500000920E-02 0.  1.
    10030    2    1    2    0    0  0.00000000000E+00  0.00000000000E+00 -0.54305914091E+02  0.35989951273E+04  0.35985853879E+04 0.  0.
        5    1    3    3  502    0  0.31760851171E+03  0.90944713905E+03  0.14927117703E+04  0.17765640390E+04  0.46999998093E+01 0. -1.
       -5    1    3    3    0  502 -0.31760851171E+03 -0.90944713905E+03 -0.15470176844E+04  0.18224310882E+04  0.46999998093E+01 0.  1.
</event>
<event>
 5   0  0.3202875E-08  0.3597563E+04  0.7818609E-02  0.8091050E-01
        3   -1    0    0  501    0  0.00000000000E+00  0.00000000000E+00  0.17317849141E+04  0.17317849171E+04  0.10100000352E+00 0.  1.
       -3   -1    0    0    0  501  0.00000000000E+00  0.00000000000E+00 -0.18683696590E+04  0.18683696617E+04  0.10100000352E+00 0. -1.
    10030    2    1    2    0    0  0.00000000000E+00  0.00000000000E+00 -0.13658474485E+03  0.36001545788E+04  0.35975627304E+04 0.  0.
        1    1    3    3  502    0  0.67061730378E+03  0.56174504814E+03 -0.16411528528E+04  0.18597493792E+04  0.50400001928E-02 0. -1.
       -1    1    3    3    0  502 -0.67061730378E+03 -0.56174504814E+03  0.15045681080E+04  0.17404051996E+04  0.50400001928E-02 0.  1.
</event>
<event>
 5   0  0.3202875E-08  0.3602468E+04  0.7818609E-02  0.8089927E-01
       -1   -1    0    0    0  501  0.00000000000E+00  0.00000000000E+00  0.12125218449E+04  0.12125218449E+04  0.50400001928E-02 0. -1.
        1   -1    0    0  501    0  0.00000000000E+00  0.00000000000E+00 -0.26757813239E+04  0.26757813239E+04  0.50400001928E-02 0.  1.
    10030    2    1    2    0    0  0.00000000000E+00  0.00000000000E+00 -0.14632594790E+04  0.38883031687E+04  0.36024676583E+04 0.  0.
        2    1    3    3  502    0 -0.13274288099E+04  0.98598027449E+03 -0.15026012418E+04  0.22342862035E+04  0.25500000920E-02 0.  1.
       -2    1    3    3    0  502  0.13274288099E+04 -0.98598027449E+03  0.39341762852E+02  0.16540169653E+04  0.25500000920E-02 0. -1.
</event>
<event>
 5   0  0.1017794E-07  0.3612847E+04  0.7818609E-02  0.8087555E-01
       -2   -1    0    0    0  501  0.00000000000E+00  0.00000000000E+00  0.29768039890E+04  0.29768039890E+04  0.25500000920E-02 0. -1.
        2   -1    0    0  501    0  0.00000000000E+00  0.00000000000E+00 -0.10961975268E+04  0.10961975268E+04  0.25500000920E-02 0.  1.
    10030    2    1    2    0    0  0.00000000000E+00  0.00000000000E+00  0.18806064622E+04  0.40730015157E+04  0.36128466175E+04 0.  0.
        1    1    3    3  502    0 -0.84267562088E+03 -0.15474294586E+04  0.13891664110E+04  0.22437520917E+04  0.50400001928E-02 0. -1.
       -1    1    3    3    0  502  0.84267562088E+03  0.15474294586E+04  0.49144005119E+03  0.18292494241E+04  0.50400001928E-02 0.  1.
</event>
<event>
 5   0  0.3215494E-08  0.3595378E+04  0.7818609E-02  0.8091551E-01
       -1   -1    0    0    0  501  0.00000000000E+00  0.00000000000E+00  0.15252311748E+04  0.15252311748E+04  0.50400001928E-02 0.  1.
        1   -1    0    0  501    0  0.00000000000E+00  0.00000000000E+00 -0.21188174971E+04  0.21188174971E+04  0.50400001928E-02 0. -1.
    10030    2    1    2    0    0  0.00000000000E+00  0.00000000000E+00 -0.59358632234E+03  0.36440486719E+04  0.35953784225E+04 0.  0.
        4    1    3    3  502    0 -0.77802267493E+03  0.13611952699E+04 -0.11881947044E+04  0.19672265029E+04  0.12699999809E+01 0. -1.
       -4    1    3    3    0  502  0.77802267493E+03 -0.13611952699E+04  0.59460838202E+03  0.16768221690E+04  0.12699999809E+01 0.  1.
</event>
<event>
 5   0  0.1021087E-07  0.3600194E+04  0.7818609E-02  0.8090447E-01
       -2   -1    0    0    0  501  0.00000000000E+00  0.00000000000E+00  0.15312162329E+04  0.15312162329E+04  0.25500000920E-02 0. -1.
        2   -1    0    0  501    0  0.00000000000E+00  0.00000000000E+00 -0.21161930162E+04  0.21161930162E+04  0.25500000920E-02 0.  1.
    10030    2    1    2    0    0  0.00000000000E+00  0.00000000000E+00 -0.58497678336E+03  0.36474092491E+04  0.36001939383E+04 0.  0.
        3    1    3    3  502    0 -0.59279504046E+03 -0.26567824408E+03 -0.19933018870E+04  0.20964835588E+04  0.10100000352E+00 0.  1.
       -3    1    3    3    0  502  0.59279504046E+03  0.26567824408E+03  0.14083251036E+04  0.15509256903E+04  0.10100000352E+00 0. -1.
</event>
<event>
 5   0  0.3279988E-08  0.3601183E+04  0.7818609E-02  0.8090221E-01
       -1   -1    0    0    0  501  0.00000000000E+00  0.00000000000E+00  0.22954544948E+04  0.22954544949E+04  0.50400001928E-02 0.  1.
        1   -1    0    0  501    0  0.00000000000E+00  0.00000000000E+00 -0.14124133437E+04  0.14124133437E+04  0.50400001928E-02 0. -1.
    10030    2    1    2    0    0  0.00000000000E+00  0.00000000000E+00  0.88304115116E+03  0.37078678386E+04  0.36011834490E+04 0.  0.
        5    1    3    3  502    0 -0.75876794951E+03 -0.12733331105E+03 -0.12346396501E+04  0.14547507446E+04  0.46999998093E+01 0. -1.
       -5    1    3    3    0  502  0.75876794951E+03  0.12733331105E+03  0.21176808012E+04  0.22531170940E+04  0.46999998093E+01 0.  1.
</event>
<event>
 5   0  0.3212523E-08  0.3601373E+04  0.7818609E-02  0.8090177E-01
       -1   -1    0    0    0  501  0.00000000000E+00  0.00000000000E+00  0.15212609378E+04  0.15212609378E+04  0.50400001928E-02 0. -1.
        1   -1    0    0  501    0  0.00000000000E+00  0.00000000000E+00 -0.21314365737E+04  0.21314365737E+04  0.50400001928E-02 0.  1.
    10030    2    1    2    0    0  0.00000000000E+00  0.00000000000E+00 -0.61017563592E+03  0.36526975115E+04  0.36013726277E+04 0.  0.
        3    1    3    3  502    0 -0.71300547477E+03  0.13909802635E+04  0.60167132022E+03  0.16748764994E+04  0.10100000352E+00 0. -1.
       -3    1    3    3    0  502  0.71300547477E+03 -0.13909802635E+04 -0.12118469561E+04  0.19778210121E+04  0.10100000352E+00 0.  1.
</event>
<event>
 5   0  0.1044678E-07  0.3588316E+04  0.7818609E-02  0.8093173E-01
       -2   -1    0    0    0  501  0.00000000000E+00  0.00000000000E+00  0.26654191093E+04  0.26654191093E+04  0.25500000920E-02 0.  1.
        2   -1    0    0  501    0  0.00000000000E+00  0.00000000000E+00 -0.12076913497E+04  0.12076913497E+04  0.25500000920E-02 0. -1.
    10030    2    1    2    0    0  0.00000000000E+00  0.00000000000E+00  0.14577277596E+04  0.38731104590E+04  0.35883163749E+04 0.  0.
        2    1    3    3  502    0  0.33926704306E+03  0.12925364755E+04 -0.56333771547E+03  0.14502075882E+04  0.25500000920E-02 0. -1.
       -2    1    3    3    0  502 -0.33926704306E+03 -0.12925364755E+04  0.20210654751E+04  0.24229028709E+04  0.25500000920E-02 0.  1.
</event>
<event>
 5   0  0.9905335E-08  0.3631907E+04  0.7818609E-02  0.8083222E-01
       -2   -1    0    0    0  501  0.00000000000E+00  0.00000000000E+00  0.16697691826E+04  0.16697691826E+04  0.25500000920E-02 0. -1.
        2   -1    0    0  501    0  0.00000000000E+00  0.00000000000E+00 -0.19749356375E+04  0.19749356375E+04  0.25500000920E-02 0.  1.
    10030    2    1    2    0    0  0.00000000000E+00  0.00000000000E+00 -0.30516645490E+03  0.36447048201E+04  0.36319067527E+04 0.  0.
        5    1    3    3  502    0 -0.15766550429E+04 -0.68181037739E+03  0.43852385355E+03  0.17728597731E+04  0.46999998093E+01 0. -1.
       -5    1    3    3    0  502  0.15766550429E+04  0.68181037739E+03 -0.74369030845E+03  0.18718450470E+04  0.46999998093E+01 0.  1.
</event>
<event>
 5   0  0.3215494E-08  0.3601908E+04  0.7818609E-02  0.8090055E-01
        1   -1    0    0  501    0  0.00000000000E+00  0.00000000000E+00  0.19625778487E+04  0.19625778487E+04  0.50400001928E-02 0.  1.
       -1   -1    0    0    0  501  0.00000000000E+00  0.00000000000E+00 -0.16526403142E+04  0.16526403142E+04  0.50400001928E-02 0. -1.
    10030    2    1    2    0    0  0.00000000000E+00  0.00000000000E+00  0.30993753458E+03  0.36152181629E+04  0.36019079791E+04 0.  0.
        4    1    3    3  502    0 -0.52095426760E+03 -0.10731556018E+04 -0.11992306116E+04  0.16915117402E+04  0.12699999809E+01 0. -1.
       -4    1    3    3    0  502  0.52095426760E+03  0.10731556018E+04  0.15091681462E+04  0.19237064227E+04  0.12699999809E+01 0.  1.
</event>
<event>
 5   0  0.1029908E-07  0.3600760E+04  0.7818609E-02  0.8090318E-01
        2   -1    0    0  501    0  0.00000000000E+00  0.00000000000E+00  0.23575534803E+04  0.23575534803E+04  0.25500000920E-02 0. -1.
       -2   -1    0    0    0  501  0.00000000000E+00  0.00000000000E+00 -0.13748859945E+04  0.13748859945E+04  0.25500000920E-02 0.  1.
    10030    2    1    2    0    0  0.00000000000E+00  0.00000000000E+00  0.98266748574E+03  0.37324394748E+04  0.36007595096E+04 0.  0.
        4    1    3    3  502    0 -0.29498321977E+01  0.88628901163E+03  0.21157579935E+04  0.22938941592E+04  0.12699999809E+01 0. -1.
       -4    1    3    3    0  502  0.29498321977E+01 -0.88628901163E+03 -0.11330905077E+04  0.14385453157E+04  0.12699999809E+01 0.  1.
</event>
<event>
 5   0  0.3279988E-08  0.3592682E+04  0.7818609E-02  0.8092170E-01
       -1   -1    0    0    0  501  0.00000000000E+00  0.00000000000E+00  0.16723461701E+04  0.16723461701E+04  0.50400001928E-02 0. -1.
        1   -1    0    0  501    0  0.00000000000E+00  0.00000000000E+00 -0.19295293365E+04  0.19295293365E+04  0.50400001928E-02 0.  1.
    10030    2    1    2    0    0  0.00000000000E+00  0.00000000000E+00 -0.25718316634E+03  0.36018755066E+04  0.35926820043E+04 0.  0.
        5    1    3    3  502    0  0.16084801718E+04 -0.48452172300E+03  0.50931418823E+03  0.17553896421E+04  0.46999998093E+01 0. -1.
       -5    1    3    3    0  502 -0.16084801718E+04  0.48452172300E+03 -0.76649735457E+03  0.18464858645E+04  0.46999998093E+01 0.  1.
</event>
<event>
 5   0  0.1044678E-07  0.3602541E+04  0.7818609E-02  0.8089910E-01
       -2   -1    0    0    0  501  0.00000000000E+00  0.00000000000E+00  0.15744926036E+04  0.15744926036E+04  0.25500000920E-02 0. -1.
        2   -1    0    0  501    0  0.00000000000E+00  0.00000000000E+00 -0.20607119503E+04  0.20607119503E+04  0.25500000920E-02 0.  1.
    10030    2    1    2    0    0  0.00000000000E+00  0.00000000000E+00 -0.48621934673E+03  0.36352045539E+04  0.36025411719E+04 0.  0.
        2    1    3    3  502    0 -0.88240618577E+03 -0.86835289315E+03  0.10771485500E+04  0.16410138398E+04  0.25500000920E-02 0. -1.
       -2    1    3    3    0  502  0.88240618577E+03  0.86835289315E+03 -0.15633678967E+04  0.19941907141E+04  0.25500000920E-02 0.  1.
</event>
<event>
 5   0  0.1021087E-07  0.3600118E+04  0.7818609E-02  0.8090465E-01
       -2   -1    0    0    0  501  0.00000000000E+00  0.00000000000E+00  0.14896693251E+04  0.14896693251E+04  0.25500000920E-02 0. -1.
        2   -1    0    0  501    0  0.00000000000E+00  0.00000000000E+00 -0.21751223348E+04  0.21751223348E+04  0.25500000920E-02 0.  1.
    10030    2    1    2    0    0  0.00000000000E+00  0.00000000000E+00 -0.68545300971E+03  0.36647916600E+04  0.36001183428E+04 0.  0.
        3    1    3    3  502    0  0.16478825777E+04 -0.70535879443E+02  0.39114077550E+03  0.16951352207E+04  0.10100000352E+00 0. -1.
       -3    1    3    3    0  502 -0.16478825777E+04  0.70535879443E+02 -0.10765937852E+04  0.19696564392E+04  0.10100000352E+00 0.  1.
</event>
<event>
 5   0  0.3215494E-08  0.3555325E+04  0.7818609E-02  0.8100802E-01
       -1   -1    0    0    0  501  0.00000000000E+00  0.00000000000E+00  0.21363528202E+04  0.21363528203E+04  0.50400001928E-02 0.  1.
        1   -1    0    0  501    0  0.00000000000E+00  0.00000000000E+00 -0.14791960238E+04  0.14791960238E+04  0.50400001928E-02 0. -1.
    10030    2    1    2    0    0  0.00000000000E+00  0.00000000000E+00  0.65715679646E+03  0.36155488440E+04  0.35553253562E+04 0.  0.
        4    1    3    3  502    0 -0.35761457900E+03 -0.94437485049E+03  0.18163538087E+04  0.20781902744E+04  0.12699999809E+01 0.  1.
       -4    1    3    3    0  502  0.35761457900E+03  0.94437485049E+03 -0.11591970123E+04  0.15373585696E+04  0.12699999809E+01 0. -1.
</event>
<event>
 5   0  0.3279988E-08  0.3639063E+04  0.7818609E-02  0.8081602E-01
       -1   -1    0    0    0  501  0.00000000000E+00  0.00000000000E+00  0.11655676993E+04  0.11655676993E+04  0.50400001928E-02 0. -1.
        1   -1    0    0  501    0  0.00000000000E+00  0.00000000000E+00 -0.28404143785E+04  0.28404143785E+04  0.50400001928E-02 0.  1.
    10030    2    1    2    0    0  0.00000000000E+00  0.00000000000E+00 -0.16748466792E+04  0.40059820777E+04  0.36390632048E+04 0.  0.
        5    1    3    3  502    0  0.10519667833E+04 -0.14617923072E+04 -0.55205126685E+03  0.18836808525E+04  0.46999998093E+01 0. -1.
       -5    1    3    3    0  502 -0.10519667833E+04  0.14617923072E+04 -0.11227954124E+04  0.21223012253E+04  0.46999998093E+01 0.  1.
</event>
<event>
 5   0  0.1021087E-07  0.3607240E+04  0.7818609E-02  0.8088835E-01
        2   -1    0    0  501    0  0.00000000000E+00  0.00000000000E+00  0.15106979240E+04  0.15106979240E+04  0.25500000920E-02 0. -1.
       -2   -1    0    0    0  501  0.00000000000E+00  0.00000000000E+00 -0.21533391665E+04  0.21533391665E+04  0.25500000920E-02 0.  1.
    10030    2    1    2    0    0  0.00000000000E+00  0.00000000000E+00 -0.64264124249E+03  0.36640370905E+04  0.36072399468E+04 0.  0.
        3    1    3    3  502    0 -0.76453310279E+02 -0.24337083691E+03  0.14922813464E+04  0.15139280366E+04  0.10100000352E+00 0. -1.
       -3    1    3    3    0  502  0.76453310279E+02  0.24337083691E+03 -0.21349225889E+04  0.21501090539E+04  0.10100000352E+00 0.  1.
</event>
<event>
 5   0  0.1021087E-07  0.3619124E+04  0.7818609E-02  0.8086125E-01
       -2   -1    0    0    0  501  0.00000000000E+00  0.00000000000E+00  0.15529205274E+04  0.15529205274E+04  0.25500000920E-02 0. -1.
        2   -1    0    0  501    0  0.00000000000E+00  0.00000000000E+00 -0.21086169041E+04  0.21086169041E+04  0.25500000920E-02 0.  1.
    10030    2    1    2    0    0  0.00000000000E+00  0.00000000000E+00 -0.55569637670E+03  0.36615374315E+04  0.36191239132E+04 0.  0.
        3    1    3    3  502    0 -0.37605045158E+03 -0.15997611946E+04 -0.10442645350E+04  0.19470845516E+04  0.10100000352E+00 0.  1.
       -3    1    3    3    0  502  0.37605045158E+03  0.15997611946E+04  0.48856815826E+03  0.17144528799E+04  0.10100000352E+00 0. -1.
</event>
<event>
 5   0  0.1044678E-07  0.3601968E+04  0.7818609E-02  0.8090041E-01
       -2   -1    0    0    0  501  0.00000000000E+00  0.00000000000E+00  0.13404897171E+04  0.13404897171E+04  0.25500000920E-02 0. -1.
        2   -1    0    0  501    0  0.00000000000E+00  0.00000000000E+00 -0.24196698122E+04  0.24196698122E+04  0.25500000920E-02 0.  1.
    10030    2    1    2    0    0  0.00000000000E+00  0.00000000000E+00 -0.10791800951E+04  0.37601595293E+04  0.36019675190E+04 0.  0.
        2    1    3    3  502    0  0.16196583743E+03 -0.17899616946E+04 -0.41898834129E+03  0.18454666160E+04  0.25500000920E-02 0. -1.
       -2    1    3    3    0  502 -0.16196583743E+03  0.17899616946E+04 -0.66019175377E+03  0.19146929133E+04  0.25500000920E-02 0.  1.
</event>
<event>
 5   0  0.3202875E-08  0.3600500E+04  0.7818609E-02  0.8090377E-01
       -1   -1    0    0    0  501  0.00000000000E+00  0.00000000000E+00  0.16702559218E+04  0.16702559218E+04  0.50400001928E-02 0. -1.
        1   -1    0    0  501    0  0.00000000000E+00  0.00000000000E+00 -0.19403616046E+04  0.19403616046E+04  0.50400001928E-02 0.  1.
    10030    2    1    2    0    0  0.00000000000E+00  0.00000000000E+00 -0.27010568278E+03  0.36106175264E+04  0.36005002211E+04 0.  0.
        1    1    3    3  502    0 -0.11765427709E+04 -0.97931753114E+03  0.81501884298E+03  0.17342351147E+04  0.50400001928E-02 0. -1.
       -1    1    3    3    0  502  0.11765427709E+04  0.97931753114E+03 -0.10851245258E+04  0.18763824117E+04  0.50400001928E-02 0.  1.
</event>
<event>
 5   0  0.1029908E-07  0.3597489E+04  0.7818609E-02  0.8091067E-01
        2   -1    0    0  501    0  0.00000000000E+00  0.00000000000E+00  0.23124068957E+04  0.23124068957E+04  0.25500000920E-02 0.  1.
       -2   -1    0    0    0  501  0.00000000000E+00  0.00000000000E+00 -0.13991834260E+04  0.13991834260E+04  0.25500000920E-02 0. -1.
    10030    2    1    2    0    0  0.00000000000E+00  0.00000000000E+00  0.91322346971E+03  0.37115903216E+04  0.35974887922E+04 0.  0.
        4    1    3    3  502    0 -0.72180844900E+03 -0.63152685591E+03 -0.11133775387E+04  0.14695049382E+04  0.12699999809E+01 0. -1.
       -4    1    3    3    0  502  0.72180844900E+03  0.63152685591E+03  0.20266010084E+04  0.22420853835E+04  0.12699999809E+01 0.  1.
</event>
<event>
 5   0  0.1021087E-07  0.3598713E+04  0.7818609E-02  0.8090786E-01
        2   -1    0    0  501    0  0.00000000000E+00  0.00000000000E+00  0.17892498835E+04  0.17892498835E+04  0.25500000920E-02 0.  1.
       -2   -1    0    0    0  501  0.00000000000E+00  0.00000000000E+00 -0.18095205633E+04  0.18095205633E+04  0.25500000920E-02 0. -1.
    10030    2    1    2    0    0  0.00000000000E+00  0.00000000000E+00 -0.20270679784E+02  0.35987704468E+04  0.35987133574E+04 0.  0.
        3    1    3    3  502    0 -0.42092567456E+03 -0.53804471970E+03 -0.16747980149E+04  0.18087617159E+04  0.10100000352E+00 0. -1.
       -3    1    3    3    0  502  0.42092567456E+03  0.53804471970E+03  0.16545273351E+04  0.17900087309E+04  0.10100000352E+00 0.  1.
</event>
<event>
 5   0  0.3202875E-08  0.3616783E+04  0.7818609E-02  0.8086658E-01
       -1   -1    0    0    0  501  0.00000000000E+00  0.00000000000E+00  0.15875154717E+04  0.15875154717E+04  0.50400001928E-02 0.  1.
        1   -1    0    0  501    0  0.00000000000E+00  0.00000000000E+00 -0.20599989056E+04  0.20599989056E+04  0.50400001928E-02 0. -1.
    10030    2    1    2    0    0  0.00000000000E+00  0.00000000000E+00 -0.47248343390E+03  0.36475143774E+04  0.36167831754E+04 0.  0.
        2    1    3    3  502    0  0.13543704374E+04  0.20075341181E+02 -0.14445698450E+04  0.19802788536E+04  0.25500000920E-02 0. -1.
       -2    1    3    3    0  502 -0.13543704374E+04 -0.20075341181E+02  0.97208641107E+03  0.16672355237E+04  0.25500000920E-02 0.  1.
</event>
<event>
 5   0  0.3202875E-08  0.3597897E+04  0.7818609E-02  0.8090973E-01
        1   -1    0    0  501    0  0.00000000000E+00  0.00000000000E+00  0.14842852882E+04  0.14842852882E+04  0.50400001928E-02 0.  1.
       -1   -1    0    0    0  501  0.00000000000E+00  0.00000000000E+00 -0.21803196413E+04  0.21803196413E+04  0.50400001928E-02 0. -1.
    10030    2    1    2    0    0  0.00000000000E+00  0.00000000000E+00 -0.69603435311E+03  0.36646049296E+04  0.35978973678E+04 0.  0.
        1    1    3    3  502    0 -0.54098250523E+03  0.17147421598E+04 -0.29027730969E+03  0.18213356807E+04  0.50400001928E-02 0. -1.
       -1    1    3    3    0  502  0.54098250523E+03 -0.17147421598E+04 -0.40575704342E+03  0.18432692488E+04  0.50400001928E-02 0.  1.
</event>
<event>
 5   0  0.1017794E-07  0.3601406E+04  0.7818609E-02  0.8090170E-01
       -2   -1    0    0    0  501  0.00000000000E+00  0.00000000000E+00  0.16863523492E+04  0.16863523493E+04  0.25500000920E-02 0.  1.
        2   -1    0    0  501    0  0.00000000000E+00  0.00000000000E+00 -0.19228079256E+04  0.19228079256E+04  0.25500000920E-02 0. -1.
    10030    2    1    2    0    0  0.00000000000E+00  0.00000000000E+00 -0.23645557631E+03  0.36091602748E+04  0.36014062045E+04 0.  0.
        1    1    3    3  502    0  0.96176578631E+02 -0.14163081853E+04  0.99201708977E+03  0.17318420010E+04  0.50400001928E-02 0.  1.
       -1    1    3    3    0  502 -0.96176578631E+02  0.14163081853E+04 -0.12284726661E+04  0.18773182738E+04  0.50400001928E-02 0. -1.
</event>
<event>
 5   0  0.3279988E-08  0.3604327E+04  0.7818609E-02  0.8089501E-01
       -1   -1    0    0    0  501  0.00000000000E+00  0.00000000000E+00  0.15375752426E+04  0.15375752426E+04  0.50400001928E-02 0.  1.
        1   -1    0    0  501    0  0.00000000000E+00  0.00000000000E+00 -0.21122825289E+04  0.21122825289E+04  0.50400001928E-02 0. -1.
    10030    2    1    2    0    0  0.00000000000E+00  0.00000000000E+00 -0.57470728630E+03  0.36498577716E+04  0.36043270229E+04 0.  0.
        5    1    3    3  502    0  0.38180623635E+03  0.11335534975E+03  0.14924453470E+04  0.15446814044E+04  0.46999998093E+01 0.  1.
       -5    1    3    3    0  502 -0.38180623635E+03 -0.11335534975E+03 -0.20671526333E+04  0.21051763672E+04  0.46999998093E+01 0. -1.
</event>
<event>
 5   0  0.3202875E-08  0.3604493E+04  0.7818609E-02  0.8089463E-01
       -1   -1    0    0    0  501  0.00000000000E+00  0.00000000000E+00  0.12539202436E+04  0.12539202436E+04  0.50400001928E-02 0.  1.
        1   -1    0    0  501    0  0.00000000000E+00  0.00000000000E+00 -0.25903496721E+04  0.25903496721E+04  0.50400001928E-02 0. -1.
    10030    2    1    2    0    0  0.00000000000E+00  0.00000000000E+00 -0.13364294285E+04  0.38442699157E+04  0.36044926921E+04 0.  0.
        1    1    3    3  502    0  0.86983445018E+03  0.13390457729E+04  0.22310423010E+03  0.16122751162E+04  0.50400001928E-02 0.  1.
       -1    1    3    3    0  502 -0.86983445018E+03 -0.13390457729E+04 -0.15595336586E+04  0.22319947995E+04  0.50400001928E-02 0. -1.
</event>
<event>
 5   0  0.1021087E-07  0.3576110E+04  0.7818609E-02  0.8095986E-01
        2   -1    0    0  501    0  0.00000000000E+00  0.00000000000E+00  0.22538927332E+04  0.22538927332E+04  0.25500000920E-02 0.  1.
       -2   -1    0    0    0  501  0.00000000000E+00  0.00000000000E+00 -0.14184970730E+04  0.14184970730E+04  0.25500000920E-02 0. -1.
    10030    2    1    2    0    0  0.00000000000E+00  0.00000000000E+00  0.83539566020E+03  0.36723898062E+04  0.35761097550E+04 0.  0.
        3    1    3    3  502    0 -0.91009221449E+03 -0.48317851795E+03  0.19183452403E+04  0.21775623505E+04  0.10100000352E+00 0.  1.
       -3    1    3    3    0  502  0.91009221449E+03  0.48317851795E+03 -0.10829495801E+04  0.14948274557E+04  0.10100000352E+00 0. -1.
</event>
<event>
 5   0  0.3202875E-08  0.3602755E+04  0.7818609E-02  0.8089861E-01
       -1   -1    0    0    0  501  0.00000000000E+00  0.00000000000E+00  0.14622336912E+04  0.14622336912E+04  0.50400001928E-02 0.  1.
        1   -1    0    0  501    0  0.00000000000E+00  0.00000000000E+00 -0.22191807858E+04  0.22191807858E+04  0.50400001928E-02 0. -1.
    10030    2    1    2    0    0  0.00000000000E+00  0.00000000000E+00 -0.75694709463E+03  0.36814144771E+04  0.36027550080E+04 0.  0.
        1    1    3    3  502    0 -0.15859310860E+04 -0.84490403732E+03 -0.50740552940E+03  0.18672173449E+04  0.50400001928E-02 0. -1.
       -1    1    3    3    0  502  0.15859310860E+04  0.84490403732E+03 -0.24954156523E+03  0.18141971322E+04  0.50400001928E-02 0.  1.
</event>
<event>
 5   0  0.3202875E-08  0.3597343E+04  0.7818609E-02  0.8091101E-01
       -1   -1    0    0    0  501  0.00000000000E+00  0.00000000000E+00  0.23363675405E+04  0.23363675405E+04  0.50400001928E-02 0. -1.
        1   -1    0    0  501    0  0.00000000000E+00  0.00000000000E+00 -0.13847219875E+04  0.13847219875E+04  0.50400001928E-02 0.  1.
    10030    2    1    2    0    0  0.00000000000E+00  0.00000000000E+00  0.95164555297E+03  0.37210895280E+04  0.35973431887E+04 0.  0.
        1    1    3    3  502    0 -0.11473175198E+04  0.31915632622E+03 -0.91851582536E+03  0.15039513201E+04  0.50400001928E-02 0.  1.
       -1    1    3    3    0  502  0.11473175198E+04 -0.31915632622E+03  0.18701613783E+04  0.22171382079E+04  0.50400001928E-02 0. -1.
</event>
<event>
 5   0  0.3202875E-08  0.3600027E+04  0.7818609E-02  0.8090486E-01
        1   -1    0    0  501    0  0.00000000000E+00  0.00000000000E+00  0.17312313323E+04  0.17312313323E+04  0.50400001928E-02 0.  1.
       -1   -1    0    0    0  501  0.00000000000E+00  0.00000000000E+00 -0.18715284109E+04  0.18715284109E+04  0.50400001928E-02 0. -1.
    10030    2    1    2    0    0  0.00000000000E+00  0.00000000000E+00 -0.14029707857E+03  0.36027597433E+04  0.36000270134E+04 0.  0.
        2    1    3    3  502    0  0.11786482639E+04 -0.57021034212E+03  0.11659801795E+04  0.17532430931E+04  0.25500000920E-02 0.  1.
       -2    1    3    3    0  502 -0.11786482639E+04  0.57021034212E+03 -0.13062772581E+04  0.18495166502E+04  0.25500000920E-02 0. -1.
</event>
<event>
 5   0  0.1017794E-07  0.3597755E+04  0.7818609E-02  0.8091006E-01
       -2   -1    0    0    0  501  0.00000000000E+00  0.00000000000E+00  0.25459321156E+04  0.25459321156E+04  0.25500000920E-02 0. -1.
        2   -1    0    0  501    0  0.00000000000E+00  0.00000000000E+00 -0.12710314777E+04  0.12710314777E+04  0.25500000920E-02 0.  1.
    10030    2    1    2    0    0  0.00000000000E+00  0.00000000000E+00  0.12749006379E+04  0.38169635934E+04  0.35977547772E+04 0.  0.
        1    1    3    3  502    0 -0.15476765810E+04  0.20912821907E+03  0.15845473805E+04  0.22248208495E+04  0.50400001928E-02 0. -1.
       -1    1    3    3    0  502  0.15476765810E+04 -0.20912821907E+03 -0.30964674262E+03  0.15921427438E+04  0.50400001928E-02 0.  1.
</event>
<event>
 5   0  0.1021087E-07  0.3592893E+04  0.7818609E-02  0.8092121E-01
       -2   -1    0    0    0  501  0.00000000000E+00  0.00000000000E+00  0.13027189795E+04  0.13027189796E+04  0.25500000920E-02 0.  1.
        2   -1    0    0  501    0  0.00000000000E+00  0.00000000000E+00 -0.24772962430E+04  0.24772962430E+04  0.25500000920E-02 0. -1.
    10030    2    1    2    0    0  0.00000000000E+00  0.00000000000E+00 -0.11745772635E+04  0.37800152226E+04  0.35928934489E+04 0.  0.
        3    1    3    3  502    0 -0.77599460582E+03 -0.15999997497E+04 -0.85562911725E+03  0.19733899827E+04  0.10100000352E+00 0. -1.
       -3    1    3    3    0  502  0.77599460582E+03  0.15999997497E+04 -0.31894814624E+03  0.18066252399E+04  0.10100000352E+00 0.  1.
</event>
<event>
 5   0  0.1044678E-07  0.3594635E+04  0.7818609E-02  0.8091722E-01
        2   -1    0    0  501    0  0.00000000000E+00  0.00000000000E+00  0.23972982141E+04  0.23972982141E+04  0.25500000920E-02 0. -1.
       -2   -1    0    0    0  501  0.00000000000E+00  0.00000000000E+00 -0.13474959097E+04  0.13474959097E+04  0.25500000920E-02 0.  1.
    10030    2    1    2    0    0  0.00000000000E+00  0.00000000000E+00  0.10498023044E+04  0.37447941238E+04  0.35946346339E+04 0.  0.
        2    1    3    3  502    0  0.13115310630E+04  0.12045839495E+04  0.77840402662E+03  0.19434631587E+04  0.25500000920E-02 0.  1.
       -2    1    3    3    0  502 -0.13115310630E+04 -0.12045839495E+04  0.27139827781E+03  0.18013309651E+04  0.25500000920E-02 0. -1.
</event>
<event>
 5   0  0.1017794E-07  0.3601447E+04  0.7818609E-02  0.8090160E-01
       -2   -1    0    0    0  501  0.00000000000E+00  0.00000000000E+00  0.19359664427E+04  0.19359664427E+04  0.25500000920E-02 0. -1.
        2   -1    0    0  501    0  0.00000000000E+00  0.00000000000E+00 -0.16749279581E+04  0.16749279581E+04  0.25500000920E-02 0.  1.
    10030    2    1    2    0    0  0.00000000000E+00  0.00000000000E+00  0.26103848461E+03  0.36108944008E+04  0.36014465542E+04 0.  0.
        1    1    3    3  502    0  0.71976660370E+01 -0.14230255212E+04  0.12368407951E+04  0.18854253082E+04  0.50400001928E-02 0. -1.
       -1    1    3    3    0  502 -0.71976660370E+01  0.14230255212E+04 -0.97580231044E+03  0.17254690926E+04  0.50400001928E-02 0.  1.
</event>
<event>
 5   0  0.1021087E-07  0.3574908E+04  0.7818609E-02  0.8096263E-01
        2   -1    0    0  501    0  0.00000000000E+00  0.00000000000E+00  0.15727664912E+04  0.15727664912E+04  0.25500000920E-02 0. -1.
       -2   -1    0    0    0  501  0.00000000000E+00  0.00000000000E+00 -0.20314475368E+04  0.20314475368E+04  0.25500000920E-02 0.  1.
    10030    2    1    2    0    0  0.00000000000E+00  0.00000000000E+00 -0.45868104561E+03  0.36042140281E+04  0.35749084546E+04 0.  0.
        3    1    3    3  502    0  0.41595374751E+03 -0.19142967923E+03  0.15126340164E+04  0.15804190963E+04  0.10100000352E+00 0. -1.
       -3    1    3    3    0  502 -0.41595374751E+03  0.19142967923E+03 -0.19713150620E+04  0.20237949318E+04  0.10100000352E+00 0.  1.
</event>
<event>
 5   0  0.3212523E-08  0.3601943E+04  0.7818609E-02  0.8090047E-01
       -1   -1    0    0    0  501  0.00000000000E+00  0.00000000000E+00  0.15605605192E+04  0.15605605192E+04  0.50400001928E-02 0. -1.
        1   -1    0    0  501    0  0.00000000000E+00  0.00000000000E+00 -0.20784187330E+04  0.20784187330E+04  0.50400001928E-02 0.  1.
    10030    2    1    2    0    0  0.00000000000E+00  0.00000000000E+00 -0.51785821378E+03  0.36389792522E+04  0.36019429296E+04 0.  0.
        3    1    3    3  502    0 -0.10196700606E+04  0.34621055522E+02 -0.17582958162E+04  0.20328624738E+04  0.10100000352E+00 0.  1.
       -3    1    3    3    0  502  0.10196700606E+04 -0.34621055522E+02  0.12404376024E+04  0.16061167783E+04  0.10100000352E+00 0. -1.
</event>
<event>
 5   0  0.1029908E-07  0.3603708E+04  0.7818609E-02  0.8089643E-01
       -2   -1    0    0    0  501  0.00000000000E+00  0.00000000000E+00  0.11952619089E+04  0.11952619089E+04  0.25500000920E-02 0. -1.
        2   -1    0    0  501    0  0.00000000000E+00  0.00000000000E+00 -0.27162893582E+04  0.27162893582E+04  0.25500000920E-02 0.  1.
    10030    2    1    2    0    0  0.00000000000E+00  0.00000000000E+00 -0.15210274493E+04  0.39115512671E+04  0.36037076482E+04 0.  0.
        4    1    3    3  502    0 -0.85402642963E+02 -0.47350500601E+03  0.11242448865E+04  0.12228772546E+04  0.12699999809E+01 0. -1.
       -4    1    3    3    0  502  0.85402642963E+02  0.47350500601E+03 -0.26452723358E+04  0.26886740125E+04  0.12699999809E+01 0.  1.
</event>
<event>
 5   0  0.1044678E-07  0.3602463E+04  0.7818609E-02  0.8089928E-01
       -2   -1    0    0    0  501  0.00000000000E+00  0.00000000000E+00  0.25623935951E+04  0.25623935951E+04  0.25500000920E-02 0. -1.
        2   -1    0    0  501    0  0.00000000000E+00  0.00000000000E+00 -0.12661734707E+04  0.12661734707E+04  0.25500000920E-02 0.  1.
    10030    2    1    2    0    0  0.00000000000E+00  0.00000000000E+00  0.12962201244E+04  0.38285670658E+04  0.36024629306E+04 0.  0.
        2    1    3    3  502    0  0.11930072779E+04  0.13216879567E+04  0.93781675804E+03  0.20123681800E+04  0.25500000920E-02 0.  1.
       -2    1    3    3    0  502 -0.11930072779E+04 -0.13216879567E+04  0.35840336638E+03  0.18161988859E+04  0.25500000920E-02 0. -1.
</event>
<event>
 5   0  0.3202875E-08  0.3605366E+04  0.7818609E-02  0.8089264E-01
       -1   -1    0    0    0  501  0.00000000000E+00  0.00000000000E+00  0.15536113477E+04  0.15536113477E+04  0.50400001928E-02 0.  1.
        1   -1    0    0  501    0  0.00000000000E+00  0.00000000000E+00 -0.20916854929E+04  0.20916854929E+04  0.50400001928E-02 0. -1.
    10030    2    1    2    0    0  0.00000000000E+00  0.00000000000E+00 -0.53807414517E+03  0.36452968406E+04  0.36053661770E+04 0.  0.
        2    1    3    3  502    0 -0.17146598436E+04 -0.12546763963E+03  0.27906071526E+03  0.17417449270E+04  0.25500000920E-02 0.  1.
       -2    1    3    3    0  502  0.17146598436E+04  0.12546763963E+03 -0.81713486043E+03  0.19035519136E+04  0.25500000920E-02 0. -1.
</event>
<event>
 5   0  0.3202875E-08  0.3604030E+04  0.7818609E-02  0.8089569E-01
       -1   -1    0    0    0  501  0.00000000000E+00  0.00000000000E+00  0.12849842667E+04  0.12849842667E+04  0.50400001928E-02 0. -1.
        1   -1    0    0  501    0  0.00000000000E+00  0.00000000000E+00 -0.25270802335E+04  0.25270802335E+04  0.50400001928E-02 0.  1.
    10030    2    1    2    0    0  0.00000000000E+00  0.00000000000E+00 -0.12420959669E+04  0.38120645002E+04  0.36040301556E+04 0.  0.
        2    1    3    3  502    0  0.57178381276E+03  0.76917001542E+03 -0.22351408262E+04  0.24319567747E+04  0.25500000920E-02 0.  1.
       -2    1    3    3    0  502 -0.57178381276E+03 -0.76917001542E+03  0.99304485937E+03  0.13801077255E+04  0.25500000920E-02 0. -1.
</event>
<event>
 5   0  0.1017794E-07  0.3598650E+04  0.7818609E-02  0.8090801E-01
       -2   -1    0    0    0  501  0.00000000000E+00  0.00000000000E+00  0.20232191814E+04  0.20232191814E+04  0.25500000920E-02 0.  1.
        2   -1    0    0  501    0  0.00000000000E+00  0.00000000000E+00 -0.16002073422E+04  0.16002073422E+04  0.25500000920E-02 0. -1.
    10030    2    1    2    0    0  0.00000000000E+00  0.00000000000E+00  0.42301183916E+03  0.36234265236E+04  0.35986498518E+04 0.  0.
        1    1    3    3  502    0 -0.11806097940E+04  0.57909556847E+03 -0.10251107873E+04  0.16673461816E+04  0.50400001928E-02 0. -1.
       -1    1    3    3    0  502  0.11806097940E+04 -0.57909556847E+03  0.14481226264E+04  0.19560803420E+04  0.50400001928E-02 0.  1.
</event>
<event>
 5   0  0.3202875E-08  0.3601624E+04  0.7818609E-02  0.8090120E-01
        1   -1    0    0  501    0  0.00000000000E+00  0.00000000000E+00  0.30955807433E+04  0.30955807433E+04  0.50400001928E-02 0.  1.
       -1   -1    0    0    0  501  0.00000000000E+00  0.00000000000E+00 -0.10475976441E+04  0.10475976441E+04  0.50400001928E-02 0. -1.
    10030    2    1    2    0    0  0.00000000000E+00  0.00000000000E+00  0.20479830992E+04  0.41431783875E+04  0.36016235750E+04 0.  0.
        1    1    3    3  502    0  0.71737376376E+03  0.78226275476E+03 -0.64952645122E+03  0.12443651977E+04  0.50400001928E-02 0. -1.
       -1    1    3    3    0  502 -0.71737376376E+03 -0.78226275476E+03  0.26975095504E+04  0.28988131897E+04  0.50400001928E-02 0.  1.
</event>
<event>
 5   0  0.3279988E-08  0.3598937E+04  0.7818609E-02  0.8090735E-01
        1   -1    0    0  501    0  0.00000000000E+00  0.00000000000E+00  0.25919331864E+04  0.25919331864E+04  0.50400001928E-02 0.  1.
       -1   -1    0    0    0  501  0.00000000000E+00  0.00000000000E+00 -0.12492941400E+04  0.12492941400E+04  0.50400001928E-02 0. -1.
    10030    2    1    2    0    0  0.00000000000E+00  0.00000000000E+00  0.13426390464E+04  0.38412273264E+04  0.35989370326E+04 0.  0.
        5    1    3    3  502    0  0.88774341021E+03 -0.13808929291E+04  0.14578945319E+04  0.21955482687E+04  0.46999998093E+01 0. -1.
       -5    1    3    3    0  502 -0.88774341021E+03  0.13808929291E+04 -0.11525548555E+03  0.16456790577E+04  0.46999998093E+01 0.  1.
</event>
<event>
 5   0  0.3202875E-08  0.3596702E+04  0.7818609E-02  0.8091248E-01
        1   -1    0    0  501    0  0.00000000000E+00  0.00000000000E+00  0.13106323812E+04  0.13106323812E+04  0.50400001928E-02 0.  1.
       -1   -1    0    0    0  501  0.00000000000E+00  0.00000000000E+00 -0.24675612782E+04  0.24675612782E+04  0.50400001928E-02 0. -1.
    10030    2    1    2    0    0  0.00000000000E+00  0.00000000000E+00 -0.11569288971E+04  0.37781936594E+04  0.35967016634E+04 0.  0.
        1    1    3    3  502    0 -0.53918150858E+03  0.98012227016E+03  0.90067570363E+03  0.14361661070E+04  0.50400001928E-02 0.  1.
       -1    1    3    3    0  502  0.53918150858E+03 -0.98012227016E+03 -0.20576046007E+04  0.23420275524E+04  0.50400001928E-02 0. -1.
</event>
<event>
 5   0  0.3212523E-08  0.3602213E+04  0.7818609E-02  0.8089985E-01
       -1   -1    0    0    0  501  0.00000000000E+00  0.00000000000E+00  0.21692509110E+04  0.21692509110E+04  0.50400001928E-02 0. -1.
        1   -1    0    0  501    0  0.00000000000E+00  0.00000000000E+00 -0.14954404252E+04  0.14954404252E+04  0.50400001928E-02 0.  1.
    10030    2    1    2    0    0  0.00000000000E+00  0.00000000000E+00  0.67381048581E+03  0.36646913362E+04  0.36022134887E+04 0.  0.
        3    1    3    3  502    0 -0.16569074999E+04 -0.30023999525E+02 -0.38083933277E+03  0.17003771674E+04  0.10100000352E+00 0.  1.
       -3    1    3    3    0  502  0.16569074999E+04  0.30023999525E+02  0.10546498186E+04  0.19643141688E+04  0.10100000352E+00 0. -1.
</event>
<event>
 5   0  0.1021087E-07  0.3599719E+04  0.7818609E-02  0.8090556E-01
        2   -1    0    0  501    0  0.00000000000E+00  0.00000000000E+00  0.21459009831E+04  0.21459009831E+04  0.25500000920E-02 0. -1.
       -2   -1    0    0    0  501  0.00000000000E+00  0.00000000000E+00 -0.15096197162E+04  0.15096197162E+04  0.25500000920E-02 0.  1.
    10030    2    1    2    0    0  0.00000000000E+00  0.00000000000E+00  0.63628126691E+03  0.36555206993E+04  0.35997191186E+04 0.  0.
        3    1    3    3  502    0  0.12486424218E+04 -0.45872377795E+03 -0.91307252039E+03  0.16134549388E+04  0.10100000352E+00 0.  1.
       -3    1    3    3    0  502 -0.12486424218E+04  0.45872377795E+03  0.15493537873E+04  0.20420657605E+04  0.10100000352E+00 0. -1.
</event>
<event>
 5   0  0.1017794E-07  0.3590091E+04  0.7818609E-02  0.8092765E-01
        2   -1    0    0  501    0  0.00000000000E+00  0.00000000000E+00  0.20747999213E+04  0.20747999213E+04  0.25500000920E-02 0. -1.
       -2   -1    0    0    0  501  0.00000000000E+00  0.00000000000E+00 -0.15530120032E+04  0.15530120032E+04  0.25500000920E-02 0.  1.
    10030    2    1    2    0    0  0.00000000000E+00  0.00000000000E+00  0.52178791811E+03  0.36278119246E+04  0.35900914652E+04 0.  0.
        1    1    3    3  502    0 -0.11634338133E+03  0.50367139227E+03  0.19979574024E+04  0.20637476676E+04  0.50400001928E-02 0. -1.
       -1    1    3    3    0  502  0.11634338133E+03 -0.50367139227E+03 -0.14761694842E+04  0.15640642570E+04  0.50400001928E-02 0.  1.
</event>
<event>
 5   0  0.1029908E-07  0.3597612E+04  0.7818609E-02  0.8091039E-01
        2   -1    0    0  501    0  0.00000000000E+00  0.00000000000E+00  0.19790570105E+04  0.19790570105E+04  0.25500000920E-02 0. -1.
       -2   -1    0    0    0  501  0.00000000000E+00  0.00000000000E+00 -0.16349724317E+04  0.16349724317E+04  0.25500000920E-02 0.  1.
    10030    2    1    2    0    0  0.00000000000E+00  0.00000000000E+00  0.34408457879E+03  0.36140294422E+04  0.35976123488E+04 0.  0.
        4    1    3    3  502    0  0.32219586219E+03  0.17450673319E+03  0.19411690894E+04  0.19754497766E+04  0.12699999809E+01 0. -1.
       -4    1    3    3    0  502 -0.32219586219E+03 -0.17450673319E+03 -0.15970845106E+04  0.16385796656E+04  0.12699999809E+01 0.  1.
</event>
<event>
 5   0  0.3202875E-08  0.3600411E+04  0.7818609E-02  0.8090398E-01
       -1   -1    0    0    0  501  0.00000000000E+00  0.00000000000E+00  0.13635117986E+04  0.13635117986E+04  0.50400001928E-02 0. -1.
        1   -1    0    0  501    0  0.00000000000E+00  0.00000000000E+00 -0.23767595239E+04  0.23767595239E+04  0.50400001928E-02 0.  1.
    10030    2    1    2    0    0  0.00000000000E+00  0.00000000000E+00 -0.10132477253E+04  0.37402713226E+04  0.36004108951E+04 0.  0.
        2    1    3    3  502    0 -0.41727690199E+03 -0.11925045124E+04  0.82559300556E+03  0.15092351824E+04  0.25500000920E-02 0. -1.
       -2    1    3    3    0  502  0.41727690199E+03  0.11925045124E+04 -0.18388407309E+04  0.22310361401E+04  0.25500000920E-02 0.  1.
</event>
<event>
 5   0  0.9905335E-08  0.3532479E+04  0.7818609E-02  0.8106136E-01
        2   -1    0    0  501    0  0.00000000000E+00  0.00000000000E+00  0.17481520415E+04  0.17481520415E+04  0.25500000920E-02 0. -1.
       -2   -1    0    0    0  501  0.00000000000E+00  0.00000000000E+00 -0.17845144794E+04  0.17845144794E+04  0.25500000920E-02 0.  1.
    10030    2    1    2    0    0  0.00000000000E+00  0.00000000000E+00 -0.36362437950E+02  0.35326665209E+04  0.35324793731E+04 0.  0.
        5    1    3    3  502    0 -0.64611599944E+03  0.16404558264E+04  0.86797372908E+02  0.17652526950E+04  0.46999998093E+01 0. -1.
       -5    1    3    3    0  502  0.64611599944E+03 -0.16404558264E+04 -0.12315981086E+03  0.17674138260E+04  0.46999998093E+01 0.  1.
</event>
<event>
 5   0  0.9905335E-08  0.3597428E+04  0.7818609E-02  0.8091081E-01
       -2   -1    0    0    0  501  0.00000000000E+00  0.00000000000E+00  0.19948663542E+04  0.19948663542E+04  0.25500000920E-02 0. -1.
        2   -1    0    0  501    0  0.00000000000E+00  0.00000000000E+00 -0.16218493496E+04  0.16218493496E+04  0.25500000920E-02 0.  1.
    10030    2    1    2    0    0  0.00000000000E+00  0.00000000000E+00  0.37301700456E+03  0.36167157038E+04  0.35974283588E+04 0.  0.
        5    1    3    3  502    0  0.67815182547E+03  0.30723809764E+03 -0.14596662138E+04  0.16385764226E+04  0.46999998093E+01 0.  1.
       -5    1    3    3    0  502 -0.67815182547E+03 -0.30723809764E+03  0.18326832183E+04  0.19781392812E+04  0.46999998093E+01 0. -1.
</event>
<event>
 5   0  0.1021087E-07  0.3599126E+04  0.7818609E-02  0.8090692E-01
        2   -1    0    0  501    0  0.00000000000E+00  0.00000000000E+00  0.17782271987E+04  0.17782271987E+04  0.25500000920E-02 0.  1.
       -2   -1    0    0    0  501  0.00000000000E+00  0.00000000000E+00 -0.18211546010E+04  0.18211546010E+04  0.25500000920E-02 0. -1.
    10030    2    1    2    0    0  0.00000000000E+00  0.00000000000E+00 -0.42927402334E+02  0.35993817997E+04  0.35991258075E+04 0.  0.
        3    1    3    3  502    0  0.33556029454E+03  0.99114303948E+03  0.14426969190E+04  0.17822288423E+04  0.10100000352E+00 0.  1.
       -3    1    3    3    0  502 -0.33556029454E+03 -0.99114303948E+03 -0.14856243214E+04  0.18171529574E+04  0.10100000352E+00 0. -1.
</event>
<event>
 5   0  0.9905335E-08  0.3654861E+04  0.7818609E-02  0.8078040E-01
       -2   -1    0    0    0  501  0.00000000000E+00  0.00000000000E+00  0.25109700263E+04  0.25109700263E+04  0.25500000920E-02 0. -1.
        2   -1    0    0  501    0  0.00000000000E+00  0.00000000000E+00 -0.13299646943E+04  0.13299646943E+04  0.25500000920E-02 0.  1.
    10030    2    1    2    0    0  0.00000000000E+00  0.00000000000E+00  0.11810053320E+04  0.38409347206E+04  0.36548605902E+04 0.  0.
        5    1    3    3  502    0  0.13023072955E+04 -0.76744384823E+03 -0.48866876633E+03  0.15886452106E+04  0.46999998093E+01 0.  1.
       -5    1    3    3    0  502 -0.13023072955E+04  0.76744384823E+03  0.16696740984E+04  0.22522895100E+04  0.46999998093E+01 0. -1.
</event>
<event>
 5   0  0.1044678E-07  0.3514635E+04  0.7818609E-02  0.8110330E-01
        2   -1    0    0  501    0  0.00000000000E+00  0.00000000000E+00  0.17727646188E+04  0.17727646188E+04  0.25500000920E-02 0. -1.
       -2   -1    0    0    0  501  0.00000000000E+00  0.00000000000E+00 -0.17420051941E+04  0.17420051941E+04  0.25500000920E-02 0.  1.
    10030    2    1    2    0    0  0.00000000000E+00  0.00000000000E+00  0.30759424757E+02  0.35147698129E+04  0.35146352151E+04 0.  0.
        2    1    3    3  502    0  0.79726821174E+02  0.10602361602E+04 -0.13838550934E+04  0.17451395362E+04  0.25500000920E-02 0.  1.
       -2    1    3    3    0  502 -0.79726821174E+02 -0.10602361602E+04  0.14146145181E+04  0.17696302767E+04  0.25500000920E-02 0. -1.
</event>
<event>
 5   0  0.9905335E-08  0.3592845E+04  0.7818609E-02  0.8092132E-01
        2   -1    0    0  501    0  0.00000000000E+00  0.00000000000E+00  0.16164491892E+04  0.16164491892E+04  0.25500000920E-02 0.  1.
       -2   -1    0    0    0  501  0.00000000000E+00  0.00000000000E+00 -0.19964342965E+04  0.19964342965E+04  0.25500000920E-02 0. -1.
    10030    2    1    2    0    0  0.00000000000E+00  0.00000000000E+00 -0.37998510727E+03  0.36128834857E+04  0.35928454461E+04 0.  0.
        5    1    3    3  502    0 -0.17073781717E+04 -0.44040834414E+03 -0.53543837145E+03  0.18427740150E+04  0.46999998093E+01 0.  1.
       -5    1    3    3    0  502  0.17073781717E+04  0.44040834414E+03  0.15545326418E+03  0.17701094707E+04  0.46999998093E+01 0. -1.
</event>
<event>
 5   0  0.1044678E-07  0.3606126E+04  0.7818609E-02  0.8089090E-01
       -2   -1    0    0    0  501  0.00000000000E+00  0.00000000000E+00  0.16733688709E+04  0.16733688709E+04  0.25500000920E-02 0.  1.
        2   -1    0    0  501    0  0.00000000000E+00  0.00000000000E+00 -0.19428089540E+04  0.19428089540E+04  0.25500000920E-02 0. -1.
    10030    2    1    2    0    0  0.00000000000E+00  0.00000000000E+00 -0.26944008309E+03  0.36161778250E+04  0.36061259134E+04 0.  0.
        2    1    3    3  502    0 -0.94968984968E+03  0.10274445883E+04  0.10057640365E+04  0.17231118622E+04  0.25500000920E-02 0.  1.
       -2    1    3    3    0  502  0.94968984968E+03 -0.10274445883E+04 -0.12752041196E+04  0.18930659627E+04  0.25500000920E-02 0. -1.
</event>
<event>
 5   0  0.1029908E-07  0.3591352E+04  0.7818609E-02  0.8092476E-01
        2   -1    0    0  501    0  0.00000000000E+00  0.00000000000E+00  0.28380569047E+04  0.28380569047E+04  0.25500000920E-02 0.  1.
       -2   -1    0    0    0  501  0.00000000000E+00  0.00000000000E+00 -0.11361475783E+04  0.11361475783E+04  0.25500000920E-02 0. -1.
    10030    2    1    2    0    0  0.00000000000E+00  0.00000000000E+00  0.17019093264E+04  0.39742044830E+04  0.35913515447E+04 0.  0.
        4    1    3    3  502    0  0.44069477260E+03 -0.10822414611E+04  0.23597522506E+04  0.26332282012E+04  0.12699999809E+01 0.  1.
       -4    1    3    3    0  502 -0.44069477260E+03  0.10822414611E+04 -0.65784292415E+03  0.13409762818E+04  0.12699999809E+01 0. -1.
</event>
<event>
 5   0  0.1017794E-07  0.3599861E+04  0.7818609E-02  0.8090523E-01
       -2   -1    0    0    0  501  0.00000000000E+00  0.00000000000E+00  0.19507572283E+04  0.19507572283E+04  0.25500000920E-02 0. -1.
        2   -1    0    0  501    0  0.00000000000E+00  0.00000000000E+00 -0.16607655366E+04  0.16607655366E+04  0.25500000920E-02 0.  1.
    10030    2    1    2    0    0  0.00000000000E+00  0.00000000000E+00  0.28999169170E+03  0.36115227649E+04  0.35998613168E+04 0.  0.
        1    1    3    3  502    0  0.14813301537E+04  0.38720718411E+02  0.11700257684E+04  0.18880674291E+04  0.50400001928E-02 0. -1.
       -1    1    3    3    0  502 -0.14813301537E+04 -0.38720718411E+02 -0.88003407665E+03  0.17234553358E+04  0.50400001928E-02 0.  1.
</event>
<event>
 5   0  0.3202875E-08  0.3602270E+04  0.7818609E-02  0.8089972E-01
        1   -1    0    0  501    0  0.00000000000E+00  0.00000000000E+00  0.23199619506E+04  0.23199619506E+04  0.50400001928E-02 0. -1.
       -1   -1    0    0    0  501  0.00000000000E+00  0.00000000000E+00 -0.13983363375E+04  0.13983363375E+04  0.50400001928E-02 0.  1.
    10030    2    1    2    0    0  0.00000000000E+00  0.00000000000E+00  0.92162561309E+03  0.37182982881E+04  0.36022698939E+04 0.  0.
        1    1    3    3  502    0  0.74588309235E+03  0.16158598762E+04  0.17486578183E+03  0.17882736840E+04  0.50400001928E-02 0.  1.
       -1    1    3    3    0  502 -0.74588309235E+03 -0.16158598762E+04  0.74675983125E+03  0.19300246042E+04  0.50400001928E-02 0. -1.
</event>
<event>
 5   0  0.3279988E-08  0.3599692E+04  0.7818609E-02  0.8090562E-01
        1   -1    0    0  501    0  0.00000000000E+00  0.00000000000E+00  0.19587843215E+04  0.19587843215E+04  0.50400001928E-02 0. -1.
       -1   -1    0    0    0  501  0.00000000000E+00  0.00000000000E+00 -0.16538043850E+04  0.16538043851E+04  0.50400001928E-02 0.  1.
    10030    2    1    2    0    0  0.00000000000E+00  0.00000000000E+00  0.30497993642E+03  0.36125887065E+04  0.35996922648E+04 0.  0.
        5    1    3    3  502    0  0.10761849051E+04  0.34841578494E+03  0.15574542457E+04  0.19249034590E+04  0.46999998093E+01 0. -1.
       -5    1    3    3    0  502 -0.10761849051E+04 -0.34841578494E+03 -0.12524743093E+04  0.16876852475E+04  0.46999998093E+01 0.  1.
</event>
<event>
 5   0  0.3202875E-08  0.3616128E+04  0.7818609E-02  0.8086807E-01
       -1   -1    0    0    0  501  0.00000000000E+00  0.00000000000E+00  0.30983946534E+04  0.30983946534E+04  0.50400001928E-02 0. -1.
        1   -1    0    0  501    0  0.00000000000E+00  0.00000000000E+00 -0.10550931695E+04  0.10550931695E+04  0.50400001928E-02 0.  1.
    10030    2    1    2    0    0  0.00000000000E+00  0.00000000000E+00  0.20433014839E+04  0.41534878229E+04  0.36161277827E+04 0.  0.
        2    1    3    3  502    0  0.23289980252E+03 -0.34207909494E+03 -0.99996349146E+03  0.10822141237E+04  0.25500000920E-02 0.  1.
       -2    1    3    3    0  502 -0.23289980252E+03  0.34207909494E+03  0.30432649754E+04  0.30712736993E+04  0.25500000920E-02 0. -1.
</event>
<event>
 5   0  0.3202875E-08  0.3607143E+04  0.7818609E-02  0.8088857E-01
        3   -1    0    0  501    0  0.00000000000E+00  0.00000000000E+00  0.19095939657E+04  0.19095939683E+04  0.10100000352E+00 0.  1.
       -3   -1    0    0    0  501  0.00000000000E+00  0.00000000000E+00 -0.17034354313E+04  0.17034354343E+04  0.10100000352E+00 0. -1.
    10030    2    1    2    0    0  0.00000000000E+00  0.00000000000E+00  0.20615853433E+03  0.36130294027E+04  0.36071429308E+04 0.  0.
        2    1    3    3  502    0 -0.62647639157E+03  0.16460482357E+03  0.17890678357E+04  0.19027167782E+04  0.25500000920E-02 0.  1.
       -2    1    3    3    0  502  0.62647639157E+03 -0.16460482357E+03 -0.15829093014E+04  0.17103126245E+04  0.25500000920E-02 0. -1.
</event>
<event>
 5   0  0.1017794E-07  0.3616727E+04  0.7818609E-02  0.8086671E-01
       -2   -1    0    0    0  501  0.00000000000E+00  0.00000000000E+00  0.18226435986E+04  0.18226435986E+04  0.25500000920E-02 0. -1.
        2   -1    0    0  501    0  0.00000000000E+00  0.00000000000E+00 -0.17941955400E+04  0.17941955400E+04  0.25500000920E-02 0.  1.
    10030    2    1    2    0    0  0.00000000000E+00  0.00000000000E+00  0.28448058630E+02  0.36168391386E+04  0.36167272585E+04 0.  0.
        1    1    3    3  502    0  0.13795027617E+04 -0.54570120791E+02  0.11822384334E+04  0.18176065254E+04  0.50400001928E-02 0. -1.
       -1    1    3    3    0  502 -0.13795027617E+04  0.54570120791E+02 -0.11537903748E+04  0.17992326132E+04  0.50400001928E-02 0.  1.
</event>
<event>
 5   0  0.1029908E-07  0.3593005E+04  0.7818609E-02  0.8092096E-01
        2   -1    0    0  501    0  0.00000000000E+00  0.00000000000E+00  0.23223623339E+04  0.23223623339E+04  0.25500000920E-02 0.  1.
       -2   -1    0    0    0  501  0.00000000000E+00  0.00000000000E+00 -0.13897149800E+04  0.13897149800E+04  0.25500000920E-02 0. -1.
    10030    2    1    2    0    0  0.00000000000E+00  0.00000000000E+00  0.93264735388E+03  0.37120773139E+04  0.35930052738E+04 0.  0.
        4    1    3    3  502    0 -0.44325893324E+02 -0.17710740902E+04  0.77410904709E+03  0.19333687303E+04  0.12699999809E+01 0. -1.
       -4    1    3    3    0  502  0.44325893324E+02  0.17710740902E+04  0.15853830679E+03  0.17787085836E+04  0.12699999809E+01 0.  1.
</event>
<event>
 5   0  0.3215494E-08  0.3597510E+04  0.7818609E-02  0.8091062E-01
       -1   -1    0    0    0  501  0.00000000000E+00  0.00000000000E+00  0.16480653142E+04  0.16480653142E+04  0.50400001928E-02 0. -1.
        1   -1    0    0  501    0  0.00000000000E+00  0.00000000000E+00 -0.19632229271E+04  0.19632229271E+04  0.50400001928E-02 0.  1.
    10030    2    1    2    0    0  0.00000000000E+00  0.00000000000E+00 -0.31515761291E+03  0.36112882414E+04  0.35975100335E+04 0.  0.
        4    1    3    3  502    0 -0.41566171096E+03  0.17394827832E+04  0.35362910695E+02  0.17888060709E+04  0.12699999809E+01 0.  1.
       -4    1    3    3    0  502  0.41566171096E+03 -0.17394827832E+04 -0.35052052361E+03  0.18224821704E+04  0.12699999809E+01 0. -1.
</event>
<event>
 5   0  0.3202875E-08  0.3600266E+04  0.7818609E-02  0.8090431E-01
       -1   -1    0    0    0  501  0.00000000000E+00  0.00000000000E+00  0.21692184210E+04  0.21692184210E+04  0.50400001928E-02 0.  1.
        1   -1    0    0  501    0  0.00000000000E+00  0.00000000000E+00 -0.14938462390E+04  0.14938462390E+04  0.50400001928E-02 0. -1.
    10030    2    1    2    0    0  0.00000000000E+00  0.00000000000E+00  0.67537218201E+03  0.36630646600E+04  0.36002659790E+04 0.  0.
        2    1    3    3  502    0 -0.16187915636E+03 -0.87954759535E+03 -0.12518285222E+04  0.15384679011E+04  0.25500000920E-02 0. -1.
       -2    1    3    3    0  502  0.16187915636E+03  0.87954759535E+03  0.19272007042E+04  0.21245967589E+04  0.25500000920E-02 0.  1.
</event>
<event>
 5   0  0.3202875E-08  0.3600056E+04  0.7818609E-02  0.8090479E-01
        1   -1    0    0  501    0  0.00000000000E+00  0.00000000000E+00  0.20008942348E+04  0.20008942348E+04  0.50400001928E-02 0. -1.
       -1   -1    0    0    0  501  0.00000000000E+00  0.00000000000E+00 -0.16193263924E+04  0.16193263924E+04  0.50400001928E-02 0.  1.
    10030    2    1    2    0    0  0.00000000000E+00  0.00000000000E+00  0.38156784245E+03  0.36202206272E+04  0.36000560234E+04 0.  0.
        2    1    3    3  502    0 -0.89573959105E+03 -0.15261542265E+04  0.52218208597E+03  0.18450393679E+04  0.25500000920E-02 0. -1.
       -2    1    3    3    0  502  0.89573959105E+03  0.15261542265E+04 -0.14061424352E+03  0.17751812594E+04  0.25500000920E-02 0.  1.
</event>
<event>
 5   0  0.1044678E-07  0.3493268E+04  0.7818609E-02  0.8115387E-01
        2   -1    0    0  501    0  0.00000000000E+00  0.00000000000E+00  0.21270483207E+04  0.21270483207E+04  0.25500000920E-02 0.  1.
       -2   -1    0    0    0  501  0.00000000000E+00  0.00000000000E+00 -0.14342552995E+04  0.14342552995E+04  0.25500000920E-02 0. -1.
    10030    2    1    2    0    0  0.00000000000E+00  0.00000000000E+00  0.69279302120E+03  0.35613036202E+04  0.34932679979E+04 0.  0.
        2    1    3    3  502    0  0.78814240956E+03 -0.11207853279E+04  0.14507307302E+04  0.19954818617E+04  0.25500000920E-02 0.  1.
       -2    1    3    3    0  502 -0.78814240956E+03  0.11207853279E+04 -0.75793770897E+03  0.15658217586E+04  0.25500000920E-02 0. -1.
</event>
<event>
 5   0  0.3202875E-08  0.3620908E+04  0.7818609E-02  0.8085719E-01
       -1   -1    0    0    0  501  0.00000000000E+00  0.00000000000E+00  0.28275378647E+04  0.28275378647E+04  0.50400001928E-02 0. -1.
        1   -1    0    0  501    0  0.00000000000E+00  0.00000000000E+00 -0.11592218218E+04  0.11592218218E+04  0.50400001928E-02 0.  1.
    10030    2    1    2    0    0  0.00000000000E+00  0.00000000000E+00  0.16683160429E+04  0.39867596865E+04  0.36209079495E+04 0.  0.
        1    1    3    3  502    0  0.14816606865E+04  0.17921862919E+03  0.19625512564E+04  0.24655719703E+04  0.50400001928E-02 0.  1.
       -1    1    3    3    0  502 -0.14816606865E+04 -0.17921862919E+03 -0.29423521348E+03  0.15211877161E+04  0.50400001928E-02 0. -1.
</event>
<event>
 5   0  0.3215494E-08  0.3602115E+04  0.7818609E-02  0.8090007E-01
        1   -1    0    0  501    0  0.00000000000E+00  0.00000000000E+00  0.16302998679E+04  0.16302998679E+04  0.50400001928E-02 0.  1.
       -1   -1    0    0    0  501  0.00000000000E+00  0.00000000000E+00 -0.19897006526E+04  0.19897006526E+04  0.50400001928E-02 0. -1.
    10030    2    1    2    0    0  0.00000000000E+00  0.00000000000E+00 -0.35940078469E+03  0.36200005205E+04  0.36021153292E+04 0.  0.
        4    1    3    3  502    0  0.10523545852E+04  0.10920548990E+03  0.12850794113E+04  0.16645740351E+04  0.12699999809E+01 0.  1.
       -4    1    3    3    0  502 -0.10523545852E+04 -0.10920548990E+03 -0.16444801960E+04  0.19554264854E+04  0.12699999809E+01 0. -1.
</event>
<event>
 5   0  0.3212523E-08  0.3591835E+04  0.7818609E-02  0.8092365E-01
        1   -1    0    0  501    0  0.00000000000E+00  0.00000000000E+00  0.17879786252E+04  0.17879786253E+04  0.50400001928E-02 0.  1.
       -1   -1    0    0    0  501  0.00000000000E+00  0.00000000000E+00 -0.18038911420E+04  0.18038911420E+04  0.50400001928E-02 0. -1.
    10030    2    1    2    0    0  0.00000000000E+00  0.00000000000E+00 -0.15912516782E+02  0.35918697673E+04  0.35918345197E+04 0.  0.
        3    1    3    3  502    0 -0.15384724686E+04 -0.38324899350E+03  0.83558119272E+03  0.17921978874E+04  0.10100000352E+00 0. -1.
       -3    1    3    3    0  502  0.15384724686E+04  0.38324899350E+03 -0.85149370951E+03  0.17996718799E+04  0.10100000352E+00 0.  1.
</event>
<event>
 5   0  0.3215494E-08  0.3598941E+04  0.7818609E-02  0.8090734E-01
        1   -1    0    0  501    0  0.00000000000E+00  0.00000000000E+00  0.18720990347E+04  0.18720990347E+04  0.50400001928E-02 0.  1.
       -1   -1    0    0    0  501  0.00000000000E+00  0.00000000000E+00 -0.17296593668E+04  0.17296593669E+04  0.50400001928E-02 0. -1.
    10030    2    1    2    0    0  0.00000000000E+00  0.00000000000E+00  0.14243966787E+03  0.36017584016E+04  0.35989407503E+04 0.  0.
        4    1    3    3  502    0  0.14218406573E+04  0.26933729217E+03 -0.99915881924E+03  0.17585486603E+04  0.12699999809E+01 0.  1.
       -4    1    3    3    0  502 -0.14218406573E+04 -0.26933729217E+03  0.11415984871E+04  0.18432097413E+04  0.12699999809E+01 0. -1.
</event>
<event>
 5   0  0.1029908E-07  0.3605528E+04  0.7818609E-02  0.8089227E-01
        2   -1    0    0  501    0  0.00000000000E+00  0.00000000000E+00  0.19765125573E+04  0.19765125573E+04  0.25500000920E-02 0.  1.
       -2   -1    0    0    0  501  0.00000000000E+00  0.00000000000E+00 -0.16442894900E+04  0.16442894900E+04  0.25500000920E-02 0. -1.
    10030    2    1    2    0    0  0.00000000000E+00  0.00000000000E+00  0.33222306734E+03  0.36208020473E+04  0.36055284355E+04 0.  0.
        4    1    3    3  502    0 -0.94836733634E+03 -0.11015096487E+04 -0.90481727908E+03  0.17121390225E+04  0.12699999809E+01 0. -1.
       -4    1    3    3    0  502  0.94836733634E+03  0.11015096487E+04  0.12370403464E+04  0.19086630248E+04  0.12699999809E+01 0.  1.
</event>
<event>
 5   0  0.1044678E-07  0.3608527E+04  0.7818609E-02  0.8088541E-01
       -2   -1    0    0    0  501  0.00000000000E+00  0.00000000000E+00  0.20958585415E+04  0.20958585415E+04  0.25500000920E-02 0.  1.
        2   -1    0    0  501    0  0.00000000000E+00  0.00000000000E+00 -0.15532376722E+04  0.15532376722E+04  0.25500000920E-02 0. -1.
    10030    2    1    2    0    0  0.00000000000E+00  0.00000000000E+00  0.54262086927E+03  0.36490962137E+04  0.36085268143E+04 0.  0.
        2    1    3    3  502    0 -0.83636496069E+03 -0.11358459069E+04  0.14089984907E+04  0.19937224026E+04  0.25500000920E-02 0.  1.
       -2    1    3    3    0  502  0.83636496069E+03  0.11358459069E+04 -0.86637762147E+03  0.16553738112E+04  0.25500000920E-02 0. -1.
</event>
<event>
 5   0  0.9905335E-08  0.3589788E+04  0.7818609E-02  0.8092835E-01
       -2   -1    0    0    0  501  0.00000000000E+00  0.00000000000E+00  0.10888322816E+04  0.10888322816E+04  0.25500000920E-02 0. -1.
        2   -1    0    0  501    0  0.00000000000E+00  0.00000000000E+00 -0.29588074131E+04  0.29588074131E+04  0.25500000920E-02 0.  1.
    10030    2    1    2    0    0  0.00000000000E+00  0.00000000000E+00 -0.18699751316E+04  0.40476396947E+04  0.35897883093E+04 0.  0.
        5    1    3    3  502    0 -0.76060731698E+03  0.52974909395E+03 -0.26680560734E+04  0.28244827657E+04  0.46999998093E+01 0.  1.
       -5    1    3    3    0  502  0.76060731698E+03 -0.52974909395E+03  0.79808094183E+03  0.12231569290E+04  0.46999998093E+01 0. -1.
</event>
<event>
 5   0  0.1021087E-07  0.3600191E+04  0.7818609E-02  0.8090448E-01
       -2   -1    0    0    0  501  0.00000000000E+00  0.00000000000E+00  0.12047165476E+04  0.12047165476E+04  0.25500000920E-02 0.  1.
        2   -1    0    0  501    0  0.00000000000E+00  0.00000000000E+00 -0.26897142857E+04  0.26897142857E+04  0.25500000920E-02 0. -1.
    10030    2    1    2    0    0  0.00000000000E+00  0.00000000000E+00 -0.14849977381E+04  0.38944308333E+04  0.36001907217E+04 0.  0.
        3    1    3    3  502    0  0.82095660263E+03 -0.14924977049E+04 -0.11283950138E+03  0.17071180117E+04  0.10100000352E+00 0.  1.
       -3    1    3    3    0  502 -0.82095660263E+03  0.14924977049E+04 -0.13721582367E+04  0.21873128216E+04  0.10100000352E+00 0. -1.
</event>
<event>
 5   0  0.1017794E-07  0.3608985E+04  0.7818609E-02  0.8088437E-01
        2   -1    0    0  501    0  0.00000000000E+00  0.00000000000E+00  0.25789025256E+04  0.25789025256E+04  0.25500000920E-02 0.  1.
       -2   -1    0    0    0  501  0.00000000000E+00  0.00000000000E+00 -0.12626272598E+04  0.12626272598E+04  0.25500000920E-02 0. -1.
    10030    2    1    2    0    0  0.00000000000E+00  0.00000000000E+00  0.13162752658E+04  0.38415297854E+04  0.36089846933E+04 0.  0.
        1    1    3    3  502    0  0.28706850804E+03 -0.12624447732E+04  0.19961191456E+04  0.23792155802E+04  0.50400001928E-02 0.  1.
       -1    1    3    3    0  502 -0.28706850804E+03  0.12624447732E+04 -0.67984387975E+03  0.14623142052E+04  0.50400001928E-02 0. -1.
</event>
<event>
 5   0  0.3212523E-08  0.3600836E+04  0.7818609E-02  0.8090300E-01
       -1   -1    0    0    0  501  0.00000000000E+00  0.00000000000E+00  0.32696302436E+04  0.32696302436E+04  0.50400001928E-02 0. -1.
        1   -1    0    0  501    0  0.00000000000E+00  0.00000000000E+00 -0.99139796669E+03  0.99139796671E+03  0.50400001928E-02 0.  1.
    10030    2    1    2    0    0  0.00000000000E+00  0.00000000000E+00  0.22782322769E+04  0.42610282103E+04  0.36008358893E+04 0.  0.
        3    1    3    3  502    0  0.67677179327E+03 -0.61591260554E+03 -0.69569188238E+03  0.11495023285E+04  0.10100000352E+00 0.  1.
       -3    1    3    3    0  502 -0.67677179327E+03  0.61591260554E+03  0.29739241593E+04  0.31115258818E+04  0.10100000352E+00 0. -1.
</event>
<event>
 5   0  0.3212523E-08  0.3598500E+04  0.7818609E-02  0.8090835E-01
       -1   -1    0    0    0  501  0.00000000000E+00  0.00000000000E+00  0.25707943063E+04  0.25707943063E+04  0.50400001928E-02 0. -1.
        1   -1    0    0  501    0  0.00000000000E+00  0.00000000000E+00 -0.12592607685E+04  0.12592607685E+04  0.50400001928E-02 0.  1.
    10030    2    1    2    0    0  0.00000000000E+00  0.00000000000E+00  0.13115335378E+04  0.38300550749E+04  0.35984999174E+04 0.  0.
        3    1    3    3  502    0 -0.83661521554E+03 -0.10615105110E+04  0.19198654253E+04  0.23478954076E+04  0.10100000352E+00 0. -1.
       -3    1    3    3    0  502  0.83661521554E+03  0.10615105110E+04 -0.60833188748E+03  0.14821596673E+04  0.10100000352E+00 0.  1.
</event>
<event>
 5   0  0.9905335E-08  0.3591902E+04  0.7818609E-02  0.8092349E-01
       -2   -1    0    0    0  501  0.00000000000E+00  0.00000000000E+00  0.13922796941E+04  0.13922796941E+04  0.25500000920E-02 0. -1.
        2   -1    0    0  501    0  0.00000000000E+00  0.00000000000E+00 -0.23166609621E+04  0.23166609621E+04  0.25500000920E-02 0.  1.
    10030    2    1    2    0    0  0.00000000000E+00  0.00000000000E+00 -0.92438126794E+03  0.37089406562E+04  0.35919020118E+04 0.  0.
        5    1    3    3  502    0  0.95556677031E+03  0.95001581594E+03  0.76383931799E+03  0.15489062259E+04  0.46999998093E+01 0. -1.
       -5    1    3    3    0  502 -0.95556677031E+03 -0.95001581594E+03 -0.16882205859E+04  0.21600344302E+04  0.46999998093E+01 0.  1.
</event>
<event>
 5   0  0.3215494E-08  0.3597294E+04  0.7818609E-02  0.8091112E-01
        1   -1    0    0  501    0  0.00000000000E+00  0.00000000000E+00  0.12359824464E+04  0.12359824464E+04  0.50400001928E-02 0.  1.
       -1   -1    0    0    0  501  0.00000000000E+00  0.00000000000E+00 -0.26174577548E+04  0.26174577548E+04  0.50400001928E-02 0. -1.
    10030    2    1    2    0    0  0.00000000000E+00  0.00000000000E+00 -0.13814753084E+04  0.38534402012E+04  0.35972944495E+04 0.  0.
        4    1    3    3  502    0 -0.19443760437E+03  0.14013425967E+04 -0.18804811346E+04  0.23532483859E+04  0.12699999809E+01 0. -1.
       -4    1    3    3    0  502  0.19443760437E+03 -0.14013425967E+04  0.49900582618E+03  0.15001918153E+04  0.12699999809E+01 0.  1.
</event>
<event>
 5   0  0.1017794E-07  0.3598070E+04  0.7818609E-02  0.8090934E-01
        2   -1    0    0  501    0  0.00000000000E+00  0.00000000000E+00  0.12617926764E+04  0.12617926764E+04  0.25500000920E-02 0.  1.
       -2   -1    0    0    0  501  0.00000000000E+00  0.00000000000E+00 -0.25650232282E+04  0.25650232282E+04  0.25500000920E-02 0. -1.
    10030    2    1    2    0    0  0.00000000000E+00  0.00000000000E+00 -0.13032305517E+04  0.38268159046E+04  0.35980703296E+04 0.  0.
        1    1    3    3  502    0  0.13828974316E+04 -0.75879587298E+03  0.26845416399E+03  0.16000762861E+04  0.50400001928E-02 0.  1.
       -1    1    3    3    0  502 -0.13828974316E+04  0.75879587298E+03 -0.15716847157E+04  0.22267396185E+04  0.50400001928E-02 0. -1.
</event>
<event>
 5   0  0.1021087E-07  0.3598366E+04  0.7818609E-02  0.8090866E-01
       -2   -1    0    0    0  501  0.00000000000E+00  0.00000000000E+00  0.15861084984E+04  0.15861084984E+04  0.25500000920E-02 0. -1.
        2   -1    0    0  501    0  0.00000000000E+00  0.00000000000E+00 -0.20408814974E+04  0.20408814974E+04  0.25500000920E-02 0.  1.
    10030    2    1    2    0    0  0.00000000000E+00  0.00000000000E+00 -0.45477299901E+03  0.36269899959E+04  0.35983660110E+04 0.  0.
        3    1    3    3  502    0  0.37715510822E+03  0.17465267793E+04 -0.43991372337E+03  0.18401428914E+04  0.10100000352E+00 0.  1.
       -3    1    3    3    0  502 -0.37715510822E+03 -0.17465267793E+04 -0.14859275643E+02  0.17868471045E+04  0.10100000352E+00 0. -1.
</event>
<event>
 5   0  0.3212523E-08  0.3601367E+04  0.7818609E-02  0.8090179E-01
        1   -1    0    0  501    0  0.00000000000E+00  0.00000000000E+00  0.11591693437E+04  0.11591693437E+04  0.50400001928E-02 0.  1.
       -1   -1    0    0    0  501  0.00000000000E+00  0.00000000000E+00 -0.27972278189E+04  0.27972278189E+04  0.50400001928E-02 0. -1.
    10030    2    1    2    0    0  0.00000000000E+00  0.00000000000E+00 -0.16380584752E+04  0.39563971626E+04  0.36013668155E+04 0.  0.
        3    1    3    3  502    0  0.17645716625E+03 -0.63884158137E+03  0.10203020353E+04  0.12166642721E+04  0.10100000352E+00 0.  1.
       -3    1    3    3    0  502 -0.17645716625E+03  0.63884158137E+03 -0.26583605104E+04  0.27397328905E+04  0.10100000352E+00 0. -1.
</event>
<event>
 5   0  0.1021087E-07  0.3588434E+04  0.7818609E-02  0.8093146E-01
        2   -1    0    0  501    0  0.00000000000E+00  0.00000000000E+00  0.30401500069E+04  0.30401500069E+04  0.25500000920E-02 0. -1.
       -2   -1    0    0    0  501  0.00000000000E+00  0.00000000000E+00 -0.10588998595E+04  0.10588998595E+04  0.25500000920E-02 0.  1.
    10030    2    1    2    0    0  0.00000000000E+00  0.00000000000E+00  0.19812501474E+04  0.40990498665E+04  0.35884338731E+04 0.  0.
        3    1    3    3  502    0  0.10522998246E+03  0.17482173338E+04  0.54545643760E+03  0.18343554538E+04  0.10100000352E+00 0.  1.
       -3    1    3    3    0  502 -0.10522998246E+03 -0.17482173338E+04  0.14357937098E+04  0.22646944127E+04  0.10100000352E+00 0. -1.
</event>
<event>
 5   0  0.1017794E-07  0.3583175E+04  0.7818609E-02  0.8094357E-01
       -2   -1    0    0    0  501  0.00000000000E+00  0.00000000000E+00  0.18395132452E+04  0.18395132452E+04  0.25500000920E-02 0. -1.
        2   -1    0    0  501    0  0.00000000000E+00  0.00000000000E+00 -0.17449103158E+04  0.17449103158E+04  0.25500000920E-02 0.  1.
    10030    2    1    2    0    0  0.00000000000E+00  0.00000000000E+00  0.94602929446E+02  0.35844235611E+04  0.35831749261E+04 0.  0.
        1    1    3    3  502    0  0.75046238355E+03 -0.89423180911E+03 -0.13121943087E+04  0.17563308974E+04  0.50400001928E-02 0.  1.
       -1    1    3    3    0  502 -0.75046238355E+03  0.89423180911E+03  0.14067972381E+04  0.18280926636E+04  0.50400001928E-02 0. -1.
</event>
<event>
 5   0  0.3215494E-08  0.3602938E+04  0.7818609E-02  0.8089819E-01
       -1   -1    0    0    0  501  0.00000000000E+00  0.00000000000E+00  0.14681142771E+04  0.14681142772E+04  0.50400001928E-02 0.  1.
        1   -1    0    0  501    0  0.00000000000E+00  0.00000000000E+00 -0.22105160156E+04  0.22105160156E+04  0.50400001928E-02 0. -1.
    10030    2    1    2    0    0  0.00000000000E+00  0.00000000000E+00 -0.74240173848E+03  0.36786302928E+04  0.36029377582E+04 0.  0.
        4    1    3    3  502    0 -0.13074636495E+04 -0.94722431716E+03 -0.11871096344E+04  0.20039775445E+04  0.12699999809E+01 0. -1.
       -4    1    3    3    0  502  0.13074636495E+04  0.94722431716E+03  0.44470789589E+03  0.16746527483E+04  0.12699999809E+01 0.  1.
</event>
<event>
 5   0  0.1029908E-07  0.3598953E+04  0.7818609E-02  0.8090731E-01
       -2   -1    0    0    0  501  0.00000000000E+00  0.00000000000E+00  0.16556810017E+04  0.16556810017E+04  0.25500000920E-02 0.  1.
        2   -1    0    0  501    0  0.00000000000E+00  0.00000000000E+00 -0.19557610899E+04  0.19557610899E+04  0.25500000920E-02 0. -1.
    10030    2    1    2    0    0  0.00000000000E+00  0.00000000000E+00 -0.30008008822E+03  0.36114420916E+04  0.35989534481E+04 0.  0.
        4    1    3    3  502    0  0.12588361076E+04  0.10627597917E+03  0.11358714992E+04  0.16988727454E+04  0.12699999809E+01 0.  1.
       -4    1    3    3    0  502 -0.12588361076E+04 -0.10627597917E+03 -0.14359515874E+04  0.19125693461E+04  0.12699999809E+01 0. -1.
</event>
<event>
 5   0  0.1044678E-07  0.3602794E+04  0.7818609E-02  0.8089852E-01
       -2   -1    0    0    0  501  0.00000000000E+00  0.00000000000E+00  0.15820278275E+04  0.15820278275E+04  0.25500000920E-02 0. -1.
        2   -1    0    0  501    0  0.00000000000E+00  0.00000000000E+00 -0.20511846772E+04  0.20511846772E+04  0.25500000920E-02 0.  1.
    10030    2    1    2    0    0  0.00000000000E+00  0.00000000000E+00 -0.46915684968E+03  0.36332125047E+04  0.36027940484E+04 0.  0.
        2    1    3    3  502    0 -0.11187224570E+04  0.13881224284E+04  0.25684730764E+02  0.17829984626E+04  0.25500000920E-02 0. -1.
       -2    1    3    3    0  502  0.11187224570E+04 -0.13881224284E+04 -0.49484158045E+03  0.18502140422E+04  0.25500000920E-02 0.  1.
</event>
<event>
 5   0  0.3212523E-08  0.3599796E+04  0.7818609E-02  0.8090538E-01
        1   -1    0    0  501    0  0.00000000000E+00  0.00000000000E+00  0.19871129255E+04  0.19871129255E+04  0.50400001928E-02 0. -1.
       -1   -1    0    0    0  501  0.00000000000E+00  0.00000000000E+00 -0.16303217253E+04  0.16303217253E+04  0.50400001928E-02 0.  1.
    10030    2    1    2    0    0  0.00000000000E+00  0.00000000000E+00  0.35679120019E+03  0.36174346508E+04  0.35997963126E+04 0.  0.
        3    1    3    3  502    0  0.83583547564E+03  0.98301634571E+03 -0.10826200556E+04  0.16843420892E+04  0.10100000352E+00 0.  1.
       -3    1    3    3    0  502 -0.83583547564E+03 -0.98301634571E+03  0.14394112558E+04  0.19330925616E+04  0.10100000352E+00 0. -1.
</event>
<event>
 5   0  0.3215494E-08  0.3604052E+04  0.7818609E-02  0.8089564E-01
        1   -1    0    0  501    0  0.00000000000E+00  0.00000000000E+00  0.29461265040E+04  0.29461265040E+04  0.50400001928E-02 0. -1.
       -1   -1    0    0    0  501  0.00000000000E+00  0.00000000000E+00 -0.11022264299E+04  0.11022264299E+04  0.50400001928E-02 0.  1.
    10030    2    1    2    0    0  0.00000000000E+00  0.00000000000E+00  0.18439000741E+04  0.40483529339E+04  0.36040524405E+04 0.  0.
        4    1    3    3  502    0 -0.11647753045E+04  0.20041619088E+03  0.24499503617E+04  0.27201335531E+04  0.12699999809E+01 0. -1.
       -4    1    3    3    0  502  0.11647753045E+04 -0.20041619088E+03 -0.60605028756E+03  0.13282193807E+04  0.12699999809E+01 0.  1.
</event>
<event>
 5   0  0.3279988E-08  0.3602467E+04  0.7818609E-02  0.8089927E-01
       -1   -1    0    0    0  501  0.00000000000E+00  0.00000000000E+00  0.17885029773E+04  0.17885029773E+04  0.50400001928E-02 0. -1.
        1   -1    0    0  501    0  0.00000000000E+00  0.00000000000E+00 -0.18140548672E+04  0.18140548672E+04  0.50400001928E-02 0.  1.
    10030    2    1    2    0    0  0.00000000000E+00  0.00000000000E+00 -0.25551889888E+02  0.36025578445E+04  0.36024672273E+04 0.  0.
        5    1    3    3  502    0 -0.16399073689E+03 -0.71532994898E+03 -0.16577582156E+04  0.18129463007E+04  0.46999998093E+01 0.  1.
       -5    1    3    3    0  502  0.16399073689E+03  0.71532994898E+03  0.16322063258E+04  0.17896115438E+04  0.46999998093E+01 0. -1.
</event>
<event>
 5   0  0.3215494E-08  0.3610143E+04  0.7818609E-02  0.8088172E-01
       -1   -1    0    0    0  501  0.00000000000E+00  0.00000000000E+00  0.15679905487E+04  0.15679905488E+04  0.50400001928E-02 0.  1.
        1   -1    0    0  501    0  0.00000000000E+00  0.00000000000E+00 -0.20779987828E+04  0.20779987828E+04  0.50400001928E-02 0. -1.
    10030    2    1    2    0    0  0.00000000000E+00  0.00000000000E+00 -0.51000823400E+03  0.36459893315E+04  0.36101426297E+04 0.  0.
        4    1    3    3  502    0 -0.66996592747E+02  0.22039799404E+03 -0.20630929055E+04  0.20759137190E+04  0.12699999809E+01 0. -1.
       -4    1    3    3    0  502  0.66996592747E+02 -0.22039799404E+03  0.15530846715E+04  0.15700756125E+04  0.12699999809E+01 0.  1.
</event>
<event>
 5   0  0.3202875E-08  0.3596381E+04  0.7818609E-02  0.8091321E-01
       -1   -1    0    0    0  501  0.00000000000E+00  0.00000000000E+00  0.11832790584E+04  0.11832790584E+04  0.50400001928E-02 0.  1.
        1   -1    0    0  501    0  0.00000000000E+00  0.00000000000E+00 -0.27326509596E+04  0.27326509596E+04  0.50400001928E-02 0. -1.
    10030    2    1    2    0    0  0.00000000000E+00  0.00000000000E+00 -0.15493719012E+04  0.39159300180E+04  0.35963807666E+04 0.  0.
        1    1    3    3  502    0 -0.15045126743E+02  0.15283071416E+04  0.25687777046E+03  0.15498178163E+04  0.50400001928E-02 0.  1.
       -1    1    3    3    0  502  0.15045126743E+02 -0.15283071416E+04 -0.18062496716E+04  0.23661122017E+04  0.50400001928E-02 0. -1.
</event>
<event>
 5   0  0.9905335E-08  0.3608443E+04  0.7818609E-02  0.8088560E-01
       -2   -1    0    0    0  501  0.00000000000E+00  0.00000000000E+00  0.15889840745E+04  0.15889840745E+04  0.25500000920E-02 0. -1.
        2   -1    0    0  501    0  0.00000000000E+00  0.00000000000E+00 -0.20486140446E+04  0.20486140446E+04  0.25500000920E-02 0.  1.
    10030    2    1    2    0    0  0.00000000000E+00  0.00000000000E+00 -0.45962997011E+03  0.36375981192E+04  0.36084429284E+04 0.  0.
        5    1    3    3  502    0 -0.10416065901E+04  0.14731495997E+04 -0.23877329205E+03  0.18199309896E+04  0.46999998093E+01 0. -1.
       -5    1    3    3    0  502  0.10416065901E+04 -0.14731495997E+04 -0.22085667806E+03  0.18176671296E+04  0.46999998093E+01 0.  1.
</event>
<event>
 5   0  0.3215494E-08  0.3598064E+04  0.7818609E-02  0.8090935E-01
       -1   -1    0    0    0  501  0.00000000000E+00  0.00000000000E+00  0.25030544253E+04  0.25030544253E+04  0.50400001928E-02 0.  1.
        1   -1    0    0  501    0  0.00000000000E+00  0.00000000000E+00 -0.12930269050E+04  0.12930269050E+04  0.50400001928E-02 0. -1.
    10030    2    1    2    0    0  0.00000000000E+00  0.00000000000E+00  0.12100275203E+04  0.37960813304E+04  0.35980643222E+04 0.  0.
        4    1    3    3  502    0  0.15476021965E+04  0.76755380371E+03  0.75071689287E+02  0.17291179172E+04  0.12699999809E+01 0. -1.
       -4    1    3    3    0  502 -0.15476021965E+04 -0.76755380371E+03  0.11349558310E+04  0.20669634132E+04  0.12699999809E+01 0.  1.
</event>
<event>
 5   0  0.3202875E-08  0.3603967E+04  0.7818609E-02  0.8089584E-01
        1   -1    0    0  501    0  0.00000000000E+00  0.00000000000E+00  0.22372378066E+04  0.22372378066E+04  0.50400001928E-02 0. -1.
       -1   -1    0    0    0  501  0.00000000000E+00  0.00000000000E+00 -0.14514076344E+04  0.14514076344E+04  0.50400001928E-02 0.  1.
    10030    2    1    2    0    0  0.00000000000E+00  0.00000000000E+00  0.78583017218E+03  0.36886454410E+04  0.36039667215E+04 0.  0.
        2    1    3    3  502    0  0.62762235928E+03  0.14382127778E+04  0.12996067203E+04  0.20374845883E+04  0.25500000920E-02 0. -1.
       -2    1    3    3    0  502 -0.62762235928E+03 -0.14382127778E+04 -0.51377654807E+03  0.16511608527E+04  0.25500000920E-02 0.  1.
</event>
<event>
 5   0  0.1021087E-07  0.3601065E+04  0.7818609E-02  0.8090248E-01
       -2   -1    0    0    0  501  0.00000000000E+00  0.00000000000E+00  0.13390844054E+04  0.13390844054E+04  0.25500000920E-02 0.  1.
        2   -1    0    0  501    0  0.00000000000E+00  0.00000000000E+00 -0.24209958685E+04  0.24209958685E+04  0.25500000920E-02 0. -1.
    10030    2    1    2    0    0  0.00000000000E+00  0.00000000000E+00 -0.10819114630E+04  0.37600802739E+04  0.36010652941E+04 0.  0.
        3    1    3    3  502    0  0.30655939832E+03 -0.17608182192E+04 -0.31348664758E+03  0.18145890318E+04  0.10100000352E+00 0.  1.
       -3    1    3    3    0  502 -0.30655939832E+03  0.17608182192E+04 -0.76842481546E+03  0.19454912421E+04  0.10100000352E+00 0. -1.
</event>
<event>
 5   0  0.1021087E-07  0.3613586E+04  0.7818609E-02  0.8087387E-01
        2   -1    0    0  501    0  0.00000000000E+00  0.00000000000E+00  0.31450137588E+04  0.31450137588E+04  0.25500000920E-02 0.  1.
       -2   -1    0    0    0  501  0.00000000000E+00  0.00000000000E+00 -0.10379926307E+04  0.10379926307E+04  0.25500000920E-02 0. -1.
    10030    2    1    2    0    0  0.00000000000E+00  0.00000000000E+00  0.21070211281E+04  0.41830063895E+04  0.36135860887E+04 0.  0.
        3    1    3    3  502    0 -0.14695578395E+04  0.10365598597E+04  0.12554888146E+04  0.21932416101E+04  0.10100000352E+00 0.  1.
       -3    1    3    3    0  502  0.14695578395E+04 -0.10365598597E+04  0.85153231350E+03  0.19897647794E+04  0.10100000352E+00 0. -1.
</event>
<event>
 5   0  0.3279988E-08  0.3595892E+04  0.7818609E-02  0.8091433E-01
        1   -1    0    0  501    0  0.00000000000E+00  0.00000000000E+00  0.20839039653E+04  0.20839039653E+04  0.50400001928E-02 0. -1.
       -1   -1    0    0    0  501  0.00000000000E+00  0.00000000000E+00 -0.15512277292E+04  0.15512277292E+04  0.50400001928E-02 0.  1.
    10030    2    1    2    0    0  0.00000000000E+00  0.00000000000E+00  0.53267623615E+03  0.36351316945E+04  0.35958918871E+04 0.  0.
        5    1    3    3  502    0  0.51907558404E+01 -0.15709856139E+04 -0.61759756954E+03  0.16880377931E+04  0.46999998093E+01 0.  1.
       -5    1    3    3    0  502 -0.51907558404E+01  0.15709856139E+04  0.11502738057E+04  0.19470939014E+04  0.46999998093E+01 0. -1.
</event>
<event>
 5   0  0.9905335E-08  0.3598784E+04  0.7818609E-02  0.8090770E-01
       -2   -1    0    0    0  501  0.00000000000E+00  0.00000000000E+00  0.15231377674E+04  0.15231377674E+04  0.25500000920E-02 0.  1.
        2   -1    0    0  501    0  0.00000000000E+00  0.00000000000E+00 -0.21257510380E+04  0.21257510380E+04  0.25500000920E-02 0. -1.
    10030    2    1    2    0    0  0.00000000000E+00  0.00000000000E+00 -0.60261327068E+03  0.36488888054E+04  0.35987840669E+04 0.  0.
        5    1    3    3  502    0 -0.11538994218E+04 -0.13762302503E+04 -0.18887535186E+03  0.18058763983E+04  0.46999998093E+01 0. -1.
       -5    1    3    3    0  502  0.11538994218E+04  0.13762302503E+04 -0.41373791882E+03  0.18430124071E+04  0.46999998093E+01 0.  1.
</event>
<event>
 5   0  0.1021087E-07  0.3598644E+04  0.7818609E-02  0.8090802E-01
       -2   -1    0    0    0  501  0.00000000000E+00  0.00000000000E+00  0.20720124540E+04  0.20720124540E+04  0.25500000920E-02 0.  1.
        2   -1    0    0  501    0  0.00000000000E+00  0.00000000000E+00 -0.15625190175E+04  0.15625190175E+04  0.25500000920E-02 0. -1.
    10030    2    1    2    0    0  0.00000000000E+00  0.00000000000E+00  0.50949343648E+03  0.36345314715E+04  0.35986435577E+04 0.  0.
        3    1    3    3  502    0 -0.61991633146E+03 -0.23849717611E+03  0.19436618492E+04  0.20540200962E+04  0.10100000352E+00 0.  1.
       -3    1    3    3    0  502  0.61991633146E+03  0.23849717611E+03 -0.14341684128E+04  0.15805113753E+04  0.10100000352E+00 0. -1.
</event>
<event>
 5   0  0.3212523E-08  0.3632837E+04  0.7818609E-02  0.8083011E-01
        1   -1    0    0  501    0  0.00000000000E+00  0.00000000000E+00  0.28945514063E+04  0.28945514063E+04  0.50400001928E-02 0.  1.
       -1   -1    0    0    0  501  0.00000000000E+00  0.00000000000E+00 -0.11398575238E+04  0.11398575239E+04  0.50400001928E-02 0. -1.
    10030    2    1    2    0    0  0.00000000000E+00  0.00000000000E+00  0.17546938824E+04  0.40344089301E+04  0.36328370173E+04 0.  0.
        3    1    3    3  502    0 -0.60167165717E+03 -0.16469056300E+04  0.14042031292E+04  0.22463511247E+04  0.10100000352E+00 0.  1.
       -3    1    3    3    0  502  0.60167165717E+03  0.16469056300E+04  0.35049075325E+03  0.17880578054E+04  0.10100000352E+00 0. -1.
</event>
<event>
 5   0  0.3212523E-08  0.3590743E+04  0.7818609E-02  0.8092615E-01
        1   -1    0    0  501    0  0.00000000000E+00  0.00000000000E+00  0.23276040956E+04  0.23276040956E+04  0.50400001928E-02 0.  1.
       -1   -1    0    0    0  501  0.00000000000E+00  0.00000000000E+00 -0.13848400862E+04  0.13848400862E+04  0.50400001928E-02 0. -1.
    10030    2    1    2    0    0  0.00000000000E+00  0.00000000000E+00  0.94276400937E+03  0.37124441818E+04  0.35907433528E+04 0.  0.
        3    1    3    3  502    0  0.17263855463E+04 -0.48428781440E+03  0.37652434535E+03  0.18321332742E+04  0.10100000352E+00 0.  1.
       -3    1    3    3    0  502 -0.17263855463E+04  0.48428781440E+03  0.56623966402E+03  0.18803109075E+04  0.10100000352E+00 0. -1.
</event>
<event>
 5   0  0.3215494E-08  0.3599264E+04  0.7818609E-02  0.8090660E-01
       -1   -1    0    0    0  501  0.00000000000E+00  0.00000000000E+00  0.19176502886E+04  0.19176502886E+04  0.50400001928E-02 0. -1.
        1   -1    0    0  501    0  0.00000000000E+00  0.00000000000E+00 -0.16888771456E+04  0.16888771456E+04  0.50400001928E-02 0.  1.
    10030    2    1    2    0    0  0.00000000000E+00  0.00000000000E+00  0.22877314296E+03  0.36065274342E+04  0.35992642280E+04 0.  0.
        4    1    3    3  502    0 -0.64521174302E+03 -0.11974177666E+04 -0.10663659246E+04  0.17283649497E+04  0.12699999809E+01 0.  1.
       -4    1    3    3    0  502  0.64521174302E+03  0.11974177666E+04  0.12951390676E+04  0.18781624846E+04  0.12699999809E+01 0. -1.
</event>
<event>
 5   0  0.1017794E-07  0.3600436E+04  0.7818609E-02  0.8090392E-01
       -2   -1    0    0    0  501  0.00000000000E+00  0.00000000000E+00  0.10777714743E+04  0.10777714743E+04  0.25500000920E-02 0.  1.
        2   -1    0    0  501    0  0.00000000000E+00  0.00000000000E+00 -0.30069317774E+04  0.30069317774E+04  0.25500000920E-02 0. -1.
    10030    2    1    2    0    0  0.00000000000E+00  0.00000000000E+00 -0.19291603031E+04  0.40847032517E+04  0.36004362485E+04 0.  0.
        1    1    3    3  502    0  0.61344124151E+03  0.11512834533E+02 -0.28846537065E+04  0.29491811929E+04  0.50400001928E-02 0. -1.
       -1    1    3    3    0  502 -0.61344124151E+03 -0.11512834533E+02  0.95549340340E+03  0.11355220588E+04  0.50400001928E-02 0.  1.
</event>
<event>
 5   0  0.3202875E-08  0.3589837E+04  0.7818609E-02  0.8092824E-01
       -1   -1    0    0    0  501  0.00000000000E+00  0.00000000000E+00  0.32582656503E+04  0.32582656503E+04  0.50400001928E-02 0.  1.
        1   -1    0    0  501    0  0.00000000000E+00  0.00000000000E+00 -0.98878761067E+03  0.98878761068E+03  0.50400001928E-02 0. -1.
    10030    2    1    2    0    0  0.00000000000E+00  0.00000000000E+00  0.22694780396E+04  0.42470532610E+04  0.35898371591E+04 0.  0.
        2    1    3    3  502    0 -0.73205575100E+03 -0.15348075817E+04  0.45491463288E+03  0.17602520441E+04  0.25500000920E-02 0. -1.
       -2    1    3    3    0  502  0.73205575100E+03  0.15348075817E+04  0.18145634067E+04  0.24868012169E+04  0.25500000920E-02 0.  1.
</event>
<event>
 5   0  0.1044678E-07  0.3600901E+04  0.7818609E-02  0.8090285E-01
        2   -1    0    0  501    0  0.00000000000E+00  0.00000000000E+00  0.20537601649E+04  0.20537601649E+04  0.25500000920E-02 0.  1.
       -2   -1    0    0    0  501  0.00000000000E+00  0.00000000000E+00 -0.15783841221E+04  0.15783841221E+04  0.25500000920E-02 0. -1.
    10030    2    1    2    0    0  0.00000000000E+00  0.00000000000E+00  0.47537604284E+03  0.36321442870E+04  0.36009012399E+04 0.  0.
        2    1    3    3  502    0  0.12607407902E+04 -0.83931733745E+03  0.12196341600E+04  0.19445895241E+04  0.25500000920E-02 0.  1.
       -2    1    3    3    0  502 -0.12607407902E+04  0.83931733745E+03 -0.74425811715E+03  0.16875547629E+04  0.25500000920E-02 0. -1.
</event>
<event>
 5   0  0.1021087E-07  0.3599094E+04  0.7818609E-02  0.8090699E-01
       -2   -1    0    0    0  501  0.00000000000E+00  0.00000000000E+00  0.18054905901E+04  0.18054905901E+04  0.25500000920E-02 0. -1.
        2   -1    0    0  501    0  0.00000000000E+00  0.00000000000E+00 -0.17936231482E+04  0.17936231482E+04  0.25500000920E-02 0.  1.
    10030    2    1    2    0    0  0.00000000000E+00  0.00000000000E+00  0.11867441885E+02  0.35991137382E+04  0.35990941728E+04 0.  0.
        3    1    3    3  502    0 -0.89095579017E+03  0.11412065328E+04 -0.10628167430E+04  0.17960328532E+04  0.10100000352E+00 0.  1.
       -3    1    3    3    0  502  0.89095579017E+03 -0.11412065328E+04  0.10746841849E+04  0.18030808850E+04  0.10100000352E+00 0. -1.
</event>
<event>
 5   0  0.3215494E-08  0.3599716E+04  0.7818609E-02  0.8090557E-01
       -1   -1    0    0    0  501  0.00000000000E+00  0.00000000000E+00  0.17461278347E+04  0.17461278347E+04  0.50400001928E-02 0. -1.
        1   -1    0    0  501    0  0.00000000000E+00  0.00000000000E+00 -0.18552418606E+04  0.18552418606E+04  0.50400001928E-02 0.  1.
    10030    2    1    2    0    0  0.00000000000E+00  0.00000000000E+00 -0.10911402585E+03  0.36013696953E+04  0.35997163516E+04 0.  0.
        4    1    3    3  502    0  0.68456062981E+03 -0.15544981479E+04 -0.65014556027E+03  0.18187299443E+04  0.12699999809E+01 0.  1.
       -4    1    3    3    0  502 -0.68456062981E+03  0.15544981479E+04  0.54103153442E+03  0.17826397510E+04  0.12699999809E+01 0. -1.
</event>
<event>
 5   0  0.3202875E-08  0.3615051E+04  0.7818609E-02  0.8087053E-01
        1   -1    0    0  501    0  0.00000000000E+00  0.00000000000E+00  0.22126858833E+04  0.22126858833E+04  0.50400001928E-02 0.  1.
       -1   -1    0    0    0  501  0.00000000000E+00  0.00000000000E+00 -0.14765529315E+04  0.14765529315E+04  0.50400001928E-02 0. -1.
    10030    2    1    2    0    0  0.00000000000E+00  0.00000000000E+00  0.73613295182E+03  0.36892388148E+04  0.36150506649E+04 0.  0.
        1    1    3    3  502    0 -0.79430467374E+03 -0.69520652353E+03  0.18654598384E+04  0.21434020700E+04  0.50400001928E-02 0.  1.
       -1    1    3    3    0  502  0.79430467374E+03  0.69520652353E+03 -0.11293268865E+04  0.15458367449E+04  0.50400001928E-02 0. -1.
</event>
<event>
 5   0  0.1021087E-07  0.3603518E+04  0.7818609E-02  0.8089686E-01
        2   -1    0    0  501    0  0.00000000000E+00  0.00000000000E+00  0.24605861561E+04  0.24605861561E+04  0.25500000920E-02 0.  1.
       -2   -1    0    0    0  501  0.00000000000E+00  0.00000000000E+00 -0.13193339904E+04  0.13193339904E+04  0.25500000920E-02 0. -1.
    10030    2    1    2    0    0  0.00000000000E+00  0.00000000000E+00  0.11412521658E+04  0.37799201465E+04  0.36035176992E+04 0.  0.
        3    1    3    3  502    0 -0.15287205740E+04  0.13313383865E+02 -0.42955532511E+03  0.15879803611E+04  0.10100000352E+00 0.  1.
       -3    1    3    3    0  502  0.15287205740E+04 -0.13313383865E+02  0.15708074909E+04  0.21919397855E+04  0.10100000352E+00 0. -1.
</event>
<event>
 5   0  0.9905335E-08  0.3600405E+04  0.7818609E-02  0.8090399E-01
        2   -1    0    0  501    0  0.00000000000E+00  0.00000000000E+00  0.21986149769E+04  0.21986149769E+04  0.25500000920E-02 0.  1.
       -2   -1    0    0    0  501  0.00000000000E+00  0.00000000000E+00 -0.14739864546E+04  0.14739864546E+04  0.25500000920E-02 0. -1.
    10030    2    1    2    0    0  0.00000000000E+00  0.00000000000E+00  0.72462852231E+03  0.36726014314E+04  0.36004048076E+04 0.  0.
        5    1    3    3  502    0  0.94458089692E+03 -0.71134199165E+03 -0.10222790197E+04  0.15631113153E+04  0.46999998093E+01 0. -1.
       -5    1    3    3    0  502 -0.94458089692E+03  0.71134199165E+03  0.17469075420E+04  0.21094901162E+04  0.46999998093E+01 0.  1.
</event>
<event>
 5   0  0.3212523E-08  0.3603485E+04  0.7818609E-02  0.8089694E-01
       -1   -1    0    0    0  501  0.00000000000E+00  0.00000000000E+00  0.15024506461E+04  0.15024506461E+04  0.50400001928E-02 0. -1.
        1   -1    0    0  501    0  0.00000000000E+00  0.00000000000E+00 -0.21606543925E+04  0.21606543925E+04  0.50400001928E-02 0.  1.
    10030    2    1    2    0    0  0.00000000000E+00  0.00000000000E+00 -0.65820374642E+03  0.36631050387E+04  0.36034853063E+04 0.  0.
        3    1    3    3  502    0 -0.91324816662E+03 -0.71384250226E+03  0.10730978068E+04  0.15795987608E+04  0.10100000352E+00 0. -1.
       -3    1    3    3    0  502  0.91324816662E+03  0.71384250226E+03 -0.17313015532E+04  0.20835062779E+04  0.10100000352E+00 0.  1.
</event>
<event>
 5   0  0.3215494E-08  0.3560675E+04  0.7818609E-02  0.8099559E-01
        1   -1    0    0  501    0  0.00000000000E+00  0.00000000000E+00  0.17122850370E+04  0.17122850370E+04  0.50400001928E-02 0.  1.
       -1   -1    0    0    0  501  0.00000000000E+00  0.00000000000E+00 -0.18510945310E+04  0.18510945310E+04  0.50400001928E-02 0. -1.
    10030    2    1    2    0    0  0.00000000000E+00  0.00000000000E+00 -0.13880949408E+03  0.35633795680E+04  0.35606749178E+04 0.  0.
        4    1    3    3  502    0  0.71472934260E+03  0.11204078085E+04 -0.12549767871E+04  0.18278730917E+04  0.12699999809E+01 0. -1.
       -4    1    3    3    0  502 -0.71472934260E+03 -0.11204078085E+04  0.11161672930E+04  0.17355064763E+04  0.12699999809E+01 0.  1.
</event>
<event>
 5   0  0.3202875E-08  0.3604215E+04  0.7818609E-02  0.8089527E-01
        1   -1    0    0  501    0  0.00000000000E+00  0.00000000000E+00  0.14849779246E+04  0.14849779246E+04  0.50400001928E-02 0.  1.
       -1   -1    0    0    0  501  0.00000000000E+00  0.00000000000E+00 -0.21869631058E+04  0.21869631059E+04  0.50400001928E-02 0. -1.
    10030    2    1    2    0    0  0.00000000000E+00  0.00000000000E+00 -0.70198518122E+03  0.36719410305E+04  0.36042152734E+04 0.  0.
        2    1    3    3  502    0 -0.13122988231E+04  0.12662309449E+03  0.90068221546E+03  0.15966809520E+04  0.25500000920E-02 0.  1.
       -2    1    3    3    0  502  0.13122988231E+04 -0.12662309449E+03 -0.16026673967E+04  0.20752600785E+04  0.25500000920E-02 0. -1.
</event>
<event>
 5   0  0.1029908E-07  0.3598301E+04  0.7818609E-02  0.8090881E-01
        2   -1    0    0  501    0  0.00000000000E+00  0.00000000000E+00  0.23792816230E+04  0.23792816230E+04  0.25500000920E-02 0. -1.
       -2   -1    0    0    0  501  0.00000000000E+00  0.00000000000E+00 -0.13604702288E+04  0.13604702288E+04  0.25500000920E-02 0.  1.
    10030    2    1    2    0    0  0.00000000000E+00  0.00000000000E+00  0.10188113943E+04  0.37397518518E+04  0.35983006066E+04 0.  0.
        4    1    3    3  502    0  0.27196321778E+01  0.81067554373E+03 -0.11598894914E+04  0.14151139455E+04  0.12699999809E+01 0.  1.
       -4    1    3    3    0  502 -0.27196321778E+01 -0.81067554373E+03  0.21787008856E+04  0.23246379063E+04  0.12699999809E+01 0. -1.
</event>
<event>
 5   0  0.3279988E-08  0.3600746E+04  0.7818609E-02  0.8090321E-01
        1   -1    0    0  501    0  0.00000000000E+00  0.00000000000E+00  0.13948200834E+04  0.13948200834E+04  0.50400001928E-02 0.  1.
       -1   -1    0    0    0  501  0.00000000000E+00  0.00000000000E+00 -0.23238428145E+04  0.23238428145E+04  0.50400001928E-02 0. -1.
    10030    2    1    2    0    0  0.00000000000E+00  0.00000000000E+00 -0.92902273109E+03  0.37186628980E+04  0.36007458274E+04 0.  0.
        5    1    3    3  502    0 -0.53270457987E+03  0.81635111253E+03  0.10987010667E+04  0.14687986357E+04  0.46999998093E+01 0.  1.
       -5    1    3    3    0  502  0.53270457987E+03 -0.81635111253E+03 -0.20277237978E+04  0.22498642622E+04  0.46999998093E+01 0. -1.
</event>
<event>
 5   0  0.9905335E-08  0.3613644E+04  0.7818609E-02  0.8087373E-01
       -2   -1    0    0    0  501  0.00000000000E+00  0.00000000000E+00  0.22069502492E+04  0.22069502492E+04  0.25500000920E-02 0. -1.
        2   -1    0    0  501    0  0.00000000000E+00  0.00000000000E+00 -0.14792387570E+04  0.14792387570E+04  0.25500000920E-02 0.  1.
    10030    2    1    2    0    0  0.00000000000E+00  0.00000000000E+00  0.72771149215E+03  0.36861890062E+04  0.36136443341E+04 0.  0.
        5    1    3    3  502    0  0.60511641145E+03 -0.51273988438E+03  0.20198736898E+04  0.21700184039E+04  0.46999998093E+01 0. -1.
       -5    1    3    3    0  502 -0.60511641145E+03  0.51273988438E+03 -0.12921621976E+04  0.15161706023E+04  0.46999998093E+01 0.  1.
</event>
<event>
 5   0  0.3202875E-08  0.3599377E+04  0.7818609E-02  0.8090634E-01
       -1   -1    0    0    0  501  0.00000000000E+00  0.00000000000E+00  0.11201822073E+04  0.11201822073E+04  0.50400001928E-02 0.  1.
        1   -1    0    0  501    0  0.00000000000E+00  0.00000000000E+00 -0.28913855661E+04  0.28913855661E+04  0.50400001928E-02 0. -1.
    10030    2    1    2    0    0  0.00000000000E+00  0.00000000000E+00 -0.17712033588E+04  0.40115677734E+04  0.35993769825E+04 0.  0.
        2    1    3    3  502    0 -0.11523685885E+04  0.37059641507E+03 -0.23698707263E+04  0.26611242598E+04  0.25500000920E-02 0. -1.
       -2    1    3    3    0  502  0.11523685885E+04 -0.37059641507E+03  0.59866736748E+03  0.13504435136E+04  0.25500000920E-02 0.  1.
</event>
<event>
 5   0  0.1017794E-07  0.3603256E+04  0.7818609E-02  0.8089746E-01
       -2   -1    0    0    0  501  0.00000000000E+00  0.00000000000E+00  0.20570760307E+04  0.20570760307E+04  0.25500000920E-02 0.  1.
        2   -1    0    0  501    0  0.00000000000E+00  0.00000000000E+00 -0.15779018788E+04  0.15779018788E+04  0.25500000920E-02 0. -1.
    10030    2    1    2    0    0  0.00000000000E+00  0.00000000000E+00  0.47917415188E+03  0.36349779095E+04  0.36032563793E+04 0.  0.
        1    1    3    3  502    0  0.92712076774E+03  0.12209481586E+04  0.11942781907E+04  0.19433393221E+04  0.50400001928E-02 0.  1.
       -1    1    3    3    0  502 -0.92712076774E+03 -0.12209481586E+04 -0.71510403885E+03  0.16916385874E+04  0.50400001928E-02 0. -1.
</event>
<event>
 5   0  0.3279988E-08  0.3599393E+04  0.7818609E-02  0.8090631E-01
       -1   -1    0    0    0  501  0.00000000000E+00  0.00000000000E+00  0.14763692302E+04  0.14763692302E+04  0.50400001928E-02 0. -1.
        1   -1    0    0  501    0  0.00000000000E+00  0.00000000000E+00 -0.21938325185E+04  0.21938325185E+04  0.50400001928E-02 0.  1.
    10030    2    1    2    0    0  0.00000000000E+00  0.00000000000E+00 -0.71746328825E+03  0.36702017487E+04  0.35993926302E+04 0.  0.
        5    1    3    3  502    0 -0.11541528794E+04  0.10852606325E+04 -0.12293583668E+04  0.20052938921E+04  0.46999998093E+01 0.  1.
       -5    1    3    3    0  502  0.11541528794E+04 -0.10852606325E+04  0.51189507855E+03  0.16649078566E+04  0.46999998093E+01 0. -1.
</event>
<event>
 5   0  0.3202875E-08  0.3604651E+04  0.7818609E-02  0.8089427E-01
        1   -1    0    0  501    0  0.00000000000E+00  0.00000000000E+00  0.32304813262E+04  0.32304813262E+04  0.50400001928E-02 0. -1.
       -1   -1    0    0    0  501  0.00000000000E+00  0.00000000000E+00 -0.10055398007E+04  0.10055398007E+04  0.50400001928E-02 0.  1.
    10030    2    1    2    0    0  0.00000000000E+00  0.00000000000E+00  0.22249415255E+04  0.42360211270E+04  0.36046511893E+04 0.  0.
        2    1    3    3  502    0  0.34246064872E+03 -0.17484195609E+04  0.79251941775E+03  0.19499582776E+04  0.25500000920E-02 0.  1.
       -2    1    3    3    0  502 -0.34246064872E+03  0.17484195609E+04  0.14324221077E+04  0.22860628494E+04  0.25500000920E-02 0. -1.
</event>
<event>
 5   0  0.1044678E-07  0.3591581E+04  0.7818609E-02  0.8092423E-01
       -2   -1    0    0    0  501  0.00000000000E+00  0.00000000000E+00  0.14554352911E+04  0.14554352911E+04  0.25500000920E-02 0. -1.
        2   -1    0    0  501    0  0.00000000000E+00  0.00000000000E+00 -0.22157376325E+04  0.22157376325E+04  0.25500000920E-02 0.  1.
    10030    2    1    2    0    0  0.00000000000E+00  0.00000000000E+00 -0.76030234140E+03  0.36711729236E+04  0.35915805692E+04 0.  0.
        2    1    3    3  502    0 -0.26755951374E+03 -0.16539993277E+04 -0.10406607624E+04  0.19723784352E+04  0.25500000920E-02 0.  1.
       -2    1    3    3    0  502  0.26755951374E+03  0.16539993277E+04  0.28035842095E+03  0.16987944884E+04  0.25500000920E-02 0. -1.
</event>
<event>
 5   0  0.1044678E-07  0.3602166E+04  0.7818609E-02  0.8089996E-01
        2   -1    0    0  501    0  0.00000000000E+00  0.00000000000E+00  0.19269045052E+04  0.19269045052E+04  0.25500000920E-02 0.  1.
       -2   -1    0    0    0  501  0.00000000000E+00  0.00000000000E+00 -0.16834768338E+04  0.16834768338E+04  0.25500000920E-02 0. -1.
    10030    2    1    2    0    0  0.00000000000E+00  0.00000000000E+00  0.24342767143E+03  0.36103813391E+04  0.36021655129E+04 0.  0.
        2    1    3    3  502    0  0.21930348394E+03  0.50375963105E+03 -0.15974333359E+04  0.16892782621E+04  0.25500000920E-02 0. -1.
       -2    1    3    3    0  502 -0.21930348394E+03 -0.50375963105E+03  0.18408610074E+04  0.19211030770E+04  0.25500000920E-02 0.  1.
</event>
<event>
 5   0  0.1029908E-07  0.3585913E+04  0.7818609E-02  0.8093726E-01
       -2   -1    0    0    0  501  0.00000000000E+00  0.00000000000E+00  0.20828758431E+04  0.20828758431E+04  0.25500000920E-02 0. -1.
        2   -1    0    0  501    0  0.00000000000E+00  0.00000000000E+00 -0.15433915757E+04  0.15433915757E+04  0.25500000920E-02 0.  1.
    10030    2    1    2    0    0  0.00000000000E+00  0.00000000000E+00  0.53948426741E+03  0.36262674188E+04  0.35859130104E+04 0.  0.
        4    1    3    3  502    0  0.16364716955E+04  0.68891456532E+03  0.17843495327E+02  0.17756584389E+04  0.12699999809E+01 0.  1.
       -4    1    3    3    0  502 -0.16364716955E+04 -0.68891456532E+03  0.52164077208E+03  0.18506089799E+04  0.12699999809E+01 0. -1.
</event>
<event>
 5   0  0.1044678E-07  0.3595459E+04  0.7818609E-02  0.8091533E-01
       -2   -1    0    0    0  501  0.00000000000E+00  0.00000000000E+00  0.14140930069E+04  0.14140930069E+04  0.25500000920E-02 0.  1.
        2   -1    0    0  501    0  0.00000000000E+00  0.00000000000E+00 -0.22854443895E+04  0.22854443895E+04  0.25500000920E-02 0. -1.
    10030    2    1    2    0    0  0.00000000000E+00  0.00000000000E+00 -0.87135138261E+03  0.36995373964E+04  0.35954587629E+04 0.  0.
        2    1    3    3  502    0  0.68786307985E+02 -0.12983069720E+04  0.84183530132E+03  0.15488767622E+04  0.25500000920E-02 0.  1.
       -2    1    3    3    0  502 -0.68786307985E+02  0.12983069720E+04 -0.17131866839E+04  0.21506606343E+04  0.25500000920E-02 0. -1.
</event>
<event>
 5   0  0.1044678E-07  0.3609716E+04  0.7818609E-02  0.8088270E-01
        2   -1    0    0  501    0  0.00000000000E+00  0.00000000000E+00  0.17848509909E+04  0.17848509909E+04  0.25500000920E-02 0.  1.
       -2   -1    0    0    0  501  0.00000000000E+00  0.00000000000E+00 -0.18250890723E+04  0.18250890723E+04  0.25500000920E-02 0. -1.
    10030    2    1    2    0    0  0.00000000000E+00  0.00000000000E+00 -0.40238081352E+02  0.36099400632E+04  0.36097158000E+04 0.  0.
        2    1    3    3  502    0 -0.17927814205E+04 -0.14734679123E+03  0.12732057902E+03  0.18033266006E+04  0.25500000920E-02 0. -1.
       -2    1    3    3    0  502  0.17927814205E+04  0.14734679123E+03 -0.16755866037E+03  0.18066134626E+04  0.25500000920E-02 0.  1.
</event>
<event>
 5   0  0.1021087E-07  0.3579090E+04  0.7818609E-02  0.8095298E-01
       -2   -1    0    0    0  501  0.00000000000E+00  0.00000000000E+00  0.12058380636E+04  0.12058380637E+04  0.25500000920E-02 0.  1.
        2   -1    0    0  501    0  0.00000000000E+00  0.00000000000E+00 -0.26558051683E+04  0.26558051683E+04  0.25500000920E-02 0. -1.
    10030    2    1    2    0    0  0.00000000000E+00  0.00000000000E+00 -0.14499671046E+04  0.38616432319E+04  0.35790898069E+04 0.  0.
        3    1    3    3  502    0 -0.10351250327E+04  0.15560135334E+03 -0.22910445177E+04  0.25188450938E+04  0.10100000352E+00 0. -1.
       -3    1    3    3    0  502  0.10351250327E+04 -0.15560135334E+03  0.84107741308E+03  0.13427981381E+04  0.10100000352E+00 0.  1.
</event>
<event>
 5   0  0.3215494E-08  0.3603463E+04  0.7818609E-02  0.8089699E-01
       -1   -1    0    0    0  501  0.00000000000E+00  0.00000000000E+00  0.17742367953E+04  0.17742367953E+04  0.50400001928E-02 0.  1.
        1   -1    0    0  501    0  0.00000000000E+00  0.00000000000E+00 -0.18296521289E+04  0.18296521289E+04  0.50400001928E-02 0. -1.
    10030    2    1    2    0    0  0.00000000000E+00  0.00000000000E+00 -0.55415333646E+02  0.36038889242E+04  0.36034628510E+04 0.  0.
        4    1    3    3  502    0  0.80465905894E+03 -0.33650496379E+03  0.15490328114E+04  0.17776996528E+04  0.12699999809E+01 0.  1.
       -4    1    3    3    0  502 -0.80465905894E+03  0.33650496379E+03 -0.16044481451E+04  0.18261892714E+04  0.12699999809E+01 0. -1.
</event>
<event>
 5   0  0.3202875E-08  0.3596638E+04  0.7818609E-02  0.8091262E-01
       -1   -1    0    0    0  501  0.00000000000E+00  0.00000000000E+00  0.15097958437E+04  0.15097958437E+04  0.50400001928E-02 0. -1.
        1   -1    0    0  501    0  0.00000000000E+00  0.00000000000E+00 -0.21419795208E+04  0.21419795208E+04  0.50400001928E-02 0.  1.
    10030    2    1    2    0    0  0.00000000000E+00  0.00000000000E+00 -0.63218367705E+03  0.36517753645E+04  0.35966383070E+04 0.  0.
        1    1    3    3  502    0 -0.86521643246E+03  0.10423427500E+04  0.88477975479E+03  0.16179966310E+04  0.50400001928E-02 0. -1.
       -1    1    3    3    0  502  0.86521643246E+03 -0.10423427500E+04 -0.15169634318E+04  0.20337787335E+04  0.50400001928E-02 0.  1.
</event>
<event>
 5   0  0.3212523E-08  0.3625569E+04  0.7818609E-02  0.8084660E-01
        1   -1    0    0  501    0  0.00000000000E+00  0.00000000000E+00  0.17784363614E+04  0.17784363614E+04  0.50400001928E-02 0. -1.
       -1   -1    0    0    0  501  0.00000000000E+00  0.00000000000E+00 -0.18477958705E+04  0.18477958706E+04  0.50400001928E-02 0.  1.
    10030    2    1    2    0    0  0.00000000000E+00  0.00000000000E+00 -0.69359509193E+02  0.36262322319E+04  0.36255688462E+04 0.  0.
        3    1    3    3  502    0  0.37206430906E+03  0.14814758936E+04  0.94170820933E+03  0.17944405912E+04  0.10100000352E+00 0. -1.
       -3    1    3    3    0  502 -0.37206430906E+03 -0.14814758936E+04 -0.10110677185E+04  0.18317916408E+04  0.10100000352E+00 0.  1.
</event>
<event>
 5   0  0.3202875E-08  0.3599514E+04  0.7818609E-02  0.8090603E-01
       -1   -1    0    0    0  501  0.00000000000E+00  0.00000000000E+00  0.16489843502E+04  0.16489843503E+04  0.50400001928E-02 0.  1.
        1   -1    0    0  501    0  0.00000000000E+00  0.00000000000E+00 -0.19643153215E+04  0.19643153215E+04  0.50400001928E-02 0. -1.
    10030    2    1    2    0    0  0.00000000000E+00  0.00000000000E+00 -0.31533097129E+03  0.36132996718E+04  0.35995139806E+04 0.  0.
        2    1    3    3  502    0  0.97117112571E+03 -0.61734327246E+03 -0.15467423127E+04  0.19278739205E+04  0.25500000920E-02 0. -1.
       -2    1    3    3    0  502 -0.97117112571E+03  0.61734327246E+03  0.12314113414E+04  0.16854257513E+04  0.25500000920E-02 0.  1.
</event>
<event>
 5   0  0.3212523E-08  0.3593606E+04  0.7818609E-02  0.8091958E-01
        1   -1    0    0  501    0  0.00000000000E+00  0.00000000000E+00  0.23496274235E+04  0.23496274235E+04  0.50400001928E-02 0.  1.
       -1   -1    0    0    0  501  0.00000000000E+00  0.00000000000E+00 -0.13740478734E+04  0.13740478734E+04  0.50400001928E-02 0. -1.
    10030    2    1    2    0    0  0.00000000000E+00  0.00000000000E+00  0.97557955010E+03  0.37236752969E+04  0.35936057461E+04 0.  0.
        3    1    3    3  502    0 -0.12792294969E+04 -0.25269009403E+03  0.17687461447E+04  0.21974401753E+04  0.10100000352E+00 0.  1.
       -3    1    3    3    0  502  0.12792294969E+04  0.25269009403E+03 -0.79316659461E+03  0.15262351216E+04  0.10100000352E+00 0. -1.
</event>
<event>
 5   0  0.1029908E-07  0.3610597E+04  0.7818609E-02  0.8088069E-01
        2   -1    0    0  501    0  0.00000000000E+00  0.00000000000E+00  0.19361205710E+04  0.19361205710E+04  0.25500000920E-02 0.  1.
       -2   -1    0    0    0  501  0.00000000000E+00  0.00000000000E+00 -0.16833162133E+04  0.16833162133E+04  0.25500000920E-02 0. -1.
    10030    2    1    2    0    0  0.00000000000E+00  0.00000000000E+00  0.25280435766E+03  0.36194367843E+04  0.36105972625E+04 0.  0.
        4    1    3    3  502    0  0.14228628796E+02  0.55584959126E+03  0.18481431951E+04  0.19299756746E+04  0.12699999809E+01 0.  1.
       -4    1    3    3    0  502 -0.14228628796E+02 -0.55584959126E+03 -0.15953388374E+04  0.16894611097E+04  0.12699999809E+01 0. -1.
</event>
<event>
 5   0  0.1029908E-07  0.3607950E+04  0.7818609E-02  0.8088673E-01
       -2   -1    0    0    0  501  0.00000000000E+00  0.00000000000E+00  0.11528497661E+04  0.11528497661E+04  0.25500000920E-02 0. -1.
        2   -1    0    0  501    0  0.00000000000E+00  0.00000000000E+00 -0.28228536450E+04  0.28228536450E+04  0.25500000920E-02 0.  1.
    10030    2    1    2    0    0  0.00000000000E+00  0.00000000000E+00 -0.16700038790E+04  0.39757034111E+04  0.36079502016E+04 0.  0.
        4    1    3    3  502    0 -0.58316534246E+03  0.17037189720E+04 -0.71640043381E+03  0.19380328549E+04  0.12699999809E+01 0.  1.
       -4    1    3    3    0  502  0.58316534246E+03 -0.17037189720E+04 -0.95360344517E+03  0.20376705562E+04  0.12699999809E+01 0. -1.
</event>
<event>
 5   0  0.1044678E-07  0.3599348E+04  0.7818609E-02  0.8090641E-01
        2   -1    0    0  501    0  0.00000000000E+00  0.00000000000E+00  0.25118670598E+04  0.25118670598E+04  0.25500000920E-02 0.  1.
       -2   -1    0    0    0  501  0.00000000000E+00  0.00000000000E+00 -0.12894102549E+04  0.12894102549E+04  0.25500000920E-02 0. -1.
    10030    2    1    2    0    0  0.00000000000E+00  0.00000000000E+00  0.12224568049E+04  0.38012773147E+04  0.35993483554E+04 0.  0.
        2    1    3    3  502    0  0.11966830333E+04  0.13441526782E+04  0.60540150283E+03  0.18987647785E+04  0.25500000920E-02 0.  1.
       -2    1    3    3    0  502 -0.11966830333E+04 -0.13441526782E+04  0.61705530208E+03  0.19025125362E+04  0.25500000920E-02 0. -1.
</event>
<event>
 5   0  0.3215494E-08  0.3599413E+04  0.7818609E-02  0.8090626E-01
       -1   -1    0    0    0  501  0.00000000000E+00  0.00000000000E+00  0.15517637279E+04  0.15517637279E+04  0.50400001928E-02 0. -1.
        1   -1    0    0  501    0  0.00000000000E+00  0.00000000000E+00 -0.20872655308E+04  0.20872655308E+04  0.50400001928E-02 0.  1.
    10030    2    1    2    0    0  0.00000000000E+00  0.00000000000E+00 -0.53550180295E+03  0.36390292587E+04  0.35994126972E+04 0.  0.
        4    1    3    3  502    0 -0.68146678861E+03  0.16521480503E+04 -0.48210133890E+03  0.18510573946E+04  0.12699999809E+01 0.  1.
       -4    1    3    3    0  502  0.68146678861E+03 -0.16521480503E+04 -0.53400464051E+02  0.17879718641E+04  0.12699999809E+01 0. -1.
</event>
<event>
 5   0  0.3212523E-08  0.3599782E+04  0.7818609E-02  0.8090542E-01
       -1   -1    0    0    0  501  0.00000000000E+00  0.00000000000E+00  0.23336245040E+04  0.23336245040E+04  0.50400001928E-02 0.  1.
        1   -1    0    0  501    0  0.00000000000E+00  0.00000000000E+00 -0.13882298361E+04  0.13882298361E+04  0.50400001928E-02 0. -1.
    10030    2    1    2    0    0  0.00000000000E+00  0.00000000000E+00  0.94539466789E+03  0.37218543402E+04  0.35997817505E+04 0.  0.
        3    1    3    3  502    0 -0.36479666648E+03 -0.17462282314E+04  0.22538391933E+03  0.17981066612E+04  0.10100000352E+00 0.  1.
       -3    1    3    3    0  502  0.36479666648E+03  0.17462282314E+04  0.72001074856E+03  0.19237476789E+04  0.10100000352E+00 0. -1.
</event>
<event>
 5   0  0.3215494E-08  0.3605039E+04  0.7818609E-02  0.8089339E-01
       -1   -1    0    0    0  501  0.00000000000E+00  0.00000000000E+00  0.15241731989E+04  0.15241731989E+04  0.50400001928E-02 0. -1.
        1   -1    0    0  501    0  0.00000000000E+00  0.00000000000E+00 -0.21316972946E+04  0.21316972946E+04  0.50400001928E-02 0.  1.
    10030    2    1    2    0    0  0.00000000000E+00  0.00000000000E+00 -0.60752409566E+03  0.36558704935E+04  0.36050386320E+04 0.  0.
        4    1    3    3  502    0  0.17266339155E+04 -0.29090370598E+02 -0.82773237877E+03  0.19150074234E+04  0.12699999809E+01 0.  1.
       -4    1    3    3    0  502 -0.17266339155E+04  0.29090370598E+02  0.22020828311E+03  0.17408630701E+04  0.12699999809E+01 0. -1.
</event>
<event>
 5   0  0.3215494E-08  0.3629001E+04  0.7818609E-02  0.8083881E-01
        1   -1    0    0  501    0  0.00000000000E+00  0.00000000000E+00  0.23048855147E+04  0.23048855147E+04  0.50400001928E-02 0. -1.
       -1   -1    0    0    0  501  0.00000000000E+00  0.00000000000E+00 -0.14284493257E+04  0.14284493257E+04  0.50400001928E-02 0.  1.
    10030    2    1    2    0    0  0.00000000000E+00  0.00000000000E+00  0.87643618902E+03  0.37333348404E+04  0.36290010523E+04 0.  0.
        4    1    3    3  502    0 -0.11505719798E+04 -0.78941220261E+03  0.16314896257E+04  0.21467993660E+04  0.12699999809E+01 0. -1.
       -4    1    3    3    0  502  0.11505719798E+04  0.78941220261E+03 -0.75505343668E+03  0.15865354744E+04  0.12699999809E+01 0.  1.
</event>
<event>
 5   0  0.1017794E-07  0.3590619E+04  0.7818609E-02  0.8092644E-01
        2   -1    0    0  501    0  0.00000000000E+00  0.00000000000E+00  0.24338391513E+04  0.24338391513E+04  0.25500000920E-02 0.  1.
       -2   -1    0    0    0  501  0.00000000000E+00  0.00000000000E+00 -0.13243011981E+04  0.13243011981E+04  0.25500000920E-02 0. -1.
    10030    2    1    2    0    0  0.00000000000E+00  0.00000000000E+00  0.11095379532E+04  0.37581403494E+04  0.35906189461E+04 0.  0.
        1    1    3    3  502    0 -0.13453864764E+04  0.11390411931E+04  0.19881923099E+03  0.17739810307E+04  0.50400001928E-02 0.  1.
       -1    1    3    3    0  502  0.13453864764E+04 -0.11390411931E+04  0.91071872225E+03  0.19841593186E+04  0.50400001928E-02 0. -1.
</event>
<event>
 5   0  0.1044678E-07  0.3599101E+04  0.7818609E-02  0.8090698E-01
        2   -1    0    0  501    0  0.00000000000E+00  0.00000000000E+00  0.27672301860E+04  0.27672301860E+04  0.25500000920E-02 0.  1.
       -2   -1    0    0    0  501  0.00000000000E+00  0.00000000000E+00 -0.11702612403E+04  0.11702612403E+04  0.25500000920E-02 0. -1.
    10030    2    1    2    0    0  0.00000000000E+00  0.00000000000E+00  0.15969689457E+04  0.39374914262E+04  0.35991011264E+04 0.  0.
        2    1    3    3  502    0 -0.14182192626E+04  0.38427084589E+03 -0.33812481304E+03  0.15077593803E+04  0.25500000920E-02 0. -1.
       -2    1    3    3    0  502  0.14182192626E+04 -0.38427084589E+03  0.19350937587E+04  0.24297320459E+04  0.25500000920E-02 0.  1.
</event>
<event>
 5   0  0.1021087E-07  0.3605098E+04  0.7818609E-02  0.8089325E-01
       -2   -1    0    0    0  501  0.00000000000E+00  0.00000000000E+00  0.11934524168E+04  0.11934524168E+04  0.25500000920E-02 0.  1.
        2   -1    0    0  501    0  0.00000000000E+00  0.00000000000E+00 -0.27225067914E+04  0.27225067914E+04  0.25500000920E-02 0. -1.
    10030    2    1    2    0    0  0.00000000000E+00  0.00000000000E+00 -0.15290543746E+04  0.39159592082E+04  0.36050976740E+04 0.  0.
        3    1    3    3  502    0  0.50638831412E+03  0.17270737453E+04 -0.87298399012E+03  0.20003284489E+04  0.10100000352E+00 0. -1.
       -3    1    3    3    0  502 -0.50638831412E+03 -0.17270737453E+04 -0.65607038449E+03  0.19156307593E+04  0.10100000352E+00 0.  1.
</event>
<event>
 5   0  0.9905335E-08  0.3602941E+04  0.7818609E-02  0.8089818E-01
       -2   -1    0    0    0  501  0.00000000000E+00  0.00000000000E+00  0.20613169526E+04  0.20613169526E+04  0.25500000920E-02 0.  1.
        2   -1    0    0  501    0  0.00000000000E+00  0.00000000000E+00 -0.15743795982E+04  0.15743795982E+04  0.25500000920E-02 0. -1.
    10030    2    1    2    0    0  0.00000000000E+00  0.00000000000E+00  0.48693735436E+03  0.36356965507E+04  0.36029406631E+04 0.  0.
        5    1    3    3  502    0  0.53345837487E+03  0.13838978592E+04 -0.78833515366E+03  0.16796563717E+04  0.46999998093E+01 0. -1.
       -5    1    3    3    0  502 -0.53345837487E+03 -0.13838978592E+04  0.12752725080E+04  0.19560401791E+04  0.46999998093E+01 0.  1.
</event>
<event>
 5   0  0.3279988E-08  0.3593033E+04  0.7818609E-02  0.8092090E-01
       -1   -1    0    0    0  501  0.00000000000E+00  0.00000000000E+00  0.13258774903E+04  0.13258774904E+04  0.50400001928E-02 0. -1.
        1   -1    0    0  501    0  0.00000000000E+00  0.00000000000E+00 -0.24342150060E+04  0.24342150060E+04  0.50400001928E-02 0.  1.
    10030    2    1    2    0    0  0.00000000000E+00  0.00000000000E+00 -0.11083375156E+04  0.37600924963E+04  0.35930326373E+04 0.  0.
        5    1    3    3  502    0  0.65292585772E+02 -0.15745649203E+04  0.34844861785E+03  0.16139877135E+04  0.46999998093E+01 0. -1.
       -5    1    3    3    0  502 -0.65292585772E+02  0.15745649203E+04 -0.14567861335E+04  0.21461047828E+04  0.46999998093E+01 0.  1.
</event>
<event>
 5   0  0.3202875E-08  0.3609271E+04  0.7818609E-02  0.8088371E-01
       -1   -1    0    0    0  501  0.00000000000E+00  0.00000000000E+00  0.16118774357E+04  0.16118774357E+04  0.50400001928E-02 0. -1.
        1   -1    0    0  501    0  0.00000000000E+00  0.00000000000E+00 -0.20204452450E+04  0.20204452450E+04  0.50400001928E-02 0.  1.
    10030    2    1    2    0    0  0.00000000000E+00  0.00000000000E+00 -0.40856780933E+03  0.36323226807E+04  0.36092714503E+04 0.  0.
        2    1    3    3  502    0 -0.17770807162E+04  0.31098785811E+03 -0.15949369844E+03  0.18111232867E+04  0.25500000920E-02 0.  1.
       -2    1    3    3    0  502  0.17770807162E+04 -0.31098785811E+03 -0.24907411089E+03  0.18211993940E+04  0.25500000920E-02 0. -1.
</event>
<event>
 5   0  0.3279988E-08  0.3596369E+04  0.7818609E-02  0.8091324E-01
       -1   -1    0    0    0  501  0.00000000000E+00  0.00000000000E+00  0.12140276006E+04  0.12140276006E+04  0.50400001928E-02 0.  1.
        1   -1    0    0  501    0  0.00000000000E+00  0.00000000000E+00 -0.26634222815E+04  0.26634222816E+04  0.50400001928E-02 0. -1.
    10030    2    1    2    0    0  0.00000000000E+00  0.00000000000E+00 -0.14493946810E+04  0.38774498822E+04  0.35963693703E+04 0.  0.
        5    1    3    3  502    0 -0.46115292903E+03  0.71857890226E+03  0.98152731623E+03  0.13009364417E+04  0.46999998093E+01 0.  1.
       -5    1    3    3    0  502  0.46115292903E+03 -0.71857890226E+03 -0.24309219972E+04  0.25765134405E+04  0.46999998093E+01 0. -1.
</event>
<event>
 5   0  0.1044678E-07  0.3606277E+04  0.7818609E-02  0.8089055E-01
       -2   -1    0    0    0  501  0.00000000000E+00  0.00000000000E+00  0.17775210332E+04  0.17775210332E+04  0.25500000920E-02 0. -1.
        2   -1    0    0  501    0  0.00000000000E+00  0.00000000000E+00 -0.18291253864E+04  0.18291253864E+04  0.25500000920E-02 0.  1.
    10030    2    1    2    0    0  0.00000000000E+00  0.00000000000E+00 -0.51604353177E+02  0.36066464196E+04  0.36062772199E+04 0.  0.
        2    1    3    3  502    0 -0.18212574865E+03  0.54477922294E+03  0.16835698853E+04  0.17788652981E+04  0.25500000920E-02 0. -1.
       -2    1    3    3    0  502  0.18212574865E+03 -0.54477922294E+03 -0.17351742385E+04  0.18277811215E+04  0.25500000920E-02 0.  1.
</event>
<event>
 5   0  0.1017794E-07  0.3592219E+04  0.7818609E-02  0.8092276E-01
       -2   -1    0    0    0  501  0.00000000000E+00  0.00000000000E+00  0.15477159983E+04  0.15477159983E+04  0.25500000920E-02 0.  1.
        2   -1    0    0  501    0  0.00000000000E+00  0.00000000000E+00 -0.20843677055E+04  0.20843677055E+04  0.25500000920E-02 0. -1.
    10030    2    1    2    0    0  0.00000000000E+00  0.00000000000E+00 -0.53665170722E+03  0.36320837038E+04  0.35922189489E+04 0.  0.
        1    1    3    3  502    0  0.12052333584E+04  0.13268088421E+04 -0.15304258795E+03  0.17990083895E+04  0.50400001928E-02 0. -1.
       -1    1    3    3    0  502 -0.12052333584E+04 -0.13268088421E+04 -0.38360911927E+03  0.18330753143E+04  0.50400001928E-02 0.  1.
</event>
<event>
 5   0  0.1017794E-07  0.3597465E+04  0.7818609E-02  0.8091073E-01
       -2   -1    0    0    0  501  0.00000000000E+00  0.00000000000E+00  0.15948896123E+04  0.15948896123E+04  0.25500000920E-02 0.  1.
        2   -1    0    0  501    0  0.00000000000E+00  0.00000000000E+00 -0.20286286911E+04  0.20286286911E+04  0.25500000920E-02 0. -1.
    10030    2    1    2    0    0  0.00000000000E+00  0.00000000000E+00 -0.43373907874E+03  0.36235183034E+04  0.35974651224E+04 0.  0.
        1    1    3    3  502    0  0.11752642124E+04  0.16537496472E+03  0.11445268559E+04  0.16487985237E+04  0.50400001928E-02 0.  1.
       -1    1    3    3    0  502 -0.11752642124E+04 -0.16537496472E+03 -0.15782659347E+04  0.19747197797E+04  0.50400001928E-02 0. -1.
</event>
<event>
 5   0  0.1021087E-07  0.3619312E+04  0.7818609E-02  0.8086082E-01
       -2   -1    0    0    0  501  0.00000000000E+00  0.00000000000E+00  0.17014820753E+04  0.17014820753E+04  0.25500000920E-02 0.  1.
        2   -1    0    0  501    0  0.00000000000E+00  0.00000000000E+00 -0.19247070002E+04  0.19247070002E+04  0.25500000920E-02 0. -1.
    10030    2    1    2    0    0  0.00000000000E+00  0.00000000000E+00 -0.22322492488E+03  0.36261890756E+04  0.36193117916E+04 0.  0.
        3    1    3    3  502    0  0.62317587270E+02  0.12323058281E+04 -0.14379077953E+04  0.18947400808E+04  0.10100000352E+00 0. -1.
       -3    1    3    3    0  502 -0.62317587270E+02 -0.12323058281E+04  0.12146828704E+04  0.17314489948E+04  0.10100000352E+00 0.  1.
</event>
<event>
 5   0  0.3215494E-08  0.3600909E+04  0.7818609E-02  0.8090284E-01
       -1   -1    0    0    0  501  0.00000000000E+00  0.00000000000E+00  0.12755874028E+04  0.12755874028E+04  0.50400001928E-02 0. -1.
        1   -1    0    0  501    0  0.00000000000E+00  0.00000000000E+00 -0.25412886657E+04  0.25412886657E+04  0.50400001928E-02 0.  1.
    10030    2    1    2    0    0  0.00000000000E+00  0.00000000000E+00 -0.12657012629E+04  0.38168760686E+04  0.36009086681E+04 0.  0.
        4    1    3    3  502    0  0.36079866776E+03  0.34519013614E+03 -0.24664256570E+04  0.25164635986E+04  0.12699999809E+01 0.  1.
       -4    1    3    3    0  502 -0.36079866776E+03 -0.34519013614E+03  0.12007243941E+04  0.13004124700E+04  0.12699999809E+01 0. -1.
</event>
<event>
 5   0  0.1021087E-07  0.3597322E+04  0.7818609E-02  0.8091105E-01
        2   -1    0    0  501    0  0.00000000000E+00  0.00000000000E+00  0.20696207983E+04  0.20696207983E+04  0.25500000920E-02 0.  1.
       -2   -1    0    0    0  501  0.00000000000E+00  0.00000000000E+00 -0.15631763332E+04  0.15631763332E+04  0.25500000920E-02 0. -1.
    10030    2    1    2    0    0  0.00000000000E+00  0.00000000000E+00  0.50644446508E+03  0.36327971315E+04  0.35973224768E+04 0.  0.
        3    1    3    3  502    0 -0.10019358368E+04 -0.11131193053E+04  0.12591740824E+04  0.19566372656E+04  0.10100000352E+00 0.  1.
       -3    1    3    3    0  502  0.10019358368E+04  0.11131193053E+04 -0.75272961732E+03  0.16761598659E+04  0.10100000352E+00 0. -1.
</event>
<event>
 5   0  0.3202875E-08  0.3605783E+04  0.7818609E-02  0.8089168E-01
        1   -1    0    0  501    0  0.00000000000E+00  0.00000000000E+00  0.18939759458E+04  0.18939759458E+04  0.50400001928E-02 0.  1.
       -1   -1    0    0    0  501  0.00000000000E+00  0.00000000000E+00 -0.17161877037E+04  0.17161877037E+04  0.50400001928E-02 0. -1.
    10030    2    1    2    0    0  0.00000000000E+00  0.00000000000E+00  0.17778824213E+03  0.36101636495E+04  0.36057832599E+04 0.  0.
        2    1    3    3  502    0 -0.17558647428E+04 -0.24408710127E+03 -0.23980139857E+03  0.17888946919E+04  0.25500000920E-02 0. -1.
       -2    1    3    3    0  502  0.17558647428E+04  0.24408710127E+03  0.41758964070E+03  0.18212689576E+04  0.25500000920E-02 0.  1.
</event>
<event>
 5   0  0.3202875E-08  0.3587039E+04  0.7818609E-02  0.8093467E-01
        4   -1    0    0  501    0  0.00000000000E+00  0.00000000000E+00  0.16740035144E+04  0.16740039962E+04  0.12699999809E+01 0. -1.
       -4   -1    0    0    0  501  0.00000000000E+00  0.00000000000E+00 -0.19215674163E+04  0.19215678359E+04  0.12699999809E+01 0.  1.
    10030    2    1    2    0    0  0.00000000000E+00  0.00000000000E+00 -0.24756390183E+03  0.35955718321E+04  0.35870390177E+04 0.  0.
        1    1    3    3  502    0  0.53681814530E+03 -0.91785527439E+03 -0.15715446051E+04  0.18974679106E+04  0.50400001928E-02 0.  1.
       -1    1    3    3    0  502 -0.53681814530E+03  0.91785527439E+03  0.13239807032E+04  0.16981039216E+04  0.50400001928E-02 0. -1.
</event>
<event>
 5   0  0.1021087E-07  0.3604581E+04  0.7818609E-02  0.8089443E-01
       -2   -1    0    0    0  501  0.00000000000E+00  0.00000000000E+00  0.26544372437E+04  0.26544372437E+04  0.25500000920E-02 0.  1.
        2   -1    0    0  501    0  0.00000000000E+00  0.00000000000E+00 -0.12237063938E+04  0.12237063938E+04  0.25500000920E-02 0. -1.
    10030    2    1    2    0    0  0.00000000000E+00  0.00000000000E+00  0.14307308499E+04  0.38781436376E+04  0.36045814332E+04 0.  0.
        3    1    3    3  502    0  0.13356640106E+04 -0.16285304010E+03 -0.57468911686E+03  0.14631428683E+04  0.10100000352E+00 0. -1.
       -3    1    3    3    0  502 -0.13356640106E+04  0.16285304010E+03  0.20054199668E+04  0.24150007692E+04  0.10100000352E+00 0.  1.
</event>
<event>
 5   0  0.3202875E-08  0.3611114E+04  0.7818609E-02  0.8087951E-01
        1   -1    0    0  501    0  0.00000000000E+00  0.00000000000E+00  0.16007765762E+04  0.16007765762E+04  0.50400001928E-02 0. -1.
       -1   -1    0    0    0  501  0.00000000000E+00  0.00000000000E+00 -0.20365338155E+04  0.20365338155E+04  0.50400001928E-02 0.  1.
    10030    2    1    2    0    0  0.00000000000E+00  0.00000000000E+00 -0.43575723934E+03  0.36373103918E+04  0.36111137499E+04 0.  0.
        2    1    3    3  502    0  0.70812347140E+03  0.11336589007E+04 -0.14405271524E+04  0.19651309958E+04  0.25500000920E-02 0.  1.
       -2    1    3    3    0  502 -0.70812347140E+03 -0.11336589007E+04  0.10047699131E+04  0.16721793959E+04  0.25500000920E-02 0. -1.
</event>
<event>
 5   0  0.3202875E-08  0.3594030E+04  0.7818609E-02  0.8091861E-01
        1   -1    0    0  501    0  0.00000000000E+00  0.00000000000E+00  0.10926525633E+04  0.10926525633E+04  0.50400001928E-02 0.  1.
       -1   -1    0    0    0  501  0.00000000000E+00  0.00000000000E+00 -0.29554337690E+04  0.29554337690E+04  0.50400001928E-02 0. -1.
    10030    2    1    2    0    0  0.00000000000E+00  0.00000000000E+00 -0.18627812057E+04  0.40480863323E+04  0.35940296512E+04 0.  0.
        2    1    3    3  502    0  0.12941395487E+04  0.93432020873E+03 -0.15585767952E+01  0.15961684914E+04  0.25500000920E-02 0.  1.
       -2    1    3    3    0  502 -0.12941395487E+04 -0.93432020873E+03 -0.18612226289E+04  0.24519178408E+04  0.25500000920E-02 0. -1.
</event>
<event>
 5   0  0.3202875E-08  0.3598215E+04  0.7818609E-02  0.8090901E-01
       -3   -1    0    0    0  501  0.00000000000E+00  0.00000000000E+00  0.17760992151E+04  0.17760992180E+04  0.10100000352E+00 0. -1.
        3   -1    0    0  501    0  0.00000000000E+00  0.00000000000E+00 -0.18224134972E+04  0.18224135000E+04  0.10100000352E+00 0.  1.
    10030    2    1    2    0    0  0.00000000000E+00  0.00000000000E+00 -0.46314282121E+02  0.35985127180E+04  0.35982146641E+04 0.  0.
        1    1    3    3  502    0 -0.76638423777E+03 -0.53605556202E+03 -0.15601926528E+04  0.18190386140E+04  0.50400001928E-02 0.  1.
       -1    1    3    3    0  502  0.76638423777E+03  0.53605556202E+03  0.15138783707E+04  0.17794741040E+04  0.50400001928E-02 0. -1.
</event>
<event>
 5   0  0.1044678E-07  0.3601263E+04  0.7818609E-02  0.8090203E-01
       -2   -1    0    0    0  501  0.00000000000E+00  0.00000000000E+00  0.27353654144E+04  0.27353654144E+04  0.25500000920E-02 0. -1.
        2   -1    0    0  501    0  0.00000000000E+00  0.00000000000E+00 -0.11853163559E+04  0.11853163559E+04  0.25500000920E-02 0.  1.
    10030    2    1    2    0    0  0.00000000000E+00  0.00000000000E+00  0.15500490585E+04  0.39206817704E+04  0.36012627592E+04 0.  0.
        2    1    3    3  502    0  0.17179200065E+04 -0.53920207979E+03  0.79341459062E+03  0.19676114312E+04  0.25500000920E-02 0.  1.
       -2    1    3    3    0  502 -0.17179200065E+04  0.53920207979E+03  0.75663446785E+03  0.19530703391E+04  0.25500000920E-02 0. -1.
</event>
<event>
 5   0  0.1044678E-07  0.3600513E+04  0.7818609E-02  0.8090374E-01
       -2   -1    0    0    0  501  0.00000000000E+00  0.00000000000E+00  0.14343493402E+04  0.14343493402E+04  0.25500000920E-02 0. -1.
        2   -1    0    0  501    0  0.00000000000E+00  0.00000000000E+00 -0.22595073662E+04  0.22595073662E+04  0.25500000920E-02 0.  1.
    10030    2    1    2    0    0  0.00000000000E+00  0.00000000000E+00 -0.82515802597E+03  0.36938567064E+04  0.36005126856E+04 0.  0.
        2    1    3    3  502    0 -0.15812843449E+04  0.48069884706E+02  0.46885255610E+03  0.16500283672E+04  0.25500000920E-02 0. -1.
       -2    1    3    3    0  502  0.15812843449E+04 -0.48069884706E+02 -0.12940105821E+04  0.20438283391E+04  0.25500000920E-02 0.  1.
</event>
<event>
 5   0  0.3212523E-08  0.3598729E+04  0.7818609E-02  0.8090783E-01
       -1   -1    0    0    0  501  0.00000000000E+00  0.00000000000E+00  0.22383750516E+04  0.22383750516E+04  0.50400001928E-02 0.  1.
        1   -1    0    0  501    0  0.00000000000E+00  0.00000000000E+00 -0.14464564093E+04  0.14464564093E+04  0.50400001928E-02 0. -1.
    10030    2    1    2    0    0  0.00000000000E+00  0.00000000000E+00  0.79191864223E+03  0.36848314609E+04  0.35987286309E+04 0.  0.
        3    1    3    3  502    0 -0.12445321348E+04 -0.11752890047E+04 -0.17187886570E+03  0.17203798515E+04  0.10100000352E+00 0.  1.
       -3    1    3    3    0  502  0.12445321348E+04  0.11752890047E+04  0.96379750794E+03  0.19644516093E+04  0.10100000352E+00 0. -1.
</event>
<event>
 5   0  0.1029908E-07  0.3596756E+04  0.7818609E-02  0.8091235E-01
       -2   -1    0    0    0  501  0.00000000000E+00  0.00000000000E+00  0.15889593494E+04  0.15889593494E+04  0.25500000920E-02 0. -1.
        2   -1    0    0  501    0  0.00000000000E+00  0.00000000000E+00 -0.20353976583E+04  0.20353976583E+04  0.25500000920E-02 0.  1.
    10030    2    1    2    0    0  0.00000000000E+00  0.00000000000E+00 -0.44643830892E+03  0.36243570077E+04  0.35967563937E+04 0.  0.
        4    1    3    3  502    0  0.54515744276E+03  0.14568722477E+04  0.68619685555E+03  0.17001591457E+04  0.12699999809E+01 0. -1.
       -4    1    3    3    0  502 -0.54515744276E+03 -0.14568722477E+04 -0.11326351645E+04  0.19241978620E+04  0.12699999809E+01 0.  1.
</event>
<event>
 5   0  0.3202875E-08  0.3618413E+04  0.7818609E-02  0.8086287E-01
        1   -1    0    0  501    0  0.00000000000E+00  0.00000000000E+00  0.10096330450E+04  0.10096330451E+04  0.50400001928E-02 0.  1.
       -1   -1    0    0    0  501  0.00000000000E+00  0.00000000000E+00 -0.32419983532E+04  0.32419983532E+04  0.50400001928E-02 0. -1.
    10030    2    1    2    0    0  0.00000000000E+00  0.00000000000E+00 -0.22323653081E+04  0.42516313982E+04  0.36184132817E+04 0.  0.
        1    1    3    3  502    0  0.39004826939E+03 -0.16683670364E+04 -0.17989393333E+04  0.24843045195E+04  0.50400001928E-02 0. -1.
       -1    1    3    3    0  502 -0.39004826939E+03  0.16683670364E+04 -0.43342597484E+03  0.17673268788E+04  0.50400001928E-02 0.  1.
</event>
<event>
 5   0  0.1044678E-07  0.3598872E+04  0.7818609E-02  0.8090750E-01
       -2   -1    0    0    0  501  0.00000000000E+00  0.00000000000E+00  0.13208293672E+04  0.13208293672E+04  0.25500000920E-02 0.  1.
        2   -1    0    0  501    0  0.00000000000E+00  0.00000000000E+00 -0.24514671053E+04  0.24514671053E+04  0.25500000920E-02 0. -1.
    10030    2    1    2    0    0  0.00000000000E+00  0.00000000000E+00 -0.11306377381E+04  0.37722964725E+04  0.35988719040E+04 0.  0.
        2    1    3    3  502    0  0.11509524319E+04 -0.96483883935E+02  0.88101773347E+03  0.14526502976E+04  0.25500000920E-02 0.  1.
       -2    1    3    3    0  502 -0.11509524319E+04  0.96483883935E+02 -0.20116554716E+04  0.23196461749E+04  0.25500000920E-02 0. -1.
</event>
<event>
 5   0  0.3279988E-08  0.3576591E+04  0.7818609E-02  0.8095875E-01
        1   -1    0    0  501    0  0.00000000000E+00  0.00000000000E+00  0.22716326990E+04  0.22716326990E+04  0.50400001928E-02 0.  1.
       -1   -1    0    0    0  501  0.00000000000E+00  0.00000000000E+00 -0.14077986738E+04  0.14077986738E+04  0.50400001928E-02 0. -1.
    10030    2    1    2    0    0  0.00000000000E+00  0.00000000000E+00  0.86383402527E+03  0.36794313728E+04  0.35765913946E+04 0.  0.
        5    1    3    3  502    0  0.72422356919E+03  0.63280087335E+03  0.19829290761E+04  0.22038526571E+04  0.46999998093E+01 0.  1.
       -5    1    3    3    0  502 -0.72422356919E+03 -0.63280087335E+03 -0.11190950508E+04  0.14755787157E+04  0.46999998093E+01 0. -1.
</event>
<event>
 5   0  0.1017794E-07  0.3599896E+04  0.7818609E-02  0.8090516E-01
       -2   -1    0    0    0  501  0.00000000000E+00  0.00000000000E+00  0.31537676524E+04  0.31537676524E+04  0.25500000920E-02 0.  1.
        2   -1    0    0  501    0  0.00000000000E+00  0.00000000000E+00 -0.10272832308E+04  0.10272832308E+04  0.25500000920E-02 0. -1.
    10030    2    1    2    0    0  0.00000000000E+00  0.00000000000E+00  0.21264844217E+04  0.41810508832E+04  0.35998959002E+04 0.  0.
        1    1    3    3  502    0 -0.14429761803E+04 -0.57773231756E+03  0.21174388384E+04  0.26266903362E+04  0.50400001928E-02 0.  1.
       -1    1    3    3    0  502  0.14429761803E+04  0.57773231756E+03  0.90455832412E+01  0.15543605470E+04  0.50400001928E-02 0. -1.
</event>
<event>
 5   0  0.3202875E-08  0.3601350E+04  0.7818609E-02  0.8090183E-01
        1   -1    0    0  501    0  0.00000000000E+00  0.00000000000E+00  0.19087306121E+04  0.19087306121E+04  0.50400001928E-02 0. -1.
       -1   -1    0    0    0  501  0.00000000000E+00  0.00000000000E+00 -0.16987363521E+04  0.16987363522E+04  0.50400001928E-02 0.  1.
    10030    2    1    2    0    0  0.00000000000E+00  0.00000000000E+00  0.20999425995E+03  0.36074669643E+04  0.36013497899E+04 0.  0.
        2    1    3    3  502    0  0.43081731260E+03 -0.57480009719E+03 -0.15489984410E+04  0.17074527457E+04  0.25500000920E-02 0.  1.
       -2    1    3    3    0  502 -0.43081731260E+03  0.57480009719E+03  0.17589927010E+04  0.19000142185E+04  0.25500000920E-02 0. -1.
</event>
<event>
 5   0  0.3212523E-08  0.3611843E+04  0.7818609E-02  0.8087784E-01
       -1   -1    0    0    0  501  0.00000000000E+00  0.00000000000E+00  0.16321093313E+04  0.16321093313E+04  0.50400001928E-02 0.  1.
        1   -1    0    0  501    0  0.00000000000E+00  0.00000000000E+00 -0.19982441636E+04  0.19982441636E+04  0.50400001928E-02 0. -1.
    10030    2    1    2    0    0  0.00000000000E+00  0.00000000000E+00 -0.36613483233E+03  0.36303534949E+04  0.36118432666E+04 0.  0.
        3    1    3    3  502    0 -0.11589011127E+04  0.84526491486E+03 -0.12858815057E+04  0.19263997047E+04  0.10100000352E+00 0. -1.
       -3    1    3    3    0  502  0.11589011127E+04 -0.84526491486E+03  0.91974667340E+03  0.17039537901E+04  0.10100000352E+00 0.  1.
</event>
<event>
 5   0  0.3215494E-08  0.3593131E+04  0.7818609E-02  0.8092067E-01
       -1   -1    0    0    0  501  0.00000000000E+00  0.00000000000E+00  0.18053187293E+04  0.18053187293E+04  0.50400001928E-02 0. -1.
        1   -1    0    0  501    0  0.00000000000E+00  0.00000000000E+00 -0.17878547770E+04  0.17878547771E+04  0.50400001928E-02 0.  1.
    10030    2    1    2    0    0  0.00000000000E+00  0.00000000000E+00  0.17463952292E+02  0.35931735064E+04  0.35931310660E+04 0.  0.
        4    1    3    3  502    0  0.75142565184E+03 -0.10319928525E+04 -0.12554017563E+04  0.17904426660E+04  0.12699999809E+01 0.  1.
       -4    1    3    3    0  502 -0.75142565184E+03  0.10319928525E+04  0.12728657086E+04  0.18027308404E+04  0.12699999809E+01 0. -1.
</event>
<event>
 5   0  0.3215494E-08  0.3605157E+04  0.7818609E-02  0.8089311E-01
       -1   -1    0    0    0  501  0.00000000000E+00  0.00000000000E+00  0.20034785839E+04  0.20034785839E+04  0.50400001928E-02 0.  1.
        1   -1    0    0  501    0  0.00000000000E+00  0.00000000000E+00 -0.16218239576E+04  0.16218239576E+04  0.50400001928E-02 0. -1.
    10030    2    1    2    0    0  0.00000000000E+00  0.00000000000E+00  0.38165462627E+03  0.36253025415E+04  0.36051571760E+04 0.  0.
        4    1    3    3  502    0  0.17976538794E+04 -0.68901691126E+02  0.76256289701E+02  0.18005897778E+04  0.12699999809E+01 0.  1.
       -4    1    3    3    0  502 -0.17976538794E+04  0.68901691126E+02  0.30539833657E+03  0.18247127637E+04  0.12699999809E+01 0. -1.
</event>
<event>
 5   0  0.1044678E-07  0.3604459E+04  0.7818609E-02  0.8089471E-01
        2   -1    0    0  501    0  0.00000000000E+00  0.00000000000E+00  0.16169954636E+04  0.16169954636E+04  0.25500000920E-02 0. -1.
       -2   -1    0    0    0  501  0.00000000000E+00  0.00000000000E+00 -0.20086831543E+04  0.20086831543E+04  0.25500000920E-02 0.  1.
    10030    2    1    2    0    0  0.00000000000E+00  0.00000000000E+00 -0.39168769067E+03  0.36256786179E+04  0.36044592095E+04 0.  0.
        2    1    3    3  502    0  0.86448101003E+03 -0.68894688969E+03  0.12359317201E+04  0.16581623715E+04  0.25500000920E-02 0. -1.
       -2    1    3    3    0  502 -0.86448101003E+03  0.68894688969E+03 -0.16276194107E+04  0.19675162464E+04  0.25500000920E-02 0.  1.
</event>
<event>
 5   0  0.1044678E-07  0.3599504E+04  0.7818609E-02  0.8090605E-01
        2   -1    0    0  501    0  0.00000000000E+00  0.00000000000E+00  0.17610005944E+04  0.17610005944E+04  0.25500000920E-02 0.  1.
       -2   -1    0    0    0  501  0.00000000000E+00  0.00000000000E+00 -0.18393562657E+04  0.18393562657E+04  0.25500000920E-02 0. -1.
    10030    2    1    2    0    0  0.00000000000E+00  0.00000000000E+00 -0.78355671246E+02  0.36003568601E+04  0.35995041199E+04 0.  0.
        2    1    3    3  502    0  0.73558733437E+02  0.32529870656E+03  0.17298217506E+04  0.17616791492E+04  0.25500000920E-02 0.  1.
       -2    1    3    3    0  502 -0.73558733437E+02 -0.32529870656E+03 -0.18081774219E+04  0.18386777109E+04  0.25500000920E-02 0. -1.
</event>
<event>
 5   0  0.1029908E-07  0.3603184E+04  0.7818609E-02  0.8089763E-01
       -2   -1    0    0    0  501  0.00000000000E+00  0.00000000000E+00  0.17042284210E+04  0.17042284210E+04  0.25500000920E-02 0. -1.
        2   -1    0    0  501    0  0.00000000000E+00  0.00000000000E+00 -0.19045175514E+04  0.19045175514E+04  0.25500000920E-02 0.  1.
    10030    2    1    2    0    0  0.00000000000E+00  0.00000000000E+00 -0.20028913039E+03  0.36087459725E+04  0.36031835587E+04 0.  0.
        4    1    3    3  502    0 -0.23466314233E+03 -0.96311542926E+03  0.14065292007E+04  0.17207510354E+04  0.12699999809E+01 0. -1.
       -4    1    3    3    0  502  0.23466314233E+03  0.96311542926E+03 -0.16068183311E+04  0.18879949371E+04  0.12699999809E+01 0.  1.
</event>
<event>
 5   0  0.9905335E-08  0.3607903E+04  0.7818609E-02  0.8088684E-01
       -2   -1    0    0    0  501  0.00000000000E+00  0.00000000000E+00  0.17900006789E+04  0.17900006789E+04  0.25500000920E-02 0.  1.
        2   -1    0    0  501    0  0.00000000000E+00  0.00000000000E+00 -0.18180115024E+04  0.18180115024E+04  0.25500000920E-02 0. -1.
    10030    2    1    2    0    0  0.00000000000E+00  0.00000000000E+00 -0.28010823559E+02  0.36080121813E+04  0.36079034486E+04 0.  0.
        5    1    3    3  502    0  0.34077107884E+03 -0.32145165650E+03  0.17281043897E+04  0.17904812111E+04  0.46999998093E+01 0.  1.
       -5    1    3    3    0  502 -0.34077107884E+03  0.32145165650E+03 -0.17561152132E+04  0.18175309702E+04  0.46999998093E+01 0. -1.
</event>
<event>
 5   0  0.1044678E-07  0.3593655E+04  0.7818609E-02  0.8091947E-01
       -2   -1    0    0    0  501  0.00000000000E+00  0.00000000000E+00  0.16057981708E+04  0.16057981708E+04  0.25500000920E-02 0. -1.
        2   -1    0    0  501    0  0.00000000000E+00  0.00000000000E+00 -0.20105826222E+04  0.20105826222E+04  0.25500000920E-02 0.  1.
    10030    2    1    2    0    0  0.00000000000E+00  0.00000000000E+00 -0.40478445139E+03  0.36163807930E+04  0.35936554631E+04 0.  0.
        2    1    3    3  502    0 -0.17561416032E+04 -0.37796779747E+03 -0.16093815476E+03  0.18035504085E+04  0.25500000920E-02 0. -1.
       -2    1    3    3    0  502  0.17561416032E+04  0.37796779747E+03 -0.24384629662E+03  0.18128303845E+04  0.25500000920E-02 0.  1.
</event>
<event>
 5   0  0.1017794E-07  0.3604937E+04  0.7818609E-02  0.8089362E-01
       -2   -1    0    0    0  501  0.00000000000E+00  0.00000000000E+00  0.12931462636E+04  0.12931462636E+04  0.25500000920E-02 0. -1.
        2   -1    0    0  501    0  0.00000000000E+00  0.00000000000E+00 -0.25123939763E+04  0.25123939763E+04  0.25500000920E-02 0.  1.
    10030    2    1    2    0    0  0.00000000000E+00  0.00000000000E+00 -0.12192477127E+04  0.38055402398E+04  0.36049371052E+04 0.  0.
        1    1    3    3  502    0  0.53672892535E+03 -0.15451517033E+04 -0.14089382085E+04  0.21588604866E+04  0.50400001928E-02 0.  1.
       -1    1    3    3    0  502 -0.53672892535E+03  0.15451517033E+04  0.18969049580E+03  0.16466797532E+04  0.50400001928E-02 0. -1.
</event>
<event>
 5   0  0.1029908E-07  0.3602055E+04  0.7818609E-02  0.8090021E-01
       -2   -1    0    0    0  501  0.00000000000E+00  0.00000000000E+00  0.11257364858E+04  0.11257364858E+04  0.25500000920E-02 0. -1.
        2   -1    0    0  501    0  0.00000000000E+00  0.00000000000E+00 -0.28814033282E+04  0.28814033282E+04  0.25500000920E-02 0.  1.
    10030    2    1    2    0    0  0.00000000000E+00  0.00000000000E+00 -0.17556668424E+04  0.40071398140E+04  0.36020554448E+04 0.  0.
        4    1    3    3  502    0  0.24304572380E+02  0.43471155561E+02  0.11249697774E+04  0.11260724073E+04  0.12699999809E+01 0. -1.
       -4    1    3    3    0  502 -0.24304572380E+02 -0.43471155561E+02 -0.28806366198E+04  0.28810674066E+04  0.12699999809E+01 0.  1.
</event>
<event>
 5   0  0.1029908E-07  0.3599490E+04  0.7818609E-02  0.8090609E-01
       -2   -1    0    0    0  501  0.00000000000E+00  0.00000000000E+00  0.10642075919E+04  0.10642075919E+04  0.25500000920E-02 0. -1.
        2   -1    0    0  501    0  0.00000000000E+00  0.00000000000E+00 -0.30436558134E+04  0.30436558134E+04  0.25500000920E-02 0.  1.
    10030    2    1    2    0    0  0.00000000000E+00  0.00000000000E+00 -0.19794482215E+04  0.41078634053E+04  0.35994897548E+04 0.  0.
        4    1    3    3  502    0  0.67515452308E+03  0.14691916103E+04 -0.18917491411E+04  0.24885887654E+04  0.12699999809E+01 0.  1.
       -4    1    3    3    0  502 -0.67515452308E+03 -0.14691916103E+04 -0.87699080378E+02  0.16192746399E+04  0.12699999809E+01 0. -1.
</event>
<event>
 5   0  0.9905335E-08  0.3601851E+04  0.7818609E-02  0.8090068E-01
        2   -1    0    0  501    0  0.00000000000E+00  0.00000000000E+00  0.14978624183E+04  0.14978624183E+04  0.25500000920E-02 0.  1.
       -2   -1    0    0    0  501  0.00000000000E+00  0.00000000000E+00 -0.21653079215E+04  0.21653079215E+04  0.25500000920E-02 0. -1.
    10030    2    1    2    0    0  0.00000000000E+00  0.00000000000E+00 -0.66744550315E+03  0.36631703398E+04  0.36018513905E+04 0.  0.
        5    1    3    3  502    0  0.53201915392E+03 -0.15332538521E+04 -0.11276530496E+04  0.19762427092E+04  0.46999998093E+01 0. -1.
       -5    1    3    3    0  502 -0.53201915392E+03  0.15332538521E+04  0.46020754648E+03  0.16869276307E+04  0.46999998093E+01 0.  1.
</event>
<event>
 5   0  0.3215494E-08  0.3619274E+04  0.7818609E-02  0.8086091E-01
        1   -1    0    0  501    0  0.00000000000E+00  0.00000000000E+00  0.20200022780E+04  0.20200022780E+04  0.50400001928E-02 0. -1.
       -1   -1    0    0    0  501  0.00000000000E+00  0.00000000000E+00 -0.16211797571E+04  0.16211797571E+04  0.50400001928E-02 0.  1.
    10030    2    1    2    0    0  0.00000000000E+00  0.00000000000E+00  0.39882252091E+03  0.36411820352E+04  0.36192744038E+04 0.  0.
        4    1    3    3  502    0  0.13314355653E+04 -0.12233850329E+04  0.27329684326E+03  0.18286837837E+04  0.12699999809E+01 0.  1.
       -4    1    3    3    0  502 -0.13314355653E+04  0.12233850329E+04  0.12552567765E+03  0.18124982515E+04  0.12699999809E+01 0. -1.
</event>
<event>
 5   0  0.9905335E-08  0.3602392E+04  0.7818609E-02  0.8089944E-01
       -2   -1    0    0    0  501  0.00000000000E+00  0.00000000000E+00  0.31529501824E+04  0.31529501824E+04  0.25500000920E-02 0. -1.
        2   -1    0    0  501    0  0.00000000000E+00  0.00000000000E+00 -0.10289748804E+04  0.10289748804E+04  0.25500000920E-02 0.  1.
    10030    2    1    2    0    0  0.00000000000E+00  0.00000000000E+00  0.21239753020E+04  0.41819250627E+04  0.36023917259E+04 0.  0.
        5    1    3    3  502    0 -0.18609740484E+03  0.13462926066E+04  0.24341534228E+04  0.27878775085E+04  0.46999998093E+01 0. -1.
       -5    1    3    3    0  502  0.18609740484E+03 -0.13462926066E+04 -0.31017812079E+03  0.13940475542E+04  0.46999998093E+01 0.  1.
</event>
<event>
 5   0  0.1021087E-07  0.3603833E+04  0.7818609E-02  0.8089614E-01
        2   -1    0    0  501    0  0.00000000000E+00  0.00000000000E+00  0.99511559179E+03  0.99511559179E+03  0.25500000920E-02 0. -1.
       -2   -1    0    0    0  501  0.00000000000E+00  0.00000000000E+00 -0.32628398966E+04  0.32628398966E+04  0.25500000920E-02 0.  1.
    10030    2    1    2    0    0  0.00000000000E+00  0.00000000000E+00 -0.22677243048E+04  0.42579554884E+04  0.36038328788E+04 0.  0.
        3    1    3    3  502    0 -0.13522130033E+04  0.73136339544E+03 -0.22444354517E+04  0.27204527068E+04  0.10100000352E+00 0.  1.
       -3    1    3    3    0  502  0.13522130033E+04 -0.73136339544E+03 -0.23288853058E+02  0.15375027816E+04  0.10100000352E+00 0. -1.
</event>
<event>
 5   0  0.3202875E-08  0.3600454E+04  0.7818609E-02  0.8090388E-01
        1   -1    0    0  501    0  0.00000000000E+00  0.00000000000E+00  0.23131240187E+04  0.23131240187E+04  0.50400001928E-02 0.  1.
       -1   -1    0    0    0  501  0.00000000000E+00  0.00000000000E+00 -0.14010564242E+04  0.14010564242E+04  0.50400001928E-02 0. -1.
    10030    2    1    2    0    0  0.00000000000E+00  0.00000000000E+00  0.91206759448E+03  0.37141804429E+04  0.36004540082E+04 0.  0.
        2    1    3    3  502    0  0.12065844425E+04 -0.12440206883E+04 -0.46576345678E+02  0.17336674554E+04  0.25500000920E-02 0. -1.
       -2    1    3    3    0  502 -0.12065844425E+04  0.12440206883E+04  0.95864394016E+03  0.19805129875E+04  0.25500000920E-02 0.  1.
</event>
<event>
 5   0  0.3202875E-08  0.3620028E+04  0.7818609E-02  0.8085919E-01
        1   -1    0    0  501    0  0.00000000000E+00  0.00000000000E+00  0.20440710319E+04  0.20440710319E+04  0.50400001928E-02 0.  1.
       -1   -1    0    0    0  501  0.00000000000E+00  0.00000000000E+00 -0.16027577318E+04  0.16027577318E+04  0.50400001928E-02 0. -1.
    10030    2    1    2    0    0  0.00000000000E+00  0.00000000000E+00  0.44131330009E+03  0.36468287637E+04  0.36200279837E+04 0.  0.
        1    1    3    3  502    0  0.10572089736E+03  0.61245449043E+03 -0.14918916954E+04  0.16161739516E+04  0.50400001928E-02 0. -1.
       -1    1    3    3    0  502 -0.10572089736E+03 -0.61245449043E+03  0.19332049955E+04  0.20306548121E+04  0.50400001928E-02 0.  1.
</event>
<event>
 5   0  0.3279988E-08  0.3596583E+04  0.7818609E-02  0.8091275E-01
       -1   -1    0    0    0  501  0.00000000000E+00  0.00000000000E+00  0.15933569888E+04  0.15933569888E+04  0.50400001928E-02 0.  1.
        1   -1    0    0  501    0  0.00000000000E+00  0.00000000000E+00 -0.20295838801E+04  0.20295838801E+04  0.50400001928E-02 0. -1.
    10030    2    1    2    0    0  0.00000000000E+00  0.00000000000E+00 -0.43622689122E+03  0.36229408689E+04  0.35965826334E+04 0.  0.
        5    1    3    3  502    0 -0.15799609217E+04  0.50250910599E+03 -0.91966393231E+03  0.18959419174E+04  0.46999998093E+01 0. -1.
       -5    1    3    3    0  502  0.15799609217E+04 -0.50250910599E+03  0.48343704109E+03  0.17269989515E+04  0.46999998093E+01 0.  1.
</event>
<event>
 5   0  0.3279988E-08  0.3594995E+04  0.7818609E-02  0.8091639E-01
       -1   -1    0    0    0  501  0.00000000000E+00  0.00000000000E+00  0.23735328909E+04  0.23735328909E+04  0.50400001928E-02 0.  1.
        1   -1    0    0  501    0  0.00000000000E+00  0.00000000000E+00 -0.13612606044E+04  0.13612606044E+04  0.50400001928E-02 0. -1.
    10030    2    1    2    0    0  0.00000000000E+00  0.00000000000E+00  0.10122722865E+04  0.37347934954E+04  0.35949947526E+04 0.  0.
        5    1    3    3  502    0  0.70287721004E+03 -0.16130331418E+04  0.88793588182E+03  0.19708791209E+04  0.46999998093E+01 0. -1.
       -5    1    3    3    0  502 -0.70287721004E+03  0.16130331418E+04  0.12433640469E+03  0.17639143745E+04  0.46999998093E+01 0.  1.
</event>
<event>
 5   0  0.1017794E-07  0.3595395E+04  0.7818609E-02  0.8091547E-01
       -2   -1    0    0    0  501  0.00000000000E+00  0.00000000000E+00  0.18034962144E+04  0.18034962144E+04  0.25500000920E-02 0. -1.
        2   -1    0    0  501    0  0.00000000000E+00  0.00000000000E+00 -0.17919171583E+04  0.17919171583E+04  0.25500000920E-02 0.  1.
    10030    2    1    2    0    0  0.00000000000E+00  0.00000000000E+00  0.11579056086E+02  0.35954133726E+04  0.35953947274E+04 0.  0.
        1    1    3    3  502    0 -0.53287811651E+03  0.11180301083E+04  0.13087795549E+04  0.18019029756E+04  0.50400001928E-02 0. -1.
       -1    1    3    3    0  502  0.53287811651E+03 -0.11180301083E+04 -0.12972004988E+04  0.17935103970E+04  0.50400001928E-02 0.  1.
</event>
<event>
 5   0  0.1017794E-07  0.3596922E+04  0.7818609E-02  0.8091197E-01
        2   -1    0    0  501    0  0.00000000000E+00  0.00000000000E+00  0.24485266944E+04  0.24485266944E+04  0.25500000920E-02 0. -1.
       -2   -1    0    0    0  501  0.00000000000E+00  0.00000000000E+00 -0.13209828384E+04  0.13209828384E+04  0.25500000920E-02 0.  1.
    10030    2    1    2    0    0  0.00000000000E+00  0.00000000000E+00  0.11275438560E+04  0.37695095327E+04  0.35969218744E+04 0.  0.
        1    1    3    3  502    0 -0.12493439569E+04 -0.43214271183E+01  0.19195151308E+04  0.22902876097E+04  0.50400001928E-02 0. -1.
       -1    1    3    3    0  502  0.12493439569E+04  0.43214271183E+01 -0.79197127487E+03  0.14792219231E+04  0.50400001928E-02 0.  1.
</event>
<event>
 5   0  0.3202875E-08  0.3599030E+04  0.7818609E-02  0.8090714E-01
       -1   -1    0    0    0  501  0.00000000000E+00  0.00000000000E+00  0.19097771029E+04  0.19097771029E+04  0.50400001928E-02 0. -1.
        1   -1    0    0  501    0  0.00000000000E+00  0.00000000000E+00 -0.16956188878E+04  0.16956188878E+04  0.50400001928E-02 0.  1.
    10030    2    1    2    0    0  0.00000000000E+00  0.00000000000E+00  0.21415821509E+03  0.36053959907E+04  0.35990299399E+04 0.  0.
        1    1    3    3  502    0  0.77624791379E+03  0.12478835422E+04 -0.93325671589E+03  0.17409027130E+04  0.50400001928E-02 0.  1.
       -1    1    3    3    0  502 -0.77624791379E+03 -0.12478835422E+04  0.11474149310E+04  0.18644932776E+04  0.50400001928E-02 0. -1.
</event>
<event>
 5   0  0.1044678E-07  0.3619350E+04  0.7818609E-02  0.8086074E-01
       -2   -1    0    0    0  501  0.00000000000E+00  0.00000000000E+00  0.15948191152E+04  0.15948191152E+04  0.25500000920E-02 0.  1.
        2   -1    0    0  501    0  0.00000000000E+00  0.00000000000E+00 -0.20534770742E+04  0.20534770742E+04  0.25500000920E-02 0. -1.
    10030    2    1    2    0    0  0.00000000000E+00  0.00000000000E+00 -0.45865795902E+03  0.36482961894E+04  0.36193504890E+04 0.  0.
        2    1    3    3  502    0 -0.16992998612E+03  0.17977865921E+04 -0.11001145433E+03  0.18091476864E+04  0.25500000920E-02 0. -1.
       -2    1    3    3    0  502  0.16992998612E+03 -0.17977865921E+04 -0.34864650470E+03  0.18391485030E+04  0.25500000920E-02 0.  1.
</event>
<event>
 5   0  0.9905335E-08  0.3605700E+04  0.7818609E-02  0.8089187E-01
       -2   -1    0    0    0  501  0.00000000000E+00  0.00000000000E+00  0.22980091099E+04  0.22980091099E+04  0.25500000920E-02 0.  1.
        2   -1    0    0  501    0  0.00000000000E+00  0.00000000000E+00 -0.14143840611E+04  0.14143840611E+04  0.25500000920E-02 0. -1.
    10030    2    1    2    0    0  0.00000000000E+00  0.00000000000E+00  0.88362504878E+03  0.37123931710E+04  0.36056996310E+04 0.  0.
        5    1    3    3  502    0 -0.33611941717E+03 -0.68438038555E+03 -0.12402028759E+04  0.14558427243E+04  0.46999998093E+01 0. -1.
       -5    1    3    3    0  502  0.33611941717E+03  0.68438038555E+03  0.21238279246E+04  0.22565504466E+04  0.46999998093E+01 0.  1.
</event>
<event>
 5   0  0.9905335E-08  0.3599930E+04  0.7818609E-02  0.8090508E-01
        2   -1    0    0  501    0  0.00000000000E+00  0.00000000000E+00  0.15084407840E+04  0.15084407840E+04  0.25500000920E-02 0.  1.
       -2   -1    0    0    0  501  0.00000000000E+00  0.00000000000E+00 -0.21478296608E+04  0.21478296608E+04  0.25500000920E-02 0. -1.
    10030    2    1    2    0    0  0.00000000000E+00  0.00000000000E+00 -0.63938887676E+03  0.36562704448E+04  0.35999299201E+04 0.  0.
        5    1    3    3  502    0 -0.81713068396E+03 -0.75770707120E+03  0.11159443433E+04  0.15770784469E+04  0.46999998093E+01 0.  1.
       -5    1    3    3    0  502  0.81713068396E+03  0.75770707120E+03 -0.17553332201E+04  0.20791919979E+04  0.46999998093E+01 0. -1.
</event>
<event>
 5   0  0.3202875E-08  0.3590131E+04  0.7818609E-02  0.8092756E-01
       -1   -1    0    0    0  501  0.00000000000E+00  0.00000000000E+00  0.16789501489E+04  0.16789501489E+04  0.50400001928E-02 0.  1.
        1   -1    0    0  501    0  0.00000000000E+00  0.00000000000E+00 -0.19192109311E+04  0.19192109311E+04  0.50400001928E-02 0. -1.
    10030    2    1    2    0    0  0.00000000000E+00  0.00000000000E+00 -0.24026078221E+03  0.35981610799E+04  0.35901306263E+04 0.  0.
        1    1    3    3  502    0  0.33372878667E+03 -0.47276669310E+03 -0.18231593755E+04  0.19127972599E+04  0.50400001928E-02 0. -1.
       -1    1    3    3    0  502 -0.33372878667E+03  0.47276669310E+03  0.15828985933E+04  0.16853638200E+04  0.50400001928E-02 0.  1.
</event>
<event>
 5   0  0.3215494E-08  0.3606884E+04  0.7818609E-02  0.8088917E-01
       -1   -1    0    0    0  501  0.00000000000E+00  0.00000000000E+00  0.26687609232E+04  0.26687609232E+04  0.50400001928E-02 0.  1.
        1   -1    0    0  501    0  0.00000000000E+00  0.00000000000E+00 -0.12186939640E+04  0.12186939640E+04  0.50400001928E-02 0. -1.
    10030    2    1    2    0    0  0.00000000000E+00  0.00000000000E+00  0.14500669592E+04  0.38874548872E+04  0.36068838786E+04 0.  0.
        4    1    3    3  502    0 -0.82294912396E+03 -0.12376546716E+04 -0.37587628169E+03  0.15330749945E+04  0.12699999809E+01 0. -1.
       -4    1    3    3    0  502  0.82294912396E+03  0.12376546716E+04  0.18259432409E+04  0.23543798926E+04  0.12699999809E+01 0.  1.
</event>
<event>
 5   0  0.1021087E-07  0.3586919E+04  0.7818609E-02  0.8093495E-01
        2   -1    0    0  501    0  0.00000000000E+00  0.00000000000E+00  0.19918926591E+04  0.19918926591E+04  0.25500000920E-02 0. -1.
       -2   -1    0    0    0  501  0.00000000000E+00  0.00000000000E+00 -0.16147945842E+04  0.16147945842E+04  0.25500000920E-02 0.  1.
    10030    2    1    2    0    0  0.00000000000E+00  0.00000000000E+00  0.37709807496E+03  0.36066872433E+04  0.35869192788E+04 0.  0.
        3    1    3    3  502    0  0.60810181569E+03 -0.30119254565E+03  0.18578164376E+04  0.19778742867E+04  0.10100000352E+00 0. -1.
       -3    1    3    3    0  502 -0.60810181569E+03  0.30119254565E+03 -0.14807183627E+04  0.16288129566E+04  0.10100000352E+00 0.  1.
</event>
<event>
 5   0  0.1017794E-07  0.3604817E+04  0.7818609E-02  0.8089389E-01
        2   -1    0    0  501    0  0.00000000000E+00  0.00000000000E+00  0.24198391175E+04  0.24198391175E+04  0.25500000920E-02 0. -1.
       -2   -1    0    0    0  501  0.00000000000E+00  0.00000000000E+00 -0.13425172359E+04  0.13425172359E+04  0.25500000920E-02 0.  1.
    10030    2    1    2    0    0  0.00000000000E+00  0.00000000000E+00  0.10773218816E+04  0.37623563534E+04  0.36048166241E+04 0.  0.
        1    1    3    3  502    0  0.83642793309E+03 -0.15565140064E+04  0.90962076456E+03  0.19873996767E+04  0.50400001928E-02 0. -1.
       -1    1    3    3    0  502 -0.83642793309E+03  0.15565140064E+04  0.16770111699E+03  0.17749566767E+04  0.50400001928E-02 0.  1.
</event>
<event>
 5   0  0.9905335E-08  0.3580608E+04  0.7818609E-02  0.8094948E-01
        2   -1    0    0  501    0  0.00000000000E+00  0.00000000000E+00  0.22088126447E+04  0.22088126447E+04  0.25500000920E-02 0.  1.
       -2   -1    0    0    0  501  0.00000000000E+00  0.00000000000E+00 -0.14510910919E+04  0.14510910919E+04  0.25500000920E-02 0. -1.
    10030    2    1    2    0    0  0.00000000000E+00  0.00000000000E+00  0.75772155281E+03  0.36599037366E+04  0.35806079665E+04 0.  0.
        5    1    3    3  502    0 -0.39783688620E+03 -0.64153178629E+03 -0.12804598550E+04  0.14864174215E+04  0.46999998093E+01 0. -1.
       -5    1    3    3    0  502  0.39783688620E+03  0.64153178629E+03  0.20381814078E+04  0.21734863151E+04  0.46999998093E+01 0.  1.
</event>
<event>
 5   0  0.3202875E-08  0.3603129E+04  0.7818609E-02  0.8089775E-01
        1   -1    0    0  501    0  0.00000000000E+00  0.00000000000E+00  0.21191118223E+04  0.21191118223E+04  0.50400001928E-02 0.  1.
       -1   -1    0    0    0  501  0.00000000000E+00  0.00000000000E+00 -0.15316012109E+04  0.15316012109E+04  0.50400001928E-02 0. -1.
    10030    2    1    2    0    0  0.00000000000E+00  0.00000000000E+00  0.58751061142E+03  0.36507130332E+04  0.36031287699E+04 0.  0.
        2    1    3    3  502    0  0.10158148001E+04 -0.14796089601E+04  0.45238553721E+03  0.18508849390E+04  0.25500000920E-02 0.  1.
       -2    1    3    3    0  502 -0.10158148001E+04  0.14796089601E+04  0.13512507421E+03  0.17998280942E+04  0.25500000920E-02 0. -1.
</event>
<event>
 5   0  0.1021087E-07  0.3599558E+04  0.7818609E-02  0.8090593E-01
       -2   -1    0    0    0  501  0.00000000000E+00  0.00000000000E+00  0.15597524284E+04  0.15597524284E+04  0.25500000920E-02 0. -1.
        2   -1    0    0  501    0  0.00000000000E+00  0.00000000000E+00 -0.20767426022E+04  0.20767426022E+04  0.25500000920E-02 0.  1.
    10030    2    1    2    0    0  0.00000000000E+00  0.00000000000E+00 -0.51699017382E+03  0.36364950305E+04  0.35995579267E+04 0.  0.
        3    1    3    3  502    0  0.11478988838E+04  0.20174033178E+03 -0.16440029151E+04  0.20152212295E+04  0.10100000352E+00 0.  1.
       -3    1    3    3    0  502 -0.11478988838E+04 -0.20174033178E+03  0.11270127412E+04  0.16212738011E+04  0.10100000352E+00 0. -1.
</event>
<event>
 5   0  0.1029908E-07  0.3613032E+04  0.7818609E-02  0.8087513E-01
       -2   -1    0    0    0  501  0.00000000000E+00  0.00000000000E+00  0.23499692056E+04  0.23499692056E+04  0.25500000920E-02 0. -1.
        2   -1    0    0  501    0  0.00000000000E+00  0.00000000000E+00 -0.13887414121E+04  0.13887414121E+04  0.25500000920E-02 0.  1.
    10030    2    1    2    0    0  0.00000000000E+00  0.00000000000E+00  0.96122779348E+03  0.37387106177E+04  0.36130317203E+04 0.  0.
        4    1    3    3  502    0  0.67488875838E+03 -0.12126108329E+04  0.16773899590E+04  0.21770481290E+04  0.12699999809E+01 0. -1.
       -4    1    3    3    0  502 -0.67488875838E+03  0.12126108329E+04 -0.71616216556E+03  0.15616624887E+04  0.12699999809E+01 0.  1.
</event>
<event>
 5   0  0.3202875E-08  0.3603039E+04  0.7818609E-02  0.8089796E-01
       -3   -1    0    0    0  501  0.00000000000E+00  0.00000000000E+00  0.11862165781E+04  0.11862165824E+04  0.10100000352E+00 0.  1.
        3   -1    0    0  501    0  0.00000000000E+00  0.00000000000E+00 -0.27359863515E+04  0.27359863534E+04  0.10100000352E+00 0. -1.
    10030    2    1    2    0    0  0.00000000000E+00  0.00000000000E+00 -0.15497697734E+04  0.39222029358E+04  0.36030389283E+04 0.  0.
        5    1    3    3  502    0 -0.13903708052E+04  0.11453324421E+04 -0.74975512576E+03  0.19511720112E+04  0.46999998093E+01 0.  1.
       -5    1    3    3    0  502  0.13903708052E+04 -0.11453324421E+04 -0.80001464767E+03  0.19710309245E+04  0.46999998093E+01 0. -1.
</event>
<event>
 5   0  0.1021087E-07  0.3603431E+04  0.7818609E-02  0.8089706E-01
       -2   -1    0    0    0  501  0.00000000000E+00  0.00000000000E+00  0.16070544392E+04  0.16070544392E+04  0.25500000920E-02 0.  1.
        2   -1    0    0  501    0  0.00000000000E+00  0.00000000000E+00 -0.20199557683E+04  0.20199557683E+04  0.25500000920E-02 0. -1.
    10030    2    1    2    0    0  0.00000000000E+00  0.00000000000E+00 -0.41290132901E+03  0.36270102075E+04  0.36034310785E+04 0.  0.
        3    1    3    3  502    0 -0.11661383263E+04  0.12868687999E+04  0.27655282354E+03  0.17585196555E+04  0.10100000352E+00 0.  1.
       -3    1    3    3    0  502  0.11661383263E+04 -0.12868687999E+04 -0.68945415255E+03  0.18684905520E+04  0.10100000352E+00 0. -1.
</event>
<event>
 5   0  0.1029908E-07  0.3594869E+04  0.7818609E-02  0.8091668E-01
        2   -1    0    0  501    0  0.00000000000E+00  0.00000000000E+00  0.29969213090E+04  0.29969213090E+04  0.25500000920E-02 0. -1.
       -2   -1    0    0    0  501  0.00000000000E+00  0.00000000000E+00 -0.10780299853E+04  0.10780299853E+04  0.25500000920E-02 0.  1.
    10030    2    1    2    0    0  0.00000000000E+00  0.00000000000E+00  0.19188913237E+04  0.40749512943E+04  0.35948691407E+04 0.  0.
        4    1    3    3  502    0 -0.77663734277E+03  0.81624236554E+03 -0.62806677532E+03  0.12899173030E+04  0.12699999809E+01 0.  1.
       -4    1    3    3    0  502  0.77663734277E+03 -0.81624236554E+03  0.25469580990E+04  0.27850339913E+04  0.12699999809E+01 0. -1.
</event>
<event>
 5   0  0.1017794E-07  0.3590972E+04  0.7818609E-02  0.8092563E-01
        2   -1    0    0  501    0  0.00000000000E+00  0.00000000000E+00  0.14910090900E+04  0.14910090900E+04  0.25500000920E-02 0.  1.
       -2   -1    0    0    0  501  0.00000000000E+00  0.00000000000E+00 -0.21621402331E+04  0.21621402331E+04  0.25500000920E-02 0. -1.
    10030    2    1    2    0    0  0.00000000000E+00  0.00000000000E+00 -0.67113114311E+03  0.36531493232E+04  0.35909724262E+04 0.  0.
        1    1    3    3  502    0  0.11809128022E+04  0.12574082323E+04  0.17119631746E+03  0.17334758978E+04  0.50400001928E-02 0.  1.
       -1    1    3    3    0  502 -0.11809128022E+04 -0.12574082323E+04 -0.84232746058E+03  0.19196734253E+04  0.50400001928E-02 0. -1.
</event>
<event>
 5   0  0.3215494E-08  0.3664548E+04  0.7818609E-02  0.8075864E-01
       -1   -1    0    0    0  501  0.00000000000E+00  0.00000000000E+00  0.12705942520E+04  0.12705942520E+04  0.50400001928E-02 0. -1.
        1   -1    0    0  501    0  0.00000000000E+00  0.00000000000E+00 -0.26422509834E+04  0.26422509834E+04  0.50400001928E-02 0.  1.
    10030    2    1    2    0    0  0.00000000000E+00  0.00000000000E+00 -0.13716567315E+04  0.39128452354E+04  0.36645484916E+04 0.  0.
        4    1    3    3  502    0 -0.17597054355E+04  0.20082984402E+03 -0.18462907597E+03  0.17807260751E+04  0.12699999809E+01 0. -1.
       -4    1    3    3    0  502  0.17597054355E+04 -0.20082984402E+03 -0.11870276555E+04  0.21321191603E+04  0.12699999809E+01 0.  1.
</event>
<event>
 5   0  0.1021087E-07  0.3598479E+04  0.7818609E-02  0.8090840E-01
        2   -1    0    0  501    0  0.00000000000E+00  0.00000000000E+00  0.23246229410E+04  0.23246229410E+04  0.25500000920E-02 0.  1.
       -2   -1    0    0    0  501  0.00000000000E+00  0.00000000000E+00 -0.13925968334E+04  0.13925968335E+04  0.25500000920E-02 0. -1.
    10030    2    1    2    0    0  0.00000000000E+00  0.00000000000E+00  0.93202610754E+03  0.37172197744E+04  0.35984788712E+04 0.  0.
        3    1    3    3  502    0 -0.44109835849E+02  0.10714540499E+04  0.19584364149E+04  0.22328082453E+04  0.10100000352E+00 0.  1.
       -3    1    3    3    0  502  0.44109835849E+02 -0.10714540499E+04 -0.10264103074E+04  0.14844115292E+04  0.10100000352E+00 0. -1.
</event>
<event>
 5   0  0.9905335E-08  0.3592548E+04  0.7818609E-02  0.8092201E-01
        2   -1    0    0  501    0  0.00000000000E+00  0.00000000000E+00  0.23752577512E+04  0.23752577512E+04  0.25500000920E-02 0. -1.
       -2   -1    0    0    0  501  0.00000000000E+00  0.00000000000E+00 -0.13584211021E+04  0.13584211021E+04  0.25500000920E-02 0.  1.
    10030    2    1    2    0    0  0.00000000000E+00  0.00000000000E+00  0.10168366490E+04  0.37336788533E+04  0.35925479828E+04 0.  0.
        5    1    3    3  502    0  0.10630907823E+04  0.11450438601E+04 -0.41256043115E+03  0.16160184566E+04  0.46999998093E+01 0.  1.
       -5    1    3    3    0  502 -0.10630907823E+04 -0.11450438601E+04  0.14293970802E+04  0.21176603967E+04  0.46999998093E+01 0. -1.
</event>
<event>
 5   0  0.3212523E-08  0.3603536E+04  0.7818609E-02  0.8089682E-01
       -1   -1    0    0    0  501  0.00000000000E+00  0.00000000000E+00  0.33118227538E+04  0.33118227538E+04  0.50400001928E-02 0.  1.
        1   -1    0    0  501    0  0.00000000000E+00  0.00000000000E+00 -0.98023602421E+03  0.98023602422E+03  0.50400001928E-02 0. -1.
    10030    2    1    2    0    0  0.00000000000E+00  0.00000000000E+00  0.23315867296E+04  0.42920587780E+04  0.36035360240E+04 0.  0.
        3    1    3    3  502    0  0.81885038369E+03  0.11751743384E+03 -0.74067624403E+03  0.11103727333E+04  0.10100000352E+00 0. -1.
       -3    1    3    3    0  502 -0.81885038369E+03 -0.11751743384E+03  0.30722629736E+04  0.31816860447E+04  0.10100000352E+00 0.  1.
</event>
<event>
 5   0  0.3215494E-08  0.3598293E+04  0.7818609E-02  0.8090883E-01
       -1   -1    0    0    0  501  0.00000000000E+00  0.00000000000E+00  0.12332771321E+04  0.12332771321E+04  0.50400001928E-02 0.  1.
        1   -1    0    0  501    0  0.00000000000E+00  0.00000000000E+00 -0.26246554587E+04  0.26246554587E+04  0.50400001928E-02 0. -1.
    10030    2    1    2    0    0  0.00000000000E+00  0.00000000000E+00 -0.13913783266E+04  0.38579325908E+04  0.35982926823E+04 0.  0.
        4    1    3    3  502    0  0.41335751476E+03  0.76127253762E+03  0.99496438237E+03  0.13192255481E+04  0.12699999809E+01 0.  1.
       -4    1    3    3    0  502 -0.41335751476E+03 -0.76127253762E+03 -0.23863427090E+04  0.25387070428E+04  0.12699999809E+01 0. -1.
</event>
<event>
 5   0  0.1029908E-07  0.3603845E+04  0.7818609E-02  0.8089612E-01
       -2   -1    0    0    0  501  0.00000000000E+00  0.00000000000E+00  0.14701492418E+04  0.14701492418E+04  0.25500000920E-02 0.  1.
        2   -1    0    0  501    0  0.00000000000E+00  0.00000000000E+00 -0.22085676528E+04  0.22085676528E+04  0.25500000920E-02 0. -1.
    10030    2    1    2    0    0  0.00000000000E+00  0.00000000000E+00 -0.73841841105E+03  0.36787168946E+04  0.36038446472E+04 0.  0.
        4    1    3    3  502    0 -0.10136785125E+04 -0.12108901835E+04 -0.12550656376E+04  0.20171738970E+04  0.12699999809E+01 0. -1.
       -4    1    3    3    0  502  0.10136785125E+04  0.12108901835E+04  0.51664722655E+03  0.16615429976E+04  0.12699999809E+01 0.  1.
</event>
<event>
 5   0  0.3212523E-08  0.3600274E+04  0.7818609E-02  0.8090429E-01
        1   -1    0    0  501    0  0.00000000000E+00  0.00000000000E+00  0.13963151873E+04  0.13963151873E+04  0.50400001928E-02 0.  1.
       -1   -1    0    0    0  501  0.00000000000E+00  0.00000000000E+00 -0.23207458100E+04  0.23207458100E+04  0.50400001928E-02 0. -1.
    10030    2    1    2    0    0  0.00000000000E+00  0.00000000000E+00 -0.92443062274E+03  0.37170609973E+04  0.36002736676E+04 0.  0.
        3    1    3    3  502    0 -0.83494756624E+03  0.54591868938E+03  0.10848336757E+04  0.14737804341E+04  0.10100000352E+00 0.  1.
       -3    1    3    3    0  502  0.83494756624E+03 -0.54591868938E+03 -0.20092642985E+04  0.22432805632E+04  0.10100000352E+00 0. -1.
</event>
<event>
 5   0  0.9905335E-08  0.3602865E+04  0.7818609E-02  0.8089836E-01
       -2   -1    0    0    0  501  0.00000000000E+00  0.00000000000E+00  0.16466316696E+04  0.16466316696E+04  0.25500000920E-02 0. -1.
        2   -1    0    0  501    0  0.00000000000E+00  0.00000000000E+00 -0.19707864659E+04  0.19707864659E+04  0.25500000920E-02 0.  1.
    10030    2    1    2    0    0  0.00000000000E+00  0.00000000000E+00 -0.32415479628E+03  0.36174181354E+04  0.36028651980E+04 0.  0.
        5    1    3    3  502    0 -0.88080208947E+03  0.13968558319E+04  0.56063476960E+03  0.17439472385E+04  0.46999998093E+01 0. -1.
       -5    1    3    3    0  502  0.88080208947E+03 -0.13968558319E+04 -0.88478956588E+03  0.18734708969E+04  0.46999998093E+01 0.  1.
</event>
<event>
 5   0  0.1044678E-07  0.3599378E+04  0.7818609E-02  0.8090634E-01
        2   -1    0    0  501    0  0.00000000000E+00  0.00000000000E+00  0.23809472887E+04  0.23809472887E+04  0.25500000920E-02 0. -1.
       -2   -1    0    0    0  501  0.00000000000E+00  0.00000000000E+00 -0.13603324911E+04  0.13603324911E+04  0.25500000920E-02 0.  1.
    10030    2    1    2    0    0  0.00000000000E+00  0.00000000000E+00  0.10206147976E+04  0.37412797798E+04  0.35993776998E+04 0.  0.
        2    1    3    3  502    0  0.14255886833E+04 -0.83633372930E+03  0.12505077972E+04  0.20725653069E+04  0.25500000920E-02 0. -1.
       -2    1    3    3    0  502 -0.14255886833E+04  0.83633372930E+03 -0.22989299956E+03  0.16687144729E+04  0.25500000920E-02 0.  1.
</event>
<event>
 5   0  0.9905335E-08  0.3600883E+04  0.7818609E-02  0.8090290E-01
        2   -1    0    0  501    0  0.00000000000E+00  0.00000000000E+00  0.20398261449E+04  0.20398261449E+04  0.25500000920E-02 0.  1.
       -2   -1    0    0    0  501  0.00000000000E+00  0.00000000000E+00 -0.15891495380E+04  0.15891495380E+04  0.25500000920E-02 0. -1.
    10030    2    1    2    0    0  0.00000000000E+00  0.00000000000E+00  0.45067660687E+03  0.36289756829E+04  0.36008825450E+04 0.  0.
        5    1    3    3  502    0 -0.22450154580E+03 -0.17341064912E+04  0.65768456575E+03  0.18681802229E+04  0.46999998093E+01 0. -1.
       -5    1    3    3    0  502  0.22450154580E+03  0.17341064912E+04 -0.20700795889E+03  0.17607954600E+04  0.46999998093E+01 0.  1.
</event>
<event>
 5   0  0.3279988E-08  0.3598184E+04  0.7818609E-02  0.8090908E-01
       -1   -1    0    0    0  501  0.00000000000E+00  0.00000000000E+00  0.17912643252E+04  0.17912643252E+04  0.50400001928E-02 0. -1.
        1   -1    0    0  501    0  0.00000000000E+00  0.00000000000E+00 -0.18069534218E+04  0.18069534218E+04  0.50400001928E-02 0.  1.
    10030    2    1    2    0    0  0.00000000000E+00  0.00000000000E+00 -0.15689096578E+02  0.35982177470E+04  0.35981835427E+04 0.  0.
        5    1    3    3  502    0 -0.10208250664E+03 -0.11642467078E+04 -0.13756359962E+04  0.18050727739E+04  0.46999998093E+01 0.  1.
       -5    1    3    3    0  502  0.10208250664E+03  0.11642467078E+04  0.13599468996E+04  0.17931449731E+04  0.46999998093E+01 0. -1.
</event>
<event>
 5   0  0.3215494E-08  0.3601750E+04  0.7818609E-02  0.8090091E-01
       -1   -1    0    0    0  501  0.00000000000E+00  0.00000000000E+00  0.11800892736E+04  0.11800892736E+04  0.50400001928E-02 0.  1.
        1   -1    0    0  501    0  0.00000000000E+00  0.00000000000E+00 -0.27482244565E+04  0.27482244565E+04  0.50400001928E-02 0. -1.
    10030    2    1    2    0    0  0.00000000000E+00  0.00000000000E+00 -0.15681351829E+04  0.39283137301E+04  0.36017496873E+04 0.  0.
        4    1    3    3  502    0  0.96100272466E+03  0.14894505169E+04 -0.11309609600E+04  0.21026324893E+04  0.12699999809E+01 0. -1.
       -4    1    3    3    0  502 -0.96100272466E+03 -0.14894505169E+04 -0.43717422285E+03  0.18256812408E+04  0.12699999809E+01 0.  1.
</event>
<event>
 5   0  0.1021087E-07  0.3576408E+04  0.7818609E-02  0.8095917E-01
       -2   -1    0    0    0  501  0.00000000000E+00  0.00000000000E+00  0.19944045480E+04  0.19944045480E+04  0.25500000920E-02 0. -1.
        2   -1    0    0  501    0  0.00000000000E+00  0.00000000000E+00 -0.16033225427E+04  0.16033225428E+04  0.25500000920E-02 0.  1.
    10030    2    1    2    0    0  0.00000000000E+00  0.00000000000E+00  0.39108200523E+03  0.35977270907E+04  0.35764081261E+04 0.  0.
        3    1    3    3  502    0  0.15668194297E+04  0.80964259638E+01 -0.67138792385E+03  0.17046261854E+04  0.10100000352E+00 0. -1.
       -3    1    3    3    0  502 -0.15668194297E+04 -0.80964259638E+01  0.10624699291E+04  0.18931009053E+04  0.10100000352E+00 0.  1.
</event>
<event>
 5   0  0.3202875E-08  0.3599990E+04  0.7818609E-02  0.8090494E-01
        1   -1    0    0  501    0  0.00000000000E+00  0.00000000000E+00  0.12815834884E+04  0.12815834884E+04  0.50400001928E-02 0. -1.
       -1   -1    0    0    0  501  0.00000000000E+00  0.00000000000E+00 -0.25281082053E+04  0.25281082053E+04  0.50400001928E-02 0.  1.
    10030    2    1    2    0    0  0.00000000000E+00  0.00000000000E+00 -0.12465247169E+04  0.38096916936E+04  0.35999898515E+04 0.  0.
        2    1    3    3  502    0  0.10527944293E+03  0.35359160101E+03 -0.24876678899E+04  0.25148762021E+04  0.25500000920E-02 0.  1.
       -2    1    3    3    0  502 -0.10527944293E+03 -0.35359160101E+03  0.12411431730E+04  0.12948154916E+04  0.25500000920E-02 0. -1.
</event>
<event>
 5   0  0.1029908E-07  0.3605141E+04  0.7818609E-02  0.8089315E-01
       -2   -1    0    0    0  501  0.00000000000E+00  0.00000000000E+00  0.12109731784E+04  0.12109731784E+04  0.25500000920E-02 0. -1.
        2   -1    0    0  501    0  0.00000000000E+00  0.00000000000E+00 -0.26831806564E+04  0.26831806564E+04  0.25500000920E-02 0.  1.
    10030    2    1    2    0    0  0.00000000000E+00  0.00000000000E+00 -0.14722074780E+04  0.38941538348E+04  0.36051406673E+04 0.  0.
        4    1    3    3  502    0  0.16579045229E+04 -0.67835641146E+03 -0.51887637125E+03  0.18649528492E+04  0.12699999809E+01 0.  1.
       -4    1    3    3    0  502 -0.16579045229E+04  0.67835641146E+03 -0.95333110678E+03  0.20292009856E+04  0.12699999809E+01 0. -1.
</event>
<event>
 5   0  0.3215494E-08  0.3511437E+04  0.7818609E-02  0.8111085E-01
       -1   -1    0    0    0  501  0.00000000000E+00  0.00000000000E+00  0.20138420301E+04  0.20138420302E+04  0.50400001928E-02 0. -1.
        1   -1    0    0  501    0  0.00000000000E+00  0.00000000000E+00 -0.15306800210E+04  0.15306800211E+04  0.50400001928E-02 0.  1.
    10030    2    1    2    0    0  0.00000000000E+00  0.00000000000E+00  0.48316200910E+03  0.35445220512E+04  0.35114371765E+04 0.  0.
        4    1    3    3  502    0  0.14025952162E+04 -0.10515810200E+04  0.33970890327E+03  0.17856370667E+04  0.12699999809E+01 0.  1.
       -4    1    3    3    0  502 -0.14025952162E+04  0.10515810200E+04  0.14345310583E+03  0.17588849845E+04  0.12699999809E+01 0. -1.
</event>
<event>
 5   0  0.3202875E-08  0.3598984E+04  0.7818609E-02  0.8090724E-01
       -1   -1    0    0    0  501  0.00000000000E+00  0.00000000000E+00  0.23826016246E+04  0.23826016246E+04  0.50400001928E-02 0.  1.
        1   -1    0    0  501    0  0.00000000000E+00  0.00000000000E+00 -0.13590907222E+04  0.13590907222E+04  0.50400001928E-02 0. -1.
    10030    2    1    2    0    0  0.00000000000E+00  0.00000000000E+00  0.10235109024E+04  0.37416923468E+04  0.35989841693E+04 0.  0.
        1    1    3    3  502    0 -0.10023077846E+04  0.14729699164E+04  0.77458502024E+03  0.19427411622E+04  0.50400001928E-02 0.  1.
       -1    1    3    3    0  502  0.10023077846E+04 -0.14729699164E+04  0.24892588219E+03  0.17989511846E+04  0.50400001928E-02 0. -1.
</event>
<event>
 5   0  0.3279988E-08  0.3599958E+04  0.7818609E-02  0.8090501E-01
       -1   -1    0    0    0  501  0.00000000000E+00  0.00000000000E+00  0.23646328751E+04  0.23646328751E+04  0.50400001928E-02 0. -1.
        1   -1    0    0  501    0  0.00000000000E+00  0.00000000000E+00 -0.13701598285E+04  0.13701598285E+04  0.50400001928E-02 0.  1.
    10030    2    1    2    0    0  0.00000000000E+00  0.00000000000E+00  0.99447304662E+03  0.37347927036E+04  0.35999583190E+04 0.  0.
        5    1    3    3  502    0 -0.11748883079E+04  0.13552156015E+04  0.65433816900E+03  0.19092282190E+04  0.46999998093E+01 0.  1.
       -5    1    3    3    0  502  0.11748883079E+04 -0.13552156015E+04  0.34013487761E+03  0.18255644846E+04  0.46999998093E+01 0. -1.
</event>
<event>
 5   0  0.3212523E-08  0.3596111E+04  0.7818609E-02  0.8091383E-01
       -1   -1    0    0    0  501  0.00000000000E+00  0.00000000000E+00  0.13539258735E+04  0.13539258735E+04  0.50400001928E-02 0. -1.
        1   -1    0    0  501    0  0.00000000000E+00  0.00000000000E+00 -0.23878733719E+04  0.23878733719E+04  0.50400001928E-02 0.  1.
    10030    2    1    2    0    0  0.00000000000E+00  0.00000000000E+00 -0.10339474985E+04  0.37417992454E+04  0.35961109776E+04 0.  0.
        3    1    3    3  502    0  0.85236259786E+03  0.37507395093E+03 -0.21174031044E+04  0.23131360495E+04  0.10100000352E+00 0.  1.
       -3    1    3    3    0  502 -0.85236259786E+03 -0.37507395093E+03  0.10834556060E+04  0.14286631959E+04  0.10100000352E+00 0. -1.
</event>
<event>
 5   0  0.1044678E-07  0.3613546E+04  0.7818609E-02  0.8087396E-01
       -2   -1    0    0    0  501  0.00000000000E+00  0.00000000000E+00  0.18842773300E+04  0.18842773300E+04  0.25500000920E-02 0. -1.
        2   -1    0    0  501    0  0.00000000000E+00  0.00000000000E+00 -0.17324561315E+04  0.17324561315E+04  0.25500000920E-02 0.  1.
    10030    2    1    2    0    0  0.00000000000E+00  0.00000000000E+00  0.15182119847E+03  0.36167334615E+04  0.36135455242E+04 0.  0.
        2    1    3    3  502    0  0.12147725273E+04  0.13273884666E+04  0.23974795474E+03  0.18152442029E+04  0.25500000920E-02 0. -1.
       -2    1    3    3    0  502 -0.12147725273E+04 -0.13273884666E+04 -0.87926756263E+02  0.18014892586E+04  0.25500000920E-02 0.  1.
</event>
<event>
 5   0  0.3215494E-08  0.3569128E+04  0.7818609E-02  0.8097600E-01
        1   -1    0    0  501    0  0.00000000000E+00  0.00000000000E+00  0.26623345675E+04  0.26623345675E+04  0.50400001928E-02 0. -1.
       -1   -1    0    0    0  501  0.00000000000E+00  0.00000000000E+00 -0.11961939684E+04  0.11961939684E+04  0.50400001928E-02 0.  1.
    10030    2    1    2    0    0  0.00000000000E+00  0.00000000000E+00  0.14661405990E+04  0.38585285359E+04  0.35691279336E+04 0.  0.
        4    1    3    3  502    0 -0.12309186774E+04  0.10438480314E+03  0.21253668136E+04  0.24583007714E+04  0.12699999809E+01 0. -1.
       -4    1    3    3    0  502  0.12309186774E+04 -0.10438480314E+03 -0.65922621458E+03  0.14002277645E+04  0.12699999809E+01 0.  1.
</event>
<event>
 5   0  0.9905335E-08  0.3589130E+04  0.7818609E-02  0.8092986E-01
        2   -1    0    0  501    0  0.00000000000E+00  0.00000000000E+00  0.20880755231E+04  0.20880755231E+04  0.25500000920E-02 0.  1.
       -2   -1    0    0    0  501  0.00000000000E+00  0.00000000000E+00 -0.15423121476E+04  0.15423121476E+04  0.25500000920E-02 0. -1.
    10030    2    1    2    0    0  0.00000000000E+00  0.00000000000E+00  0.54576337551E+03  0.36303876707E+04  0.35891303929E+04 0.  0.
        5    1    3    3  502    0  0.79829103285E+03 -0.16025418591E+04  0.14886244785E+03  0.17965497772E+04  0.46999998093E+01 0. -1.
       -5    1    3    3    0  502 -0.79829103285E+03  0.16025418591E+04  0.39690092766E+03  0.18338378935E+04  0.46999998093E+01 0.  1.
</event>
<event>
 5   0  0.1029908E-07  0.3597205E+04  0.7818609E-02  0.8091132E-01
       -2   -1    0    0    0  501  0.00000000000E+00  0.00000000000E+00  0.13689228167E+04  0.13689228167E+04  0.25500000920E-02 0. -1.
        2   -1    0    0  501    0  0.00000000000E+00  0.00000000000E+00 -0.23631502315E+04  0.23631502315E+04  0.25500000920E-02 0.  1.
    10030    2    1    2    0    0  0.00000000000E+00  0.00000000000E+00 -0.99422741473E+03  0.37320730482E+04  0.35972046210E+04 0.  0.
        4    1    3    3  502    0 -0.11982599621E+03  0.16423158074E+04  0.25348127991E+03  0.16660773850E+04  0.12699999809E+01 0. -1.
       -4    1    3    3    0  502  0.11982599621E+03 -0.16423158074E+04 -0.12477086946E+04  0.20659956632E+04  0.12699999809E+01 0.  1.
</event>
<event>
 5   0  0.3212523E-08  0.3605135E+04  0.7818609E-02  0.8089316E-01
        1   -1    0    0  501    0  0.00000000000E+00  0.00000000000E+00  0.17458966666E+04  0.17458966666E+04  0.50400001928E-02 0. -1.
       -1   -1    0    0    0  501  0.00000000000E+00  0.00000000000E+00 -0.18610780124E+04  0.18610780124E+04  0.50400001928E-02 0.  1.
    10030    2    1    2    0    0  0.00000000000E+00  0.00000000000E+00 -0.11518134581E+03  0.36069746790E+04  0.36051351698E+04 0.  0.
        3    1    3    3  502    0 -0.15506658541E+04  0.28149094089E+03  0.81775467693E+03  0.17755349793E+04  0.10100000352E+00 0. -1.
       -3    1    3    3    0  502  0.15506658541E+04 -0.28149094089E+03 -0.93293602274E+03  0.18314396997E+04  0.10100000352E+00 0.  1.
</event>
<event>
 5   0  0.9905335E-08  0.3621314E+04  0.7818609E-02  0.8085627E-01
        2   -1    0    0  501    0  0.00000000000E+00  0.00000000000E+00  0.14094549301E+04  0.14094549301E+04  0.25500000920E-02 0.  1.
       -2   -1    0    0    0  501  0.00000000000E+00  0.00000000000E+00 -0.23260609915E+04  0.23260609915E+04  0.25500000920E-02 0. -1.
    10030    2    1    2    0    0  0.00000000000E+00  0.00000000000E+00 -0.91660606141E+03  0.37355159215E+04  0.36213136467E+04 0.  0.
        5    1    3    3  502    0 -0.20287536119E+03 -0.11830906830E+04  0.94002556933E+03  0.15246416423E+04  0.46999998093E+01 0.  1.
       -5    1    3    3    0  502  0.20287536119E+03  0.11830906830E+04 -0.18566316307E+04  0.22108742792E+04  0.46999998093E+01 0. -1.
</event>
<event>
 5   0  0.1017794E-07  0.3607378E+04  0.7818609E-02  0.8088804E-01
       -2   -1    0    0    0  501  0.00000000000E+00  0.00000000000E+00  0.17385789915E+04  0.17385789915E+04  0.25500000920E-02 0.  1.
        2   -1    0    0  501    0  0.00000000000E+00  0.00000000000E+00 -0.18712369625E+04  0.18712369625E+04  0.25500000920E-02 0. -1.
    10030    2    1    2    0    0  0.00000000000E+00  0.00000000000E+00 -0.13265797098E+03  0.36098159540E+04  0.36073775910E+04 0.  0.
        1    1    3    3  502    0 -0.74241215393E+03 -0.17045973455E+03 -0.17023839390E+04  0.18650317432E+04  0.50400001928E-02 0. -1.
       -1    1    3    3    0  502  0.74241215393E+03  0.17045973455E+03  0.15697259680E+04  0.17447842107E+04  0.50400001928E-02 0.  1.
</event>
<event>
 5   0  0.1021087E-07  0.3593570E+04  0.7818609E-02  0.8091966E-01
       -2   -1    0    0    0  501  0.00000000000E+00  0.00000000000E+00  0.17197708029E+04  0.17197708029E+04  0.25500000920E-02 0.  1.
        2   -1    0    0  501    0  0.00000000000E+00  0.00000000000E+00 -0.18772482466E+04  0.18772482466E+04  0.25500000920E-02 0. -1.
    10030    2    1    2    0    0  0.00000000000E+00  0.00000000000E+00 -0.15747744370E+03  0.35970190494E+04  0.35935702159E+04 0.  0.
        3    1    3    3  502    0 -0.94434902224E+03 -0.10392711849E+02  0.14513007005E+04  0.17315244202E+04  0.10100000352E+00 0.  1.
       -3    1    3    3    0  502  0.94434902224E+03  0.10392711849E+02 -0.16087781442E+04  0.18654946292E+04  0.10100000352E+00 0. -1.
</event>
<event>
 5   0  0.3202875E-08  0.3600051E+04  0.7818609E-02  0.8090480E-01
        1   -1    0    0  501    0  0.00000000000E+00  0.00000000000E+00  0.11634853680E+04  0.11634853680E+04  0.50400001928E-02 0.  1.
       -1   -1    0    0    0  501  0.00000000000E+00  0.00000000000E+00 -0.27848151479E+04  0.27848151479E+04  0.50400001928E-02 0. -1.
    10030    2    1    2    0    0  0.00000000000E+00  0.00000000000E+00 -0.16213297800E+04  0.39483005159E+04  0.36000509314E+04 0.  0.
        1    1    3    3  502    0  0.75216851677E+03  0.15497291651E+04 -0.23797015214E+03  0.17389789407E+04  0.50400001928E-02 0. -1.
       -1    1    3    3    0  502 -0.75216851677E+03 -0.15497291651E+04 -0.13833596278E+04  0.22093215752E+04  0.50400001928E-02 0.  1.
</event>
<event>
 5   0  0.3202875E-08  0.3596722E+04  0.7818609E-02  0.8091243E-01
        1   -1    0    0  501    0  0.00000000000E+00  0.00000000000E+00  0.19621011283E+04  0.19621011283E+04  0.50400001928E-02 0. -1.
       -1   -1    0    0    0  501  0.00000000000E+00  0.00000000000E+00 -0.16482855483E+04  0.16482855483E+04  0.50400001928E-02 0.  1.
    10030    2    1    2    0    0  0.00000000000E+00  0.00000000000E+00  0.31381558002E+03  0.36103866766E+04  0.35967223602E+04 0.  0.
        2    1    3    3  502    0  0.10494473418E+04 -0.13972469044E+04  0.58333258808E+03  0.18422582727E+04  0.25500000920E-02 0. -1.
       -2    1    3    3    0  502 -0.10494473418E+04  0.13972469044E+04 -0.26951700806E+03  0.17681284039E+04  0.25500000920E-02 0.  1.
</event>
<event>
 5   0  0.1017794E-07  0.3599503E+04  0.7818609E-02  0.8090606E-01
        2   -1    0    0  501    0  0.00000000000E+00  0.00000000000E+00  0.22631086197E+04  0.22631086197E+04  0.25500000920E-02 0.  1.
       -2   -1    0    0    0  501  0.00000000000E+00  0.00000000000E+00 -0.14312638048E+04  0.14312638048E+04  0.25500000920E-02 0. -1.
    10030    2    1    2    0    0  0.00000000000E+00  0.00000000000E+00  0.83184481490E+03  0.36943724244E+04  0.35995029954E+04 0.  0.
        1    1    3    3  502    0  0.78514427566E+03  0.14618946381E+04  0.11310784237E+04  0.20082145969E+04  0.50400001928E-02 0.  1.
       -1    1    3    3    0  502 -0.78514427566E+03 -0.14618946381E+04 -0.29923360883E+03  0.16861578275E+04  0.50400001928E-02 0. -1.
</event>
<event>
 5   0  0.1021087E-07  0.3604026E+04  0.7818609E-02  0.8089570E-01
        2   -1    0    0  501    0  0.00000000000E+00  0.00000000000E+00  0.29273367378E+04  0.29273367378E+04  0.25500000920E-02 0. -1.
       -2   -1    0    0    0  501  0.00000000000E+00  0.00000000000E+00 -0.11092849289E+04  0.11092849289E+04  0.25500000920E-02 0.  1.
    10030    2    1    2    0    0  0.00000000000E+00  0.00000000000E+00  0.18180518090E+04  0.40366216667E+04  0.36040258185E+04 0.  0.
        3    1    3    3  502    0  0.14949536613E+04  0.13079858079E+03 -0.20834539335E+03  0.15150585900E+04  0.10100000352E+00 0.  1.
       -3    1    3    3    0  502 -0.14949536613E+04 -0.13079858079E+03  0.20263972023E+04  0.25215630767E+04  0.10100000352E+00 0. -1.
</event>
<event>
 5   0  0.3279988E-08  0.3578652E+04  0.7818609E-02  0.8095399E-01
       -1   -1    0    0    0  501  0.00000000000E+00  0.00000000000E+00  0.15406029127E+04  0.15406029127E+04  0.50400001928E-02 0. -1.
        1   -1    0    0  501    0  0.00000000000E+00  0.00000000000E+00 -0.20782042616E+04  0.20782042616E+04  0.50400001928E-02 0.  1.
    10030    2    1    2    0    0  0.00000000000E+00  0.00000000000E+00 -0.53760134893E+03  0.36188071743E+04  0.35786520024E+04 0.  0.
        5    1    3    3  502    0 -0.17351124968E+04  0.38611132191E+03 -0.47596059092E+03  0.18401787694E+04  0.46999998093E+01 0. -1.
       -5    1    3    3    0  502  0.17351124968E+04 -0.38611132191E+03 -0.61640758012E+02  0.17786284048E+04  0.46999998093E+01 0.  1.
</event>
<event>
 5   0  0.1021087E-07  0.3603196E+04  0.7818609E-02  0.8089760E-01
        2   -1    0    0  501    0  0.00000000000E+00  0.00000000000E+00  0.19974500342E+04  0.19974500342E+04  0.25500000920E-02 0.  1.
       -2   -1    0    0    0  501  0.00000000000E+00  0.00000000000E+00 -0.16249494832E+04  0.16249494832E+04  0.25500000920E-02 0. -1.
    10030    2    1    2    0    0  0.00000000000E+00  0.00000000000E+00  0.37250055100E+03  0.36223995174E+04  0.36031960262E+04 0.  0.
        3    1    3    3  502    0 -0.68939525387E+03 -0.62403649032E+03  0.17375451575E+04  0.19707233550E+04  0.10100000352E+00 0.  1.
       -3    1    3    3    0  502  0.68939525387E+03  0.62403649032E+03 -0.13650446065E+04  0.16516761624E+04  0.10100000352E+00 0. -1.
</event>
<event>
 5   0  0.3215494E-08  0.3610325E+04  0.7818609E-02  0.8088131E-01
       -1   -1    0    0    0  501  0.00000000000E+00  0.00000000000E+00  0.15657424302E+04  0.15657424302E+04  0.50400001928E-02 0.  1.
        1   -1    0    0  501    0  0.00000000000E+00  0.00000000000E+00 -0.20811923357E+04  0.20811923358E+04  0.50400001928E-02 0. -1.
    10030    2    1    2    0    0  0.00000000000E+00  0.00000000000E+00 -0.51544990553E+03  0.36469347660E+04  0.36103247198E+04 0.  0.
        4    1    3    3  502    0  0.77883571686E+03 -0.13036188134E+03  0.13820133131E+04  0.15917103079E+04  0.12699999809E+01 0.  1.
       -4    1    3    3    0  502 -0.77883571686E+03  0.13036188134E+03 -0.18974632186E+04  0.20552244580E+04  0.12699999809E+01 0. -1.
</event>
<event>
 5   0  0.3215494E-08  0.3603012E+04  0.7818609E-02  0.8089802E-01
        1   -1    0    0  501    0  0.00000000000E+00  0.00000000000E+00  0.16212620342E+04  0.16212620342E+04  0.50400001928E-02 0.  1.
       -1   -1    0    0    0  501  0.00000000000E+00  0.00000000000E+00 -0.20017882990E+04  0.20017882990E+04  0.50400001928E-02 0. -1.
    10030    2    1    2    0    0  0.00000000000E+00  0.00000000000E+00 -0.38052626471E+03  0.36230503332E+04  0.36030117234E+04 0.  0.
        4    1    3    3  502    0 -0.58408942165E+03  0.15851564543E+04  0.43894878230E+03  0.17454395102E+04  0.12699999809E+01 0. -1.
       -4    1    3    3    0  502  0.58408942165E+03 -0.15851564543E+04 -0.81947504701E+03  0.18776108230E+04  0.12699999809E+01 0.  1.
</event>
<event>
 5   0  0.1021087E-07  0.3594334E+04  0.7818609E-02  0.8091791E-01
        2   -1    0    0  501    0  0.00000000000E+00  0.00000000000E+00  0.22563472559E+04  0.22563472559E+04  0.25500000920E-02 0. -1.
       -2   -1    0    0    0  501  0.00000000000E+00  0.00000000000E+00 -0.14314325376E+04  0.14314325376E+04  0.25500000920E-02 0.  1.
    10030    2    1    2    0    0  0.00000000000E+00  0.00000000000E+00  0.82491471826E+03  0.36877797936E+04  0.35943338066E+04 0.  0.
        3    1    3    3  502    0 -0.27296029167E+03  0.70218093112E+03  0.20865151999E+04  0.22183577418E+04  0.10100000352E+00 0. -1.
       -3    1    3    3    0  502  0.27296029167E+03 -0.70218093112E+03 -0.12616004816E+04  0.14694220518E+04  0.10100000352E+00 0.  1.
</event>
<event>
 5   0  0.3279988E-08  0.3593739E+04  0.7818609E-02  0.8091927E-01
       -1   -1    0    0    0  501  0.00000000000E+00  0.00000000000E+00  0.15296156780E+04  0.15296156780E+04  0.50400001928E-02 0. -1.
        1   -1    0    0  501    0  0.00000000000E+00  0.00000000000E+00 -0.21108182351E+04  0.21108182351E+04  0.50400001928E-02 0.  1.
    10030    2    1    2    0    0  0.00000000000E+00  0.00000000000E+00 -0.58120255716E+03  0.36404339131E+04  0.35937393705E+04 0.  0.
        5    1    3    3  502    0 -0.11124341203E+04 -0.13972759427E+04 -0.49021197222E+03  0.18520852031E+04  0.46999998093E+01 0. -1.
       -5    1    3    3    0  502  0.11124341203E+04  0.13972759427E+04 -0.90990584940E+02  0.17883487100E+04  0.46999998093E+01 0.  1.
</event>
<event>
 5   0  0.3202875E-08  0.3611695E+04  0.7818609E-02  0.8087818E-01
        1   -1    0    0  501    0  0.00000000000E+00  0.00000000000E+00  0.14434031814E+04  0.14434031814E+04  0.50400001928E-02 0. -1.
       -1   -1    0    0    0  501  0.00000000000E+00  0.00000000000E+00 -0.22593025708E+04  0.22593025708E+04  0.50400001928E-02 0.  1.
    10030    2    1    2    0    0  0.00000000000E+00  0.00000000000E+00 -0.81589938944E+03  0.37027057522E+04  0.36116946263E+04 0.  0.
        1    1    3    3  502    0 -0.96905106652E+03 -0.85261800127E+03  0.88683529324E+03  0.15660441446E+04  0.50400001928E-02 0. -1.
       -1    1    3    3    0  502  0.96905106652E+03  0.85261800127E+03 -0.17027346827E+04  0.21366616076E+04  0.50400001928E-02 0.  1.
</event>
<event>
 5   0  0.3215494E-08  0.3599445E+04  0.7818609E-02  0.8090619E-01
       -1   -1    0    0    0  501  0.00000000000E+00  0.00000000000E+00  0.14720597686E+04  0.14720597686E+04  0.50400001928E-02 0.  1.
        1   -1    0    0  501    0  0.00000000000E+00  0.00000000000E+00 -0.22003191491E+04  0.22003191491E+04  0.50400001928E-02 0. -1.
    10030    2    1    2    0    0  0.00000000000E+00  0.00000000000E+00 -0.72825938056E+03  0.36723789177E+04  0.35994451225E+04 0.  0.
        4    1    3    3  502    0  0.23319559770E+03  0.77132846053E+03 -0.20059828058E+04  0.21617808424E+04  0.12699999809E+01 0. -1.
       -4    1    3    3    0  502 -0.23319559770E+03 -0.77132846053E+03  0.12777234252E+04  0.15105980753E+04  0.12699999809E+01 0.  1.
</event>
<event>
 5   0  0.1044678E-07  0.3610830E+04  0.7818609E-02  0.8088015E-01
       -2   -1    0    0    0  501  0.00000000000E+00  0.00000000000E+00  0.19125933500E+04  0.19125933500E+04  0.25500000920E-02 0.  1.
        2   -1    0    0  501    0  0.00000000000E+00  0.00000000000E+00 -0.17042427999E+04  0.17042427999E+04  0.25500000920E-02 0. -1.
    10030    2    1    2    0    0  0.00000000000E+00  0.00000000000E+00  0.20835055010E+03  0.36168361500E+04  0.36108300686E+04 0.  0.
        2    1    3    3  502    0  0.61716601191E+03 -0.11336622042E+04  0.13685901108E+04  0.18812556368E+04  0.25500000920E-02 0.  1.
       -2    1    3    3    0  502 -0.61716601191E+03  0.11336622042E+04 -0.11602395607E+04  0.17355805132E+04  0.25500000920E-02 0. -1.
</event>
<event>
 5   0  0.1044678E-07  0.3593114E+04  0.7818609E-02  0.8092071E-01
        2   -1    0    0  501    0  0.00000000000E+00  0.00000000000E+00  0.21592025852E+04  0.21592025852E+04  0.25500000920E-02 0.  1.
       -2   -1    0    0    0  501  0.00000000000E+00  0.00000000000E+00 -0.14948187148E+04  0.14948187148E+04  0.25500000920E-02 0. -1.
    10030    2    1    2    0    0  0.00000000000E+00  0.00000000000E+00  0.66438387046E+03  0.36540213000E+04  0.35931136544E+04 0.  0.
        2    1    3    3  502    0 -0.77813129171E+03  0.52313006231E+02 -0.13136962391E+04  0.15277508850E+04  0.25500000920E-02 0. -1.
       -2    1    3    3    0  502  0.77813129171E+03 -0.52313006231E+02  0.19780801096E+04  0.21262704150E+04  0.25500000920E-02 0.  1.
</event>
<event>
 5   0  0.1044678E-07  0.3600213E+04  0.7818609E-02  0.8090443E-01
       -2   -1    0    0    0  501  0.00000000000E+00  0.00000000000E+00  0.22683111450E+04  0.22683111450E+04  0.25500000920E-02 0. -1.
        2   -1    0    0  501    0  0.00000000000E+00  0.00000000000E+00 -0.14285443117E+04  0.14285443117E+04  0.25500000920E-02 0.  1.
    10030    2    1    2    0    0  0.00000000000E+00  0.00000000000E+00  0.83976683333E+03  0.36968554567E+04  0.36002127623E+04 0.  0.
        2    1    3    3  502    0 -0.82349690456E+03 -0.16006773846E+04  0.42833491593E+03  0.18503475461E+04  0.25500000920E-02 0.  1.
       -2    1    3    3    0  502  0.82349690456E+03  0.16006773846E+04  0.41143191740E+03  0.18465079106E+04  0.25500000920E-02 0. -1.
</event>
<event>
 5   0  0.3202875E-08  0.3601446E+04  0.7818609E-02  0.8090161E-01
        1   -1    0    0  501    0  0.00000000000E+00  0.00000000000E+00  0.19199539610E+04  0.19199539610E+04  0.50400001928E-02 0.  1.
       -1   -1    0    0    0  501  0.00000000000E+00  0.00000000000E+00 -0.16888959518E+04  0.16888959519E+04  0.50400001928E-02 0. -1.
    10030    2    1    2    0    0  0.00000000000E+00  0.00000000000E+00  0.23105800912E+03  0.36088499128E+04  0.36014455278E+04 0.  0.
        2    1    3    3  502    0  0.43872800783E+03  0.16462513902E+04 -0.46874486370E+03  0.17670165964E+04  0.25500000920E-02 0. -1.
       -2    1    3    3    0  502 -0.43872800783E+03 -0.16462513902E+04  0.69980287282E+03  0.18418333164E+04  0.25500000920E-02 0.  1.
</event>
<event>
 5   0  0.3215494E-08  0.3599416E+04  0.7818609E-02  0.8090625E-01
       -1   -1    0    0    0  501  0.00000000000E+00  0.00000000000E+00  0.19134573593E+04  0.19134573593E+04  0.50400001928E-02 0. -1.
        1   -1    0    0  501    0  0.00000000000E+00  0.00000000000E+00 -0.16927208949E+04  0.16927208949E+04  0.50400001928E-02 0.  1.
    10030    2    1    2    0    0  0.00000000000E+00  0.00000000000E+00  0.22073646442E+03  0.36061782543E+04  0.35994162047E+04 0.  0.
        4    1    3    3  502    0  0.16183239441E+04 -0.60733957990E+03 -0.39168583353E+03  0.17723580785E+04  0.12699999809E+01 0.  1.
       -4    1    3    3    0  502 -0.16183239441E+04  0.60733957990E+03  0.61242229794E+03  0.18338201758E+04  0.12699999809E+01 0. -1.
</event>
<event>
 5   0  0.3212523E-08  0.3599474E+04  0.7818609E-02  0.8090612E-01
       -1   -1    0    0    0  501  0.00000000000E+00  0.00000000000E+00  0.10766334807E+04  0.10766334807E+04  0.50400001928E-02 0.  1.
        1   -1    0    0  501    0  0.00000000000E+00  0.00000000000E+00 -0.30085014576E+04  0.30085014576E+04  0.50400001928E-02 0. -1.
    10030    2    1    2    0    0  0.00000000000E+00  0.00000000000E+00 -0.19318679769E+04  0.40851349384E+04  0.35994740705E+04 0.  0.
        3    1    3    3  502    0 -0.45846654398E+03  0.67153686301E+03  0.85628427486E+03  0.11808370336E+04  0.10100000352E+00 0.  1.
       -3    1    3    3    0  502  0.45846654398E+03 -0.67153686301E+03 -0.27881522518E+04  0.29042979048E+04  0.10100000352E+00 0. -1.
</event>
<event>
 5   0  0.9905335E-08  0.3600797E+04  0.7818609E-02  0.8090309E-01
        2   -1    0    0  501    0  0.00000000000E+00  0.00000000000E+00  0.28205807603E+04  0.28205807603E+04  0.25500000920E-02 0.  1.
       -2   -1    0    0    0  501  0.00000000000E+00  0.00000000000E+00 -0.11492085822E+04  0.11492085822E+04  0.25500000920E-02 0. -1.
    10030    2    1    2    0    0  0.00000000000E+00  0.00000000000E+00  0.16713721781E+04  0.39697893424E+04  0.36007974763E+04 0.  0.
        5    1    3    3  502    0 -0.15935997719E+04  0.83102883601E+03  0.71878023119E+03  0.19356746292E+04  0.46999998093E+01 0.  1.
       -5    1    3    3    0  502  0.15935997719E+04 -0.83102883601E+03  0.95259194691E+03  0.20341147132E+04  0.46999998093E+01 0. -1.
</event>
<event>
 5   0  0.3215494E-08  0.3603003E+04  0.7818609E-02  0.8089804E-01
       -1   -1    0    0    0  501  0.00000000000E+00  0.00000000000E+00  0.11757501378E+04  0.11757501378E+04  0.50400001928E-02 0.  1.
        1   -1    0    0  501    0  0.00000000000E+00  0.00000000000E+00 -0.27602868386E+04  0.27602868387E+04  0.50400001928E-02 0. -1.
    10030    2    1    2    0    0  0.00000000000E+00  0.00000000000E+00 -0.15845367008E+04  0.39360369765E+04  0.36030029869E+04 0.  0.
        4    1    3    3  502    0  0.82740466056E+03  0.11934827784E+04  0.37229034813E+03  0.14992002304E+04  0.12699999809E+01 0.  1.
       -4    1    3    3    0  502 -0.82740466056E+03 -0.11934827784E+04 -0.19568270490E+04  0.24368367461E+04  0.12699999809E+01 0. -1.
</event>
<event>
 5   0  0.9905335E-08  0.3604104E+04  0.7818609E-02  0.8089552E-01
       -2   -1    0    0    0  501  0.00000000000E+00  0.00000000000E+00  0.14732112161E+04  0.14732112161E+04  0.25500000920E-02 0. -1.
        2   -1    0    0  501    0  0.00000000000E+00  0.00000000000E+00 -0.22042946355E+04  0.22042946355E+04  0.25500000920E-02 0.  1.
    10030    2    1    2    0    0  0.00000000000E+00  0.00000000000E+00 -0.73108341947E+03  0.36775058516E+04  0.36041040943E+04 0.  0.
        5    1    3    3  502    0 -0.19024125525E+03 -0.17837205549E+04 -0.54085100164E+03  0.18736041869E+04  0.46999998093E+01 0.  1.
       -5    1    3    3    0  502  0.19024125525E+03  0.17837205549E+04 -0.19023241782E+03  0.18039016647E+04  0.46999998093E+01 0. -1.
</event>
<event>
 5   0  0.3215494E-08  0.3605378E+04  0.7818609E-02  0.8089261E-01
        1   -1    0    0  501    0  0.00000000000E+00  0.00000000000E+00  0.16622043997E+04  0.16622043997E+04  0.50400001928E-02 0. -1.
       -1   -1    0    0    0  501  0.00000000000E+00  0.00000000000E+00 -0.19550472050E+04  0.19550472050E+04  0.50400001928E-02 0.  1.
    10030    2    1    2    0    0  0.00000000000E+00  0.00000000000E+00 -0.29284280531E+03  0.36172516048E+04  0.36053782414E+04 0.  0.
        4    1    3    3  502    0 -0.48564595163E+03 -0.14251227300E+04  0.84823627979E+03  0.17281010344E+04  0.12699999809E+01 0. -1.
       -4    1    3    3    0  502  0.48564595163E+03  0.14251227300E+04 -0.11410790851E+04  0.18891505703E+04  0.12699999809E+01 0.  1.
</event>
<event>
 5   0  0.3202875E-08  0.3594006E+04  0.7818609E-02  0.8091866E-01
        3   -1    0    0  501    0  0.00000000000E+00  0.00000000000E+00  0.30726178093E+04  0.30726178110E+04  0.10100000352E+00 0. -1.
       -3   -1    0    0    0  501  0.00000000000E+00  0.00000000000E+00 -0.10509671207E+04  0.10509671256E+04  0.10100000352E+00 0.  1.
    10030    2    1    2    0    0  0.00000000000E+00  0.00000000000E+00  0.20216506886E+04  0.41235849365E+04  0.35940062913E+04 0.  0.
        1    1    3    3  502    0  0.71055732088E+03  0.10611387415E+03 -0.87902096382E+03  0.11352663632E+04  0.50400001928E-02 0.  1.
       -1    1    3    3    0  502 -0.71055732088E+03 -0.10611387415E+03  0.29006716524E+04  0.29883185733E+04  0.50400001928E-02 0. -1.
</event>
<event>
 5   0  0.3212523E-08  0.3610440E+04  0.7818609E-02  0.8088104E-01
       -1   -1    0    0    0  501  0.00000000000E+00  0.00000000000E+00  0.20906485314E+04  0.20906485314E+04  0.50400001928E-02 0. -1.
        1   -1    0    0  501    0  0.00000000000E+00  0.00000000000E+00 -0.15587602120E+04  0.15587602120E+04  0.50400001928E-02 0.  1.
    10030    2    1    2    0    0  0.00000000000E+00  0.00000000000E+00  0.53188831941E+03  0.36494087433E+04  0.36104402767E+04 0.  0.
        3    1    3    3  502    0 -0.54927391354E+03 -0.16476124367E+04  0.76369305162E+03  0.18972494989E+04  0.10100000352E+00 0. -1.
       -3    1    3    3    0  502  0.54927391354E+03  0.16476124367E+04 -0.23180473222E+03  0.17521592444E+04  0.10100000352E+00 0.  1.
</event>
<event>
 5   0  0.3212523E-08  0.3608337E+04  0.7818609E-02  0.8088585E-01
       -1   -1    0    0    0  501  0.00000000000E+00  0.00000000000E+00  0.20688128941E+04  0.20688128941E+04  0.50400001928E-02 0.  1.
        1   -1    0    0  501    0  0.00000000000E+00  0.00000000000E+00 -0.15733780256E+04  0.15733780256E+04  0.50400001928E-02 0. -1.
    10030    2    1    2    0    0  0.00000000000E+00  0.00000000000E+00  0.49543486858E+03  0.36421909197E+04  0.36083374269E+04 0.  0.
        3    1    3    3  502    0  0.27602239231E+03 -0.13762957291E+04  0.13917736721E+04  0.19767175468E+04  0.10100000352E+00 0.  1.
       -3    1    3    3    0  502 -0.27602239231E+03  0.13762957291E+04 -0.89633880353E+03  0.16654733730E+04  0.10100000352E+00 0. -1.
</event>
<event>
 5   0  0.1029908E-07  0.3607578E+04  0.7818609E-02  0.8088758E-01
       -2   -1    0    0    0  501  0.00000000000E+00  0.00000000000E+00  0.19685156411E+04  0.19685156411E+04  0.25500000920E-02 0.  1.
        2   -1    0    0  501    0  0.00000000000E+00  0.00000000000E+00 -0.16528471506E+04  0.16528471506E+04  0.25500000920E-02 0. -1.
    10030    2    1    2    0    0  0.00000000000E+00  0.00000000000E+00  0.31566849052E+03  0.36213627918E+04  0.36075783947E+04 0.  0.
        4    1    3    3  502    0 -0.17798326190E+04 -0.15359685193E+03  0.40830258225E+03  0.18325143263E+04  0.12699999809E+01 0. -1.
       -4    1    3    3    0  502  0.17798326190E+04  0.15359685193E+03 -0.92634091737E+02  0.17888484655E+04  0.12699999809E+01 0.  1.
</event>
<event>
 5   0  0.1044678E-07  0.3595671E+04  0.7818609E-02  0.8091484E-01
        2   -1    0    0  501    0  0.00000000000E+00  0.00000000000E+00  0.16289885521E+04  0.16289885521E+04  0.25500000920E-02 0. -1.
       -2   -1    0    0    0  501  0.00000000000E+00  0.00000000000E+00 -0.19841831836E+04  0.19841831836E+04  0.25500000920E-02 0.  1.
    10030    2    1    2    0    0  0.00000000000E+00  0.00000000000E+00 -0.35519463142E+03  0.36131717357E+04  0.35956705585E+04 0.  0.
        2    1    3    3  502    0 -0.10551660457E+03 -0.93047798167E+02  0.16234489688E+04  0.16295331236E+04  0.25500000920E-02 0. -1.
       -2    1    3    3    0  502  0.10551660457E+03  0.93047798167E+02 -0.19786436002E+04  0.19836386121E+04  0.25500000920E-02 0.  1.
</event>
<event>
 5   0  0.3212523E-08  0.3596172E+04  0.7818609E-02  0.8091369E-01
       -1   -1    0    0    0  501  0.00000000000E+00  0.00000000000E+00  0.18801861646E+04  0.18801861646E+04  0.50400001928E-02 0.  1.
        1   -1    0    0  501    0  0.00000000000E+00  0.00000000000E+00 -0.17195707411E+04  0.17195707411E+04  0.50400001928E-02 0. -1.
    10030    2    1    2    0    0  0.00000000000E+00  0.00000000000E+00  0.16061542353E+03  0.35997569057E+04  0.35961719183E+04 0.  0.
        3    1    3    3  502    0  0.74644736438E+01  0.14611208571E+04 -0.96867934994E+03  0.17530743198E+04  0.10100000352E+00 0. -1.
       -3    1    3    3    0  502 -0.74644736438E+01 -0.14611208571E+04  0.11292947735E+04  0.18466825859E+04  0.10100000352E+00 0.  1.
</event>
<event>
 5   0  0.1021087E-07  0.3604198E+04  0.7818609E-02  0.8089531E-01
        2   -1    0    0  501    0  0.00000000000E+00  0.00000000000E+00  0.25760174590E+04  0.25760174590E+04  0.25500000920E-02 0. -1.
       -2   -1    0    0    0  501  0.00000000000E+00  0.00000000000E+00 -0.12606903517E+04  0.12606903517E+04  0.25500000920E-02 0.  1.
    10030    2    1    2    0    0  0.00000000000E+00  0.00000000000E+00  0.13153271074E+04  0.38367078107E+04  0.36041977506E+04 0.  0.
        3    1    3    3  502    0  0.67548208779E+03 -0.12426100901E+04  0.18464913267E+04  0.23259161887E+04  0.10100000352E+00 0. -1.
       -3    1    3    3    0  502 -0.67548208779E+03  0.12426100901E+04 -0.53116421937E+03  0.15107916220E+04  0.10100000352E+00 0.  1.
</event>
<event>
 5   0  0.3202875E-08  0.3599804E+04  0.7818609E-02  0.8090537E-01
        1   -1    0    0  501    0  0.00000000000E+00  0.00000000000E+00  0.22912405823E+04  0.22912405823E+04  0.50400001928E-02 0.  1.
       -1   -1    0    0    0  501  0.00000000000E+00  0.00000000000E+00 -0.14139271704E+04  0.14139271704E+04  0.50400001928E-02 0. -1.
    10030    2    1    2    0    0  0.00000000000E+00  0.00000000000E+00  0.87731341187E+03  0.37051677527E+04  0.35998040576E+04 0.  0.
        1    1    3    3  502    0 -0.38389874926E+02  0.14287040927E+04  0.15647441708E+04  0.21192200186E+04  0.50400001928E-02 0.  1.
       -1    1    3    3    0  502  0.38389874926E+02 -0.14287040927E+04 -0.68743075889E+03  0.15859477341E+04  0.50400001928E-02 0. -1.
</event>
<event>
 5   0  0.3215494E-08  0.3592735E+04  0.7818609E-02  0.8092158E-01
       -1   -1    0    0    0  501  0.00000000000E+00  0.00000000000E+00  0.14507366254E+04  0.14507366254E+04  0.50400001928E-02 0. -1.
        1   -1    0    0  501    0  0.00000000000E+00  0.00000000000E+00 -0.22243428054E+04  0.22243428054E+04  0.50400001928E-02 0.  1.
    10030    2    1    2    0    0  0.00000000000E+00  0.00000000000E+00 -0.77360618007E+03  0.36750794308E+04  0.35927346550E+04 0.  0.
        4    1    3    3  502    0 -0.70702065541E+03 -0.13485288718E+04  0.58820940283E+03  0.16322990657E+04  0.12699999809E+01 0. -1.
       -4    1    3    3    0  502  0.70702065541E+03  0.13485288718E+04 -0.13618155829E+04  0.20427803651E+04  0.12699999809E+01 0.  1.
</event>
<event>
 5   0  0.3279988E-08  0.3600100E+04  0.7818609E-02  0.8090469E-01
        1   -1    0    0  501    0  0.00000000000E+00  0.00000000000E+00  0.12253538378E+04  0.12253538379E+04  0.50400001928E-02 0. -1.
       -1   -1    0    0    0  501  0.00000000000E+00  0.00000000000E+00 -0.26442810046E+04  0.26442810046E+04  0.50400001928E-02 0.  1.
    10030    2    1    2    0    0  0.00000000000E+00  0.00000000000E+00 -0.14189271668E+04  0.38696348425E+04  0.36000999305E+04 0.  0.
        5    1    3    3  502    0 -0.17716044265E+04 -0.31820663225E+03 -0.69023326246E+03  0.19277660001E+04  0.46999998093E+01 0.  1.
       -5    1    3    3    0  502  0.17716044265E+04  0.31820663225E+03 -0.72869390430E+03  0.19418688423E+04  0.46999998093E+01 0. -1.
</event>
<event>
 5   0  0.1021087E-07  0.3603233E+04  0.7818609E-02  0.8089751E-01
        2   -1    0    0  501    0  0.00000000000E+00  0.00000000000E+00  0.21667498799E+04  0.21667498799E+04  0.25500000920E-02 0.  1.
       -2   -1    0    0    0  501  0.00000000000E+00  0.00000000000E+00 -0.14980143509E+04  0.14980143509E+04  0.25500000920E-02 0. -1.
    10030    2    1    2    0    0  0.00000000000E+00  0.00000000000E+00  0.66873552908E+03  0.36647642308E+04  0.36032332230E+04 0.  0.
        3    1    3    3  502    0  0.10249670346E+04 -0.50763159798E+03  0.17501059431E+04  0.20907219049E+04  0.10100000352E+00 0.  1.
       -3    1    3    3    0  502 -0.10249670346E+04  0.50763159798E+03 -0.10813704140E+04  0.15740423259E+04  0.10100000352E+00 0. -1.
</event>
<event>
 5   0  0.3202875E-08  0.3601129E+04  0.7818609E-02  0.8090233E-01
        1   -1    0    0  501    0  0.00000000000E+00  0.00000000000E+00  0.15694276477E+04  0.15694276477E+04  0.50400001928E-02 0. -1.
       -1   -1    0    0    0  501  0.00000000000E+00  0.00000000000E+00 -0.20657414970E+04  0.20657414970E+04  0.50400001928E-02 0.  1.
    10030    2    1    2    0    0  0.00000000000E+00  0.00000000000E+00 -0.49631384930E+03  0.36351691447E+04  0.36011286111E+04 0.  0.
        1    1    3    3  502    0 -0.10384361435E+04  0.10397890499E+04  0.80212076824E+03  0.16741889437E+04  0.50400001928E-02 0. -1.
       -1    1    3    3    0  502  0.10384361435E+04 -0.10397890499E+04 -0.12984346175E+04  0.19609802009E+04  0.50400001928E-02 0.  1.
</event>
<event>
 5   0  0.1017794E-07  0.3597469E+04  0.7818609E-02  0.8091072E-01
       -2   -1    0    0    0  501  0.00000000000E+00  0.00000000000E+00  0.18880519652E+04  0.18880519652E+04  0.25500000920E-02 0. -1.
        2   -1    0    0  501    0  0.00000000000E+00  0.00000000000E+00 -0.17136427771E+04  0.17136427771E+04  0.25500000920E-02 0.  1.
    10030    2    1    2    0    0  0.00000000000E+00  0.00000000000E+00  0.17440918816E+03  0.36016947423E+04  0.35974694511E+04 0.  0.
        1    1    3    3  502    0  0.71381315616E+03  0.59753611677E+03  0.16281250340E+04  0.18754652114E+04  0.50400001928E-02 0. -1.
       -1    1    3    3    0  502 -0.71381315616E+03 -0.59753611677E+03 -0.14537158459E+04  0.17262295309E+04  0.50400001928E-02 0.  1.
</event>
<event>
 5   0  0.3215494E-08  0.3600216E+04  0.7818609E-02  0.8090442E-01
        1   -1    0    0  501    0  0.00000000000E+00  0.00000000000E+00  0.11672868933E+04  0.11672868933E+04  0.50400001928E-02 0. -1.
       -1   -1    0    0    0  501  0.00000000000E+00  0.00000000000E+00 -0.27760006457E+04  0.27760006457E+04  0.50400001928E-02 0.  1.
    10030    2    1    2    0    0  0.00000000000E+00  0.00000000000E+00 -0.16087137524E+04  0.39432875390E+04  0.36002161988E+04 0.  0.
        4    1    3    3  502    0 -0.79561271992E+01  0.16228558273E+04 -0.16574642541E+04  0.23196796552E+04  0.12699999809E+01 0.  1.
       -4    1    3    3    0  502  0.79561271992E+01 -0.16228558273E+04  0.48750501721E+02  0.16236078838E+04  0.12699999809E+01 0. -1.
</event>
<event>
 5   0  0.3279988E-08  0.3606927E+04  0.7818609E-02  0.8088907E-01
       -1   -1    0    0    0  501  0.00000000000E+00  0.00000000000E+00  0.16100738064E+04  0.16100738064E+04  0.50400001928E-02 0.  1.
        1   -1    0    0  501    0  0.00000000000E+00  0.00000000000E+00 -0.20200821066E+04  0.20200821066E+04  0.50400001928E-02 0. -1.
    10030    2    1    2    0    0  0.00000000000E+00  0.00000000000E+00 -0.41000830023E+03  0.36301559131E+04  0.36069273831E+04 0.  0.
        5    1    3    3  502    0 -0.64056952500E+03  0.76213475872E+03  0.13084354628E+04  0.16441423774E+04  0.46999998093E+01 0.  1.
       -5    1    3    3    0  502  0.64056952500E+03 -0.76213475872E+03 -0.17184437631E+04  0.19860135356E+04  0.46999998093E+01 0. -1.
</event>
<event>
 5   0  0.3202875E-08  0.3596644E+04  0.7818609E-02  0.8091261E-01
       -1   -1    0    0    0  501  0.00000000000E+00  0.00000000000E+00  0.22341100464E+04  0.22341100464E+04  0.50400001928E-02 0. -1.
        1   -1    0    0  501    0  0.00000000000E+00  0.00000000000E+00 -0.14475396571E+04  0.14475396571E+04  0.50400001928E-02 0.  1.
    10030    2    1    2    0    0  0.00000000000E+00  0.00000000000E+00  0.78657038933E+03  0.36816497035E+04  0.35966444865E+04 0.  0.
        2    1    3    3  502    0  0.14666606808E+04 -0.25063171490E+03 -0.64056196474E+03  0.16199473571E+04  0.25500000920E-02 0.  1.
       -2    1    3    3    0  502 -0.14666606808E+04  0.25063171490E+03  0.14271323541E+04  0.20617023464E+04  0.25500000920E-02 0. -1.
</event>
<event>
 5   0  0.3215494E-08  0.3597400E+04  0.7818609E-02  0.8091088E-01
        1   -1    0    0  501    0  0.00000000000E+00  0.00000000000E+00  0.15745578516E+04  0.15745578516E+04  0.50400001928E-02 0.  1.
       -1   -1    0    0    0  501  0.00000000000E+00  0.00000000000E+00 -0.20547490575E+04  0.20547490575E+04  0.50400001928E-02 0. -1.
    10030    2    1    2    0    0  0.00000000000E+00  0.00000000000E+00 -0.48019120589E+03  0.36293069091E+04  0.35973997618E+04 0.  0.
        4    1    3    3  502    0 -0.11326095478E+04 -0.65136448592E+03  0.10070889228E+04  0.16496392917E+04  0.12699999809E+01 0.  1.
       -4    1    3    3    0  502  0.11326095478E+04  0.65136448592E+03 -0.14872801287E+04  0.19796676174E+04  0.12699999809E+01 0. -1.
</event>
<event>
 5   0  0.3279988E-08  0.3605975E+04  0.7818609E-02  0.8089124E-01
       -1   -1    0    0    0  501  0.00000000000E+00  0.00000000000E+00  0.17825704434E+04  0.17825704434E+04  0.50400001928E-02 0. -1.
        1   -1    0    0  501    0  0.00000000000E+00  0.00000000000E+00 -0.18236386785E+04  0.18236386785E+04  0.50400001928E-02 0.  1.
    10030    2    1    2    0    0  0.00000000000E+00  0.00000000000E+00 -0.41068235107E+02  0.36062091219E+04  0.36059752676E+04 0.  0.
        5    1    3    3  502    0  0.98425389200E+03 -0.21300597584E+03  0.14750945646E+04  0.17860720406E+04  0.46999998093E+01 0. -1.
       -5    1    3    3    0  502 -0.98425389200E+03  0.21300597584E+03 -0.15161627997E+04  0.18201370813E+04  0.46999998093E+01 0.  1.
</event>
<event>
 5   0  0.1044678E-07  0.3604512E+04  0.7818609E-02  0.8089459E-01
        2   -1    0    0  501    0  0.00000000000E+00  0.00000000000E+00  0.16844061001E+04  0.16844061001E+04  0.25500000920E-02 0.  1.
       -2   -1    0    0    0  501  0.00000000000E+00  0.00000000000E+00 -0.19283508113E+04  0.19283508113E+04  0.25500000920E-02 0. -1.
    10030    2    1    2    0    0  0.00000000000E+00  0.00000000000E+00 -0.24394471117E+03  0.36127569113E+04  0.36045115450E+04 0.  0.
        2    1    3    3  502    0 -0.28942684501E+03  0.15603687723E+04 -0.97809679469E+03  0.18641866709E+04  0.25500000920E-02 0. -1.
       -2    1    3    3    0  502  0.28942684501E+03 -0.15603687723E+04  0.73415208352E+03  0.17485702405E+04  0.25500000920E-02 0.  1.
</event>
<event>
 5   0  0.3202875E-08  0.3592607E+04  0.7818609E-02  0.8092187E-01
       -1   -1    0    0    0  501  0.00000000000E+00  0.00000000000E+00  0.15420800744E+04  0.15420800744E+04  0.50400001928E-02 0. -1.
        1   -1    0    0  501    0  0.00000000000E+00  0.00000000000E+00 -0.20924371827E+04  0.20924371827E+04  0.50400001928E-02 0.  1.
    10030    2    1    2    0    0  0.00000000000E+00  0.00000000000E+00 -0.55035710835E+03  0.36345172571E+04  0.35926066784E+04 0.  0.
        1    1    3    3  502    0  0.11021855155E+04 -0.13246095661E+04  0.23798862705E+03  0.17395522412E+04  0.50400001928E-02 0. -1.
       -1    1    3    3    0  502 -0.11021855155E+04  0.13246095661E+04 -0.78834573541E+03  0.18949650160E+04  0.50400001928E-02 0.  1.
</event>
<event>
 5   0  0.3202875E-08  0.3605082E+04  0.7818609E-02  0.8089329E-01
        1   -1    0    0  501    0  0.00000000000E+00  0.00000000000E+00  0.16598174712E+04  0.16598174712E+04  0.50400001928E-02 0.  1.
       -1   -1    0    0    0  501  0.00000000000E+00  0.00000000000E+00 -0.19575372174E+04  0.19575372174E+04  0.50400001928E-02 0. -1.
    10030    2    1    2    0    0  0.00000000000E+00  0.00000000000E+00 -0.29771974623E+03  0.36173546886E+04  0.36050822315E+04 0.  0.
        1    1    3    3  502    0  0.35251450325E+03  0.20571557559E+03 -0.19105613941E+04  0.19536709584E+04  0.50400001928E-02 0. -1.
       -1    1    3    3    0  502 -0.35251450325E+03 -0.20571557559E+03  0.16128416479E+04  0.16636837302E+04  0.50400001928E-02 0.  1.
</event>
<event>
 5   0  0.3202875E-08  0.3601268E+04  0.7818609E-02  0.8090201E-01
        1   -1    0    0  501    0  0.00000000000E+00  0.00000000000E+00  0.19718695230E+04  0.19718695230E+04  0.50400001928E-02 0. -1.
       -1   -1    0    0    0  501  0.00000000000E+00  0.00000000000E+00 -0.16442680858E+04  0.16442680858E+04  0.50400001928E-02 0.  1.
    10030    2    1    2    0    0  0.00000000000E+00  0.00000000000E+00  0.32760143720E+03  0.36161376089E+04  0.36012676247E+04 0.  0.
        1    1    3    3  502    0  0.10791424507E+04  0.13907161651E+04  0.54436729626E+03  0.18425459652E+04  0.50400001928E-02 0.  1.
       -1    1    3    3    0  502 -0.10791424507E+04 -0.13907161651E+04 -0.21676585906E+03  0.17735916437E+04  0.50400001928E-02 0. -1.
</event>
<event>
 5   0  0.1029908E-07  0.3612852E+04  0.7818609E-02  0.8087554E-01
        2   -1    0    0  501    0  0.00000000000E+00  0.00000000000E+00  0.24317765756E+04  0.24317765756E+04  0.25500000920E-02 0. -1.
       -2   -1    0    0    0  501  0.00000000000E+00  0.00000000000E+00 -0.13418895413E+04  0.13418895413E+04  0.25500000920E-02 0.  1.
    10030    2    1    2    0    0  0.00000000000E+00  0.00000000000E+00  0.10898870343E+04  0.37736661170E+04  0.36128523655E+04 0.  0.
        4    1    3    3  502    0  0.14353419777E+04 -0.96339251115E+03 -0.26458152735E+01  0.17286816760E+04  0.12699999809E+01 0. -1.
       -4    1    3    3    0  502 -0.14353419777E+04  0.96339251115E+03  0.10925328496E+04  0.20449844410E+04  0.12699999809E+01 0.  1.
</event>
<event>
 5   0  0.3212523E-08  0.3607886E+04  0.7818609E-02  0.8088688E-01
       -1   -1    0    0    0  501  0.00000000000E+00  0.00000000000E+00  0.22035891807E+04  0.22035891807E+04  0.50400001928E-02 0.  1.
        1   -1    0    0  501    0  0.00000000000E+00  0.00000000000E+00 -0.14767775716E+04  0.14767775716E+04  0.50400001928E-02 0. -1.
    10030    2    1    2    0    0  0.00000000000E+00  0.00000000000E+00  0.72681160913E+03  0.36803667524E+04  0.36078864057E+04 0.  0.
        3    1    3    3  502    0  0.12498186852E+03 -0.50800959476E+03  0.21245058745E+04  0.21879715348E+04  0.10100000352E+00 0.  1.
       -3    1    3    3    0  502 -0.12498186852E+03  0.50800959476E+03 -0.13976942654E+04  0.14923952176E+04  0.10100000352E+00 0. -1.
</event>
<event>
 5   0  0.1029908E-07  0.3600458E+04  0.7818609E-02  0.8090387E-01
        2   -1    0    0  501    0  0.00000000000E+00  0.00000000000E+00  0.19752355052E+04  0.19752355052E+04  0.25500000920E-02 0. -1.
       -2   -1    0    0    0  501  0.00000000000E+00  0.00000000000E+00 -0.16407283200E+04  0.16407283200E+04  0.25500000920E-02 0.  1.
    10030    2    1    2    0    0  0.00000000000E+00  0.00000000000E+00  0.33450718512E+03  0.36159638252E+04  0.36004582109E+04 0.  0.
        4    1    3    3  502    0  0.13777635290E+04 -0.95677580260E+03  0.82365144747E+03  0.18687042565E+04  0.12699999809E+01 0. -1.
       -4    1    3    3    0  502 -0.13777635290E+04  0.95677580260E+03 -0.48914426235E+03  0.17472595687E+04  0.12699999809E+01 0.  1.
</event>
<event>
 5   0  0.1021087E-07  0.3600967E+04  0.7818609E-02  0.8090270E-01
        2   -1    0    0  501    0  0.00000000000E+00  0.00000000000E+00  0.27311314109E+04  0.27311314109E+04  0.25500000920E-02 0. -1.
       -2   -1    0    0    0  501  0.00000000000E+00  0.00000000000E+00 -0.11869587736E+04  0.11869587736E+04  0.25500000920E-02 0.  1.
    10030    2    1    2    0    0  0.00000000000E+00  0.00000000000E+00  0.15441726373E+04  0.39180901845E+04  0.36009667535E+04 0.  0.
        3    1    3    3  502    0 -0.95485157748E+03  0.10775982013E+03  0.24288030246E+04  0.26119796814E+04  0.10100000352E+00 0. -1.
       -3    1    3    3    0  502  0.95485157748E+03 -0.10775982013E+03 -0.88463038728E+03  0.13061105030E+04  0.10100000352E+00 0.  1.
</event>
<event>
 5   0  0.1017794E-07  0.3595356E+04  0.7818609E-02  0.8091556E-01
       -2   -1    0    0    0  501  0.00000000000E+00  0.00000000000E+00  0.17850657381E+04  0.17850657381E+04  0.25500000920E-02 0. -1.
        2   -1    0    0  501    0  0.00000000000E+00  0.00000000000E+00 -0.18103794084E+04  0.18103794084E+04  0.25500000920E-02 0.  1.
    10030    2    1    2    0    0  0.00000000000E+00  0.00000000000E+00 -0.25313670288E+02  0.35954451465E+04  0.35953560352E+04 0.  0.
        1    1    3    3  502    0 -0.17212979262E+03  0.19451671575E+03 -0.17915153702E+04  0.18102465965E+04  0.50400001928E-02 0.  1.
       -1    1    3    3    0  502  0.17212979262E+03 -0.19451671575E+03  0.17662016999E+04  0.17851985500E+04  0.50400001928E-02 0. -1.
</event>
<event>
 5   0  0.1029908E-07  0.3601155E+04  0.7818609E-02  0.8090227E-01
       -2   -1    0    0    0  501  0.00000000000E+00  0.00000000000E+00  0.99362653037E+03  0.99362653037E+03  0.25500000920E-02 0.  1.
        2   -1    0    0  501    0  0.00000000000E+00  0.00000000000E+00 -0.32628758084E+04  0.32628758084E+04  0.25500000920E-02 0. -1.
    10030    2    1    2    0    0  0.00000000000E+00  0.00000000000E+00 -0.22692492780E+04  0.42565023387E+04  0.36011553527E+04 0.  0.
        4    1    3    3  502    0 -0.21774733377E+03 -0.17273445657E+04 -0.59175463116E+03  0.18388334091E+04  0.12699999809E+01 0.  1.
       -4    1    3    3    0  502  0.21774733377E+03  0.17273445657E+04 -0.16774946468E+04  0.24176689296E+04  0.12699999809E+01 0. -1.
</event>
<event>
 5   0  0.3212523E-08  0.3599678E+04  0.7818609E-02  0.8090566E-01
        1   -1    0    0  501    0  0.00000000000E+00  0.00000000000E+00  0.27768908282E+04  0.27768908282E+04  0.50400001928E-02 0. -1.
       -1   -1    0    0    0  501  0.00000000000E+00  0.00000000000E+00 -0.11665635472E+04  0.11665635472E+04  0.50400001928E-02 0.  1.
    10030    2    1    2    0    0  0.00000000000E+00  0.00000000000E+00  0.16103272810E+04  0.39434543754E+04  0.35996775494E+04 0.  0.
        3    1    3    3  502    0 -0.37996626165E+03 -0.16929286756E+04  0.13294478163E+04  0.21858209824E+04  0.10100000352E+00 0. -1.
       -3    1    3    3    0  502  0.37996626165E+03  0.16929286756E+04  0.28087946469E+03  0.17576333931E+04  0.10100000352E+00 0.  1.
</event>
<event>
 5   0  0.1021087E-07  0.3600079E+04  0.7818609E-02  0.8090474E-01
        2   -1    0    0  501    0  0.00000000000E+00  0.00000000000E+00  0.19674117671E+04  0.19674117671E+04  0.25500000920E-02 0.  1.
       -2   -1    0    0    0  501  0.00000000000E+00  0.00000000000E+00 -0.16469057607E+04  0.16469057607E+04  0.25500000920E-02 0. -1.
    10030    2    1    2    0    0  0.00000000000E+00  0.00000000000E+00  0.32050600640E+03  0.36143175277E+04  0.36000787618E+04 0.  0.
        3    1    3    3  502    0 -0.15512511155E+04  0.69210251266E+03  0.75822257520E+03  0.18601847744E+04  0.10100000352E+00 0.  1.
       -3    1    3    3    0  502  0.15512511155E+04 -0.69210251266E+03 -0.43771656880E+03  0.17541327533E+04  0.10100000352E+00 0. -1.
</event>
<event>
 5   0  0.3212523E-08  0.3600106E+04  0.7818609E-02  0.8090467E-01
       -1   -1    0    0    0  501  0.00000000000E+00  0.00000000000E+00  0.11108024641E+04  0.11108024642E+04  0.50400001928E-02 0. -1.
        1   -1    0    0  501    0  0.00000000000E+00  0.00000000000E+00 -0.29169819240E+04  0.29169819240E+04  0.50400001928E-02 0.  1.
    10030    2    1    2    0    0  0.00000000000E+00  0.00000000000E+00 -0.18061794599E+04  0.40277843882E+04  0.36001059479E+04 0.  0.
        3    1    3    3  502    0  0.58503189726E+03  0.15066798903E+04 -0.17895858442E+04  0.24114236701E+04  0.10100000352E+00 0.  1.
       -3    1    3    3    0  502 -0.58503189726E+03 -0.15066798903E+04 -0.16593615615E+02  0.16163607181E+04  0.10100000352E+00 0. -1.
</event>
<event>
 5   0  0.1029908E-07  0.3601066E+04  0.7818609E-02  0.8090248E-01
        2   -1    0    0  501    0  0.00000000000E+00  0.00000000000E+00  0.21612620554E+04  0.21612620554E+04  0.25500000920E-02 0. -1.
       -2   -1    0    0    0  501  0.00000000000E+00  0.00000000000E+00 -0.15000117056E+04  0.15000117056E+04  0.25500000920E-02 0.  1.
    10030    2    1    2    0    0  0.00000000000E+00  0.00000000000E+00  0.66125034980E+03  0.36612737610E+04  0.36010656100E+04 0.  0.
        4    1    3    3  502    0 -0.40552740509E+03 -0.73025162648E+02  0.21126800702E+04  0.21524878263E+04  0.12699999809E+01 0. -1.
       -4    1    3    3    0  502  0.40552740509E+03  0.73025162648E+02 -0.14514297204E+04  0.15087859347E+04  0.12699999809E+01 0.  1.
</event>
<event>
 5   0  0.1044678E-07  0.3595477E+04  0.7818609E-02  0.8091528E-01
        2   -1    0    0  501    0  0.00000000000E+00  0.00000000000E+00  0.25146761042E+04  0.25146761042E+04  0.25500000920E-02 0.  1.
       -2   -1    0    0    0  501  0.00000000000E+00  0.00000000000E+00 -0.12852009895E+04  0.12852009895E+04  0.25500000920E-02 0. -1.
    10030    2    1    2    0    0  0.00000000000E+00  0.00000000000E+00  0.12294751147E+04  0.37998770937E+04  0.35954772798E+04 0.  0.
        2    1    3    3  502    0  0.10406097907E+04 -0.12122498834E+04 -0.25640730255E+03  0.16180739233E+04  0.25500000920E-02 0. -1.
       -2    1    3    3    0  502 -0.10406097907E+04  0.12122498834E+04  0.14858824172E+04  0.21818031704E+04  0.25500000920E-02 0.  1.
</event>
<event>
 5   0  0.1017794E-07  0.3600607E+04  0.7818609E-02  0.8090353E-01
        2   -1    0    0  501    0  0.00000000000E+00  0.00000000000E+00  0.20661563680E+04  0.20661563680E+04  0.25500000920E-02 0. -1.
       -2   -1    0    0    0  501  0.00000000000E+00  0.00000000000E+00 -0.15686581467E+04  0.15686581467E+04  0.25500000920E-02 0.  1.
    10030    2    1    2    0    0  0.00000000000E+00  0.00000000000E+00  0.49749822130E+03  0.36348145148E+04  0.36006071817E+04 0.  0.
        1    1    3    3  502    0  0.45495661745E+03 -0.90370648487E+03 -0.12544990965E+04  0.16116571961E+04  0.50400001928E-02 0.  1.
       -1    1    3    3    0  502 -0.45495661745E+03  0.90370648487E+03  0.17519973178E+04  0.20231573187E+04  0.50400001928E-02 0. -1.
</event>
<event>
 5   0  0.1021087E-07  0.3600778E+04  0.7818609E-02  0.8090314E-01
        2   -1    0    0  501    0  0.00000000000E+00  0.00000000000E+00  0.21258295510E+04  0.21258295510E+04  0.25500000920E-02 0. -1.
       -2   -1    0    0    0  501  0.00000000000E+00  0.00000000000E+00 -0.15247695529E+04  0.15247695529E+04  0.25500000920E-02 0.  1.
    10030    2    1    2    0    0  0.00000000000E+00  0.00000000000E+00  0.60105999812E+03  0.36505991039E+04  0.36007777904E+04 0.  0.
        3    1    3    3  502    0 -0.44877634505E+03  0.34559590857E+03 -0.14320813014E+04  0.15400303905E+04  0.10100000352E+00 0.  1.
       -3    1    3    3    0  502  0.44877634505E+03 -0.34559590857E+03  0.20331412995E+04  0.21105687133E+04  0.10100000352E+00 0. -1.
</event>
<event>
 5   0  0.1044678E-07  0.3611092E+04  0.7818609E-02  0.8087956E-01
        2   -1    0    0  501    0  0.00000000000E+00  0.00000000000E+00  0.18228927993E+04  0.18228927993E+04  0.25500000920E-02 0. -1.
       -2   -1    0    0    0  501  0.00000000000E+00  0.00000000000E+00 -0.17883642368E+04  0.17883642368E+04  0.25500000920E-02 0.  1.
    10030    2    1    2    0    0  0.00000000000E+00  0.00000000000E+00  0.34528562554E+02  0.36112570361E+04  0.36110919622E+04 0.  0.
        2    1    3    3  502    0  0.14862628941E+03  0.12208918282E+04 -0.13046621217E+04  0.17929890914E+04  0.25500000920E-02 0.  1.
       -2    1    3    3    0  502 -0.14862628941E+03 -0.12208918282E+04  0.13391906842E+04  0.18182679447E+04  0.25500000920E-02 0. -1.
</event>
<event>
 5   0  0.3215494E-08  0.3599865E+04  0.7818609E-02  0.8090523E-01
        1   -1    0    0  501    0  0.00000000000E+00  0.00000000000E+00  0.14349756191E+04  0.14349756191E+04  0.50400001928E-02 0. -1.
       -1   -1    0    0    0  501  0.00000000000E+00  0.00000000000E+00 -0.22577087069E+04  0.22577087069E+04  0.50400001928E-02 0.  1.
    10030    2    1    2    0    0  0.00000000000E+00  0.00000000000E+00 -0.82273308782E+03  0.36926843260E+04  0.35998649694E+04 0.  0.
        4    1    3    3  502    0  0.12229701446E+04 -0.50681001771E+02  0.94233072224E+03  0.15447373050E+04  0.12699999809E+01 0. -1.
       -4    1    3    3    0  502 -0.12229701446E+04  0.50681001771E+02 -0.17650638101E+04  0.21479470210E+04  0.12699999809E+01 0.  1.
</event>
<event>
 5   0  0.3202875E-08  0.3598351E+04  0.7818609E-02  0.8090869E-01
       -1   -1    0    0    0  501  0.00000000000E+00  0.00000000000E+00  0.16114706815E+04  0.16114706815E+04  0.50400001928E-02 0.  1.
        1   -1    0    0  501    0  0.00000000000E+00  0.00000000000E+00 -0.20087447721E+04  0.20087447721E+04  0.50400001928E-02 0. -1.
    10030    2    1    2    0    0  0.00000000000E+00  0.00000000000E+00 -0.39727409057E+03  0.36202154536E+04  0.35983514597E+04 0.  0.
        2    1    3    3  502    0 -0.11524273072E+03  0.16424628360E+04 -0.92834971174E+03  0.18901847111E+04  0.25500000920E-02 0. -1.
       -2    1    3    3    0  502  0.11524273072E+03 -0.16424628360E+04  0.53107562117E+03  0.17300307425E+04  0.25500000920E-02 0.  1.
</event>
<event>
 5   0  0.3215494E-08  0.3601832E+04  0.7818609E-02  0.8090072E-01
        1   -1    0    0  501    0  0.00000000000E+00  0.00000000000E+00  0.16187799054E+04  0.16187799054E+04  0.50400001928E-02 0. -1.
       -1   -1    0    0    0  501  0.00000000000E+00  0.00000000000E+00 -0.20035452462E+04  0.20035452462E+04  0.50400001928E-02 0.  1.
    10030    2    1    2    0    0  0.00000000000E+00  0.00000000000E+00 -0.38476534082E+03  0.36223251517E+04  0.36018321917E+04 0.  0.
        4    1    3    3  502    0  0.57596171389E+03  0.14822139031E+04  0.65777143482E+03  0.17208587460E+04  0.12699999809E+01 0. -1.
       -4    1    3    3    0  502 -0.57596171389E+03 -0.14822139031E+04 -0.10425367756E+04  0.19014664057E+04  0.12699999809E+01 0.  1.
</event>
<event>
 5   0  0.3279988E-08  0.3614460E+04  0.7818609E-02  0.8087187E-01
       -1   -1    0    0    0  501  0.00000000000E+00  0.00000000000E+00  0.17088616833E+04  0.17088616833E+04  0.50400001928E-02 0. -1.
        1   -1    0    0  501    0  0.00000000000E+00  0.00000000000E+00 -0.19112608116E+04  0.19112608116E+04  0.50400001928E-02 0.  1.
    10030    2    1    2    0    0  0.00000000000E+00  0.00000000000E+00 -0.20239912830E+03  0.36201224949E+04  0.36144600525E+04 0.  0.
        5    1    3    3  502    0 -0.72503813519E+03  0.13694670138E+04  0.83027788550E+03  0.17579828374E+04  0.46999998093E+01 0. -1.
       -5    1    3    3    0  502  0.72503813519E+03 -0.13694670138E+04 -0.10326770138E+04  0.18621396575E+04  0.46999998093E+01 0.  1.
</event>
<event>
 5   0  0.3279988E-08  0.3587826E+04  0.7818609E-02  0.8093286E-01
        1   -1    0    0  501    0  0.00000000000E+00  0.00000000000E+00  0.20727147688E+04  0.20727147688E+04  0.50400001928E-02 0. -1.
       -1   -1    0    0    0  501  0.00000000000E+00  0.00000000000E+00 -0.15526129485E+04  0.15526129486E+04  0.50400001928E-02 0.  1.
    10030    2    1    2    0    0  0.00000000000E+00  0.00000000000E+00  0.52010182026E+03  0.36253277174E+04  0.35878259650E+04 0.  0.
        5    1    3    3  502    0 -0.14488233847E+04  0.96639626208E+03 -0.17466774360E+03  0.17502976450E+04  0.46999998093E+01 0.  1.
       -5    1    3    3    0  502  0.14488233847E+04 -0.96639626208E+03  0.69476956386E+03  0.18750300724E+04  0.46999998093E+01 0. -1.
</event>
<event>
 5   0  0.1021087E-07  0.3602978E+04  0.7818609E-02  0.8089810E-01
        2   -1    0    0  501    0  0.00000000000E+00  0.00000000000E+00  0.31603656900E+04  0.31603656900E+04  0.25500000920E-02 0. -1.
       -2   -1    0    0    0  501  0.00000000000E+00  0.00000000000E+00 -0.10268945708E+04  0.10268945708E+04  0.25500000920E-02 0.  1.
    10030    2    1    2    0    0  0.00000000000E+00  0.00000000000E+00  0.21334711193E+04  0.41872602608E+04  0.36029778622E+04 0.  0.
        3    1    3    3  502    0 -0.20520892535E+03  0.17337285768E+04  0.55034000066E+03  0.18305189449E+04  0.10100000352E+00 0.  1.
       -3    1    3    3    0  502  0.20520892535E+03 -0.17337285768E+04  0.15831311186E+04  0.23567413159E+04  0.10100000352E+00 0. -1.
</event>
<event>
 5   0  0.1021087E-07  0.3595343E+04  0.7818609E-02  0.8091559E-01
       -2   -1    0    0    0  501  0.00000000000E+00  0.00000000000E+00  0.11192889206E+04  0.11192889206E+04  0.25500000920E-02 0. -1.
        2   -1    0    0  501    0  0.00000000000E+00  0.00000000000E+00 -0.28872111234E+04  0.28872111234E+04  0.25500000920E-02 0.  1.
    10030    2    1    2    0    0  0.00000000000E+00  0.00000000000E+00 -0.17679222027E+04  0.40065000440E+04  0.35953433338E+04 0.  0.
        3    1    3    3  502    0  0.64714096081E+02  0.95628734895E+03  0.81079772827E+03  0.12554148216E+04  0.10100000352E+00 0. -1.
       -3    1    3    3    0  502 -0.64714096081E+02 -0.95628734895E+03 -0.25787199310E+04  0.27510852224E+04  0.10100000352E+00 0.  1.
</event>
<event>
 5   0  0.3202875E-08  0.3606937E+04  0.7818609E-02  0.8088905E-01
        3   -1    0    0  501    0  0.00000000000E+00  0.00000000000E+00  0.20462348351E+04  0.20462348376E+04  0.10100000352E+00 0.  1.
       -3   -1    0    0    0  501  0.00000000000E+00  0.00000000000E+00 -0.15895040572E+04  0.15895040605E+04  0.10100000352E+00 0. -1.
    10030    2    1    2    0    0  0.00000000000E+00  0.00000000000E+00  0.45673077785E+03  0.36357388980E+04  0.36069369736E+04 0.  0.
        1    1    3    3  502    0  0.27188937631E+03  0.96050077547E+03  0.17423621041E+04  0.20080615714E+04  0.50400001928E-02 0.  1.
       -1    1    3    3    0  502 -0.27188937631E+03 -0.96050077547E+03 -0.12856313263E+04  0.16276773267E+04  0.50400001928E-02 0. -1.
</event>
<event>
 5   0  0.1017794E-07  0.3599425E+04  0.7818609E-02  0.8090623E-01
        2   -1    0    0  501    0  0.00000000000E+00  0.00000000000E+00  0.14844065176E+04  0.14844065176E+04  0.25500000920E-02 0.  1.
       -2   -1    0    0    0  501  0.00000000000E+00  0.00000000000E+00 -0.21819935846E+04  0.21819935846E+04  0.25500000920E-02 0. -1.
    10030    2    1    2    0    0  0.00000000000E+00  0.00000000000E+00 -0.69758706698E+03  0.36664001022E+04  0.35994252310E+04 0.  0.
        1    1    3    3  502    0  0.16207934596E+03 -0.97644230740E+03 -0.18798437722E+04  0.21245050957E+04  0.50400001928E-02 0. -1.
       -1    1    3    3    0  502 -0.16207934596E+03  0.97644230740E+03  0.11822567052E+04  0.15418950065E+04  0.50400001928E-02 0.  1.
</event>
<event>
 5   0  0.3202875E-08  0.3597977E+04  0.7818609E-02  0.8090955E-01
        1   -1    0    0  501    0  0.00000000000E+00  0.00000000000E+00  0.17863164368E+04  0.17863164368E+04  0.50400001928E-02 0.  1.
       -1   -1    0    0    0  501  0.00000000000E+00  0.00000000000E+00 -0.18117500181E+04  0.18117500181E+04  0.50400001928E-02 0. -1.
    10030    2    1    2    0    0  0.00000000000E+00  0.00000000000E+00 -0.25433581311E+02  0.35980664549E+04  0.35979765629E+04 0.  0.
        2    1    3    3  502    0 -0.54688235292E+03 -0.23357889917E+03  0.16851829333E+04  0.17870313172E+04  0.25500000920E-02 0.  1.
       -2    1    3    3    0  502  0.54688235292E+03  0.23357889917E+03 -0.17106165146E+04  0.18110351377E+04  0.25500000920E-02 0. -1.
</event>
<event>
 5   0  0.1021087E-07  0.3602301E+04  0.7818609E-02  0.8089965E-01
       -2   -1    0    0    0  501  0.00000000000E+00  0.00000000000E+00  0.14790172972E+04  0.14790172972E+04  0.25500000920E-02 0.  1.
        2   -1    0    0  501    0  0.00000000000E+00  0.00000000000E+00 -0.21934449632E+04  0.21934449632E+04  0.25500000920E-02 0. -1.
    10030    2    1    2    0    0  0.00000000000E+00  0.00000000000E+00 -0.71442766600E+03  0.36724622604E+04  0.36023009541E+04 0.  0.
        3    1    3    3  502    0  0.17676162158E+04  0.29784573816E+03 -0.17782107782E+03  0.18013327056E+04  0.10100000352E+00 0. -1.
       -3    1    3    3    0  502 -0.17676162158E+04 -0.29784573816E+03 -0.53660658817E+03  0.18711295548E+04  0.10100000352E+00 0.  1.
</event>
<event>
 5   0  0.1029908E-07  0.3591104E+04  0.7818609E-02  0.8092532E-01
        2   -1    0    0  501    0  0.00000000000E+00  0.00000000000E+00  0.19986071638E+04  0.19986071638E+04  0.25500000920E-02 0.  1.
       -2   -1    0    0    0  501  0.00000000000E+00  0.00000000000E+00 -0.16131272232E+04  0.16131272232E+04  0.25500000920E-02 0. -1.
    10030    2    1    2    0    0  0.00000000000E+00  0.00000000000E+00  0.38547994066E+03  0.36117343870E+04  0.35911043563E+04 0.  0.
        4    1    3    3  502    0 -0.13235437199E+04  0.19824500538E+03  0.13966701997E+04  0.19343625101E+04  0.12699999809E+01 0.  1.
       -4    1    3    3    0  502  0.13235437199E+04 -0.19824500538E+03 -0.10111902591E+04  0.16773718769E+04  0.12699999809E+01 0. -1.
</event>
<event>
 5   0  0.9905335E-08  0.3576448E+04  0.7818609E-02  0.8095908E-01
        2   -1    0    0  501    0  0.00000000000E+00  0.00000000000E+00  0.21303126249E+04  0.21303126249E+04  0.25500000920E-02 0. -1.
       -2   -1    0    0    0  501  0.00000000000E+00  0.00000000000E+00 -0.15010688536E+04  0.15010688536E+04  0.25500000920E-02 0.  1.
    10030    2    1    2    0    0  0.00000000000E+00  0.00000000000E+00  0.62924377122E+03  0.36313814785E+04  0.35764484784E+04 0.  0.
        5    1    3    3  502    0  0.13935927514E+04 -0.77369869531E+03 -0.50839172725E+03  0.16730793963E+04  0.46999998093E+01 0.  1.
       -5    1    3    3    0  502 -0.13935927514E+04  0.77369869531E+03  0.11376354985E+04  0.19583020822E+04  0.46999998093E+01 0. -1.
</event>
<event>
 5   0  0.3202875E-08  0.3708450E+04  0.7818609E-02  0.8066092E-01
        1   -1    0    0  501    0  0.00000000000E+00  0.00000000000E+00  0.21458616872E+04  0.21458616872E+04  0.50400001928E-02 0.  1.
       -1   -1    0    0    0  501  0.00000000000E+00  0.00000000000E+00 -0.16022238212E+04  0.16022238212E+04  0.50400001928E-02 0. -1.
    10030    2    1    2    0    0  0.00000000000E+00  0.00000000000E+00  0.54363786599E+03  0.37480855084E+04  0.37084501951E+04 0.  0.
        1    1    3    3  502    0 -0.14282641125E+04  0.96176741769E+03  0.96707797360E+03  0.19748860088E+04  0.50400001928E-02 0.  1.
       -1    1    3    3    0  502  0.14282641125E+04 -0.96176741769E+03 -0.42344010761E+03  0.17731994996E+04  0.50400001928E-02 0. -1.
</event>
<event>
 5   0  0.3212523E-08  0.3597635E+04  0.7818609E-02  0.8091034E-01
       -1   -1    0    0    0  501  0.00000000000E+00  0.00000000000E+00  0.23002514622E+04  0.23002514622E+04  0.50400001928E-02 0. -1.
        1   -1    0    0  501    0  0.00000000000E+00  0.00000000000E+00 -0.14066917346E+04  0.14066917346E+04  0.50400001928E-02 0.  1.
    10030    2    1    2    0    0  0.00000000000E+00  0.00000000000E+00  0.89355972760E+03  0.37069431968E+04  0.35976351785E+04 0.  0.
        3    1    3    3  502    0 -0.17622158953E+04 -0.56644372604E+02  0.79391844482E+02  0.17649126103E+04  0.10100000352E+00 0.  1.
       -3    1    3    3    0  502  0.17622158953E+04  0.56644372604E+02  0.81416788312E+03  0.19420305865E+04  0.10100000352E+00 0. -1.
</event>
<event>
 5   0  0.3215494E-08  0.3605255E+04  0.7818609E-02  0.8089289E-01
        1   -1    0    0  501    0  0.00000000000E+00  0.00000000000E+00  0.16912038980E+04  0.16912038980E+04  0.50400001928E-02 0. -1.
       -1   -1    0    0    0  501  0.00000000000E+00  0.00000000000E+00 -0.19213924451E+04  0.19213924451E+04  0.50400001928E-02 0.  1.
    10030    2    1    2    0    0  0.00000000000E+00  0.00000000000E+00 -0.23018854714E+03  0.36125963431E+04  0.36052552713E+04 0.  0.
        4    1    3    3  502    0 -0.38786123934E+03 -0.37323843847E+03 -0.18389814602E+04  0.19161413561E+04  0.12699999809E+01 0.  1.
       -4    1    3    3    0  502  0.38786123934E+03  0.37323843847E+03  0.16087929130E+04  0.16964549870E+04  0.12699999809E+01 0. -1.
</event>
<event>
 5   0  0.3279988E-08  0.3563206E+04  0.7818609E-02  0.8098972E-01
       -1   -1    0    0    0  501  0.00000000000E+00  0.00000000000E+00  0.18460235187E+04  0.18460235187E+04  0.50400001928E-02 0. -1.
        1   -1    0    0  501    0  0.00000000000E+00  0.00000000000E+00 -0.17194308249E+04  0.17194308249E+04  0.50400001928E-02 0.  1.
    10030    2    1    2    0    0  0.00000000000E+00  0.00000000000E+00  0.12659269381E+03  0.35654543437E+04  0.35632062762E+04 0.  0.
        5    1    3    3  502    0 -0.82798246548E+03  0.39705019911E+03 -0.14643901125E+04  0.17284861339E+04  0.46999998093E+01 0.  1.
       -5    1    3    3    0  502  0.82798246548E+03 -0.39705019911E+03  0.15909828063E+04  0.18369682097E+04  0.46999998093E+01 0. -1.
</event>
<event>
 5   0  0.1021087E-07  0.3600123E+04  0.7818609E-02  0.8090464E-01
       -2   -1    0    0    0  501  0.00000000000E+00  0.00000000000E+00  0.13187516811E+04  0.13187516811E+04  0.25500000920E-02 0.  1.
        2   -1    0    0  501    0  0.00000000000E+00  0.00000000000E+00 -0.24570366457E+04  0.24570366457E+04  0.25500000920E-02 0. -1.
    10030    2    1    2    0    0  0.00000000000E+00  0.00000000000E+00 -0.11382849646E+04  0.37757883268E+04  0.36001228907E+04 0.  0.
        3    1    3    3  502    0  0.15183531997E+04  0.50433647571E+03 -0.14342989095E+04  0.21487124265E+04  0.10100000352E+00 0. -1.
       -3    1    3    3    0  502 -0.15183531997E+04 -0.50433647571E+03  0.29601394484E+03  0.16270759003E+04  0.10100000352E+00 0.  1.
</event>
<event>
 5   0  0.3202875E-08  0.3601024E+04  0.7818609E-02  0.8090257E-01
       -1   -1    0    0    0  501  0.00000000000E+00  0.00000000000E+00  0.20619508275E+04  0.20619508275E+04  0.50400001928E-02 0. -1.
        1   -1    0    0  501    0  0.00000000000E+00  0.00000000000E+00 -0.15722214062E+04  0.15722214063E+04  0.50400001928E-02 0.  1.
    10030    2    1    2    0    0  0.00000000000E+00  0.00000000000E+00  0.48972942122E+03  0.36341722337E+04  0.36010238709E+04 0.  0.
        2    1    3    3  502    0  0.92431902978E+03 -0.13792249300E+04 -0.45812202556E+03  0.17223538738E+04  0.25500000920E-02 0.  1.
       -2    1    3    3    0  502 -0.92431902978E+03  0.13792249300E+04  0.94785144678E+03  0.19118183599E+04  0.25500000920E-02 0. -1.
</event>
<event>
 5   0  0.3215494E-08  0.3609448E+04  0.7818609E-02  0.8088331E-01
        1   -1    0    0  501    0  0.00000000000E+00  0.00000000000E+00  0.22981885456E+04  0.22981885456E+04  0.50400001928E-02 0.  1.
       -1   -1    0    0    0  501  0.00000000000E+00  0.00000000000E+00 -0.14172158307E+04  0.14172158307E+04  0.50400001928E-02 0. -1.
    10030    2    1    2    0    0  0.00000000000E+00  0.00000000000E+00  0.88097271495E+03  0.37154043763E+04  0.36094482619E+04 0.  0.
        4    1    3    3  502    0 -0.12775122852E+04  0.64514311053E+03  0.15722062634E+04  0.21260483107E+04  0.12699999809E+01 0.  1.
       -4    1    3    3    0  502  0.12775122852E+04 -0.64514311053E+03 -0.69123354845E+03  0.15893560656E+04  0.12699999809E+01 0. -1.
</event>
<event>
 5   0  0.3212523E-08  0.3599344E+04  0.7818609E-02  0.8090642E-01
        1   -1    0    0  501    0  0.00000000000E+00  0.00000000000E+00  0.25543899342E+04  0.25543899342E+04  0.50400001928E-02 0.  1.
       -1   -1    0    0    0  501  0.00000000000E+00  0.00000000000E+00 -0.12679421753E+04  0.12679421753E+04  0.50400001928E-02 0. -1.
    10030    2    1    2    0    0  0.00000000000E+00  0.00000000000E+00  0.12864477590E+04  0.38223321095E+04  0.35993436789E+04 0.  0.
        3    1    3    3  502    0 -0.60093155693E+03  0.12620312667E+02 -0.11581996888E+04  0.13048772117E+04  0.10100000352E+00 0. -1.
       -3    1    3    3    0  502  0.60093155693E+03 -0.12620312667E+02  0.24446474477E+04  0.25174548978E+04  0.10100000352E+00 0.  1.
</event>
<event>
 5   0  0.3215494E-08  0.3576667E+04  0.7818609E-02  0.8095857E-01
       -1   -1    0    0    0  501  0.00000000000E+00  0.00000000000E+00  0.13501552444E+04  0.13501552445E+04  0.50400001928E-02 0.  1.
        1   -1    0    0  501    0  0.00000000000E+00  0.00000000000E+00 -0.23687172648E+04  0.23687172648E+04  0.50400001928E-02 0. -1.
    10030    2    1    2    0    0  0.00000000000E+00  0.00000000000E+00 -0.10185620204E+04  0.37188725093E+04  0.35766666256E+04 0.  0.
        4    1    3    3  502    0 -0.12692501039E+04  0.93591474987E+03  0.36757718899E+03  0.16192735557E+04  0.12699999809E+01 0.  1.
       -4    1    3    3    0  502  0.12692501039E+04 -0.93591474987E+03 -0.13861392094E+04  0.20995989536E+04  0.12699999809E+01 0. -1.
</event>
<event>
 5   0  0.1044678E-07  0.3555209E+04  0.7818609E-02  0.8100829E-01
        2   -1    0    0  501    0  0.00000000000E+00  0.00000000000E+00  0.36023984884E+04  0.36023984884E+04  0.25500000920E-02 0. -1.
       -2   -1    0    0    0  501  0.00000000000E+00  0.00000000000E+00 -0.87715933279E+03  0.87715933279E+03  0.25500000920E-02 0.  1.
    10030    2    1    2    0    0  0.00000000000E+00  0.00000000000E+00  0.27252391556E+04  0.44795578212E+04  0.35552088290E+04 0.  0.
        2    1    3    3  502    0  0.83475032113E+03 -0.57647319558E+03 -0.47661056873E+03  0.11208421290E+04  0.25500000920E-02 0.  1.
       -2    1    3    3    0  502 -0.83475032113E+03  0.57647319558E+03  0.32018497243E+04  0.33587156922E+04  0.25500000920E-02 0. -1.
</event>
<event>
 5   0  0.9905335E-08  0.3598322E+04  0.7818609E-02  0.8090876E-01
       -2   -1    0    0    0  501  0.00000000000E+00  0.00000000000E+00  0.11588449953E+04  0.11588449953E+04  0.25500000920E-02 0. -1.
        2   -1    0    0  501    0  0.00000000000E+00  0.00000000000E+00 -0.27932817646E+04  0.27932817646E+04  0.25500000920E-02 0.  1.
    10030    2    1    2    0    0  0.00000000000E+00  0.00000000000E+00 -0.16344367693E+04  0.39521267599E+04  0.35983221609E+04 0.  0.
        5    1    3    3  502    0 -0.93944129450E+03 -0.53354675312E+03 -0.23973321008E+04  0.26295332999E+04  0.46999998093E+01 0.  1.
       -5    1    3    3    0  502  0.93944129450E+03  0.53354675312E+03  0.76289533157E+03  0.13225934600E+04  0.46999998093E+01 0. -1.
</event>
<event>
 5   0  0.1021087E-07  0.3608956E+04  0.7818609E-02  0.8088443E-01
       -2   -1    0    0    0  501  0.00000000000E+00  0.00000000000E+00  0.14277893760E+04  0.14277893760E+04  0.25500000920E-02 0. -1.
        2   -1    0    0  501    0  0.00000000000E+00  0.00000000000E+00 -0.22805468791E+04  0.22805468791E+04  0.25500000920E-02 0.  1.
    10030    2    1    2    0    0  0.00000000000E+00  0.00000000000E+00 -0.85275750319E+03  0.37083362551E+04  0.36089558631E+04 0.  0.
        3    1    3    3  502    0 -0.15683488839E+04 -0.24946058915E+03  0.45406638255E+03  0.16517036954E+04  0.10100000352E+00 0. -1.
       -3    1    3    3    0  502  0.15683488839E+04  0.24946058915E+03 -0.13068238857E+04  0.20566325597E+04  0.10100000352E+00 0.  1.
</event>
<event>
 5   0  0.9905335E-08  0.3626727E+04  0.7818609E-02  0.8084397E-01
       -2   -1    0    0    0  501  0.00000000000E+00  0.00000000000E+00  0.28233161652E+04  0.28233161652E+04  0.25500000920E-02 0.  1.
        2   -1    0    0  501    0  0.00000000000E+00  0.00000000000E+00 -0.11646895269E+04  0.11646895269E+04  0.25500000920E-02 0. -1.
    10030    2    1    2    0    0  0.00000000000E+00  0.00000000000E+00  0.16586266384E+04  0.39880056921E+04  0.36267267714E+04 0.  0.
        5    1    3    3  502    0 -0.71030753694E+03  0.13612993001E+04 -0.23145517281E+03  0.15528252215E+04  0.46999998093E+01 0. -1.
       -5    1    3    3    0  502  0.71030753694E+03 -0.13612993001E+04  0.18900818112E+04  0.24351804706E+04  0.46999998093E+01 0.  1.
</event>
<event>
 5   0  0.3215494E-08  0.3607545E+04  0.7818609E-02  0.8088766E-01
        1   -1    0    0  501    0  0.00000000000E+00  0.00000000000E+00  0.20851939391E+04  0.20851939391E+04  0.50400001928E-02 0. -1.
       -1   -1    0    0    0  501  0.00000000000E+00  0.00000000000E+00 -0.15603317993E+04  0.15603317993E+04  0.50400001928E-02 0.  1.
    10030    2    1    2    0    0  0.00000000000E+00  0.00000000000E+00  0.52486213978E+03  0.36455257383E+04  0.36075445448E+04 0.  0.
        4    1    3    3  502    0 -0.35681833807E+03 -0.13340149796E+04 -0.91025095826E+03  0.16539267553E+04  0.12699999809E+01 0.  1.
       -4    1    3    3    0  502  0.35681833807E+03  0.13340149796E+04  0.14351130980E+04  0.19915989830E+04  0.12699999809E+01 0. -1.
</event>
<event>
 5   0  0.3279988E-08  0.3600811E+04  0.7818609E-02  0.8090306E-01
       -1   -1    0    0    0  501  0.00000000000E+00  0.00000000000E+00  0.22672936187E+04  0.22672936187E+04  0.50400001928E-02 0. -1.
        1   -1    0    0  501    0  0.00000000000E+00  0.00000000000E+00 -0.14296603716E+04  0.14296603716E+04  0.50400001928E-02 0.  1.
    10030    2    1    2    0    0  0.00000000000E+00  0.00000000000E+00  0.83763324705E+03  0.36969539903E+04  0.36008109295E+04 0.  0.
        5    1    3    3  502    0  0.16828529356E+04 -0.45443521591E+03 -0.43691538339E+02  0.17436847217E+04  0.46999998093E+01 0.  1.
       -5    1    3    3    0  502 -0.16828529356E+04  0.45443521591E+03  0.88132478539E+03  0.19532692686E+04  0.46999998093E+01 0. -1.
</event>
<event>
 5   0  0.3212523E-08  0.3605866E+04  0.7818609E-02  0.8089149E-01
        1   -1    0    0  501    0  0.00000000000E+00  0.00000000000E+00  0.11149139396E+04  0.11149139396E+04  0.50400001928E-02 0.  1.
       -1   -1    0    0    0  501  0.00000000000E+00  0.00000000000E+00 -0.29155329023E+04  0.29155329023E+04  0.50400001928E-02 0. -1.
    10030    2    1    2    0    0  0.00000000000E+00  0.00000000000E+00 -0.18006189628E+04  0.40304468419E+04  0.36058664834E+04 0.  0.
        3    1    3    3  502    0  0.16390058180E+04 -0.27087314493E+03 -0.11720343419E+03  0.16653675232E+04  0.10100000352E+00 0. -1.
       -3    1    3    3    0  502 -0.16390058180E+04  0.27087314493E+03 -0.16834155286E+04  0.23650793188E+04  0.10100000352E+00 0.  1.
</event>
<event>
 5   0  0.3279988E-08  0.3581377E+04  0.7818609E-02  0.8094771E-01
       -1   -1    0    0    0  501  0.00000000000E+00  0.00000000000E+00  0.19460986266E+04  0.19460986266E+04  0.50400001928E-02 0. -1.
        1   -1    0    0  501    0  0.00000000000E+00  0.00000000000E+00 -0.16476885462E+04  0.16476885462E+04  0.50400001928E-02 0.  1.
    10030    2    1    2    0    0  0.00000000000E+00  0.00000000000E+00  0.29841008032E+03  0.35937871728E+04  0.35813765046E+04 0.  0.
        5    1    3    3  502    0 -0.59271640688E+03  0.83808673820E+03  0.16215455861E+04  0.19191493682E+04  0.46999998093E+01 0. -1.
       -5    1    3    3    0  502  0.59271640688E+03 -0.83808673820E+03 -0.13231355058E+04  0.16746378046E+04  0.46999998093E+01 0.  1.
</event>
<event>
 5   0  0.1044678E-07  0.3567776E+04  0.7818609E-02  0.8097913E-01
       -2   -1    0    0    0  501  0.00000000000E+00  0.00000000000E+00  0.12970606785E+04  0.12970606785E+04  0.25500000920E-02 0.  1.
        2   -1    0    0  501    0  0.00000000000E+00  0.00000000000E+00 -0.24534366360E+04  0.24534366360E+04  0.25500000920E-02 0. -1.
    10030    2    1    2    0    0  0.00000000000E+00  0.00000000000E+00 -0.11563759575E+04  0.37504973145E+04  0.35677758830E+04 0.  0.
        2    1    3    3  502    0 -0.36651767377E+03 -0.54327520622E+03  0.11659325582E+04  0.13374908916E+04  0.25500000920E-02 0.  1.
       -2    1    3    3    0  502  0.36651767377E+03  0.54327520622E+03 -0.23223085157E+04  0.24130064229E+04  0.25500000920E-02 0. -1.
</event>
<event>
 5   0  0.1021087E-07  0.3574073E+04  0.7818609E-02  0.8096457E-01
       -2   -1    0    0    0  501  0.00000000000E+00  0.00000000000E+00  0.12952097275E+04  0.12952097275E+04  0.25500000920E-02 0. -1.
        2   -1    0    0  501    0  0.00000000000E+00  0.00000000000E+00 -0.24656228022E+04  0.24656228022E+04  0.25500000920E-02 0.  1.
    10030    2    1    2    0    0  0.00000000000E+00  0.00000000000E+00 -0.11704130748E+04  0.37608325297E+04  0.35740725442E+04 0.  0.
        3    1    3    3  502    0  0.14778710758E+04  0.58717488846E+03  0.27263639825E+03  0.16134459650E+04  0.10100000352E+00 0.  1.
       -3    1    3    3    0  502 -0.14778710758E+04 -0.58717488846E+03 -0.14430494730E+04  0.21473865647E+04  0.10100000352E+00 0. -1.
</event>
<event>
 5   0  0.1021087E-07  0.3601100E+04  0.7818609E-02  0.8090240E-01
       -2   -1    0    0    0  501  0.00000000000E+00  0.00000000000E+00  0.16793242411E+04  0.16793242411E+04  0.25500000920E-02 0.  1.
        2   -1    0    0  501    0  0.00000000000E+00  0.00000000000E+00 -0.19305269589E+04  0.19305269589E+04  0.25500000920E-02 0. -1.
    10030    2    1    2    0    0  0.00000000000E+00  0.00000000000E+00 -0.25120271786E+03  0.36098512000E+04  0.36011002320E+04 0.  0.
        3    1    3    3  502    0 -0.13414171037E+04  0.12009622549E+04 -0.10911370996E+03  0.18037782557E+04  0.10100000352E+00 0.  1.
       -3    1    3    3    0  502  0.13414171037E+04 -0.12009622549E+04 -0.14208900791E+03  0.18060729443E+04  0.10100000352E+00 0. -1.
</event>
<event>
 5   0  0.3202875E-08  0.3600909E+04  0.7818609E-02  0.8090283E-01
       -1   -1    0    0    0  501  0.00000000000E+00  0.00000000000E+00  0.12651042439E+04  0.12651042439E+04  0.50400001928E-02 0. -1.
        1   -1    0    0  501    0  0.00000000000E+00  0.00000000000E+00 -0.25623476988E+04  0.25623476988E+04  0.50400001928E-02 0.  1.
    10030    2    1    2    0    0  0.00000000000E+00  0.00000000000E+00 -0.12972434549E+04  0.38274519427E+04  0.36009093008E+04 0.  0.
        2    1    3    3  502    0 -0.27512981897E+02  0.17964270235E+04 -0.52407515637E+03  0.18715132339E+04  0.25500000920E-02 0.  1.
       -2    1    3    3    0  502  0.27512981897E+02 -0.17964270235E+04 -0.77316829850E+03  0.19559387089E+04  0.25500000920E-02 0. -1.
</event>
<event>
 5   0  0.1029908E-07  0.3634196E+04  0.7818609E-02  0.8082703E-01
        2   -1    0    0  501    0  0.00000000000E+00  0.00000000000E+00  0.14839428681E+04  0.14839428681E+04  0.25500000920E-02 0.  1.
       -2   -1    0    0    0  501  0.00000000000E+00  0.00000000000E+00 -0.22250489645E+04  0.22250489645E+04  0.25500000920E-02 0. -1.
    10030    2    1    2    0    0  0.00000000000E+00  0.00000000000E+00 -0.74110609637E+03  0.37089918326E+04  0.36341962204E+04 0.  0.
        4    1    3    3  502    0  0.29737446114E+03 -0.91289715829E+03  0.12039330269E+04  0.15398925735E+04  0.12699999809E+01 0.  1.
       -4    1    3    3    0  502 -0.29737446114E+03  0.91289715829E+03 -0.19450391233E+04  0.21690992591E+04  0.12699999809E+01 0. -1.
</event>
<event>
 5   0  0.1021087E-07  0.3601695E+04  0.7818609E-02  0.8090104E-01
        2   -1    0    0  501    0  0.00000000000E+00  0.00000000000E+00  0.23703292089E+04  0.23703292089E+04  0.25500000920E-02 0.  1.
       -2   -1    0    0    0  501  0.00000000000E+00  0.00000000000E+00 -0.13681863265E+04  0.13681863265E+04  0.25500000920E-02 0. -1.
    10030    2    1    2    0    0  0.00000000000E+00  0.00000000000E+00  0.10021428824E+04  0.37385155354E+04  0.36016951636E+04 0.  0.
        3    1    3    3  502    0  0.54156440885E+03 -0.16796996270E+04  0.87296836101E+03  0.19689480987E+04  0.10100000352E+00 0.  1.
       -3    1    3    3    0  502 -0.54156440885E+03  0.16796996270E+04  0.12917452142E+03  0.17695674367E+04  0.10100000352E+00 0. -1.
</event>
<event>
 5   0  0.1021087E-07  0.3596103E+04  0.7818609E-02  0.8091385E-01
       -2   -1    0    0    0  501  0.00000000000E+00  0.00000000000E+00  0.11012196141E+04  0.11012196141E+04  0.25500000920E-02 0.  1.
        2   -1    0    0  501    0  0.00000000000E+00  0.00000000000E+00 -0.29358261489E+04  0.29358261489E+04  0.25500000920E-02 0. -1.
    10030    2    1    2    0    0  0.00000000000E+00  0.00000000000E+00 -0.18346065348E+04  0.40370457630E+04  0.35961030790E+04 0.  0.
        3    1    3    3  502    0  0.11230383973E+04  0.13931514545E+04 -0.11146512294E+04  0.21082062495E+04  0.10100000352E+00 0. -1.
       -3    1    3    3    0  502 -0.11230383973E+04 -0.13931514545E+04 -0.71995530537E+03  0.19288395135E+04  0.10100000352E+00 0.  1.
</event>
<event>
 5   0  0.1021087E-07  0.3590889E+04  0.7818609E-02  0.8092582E-01
        2   -1    0    0  501    0  0.00000000000E+00  0.00000000000E+00  0.23285446050E+04  0.23285446050E+04  0.25500000920E-02 0. -1.
       -2   -1    0    0    0  501  0.00000000000E+00  0.00000000000E+00 -0.13843928641E+04  0.13843928642E+04  0.25500000920E-02 0.  1.
    10030    2    1    2    0    0  0.00000000000E+00  0.00000000000E+00  0.94415174085E+03  0.37129374692E+04  0.35908887674E+04 0.  0.
        3    1    3    3  502    0  0.21669104970E+03 -0.13550264472E+03  0.23096407655E+04  0.23237376043E+04  0.10100000352E+00 0. -1.
       -3    1    3    3    0  502 -0.21669104970E+03  0.13550264472E+03 -0.13654890247E+04  0.13891998648E+04  0.10100000352E+00 0.  1.
</event>
<event>
 5   0  0.9905335E-08  0.3600359E+04  0.7818609E-02  0.8090410E-01
       -2   -1    0    0    0  501  0.00000000000E+00  0.00000000000E+00  0.16256456629E+04  0.16256456629E+04  0.25500000920E-02 0. -1.
        2   -1    0    0  501    0  0.00000000000E+00  0.00000000000E+00 -0.19934513865E+04  0.19934513865E+04  0.25500000920E-02 0.  1.
    10030    2    1    2    0    0  0.00000000000E+00  0.00000000000E+00 -0.36780572365E+03  0.36190970494E+04  0.36003586492E+04 0.  0.
        5    1    3    3  502    0  0.12508442633E+04  0.10617546909E+04 -0.92849361212E+03  0.18852206429E+04  0.46999998093E+01 0.  1.
       -5    1    3    3    0  502 -0.12508442633E+04 -0.10617546909E+04  0.56068788847E+03  0.17338764065E+04  0.46999998093E+01 0. -1.
</event>
<event>
 5   0  0.3212523E-08  0.3599406E+04  0.7818609E-02  0.8090628E-01
       -1   -1    0    0    0  501  0.00000000000E+00  0.00000000000E+00  0.16724354801E+04  0.16724354801E+04  0.50400001928E-02 0.  1.
        1   -1    0    0  501    0  0.00000000000E+00  0.00000000000E+00 -0.19366556901E+04  0.19366556901E+04  0.50400001928E-02 0. -1.
    10030    2    1    2    0    0  0.00000000000E+00  0.00000000000E+00 -0.26422020999E+03  0.36090911702E+04  0.35994064449E+04 0.  0.
        3    1    3    3  502    0  0.12100949153E+04  0.94146191293E+03  0.81289667296E+03  0.17353619936E+04  0.10100000352E+00 0.  1.
       -3    1    3    3    0  502 -0.12100949153E+04 -0.94146191293E+03 -0.10771168830E+04  0.18737291766E+04  0.10100000352E+00 0. -1.
</event>
<event>
 5   0  0.3202875E-08  0.3601563E+04  0.7818609E-02  0.8090134E-01
        1   -1    0    0  501    0  0.00000000000E+00  0.00000000000E+00  0.15607682756E+04  0.15607682756E+04  0.50400001928E-02 0. -1.
       -1   -1    0    0    0  501  0.00000000000E+00  0.00000000000E+00 -0.20777033563E+04  0.20777033563E+04  0.50400001928E-02 0.  1.
    10030    2    1    2    0    0  0.00000000000E+00  0.00000000000E+00 -0.51693508070E+03  0.36384716320E+04  0.36015627079E+04 0.  0.
        2    1    3    3  502    0  0.39731341069E+03  0.15880166217E+04 -0.10165970990E+04  0.19269469113E+04  0.25500000920E-02 0.  1.
       -2    1    3    3    0  502 -0.39731341069E+03 -0.15880166217E+04  0.49966201832E+03  0.17115247207E+04  0.25500000920E-02 0. -1.
</event>
<event>
 5   0  0.3215494E-08  0.3604360E+04  0.7818609E-02  0.8089494E-01
        1   -1    0    0  501    0  0.00000000000E+00  0.00000000000E+00  0.30004344000E+04  0.30004344000E+04  0.50400001928E-02 0. -1.
       -1   -1    0    0    0  501  0.00000000000E+00  0.00000000000E+00 -0.10824609133E+04  0.10824609133E+04  0.50400001928E-02 0.  1.
    10030    2    1    2    0    0  0.00000000000E+00  0.00000000000E+00  0.19179734867E+04  0.40828953133E+04  0.36043601157E+04 0.  0.
        4    1    3    3  502    0 -0.35368484391E+03  0.40846683531E+02  0.29601992592E+04  0.29815336134E+04  0.12699999809E+01 0. -1.
       -4    1    3    3    0  502  0.35368484391E+03 -0.40846683531E+02 -0.10422257725E+04  0.11013616999E+04  0.12699999809E+01 0.  1.
</event>
<event>
 5   0  0.1021087E-07  0.3594735E+04  0.7818609E-02  0.8091699E-01
        2   -1    0    0  501    0  0.00000000000E+00  0.00000000000E+00  0.21962421292E+04  0.21962421292E+04  0.25500000920E-02 0. -1.
       -2   -1    0    0    0  501  0.00000000000E+00  0.00000000000E+00 -0.14709355119E+04  0.14709355119E+04  0.25500000920E-02 0.  1.
    10030    2    1    2    0    0  0.00000000000E+00  0.00000000000E+00  0.72530661738E+03  0.36671776411E+04  0.35947353396E+04 0.  0.
        3    1    3    3  502    0 -0.15125911867E+04 -0.57993069571E+03 -0.43167716711E+03  0.16764834914E+04  0.10100000352E+00 0.  1.
       -3    1    3    3    0  502  0.15125911867E+04  0.57993069571E+03  0.11569837845E+04  0.19906941497E+04  0.10100000352E+00 0. -1.
</event>
<event>
 5   0  0.1021087E-07  0.3598414E+04  0.7818609E-02  0.8090855E-01
       -2   -1    0    0    0  501  0.00000000000E+00  0.00000000000E+00  0.18730992227E+04  0.18730992227E+04  0.25500000920E-02 0. -1.
        2   -1    0    0  501    0  0.00000000000E+00  0.00000000000E+00 -0.17282295587E+04  0.17282295587E+04  0.25500000920E-02 0.  1.
    10030    2    1    2    0    0  0.00000000000E+00  0.00000000000E+00  0.14486966395E+03  0.36013287814E+04  0.35984137855E+04 0.  0.
        3    1    3    3  502    0 -0.40000878345E+02 -0.16016173578E+04 -0.74698797776E+03  0.17677016943E+04  0.10100000352E+00 0.  1.
       -3    1    3    3    0  502  0.40000878345E+02  0.16016173578E+04  0.89185764172E+03  0.18336270870E+04  0.10100000352E+00 0. -1.
</event>
<event>
 5   0  0.1017794E-07  0.3601870E+04  0.7818609E-02  0.8090063E-01
        2   -1    0    0  501    0  0.00000000000E+00  0.00000000000E+00  0.20601649384E+04  0.20601649384E+04  0.25500000920E-02 0.  1.
       -2   -1    0    0    0  501  0.00000000000E+00  0.00000000000E+00 -0.15743238450E+04  0.15743238450E+04  0.25500000920E-02 0. -1.
    10030    2    1    2    0    0  0.00000000000E+00  0.00000000000E+00  0.48584109334E+03  0.36344887834E+04  0.36018699516E+04 0.  0.
        1    1    3    3  502    0  0.12232720972E+04 -0.40621558939E+03  0.15120712623E+04  0.19868983948E+04  0.50400001928E-02 0.  1.
       -1    1    3    3    0  502 -0.12232720972E+04  0.40621558939E+03 -0.10262301689E+04  0.16475903886E+04  0.50400001928E-02 0. -1.
</event>
<event>
 5   0  0.3202875E-08  0.3600896E+04  0.7818609E-02  0.8090287E-01
       -1   -1    0    0    0  501  0.00000000000E+00  0.00000000000E+00  0.15225866005E+04  0.15225866005E+04  0.50400001928E-02 0.  1.
        1   -1    0    0  501    0  0.00000000000E+00  0.00000000000E+00 -0.21290168840E+04  0.21290168840E+04  0.50400001928E-02 0. -1.
    10030    2    1    2    0    0  0.00000000000E+00  0.00000000000E+00 -0.60643028351E+03  0.36516034846E+04  0.36008957663E+04 0.  0.
        1    1    3    3  502    0  0.13822649989E+04 -0.38195260519E+03  0.80072301815E+03  0.16424681645E+04  0.50400001928E-02 0.  1.
       -1    1    3    3    0  502 -0.13822649989E+04  0.38195260519E+03 -0.14071533017E+04  0.20091353200E+04  0.50400001928E-02 0. -1.
</event>
<event>
 5   0  0.1044678E-07  0.3505133E+04  0.7818609E-02  0.8112575E-01
       -2   -1    0    0    0  501  0.00000000000E+00  0.00000000000E+00  0.20276532201E+04  0.20276532201E+04  0.25500000920E-02 0. -1.
        2   -1    0    0  501    0  0.00000000000E+00  0.00000000000E+00 -0.15148002678E+04  0.15148002678E+04  0.25500000920E-02 0.  1.
    10030    2    1    2    0    0  0.00000000000E+00  0.00000000000E+00  0.51285295229E+03  0.35424534879E+04  0.35051331734E+04 0.  0.
        2    1    3    3  502    0 -0.10666625363E+04 -0.18317984621E+03 -0.11367155203E+04  0.15695368733E+04  0.25500000920E-02 0.  1.
       -2    1    3    3    0  502  0.10666625363E+04  0.18317984621E+03  0.16495684726E+04  0.19729166146E+04  0.25500000920E-02 0. -1.
</event>
<event>
 5   0  0.1021087E-07  0.3600761E+04  0.7818609E-02  0.8090317E-01
       -2   -1    0    0    0  501  0.00000000000E+00  0.00000000000E+00  0.25195139450E+04  0.25195139450E+04  0.25500000920E-02 0.  1.
        2   -1    0    0  501    0  0.00000000000E+00  0.00000000000E+00 -0.12865063604E+04  0.12865063604E+04  0.25500000920E-02 0. -1.
    10030    2    1    2    0    0  0.00000000000E+00  0.00000000000E+00  0.12330075846E+04  0.38060203054E+04  0.36007614280E+04 0.  0.
        3    1    3    3  502    0 -0.30213548637E+03  0.10371559251E+04 -0.90587320669E+03  0.14098172016E+04  0.10100000352E+00 0. -1.
       -3    1    3    3    0  502  0.30213548637E+03 -0.10371559251E+04  0.21388807913E+04  0.23962031038E+04  0.10100000352E+00 0.  1.
</event>
<event>
 5   0  0.3202875E-08  0.3603965E+04  0.7818609E-02  0.8089584E-01
       -1   -1    0    0    0  501  0.00000000000E+00  0.00000000000E+00  0.15441225580E+04  0.15441225581E+04  0.50400001928E-02 0. -1.
        1   -1    0    0  501    0  0.00000000000E+00  0.00000000000E+00 -0.21029036686E+04  0.21029036686E+04  0.50400001928E-02 0.  1.
    10030    2    1    2    0    0  0.00000000000E+00  0.00000000000E+00 -0.55878111056E+03  0.36470262267E+04  0.36039650343E+04 0.  0.
        1    1    3    3  502    0  0.76088073744E+03 -0.22338037695E+03 -0.19168412984E+04  0.20743960212E+04  0.50400001928E-02 0.  1.
       -1    1    3    3    0  502 -0.76088073744E+03  0.22338037695E+03  0.13580601878E+04  0.15726302055E+04  0.50400001928E-02 0. -1.
</event>
<event>
 5   0  0.1029908E-07  0.3598370E+04  0.7818609E-02  0.8090865E-01
        2   -1    0    0  501    0  0.00000000000E+00  0.00000000000E+00  0.27861867760E+04  0.27861867760E+04  0.25500000920E-02 0. -1.
       -2   -1    0    0    0  501  0.00000000000E+00  0.00000000000E+00 -0.11618269109E+04  0.11618269109E+04  0.25500000920E-02 0.  1.
    10030    2    1    2    0    0  0.00000000000E+00  0.00000000000E+00  0.16243598650E+04  0.39480136869E+04  0.35983700617E+04 0.  0.
        4    1    3    3  502    0  0.30565717841E+03 -0.16726342981E+04  0.16686896663E+03  0.17085018790E+04  0.12699999809E+01 0.  1.
       -4    1    3    3    0  502 -0.30565717841E+03  0.16726342981E+04  0.14574908984E+04  0.22395118079E+04  0.12699999809E+01 0. -1.
</event>
<event>
 5   0  0.3202875E-08  0.3599669E+04  0.7818609E-02  0.8090568E-01
        3   -1    0    0  501    0  0.00000000000E+00  0.00000000000E+00  0.23337478437E+04  0.23337478458E+04  0.10100000352E+00 0.  1.
       -3   -1    0    0    0  501  0.00000000000E+00  0.00000000000E+00 -0.13880692530E+04  0.13880692566E+04  0.10100000352E+00 0. -1.
    10030    2    1    2    0    0  0.00000000000E+00  0.00000000000E+00  0.94567859069E+03  0.37218171025E+04  0.35996686719E+04 0.  0.
        5    1    3    3  502    0 -0.15485847199E+04  0.66446786196E+03  0.11265512004E+04  0.20270105751E+04  0.46999998093E+01 0. -1.
       -5    1    3    3    0  502  0.15485847199E+04 -0.66446786196E+03 -0.18087260971E+03  0.16948065274E+04  0.46999998093E+01 0.  1.
</event>
<event>
 5   0  0.9905335E-08  0.3600567E+04  0.7818609E-02  0.8090362E-01
        2   -1    0    0  501    0  0.00000000000E+00  0.00000000000E+00  0.27079043227E+04  0.27079043227E+04  0.25500000920E-02 0.  1.
       -2   -1    0    0    0  501  0.00000000000E+00  0.00000000000E+00 -0.11968743449E+04  0.11968743449E+04  0.25500000920E-02 0. -1.
    10030    2    1    2    0    0  0.00000000000E+00  0.00000000000E+00  0.15110299778E+04  0.39047786676E+04  0.36005672954E+04 0.  0.
        5    1    3    3  502    0  0.13148845663E+04 -0.16170080662E+03 -0.56646458636E+03  0.14408236502E+04  0.46999998093E+01 0.  1.
       -5    1    3    3    0  502 -0.13148845663E+04  0.16170080662E+03  0.20774945641E+04  0.24639550174E+04  0.46999998093E+01 0. -1.
</event>
<event>
 5   0  0.1029908E-07  0.3598179E+04  0.7818609E-02  0.8090909E-01
        2   -1    0    0  501    0  0.00000000000E+00  0.00000000000E+00  0.17302800344E+04  0.17302800344E+04  0.25500000920E-02 0. -1.
       -2   -1    0    0    0  501  0.00000000000E+00  0.00000000000E+00 -0.18706353942E+04  0.18706353942E+04  0.25500000920E-02 0.  1.
    10030    2    1    2    0    0  0.00000000000E+00  0.00000000000E+00 -0.14035535981E+03  0.36009154285E+04  0.35981790251E+04 0.  0.
        4    1    3    3  502    0  0.87566269719E+03  0.15206590252E+04  0.32702771793E+03  0.17849755660E+04  0.12699999809E+01 0.  1.
       -4    1    3    3    0  502 -0.87566269719E+03 -0.15206590252E+04 -0.46738307774E+03  0.18159398625E+04  0.12699999809E+01 0. -1.
</event>
<event>
 5   0  0.1021087E-07  0.3594685E+04  0.7818609E-02  0.8091710E-01
       -2   -1    0    0    0  501  0.00000000000E+00  0.00000000000E+00  0.19217186408E+04  0.19217186408E+04  0.25500000920E-02 0.  1.
        2   -1    0    0  501    0  0.00000000000E+00  0.00000000000E+00 -0.16810162810E+04  0.16810162810E+04  0.25500000920E-02 0. -1.
    10030    2    1    2    0    0  0.00000000000E+00  0.00000000000E+00  0.24070235979E+03  0.36027349217E+04  0.35946851448E+04 0.  0.
        3    1    3    3  502    0 -0.41746918824E+03  0.11737902363E+04 -0.11780715742E+04  0.17146185249E+04  0.10100000352E+00 0. -1.
       -3    1    3    3    0  502  0.41746918824E+03 -0.11737902363E+04  0.14187739340E+04  0.18881163968E+04  0.10100000352E+00 0.  1.
</event>
<event>
 5   0  0.1021087E-07  0.3599533E+04  0.7818609E-02  0.8090599E-01
       -2   -1    0    0    0  501  0.00000000000E+00  0.00000000000E+00  0.15412877381E+04  0.15412877381E+04  0.25500000920E-02 0. -1.
        2   -1    0    0  501    0  0.00000000000E+00  0.00000000000E+00 -0.21015931671E+04  0.21015931671E+04  0.25500000920E-02 0.  1.
    10030    2    1    2    0    0  0.00000000000E+00  0.00000000000E+00 -0.56030542897E+03  0.36428809052E+04  0.35995331803E+04 0.  0.
        3    1    3    3  502    0  0.10477022868E+04 -0.54558815104E+03 -0.16543758591E+04  0.20328074197E+04  0.10100000352E+00 0.  1.
       -3    1    3    3    0  502 -0.10477022868E+04  0.54558815104E+03  0.10940704301E+04  0.16100734855E+04  0.10100000352E+00 0. -1.
</event>
<event>
 5   0  0.1029908E-07  0.3598867E+04  0.7818609E-02  0.8090751E-01
       -2   -1    0    0    0  501  0.00000000000E+00  0.00000000000E+00  0.20273738033E+04  0.20273738034E+04  0.25500000920E-02 0. -1.
        2   -1    0    0  501    0  0.00000000000E+00  0.00000000000E+00 -0.15971206460E+04  0.15971206460E+04  0.25500000920E-02 0.  1.
    10030    2    1    2    0    0  0.00000000000E+00  0.00000000000E+00  0.43025315735E+03  0.36244944494E+04  0.35988667986E+04 0.  0.
        4    1    3    3  502    0  0.16491959718E+03  0.41647023134E+03  0.19703258987E+04  0.20206018131E+04  0.12699999809E+01 0. -1.
       -4    1    3    3    0  502 -0.16491959718E+03 -0.41647023134E+03 -0.15400727413E+04  0.16038926363E+04  0.12699999809E+01 0.  1.
</event>
<event>
 5   0  0.1021087E-07  0.3601567E+04  0.7818609E-02  0.8090133E-01
        2   -1    0    0  501    0  0.00000000000E+00  0.00000000000E+00  0.22183103152E+04  0.22183103152E+04  0.25500000920E-02 0.  1.
       -2   -1    0    0    0  501  0.00000000000E+00  0.00000000000E+00 -0.14618427354E+04  0.14618427354E+04  0.25500000920E-02 0. -1.
    10030    2    1    2    0    0  0.00000000000E+00  0.00000000000E+00  0.75646757981E+03  0.36801530506E+04  0.36015667808E+04 0.  0.
        3    1    3    3  502    0  0.20998107203E+03  0.16447653744E+04  0.10960400804E+04  0.19876239724E+04  0.10100000352E+00 0.  1.
       -3    1    3    3    0  502 -0.20998107203E+03 -0.16447653744E+04 -0.33957250062E+03  0.16925290783E+04  0.10100000352E+00 0. -1.
</event>
<event>
 5   0  0.3279988E-08  0.3597660E+04  0.7818609E-02  0.8091028E-01
        1   -1    0    0  501    0  0.00000000000E+00  0.00000000000E+00  0.27123217497E+04  0.27123217497E+04  0.50400001928E-02 0.  1.
       -1   -1    0    0    0  501  0.00000000000E+00  0.00000000000E+00 -0.11929958697E+04  0.11929958697E+04  0.50400001928E-02 0. -1.
    10030    2    1    2    0    0  0.00000000000E+00  0.00000000000E+00  0.15193258801E+04  0.39053176194E+04  0.35976595974E+04 0.  0.
        5    1    3    3  502    0  0.59784638296E+02 -0.65318073362E+02  0.27099478935E+04  0.27113982241E+04  0.46999998093E+01 0.  1.
       -5    1    3    3    0  502 -0.59784638296E+02  0.65318073362E+02 -0.11906220135E+04  0.11939193954E+04  0.46999998093E+01 0. -1.
</event>
<event>
 5   0  0.1017794E-07  0.3602803E+04  0.7818609E-02  0.8089850E-01
        2   -1    0    0  501    0  0.00000000000E+00  0.00000000000E+00  0.25740818076E+04  0.25740818076E+04  0.25500000920E-02 0.  1.
       -2   -1    0    0    0  501  0.00000000000E+00  0.00000000000E+00 -0.12606622802E+04  0.12606622803E+04  0.25500000920E-02 0. -1.
    10030    2    1    2    0    0  0.00000000000E+00  0.00000000000E+00  0.13134195273E+04  0.38347440878E+04  0.36028032647E+04 0.  0.
        1    1    3    3  502    0 -0.33432610861E+03 -0.12949200649E+04 -0.62782100493E+03  0.14774136643E+04  0.50400001928E-02 0. -1.
       -1    1    3    3    0  502  0.33432610861E+03  0.12949200649E+04  0.19412405322E+04  0.23573304235E+04  0.50400001928E-02 0.  1.
</event>
<event>
 5   0  0.3212523E-08  0.3572984E+04  0.7818609E-02  0.8096708E-01
        1   -1    0    0  501    0  0.00000000000E+00  0.00000000000E+00  0.20987445550E+04  0.20987445550E+04  0.50400001928E-02 0. -1.
       -1   -1    0    0    0  501  0.00000000000E+00  0.00000000000E+00 -0.15206963745E+04  0.15206963745E+04  0.50400001928E-02 0.  1.
    10030    2    1    2    0    0  0.00000000000E+00  0.00000000000E+00  0.57804818050E+03  0.36194409295E+04  0.35729837592E+04 0.  0.
        3    1    3    3  502    0 -0.74727062101E+03  0.13212864188E+04  0.12432604945E+04  0.19621182046E+04  0.10100000352E+00 0. -1.
       -3    1    3    3    0  502  0.74727062101E+03 -0.13212864188E+04 -0.66521231395E+03  0.16573227249E+04  0.10100000352E+00 0.  1.
</event>
<event>
 5   0  0.1029908E-07  0.3601445E+04  0.7818609E-02  0.8090161E-01
        2   -1    0    0  501    0  0.00000000000E+00  0.00000000000E+00  0.20980591320E+04  0.20980591320E+04  0.25500000920E-02 0. -1.
       -2   -1    0    0    0  501  0.00000000000E+00  0.00000000000E+00 -0.15455243484E+04  0.15455243484E+04  0.25500000920E-02 0.  1.
    10030    2    1    2    0    0  0.00000000000E+00  0.00000000000E+00  0.55253478356E+03  0.36435834804E+04  0.36014449727E+04 0.  0.
        4    1    3    3  502    0 -0.59928538188E+03  0.33561555325E+03  0.19603214434E+04  0.20771717653E+04  0.12699999809E+01 0. -1.
       -4    1    3    3    0  502  0.59928538188E+03 -0.33561555325E+03 -0.14077866598E+04  0.15664117150E+04  0.12699999809E+01 0.  1.
</event>
<event>
 5   0  0.1029908E-07  0.3611684E+04  0.7818609E-02  0.8087821E-01
        2   -1    0    0  501    0  0.00000000000E+00  0.00000000000E+00  0.21496276975E+04  0.21496276975E+04  0.25500000920E-02 0. -1.
       -2   -1    0    0    0  501  0.00000000000E+00  0.00000000000E+00 -0.15170374209E+04  0.15170374209E+04  0.25500000920E-02 0.  1.
    10030    2    1    2    0    0  0.00000000000E+00  0.00000000000E+00  0.63259027656E+03  0.36666651183E+04  0.36116841822E+04 0.  0.
        4    1    3    3  502    0 -0.94581978881E+03 -0.13459805677E+04  0.10725002379E+04  0.19637966124E+04  0.12699999809E+01 0. -1.
       -4    1    3    3    0  502  0.94581978881E+03  0.13459805677E+04 -0.43990996135E+03  0.17028685060E+04  0.12699999809E+01 0.  1.
</event>
<event>
 5   0  0.1029908E-07  0.3596344E+04  0.7818609E-02  0.8091330E-01
       -2   -1    0    0    0  501  0.00000000000E+00  0.00000000000E+00  0.14834604327E+04  0.14834604327E+04  0.25500000920E-02 0. -1.
        2   -1    0    0  501    0  0.00000000000E+00  0.00000000000E+00 -0.21796489515E+04  0.21796489515E+04  0.25500000920E-02 0.  1.
    10030    2    1    2    0    0  0.00000000000E+00  0.00000000000E+00 -0.69618851884E+03  0.36631093842E+04  0.35963442420E+04 0.  0.
        4    1    3    3  502    0 -0.52721381841E+03  0.25490628664E+03 -0.20798010007E+04  0.21606724510E+04  0.12699999809E+01 0.  1.
       -4    1    3    3    0  502  0.52721381841E+03 -0.25490628664E+03  0.13836124818E+04  0.15024369331E+04  0.12699999809E+01 0. -1.
</event>
<event>
 5   0  0.1017794E-07  0.3636042E+04  0.7818609E-02  0.8082285E-01
        2   -1    0    0  501    0  0.00000000000E+00  0.00000000000E+00  0.23244683067E+04  0.23244683067E+04  0.25500000920E-02 0.  1.
       -2   -1    0    0    0  501  0.00000000000E+00  0.00000000000E+00 -0.14219168485E+04  0.14219168485E+04  0.25500000920E-02 0. -1.
    10030    2    1    2    0    0  0.00000000000E+00  0.00000000000E+00  0.90255145817E+03  0.37463851552E+04  0.36360421609E+04 0.  0.
        1    1    3    3  502    0 -0.14186925149E+04 -0.17045220441E+03 -0.70687200057E+03  0.15941801753E+04  0.50400001928E-02 0. -1.
       -1    1    3    3    0  502  0.14186925149E+04  0.17045220441E+03  0.16094234587E+04  0.21522049799E+04  0.50400001928E-02 0.  1.
</event>
<event>
 5   0  0.3202875E-08  0.3596286E+04  0.7818609E-02  0.8091343E-01
        1   -1    0    0  501    0  0.00000000000E+00  0.00000000000E+00  0.11403760174E+04  0.11403760174E+04  0.50400001928E-02 0.  1.
       -1   -1    0    0    0  501  0.00000000000E+00  0.00000000000E+00 -0.28353086506E+04  0.28353086506E+04  0.50400001928E-02 0. -1.
    10030    2    1    2    0    0  0.00000000000E+00  0.00000000000E+00 -0.16949326332E+04  0.39756846681E+04  0.35962858547E+04 0.  0.
        1    1    3    3  502    0 -0.29069858851E+03 -0.16224451108E+04 -0.16419522971E+04  0.23265513433E+04  0.50400001928E-02 0. -1.
       -1    1    3    3    0  502  0.29069858851E+03  0.16224451108E+04 -0.52980336068E+02  0.16491333248E+04  0.50400001928E-02 0.  1.
</event>
<event>
 5   0  0.3279988E-08  0.3591605E+04  0.7818609E-02  0.8092417E-01
       -1   -1    0    0    0  501  0.00000000000E+00  0.00000000000E+00  0.15228110371E+04  0.15228110371E+04  0.50400001928E-02 0. -1.
        1   -1    0    0  501    0  0.00000000000E+00  0.00000000000E+00 -0.21177321075E+04  0.21177321075E+04  0.50400001928E-02 0.  1.
    10030    2    1    2    0    0  0.00000000000E+00  0.00000000000E+00 -0.59492107048E+03  0.36405431446E+04  0.35916045589E+04 0.  0.
        5    1    3    3  502    0  0.50044747154E+03 -0.39150757745E+03 -0.19999771697E+04  0.20984891290E+04  0.46999998093E+01 0.  1.
       -5    1    3    3    0  502 -0.50044747154E+03  0.39150757745E+03  0.14050560993E+04  0.15420540156E+04  0.46999998093E+01 0. -1.
</event>
<event>
 5   0  0.1029908E-07  0.3598504E+04  0.7818609E-02  0.8090835E-01
        2   -1    0    0  501    0  0.00000000000E+00  0.00000000000E+00  0.16595165378E+04  0.16595165378E+04  0.25500000920E-02 0.  1.
       -2   -1    0    0    0  501  0.00000000000E+00  0.00000000000E+00 -0.19507531305E+04  0.19507531305E+04  0.25500000920E-02 0. -1.
    10030    2    1    2    0    0  0.00000000000E+00  0.00000000000E+00 -0.29123659272E+03  0.36102696683E+04  0.35985036230E+04 0.  0.
        4    1    3    3  502    0 -0.49013266903E+03  0.16948927663E+04 -0.49949520964E+03  0.18336817062E+04  0.12699999809E+01 0.  1.
       -4    1    3    3    0  502  0.49013266903E+03 -0.16948927663E+04  0.20825861692E+03  0.17765879621E+04  0.12699999809E+01 0. -1.
</event>
<event>
 5   0  0.1017794E-07  0.3613217E+04  0.7818609E-02  0.8087471E-01
        2   -1    0    0  501    0  0.00000000000E+00  0.00000000000E+00  0.21305475783E+04  0.21305475783E+04  0.25500000920E-02 0. -1.
       -2   -1    0    0    0  501  0.00000000000E+00  0.00000000000E+00 -0.15319225951E+04  0.15319225951E+04  0.25500000920E-02 0.  1.
    10030    2    1    2    0    0  0.00000000000E+00  0.00000000000E+00  0.59862498325E+03  0.36624701734E+04  0.36132168356E+04 0.  0.
        1    1    3    3  502    0  0.10314977415E+04 -0.12841591082E+04  0.10515757484E+04  0.19541913316E+04  0.50400001928E-02 0. -1.
       -1    1    3    3    0  502 -0.10314977415E+04  0.12841591082E+04 -0.45295076514E+03  0.17082788419E+04  0.50400001928E-02 0.  1.
</event>
<event>
 5   0  0.1044678E-07  0.3607767E+04  0.7818609E-02  0.8088715E-01
       -2   -1    0    0    0  501  0.00000000000E+00  0.00000000000E+00  0.17710381918E+04  0.17710381918E+04  0.25500000920E-02 0. -1.
        2   -1    0    0  501    0  0.00000000000E+00  0.00000000000E+00 -0.18373376014E+04  0.18373376014E+04  0.25500000920E-02 0.  1.
    10030    2    1    2    0    0  0.00000000000E+00  0.00000000000E+00 -0.66299409624E+02  0.36083757932E+04  0.36077666572E+04 0.  0.
        2    1    3    3  502    0 -0.13288505328E+04  0.60210161036E+03 -0.10942835837E+04  0.18236849096E+04  0.25500000920E-02 0.  1.
       -2    1    3    3    0  502  0.13288505328E+04 -0.60210161036E+03  0.10279841741E+04  0.17846908836E+04  0.25500000920E-02 0. -1.
</event>
<event>
 5   0  0.9905335E-08  0.3609244E+04  0.7818609E-02  0.8088377E-01
       -2   -1    0    0    0  501  0.00000000000E+00  0.00000000000E+00  0.13085109248E+04  0.13085109248E+04  0.25500000920E-02 0.  1.
        2   -1    0    0  501    0  0.00000000000E+00  0.00000000000E+00 -0.24888300035E+04  0.24888300035E+04  0.25500000920E-02 0. -1.
    10030    2    1    2    0    0  0.00000000000E+00  0.00000000000E+00 -0.11803190787E+04  0.37973409283E+04  0.36092443805E+04 0.  0.
        5    1    3    3  502    0 -0.15609275239E+04  0.44734159705E+03  0.23829679882E+03  0.16411632136E+04  0.46999998093E+01 0.  1.
       -5    1    3    3    0  502  0.15609275239E+04 -0.44734159705E+03 -0.14186158775E+04  0.21561777147E+04  0.46999998093E+01 0. -1.
</event>
<event>
 5   0  0.1044678E-07  0.3595851E+04  0.7818609E-02  0.8091443E-01
       -2   -1    0    0    0  501  0.00000000000E+00  0.00000000000E+00  0.24626172946E+04  0.24626172946E+04  0.25500000920E-02 0. -1.
        2   -1    0    0  501    0  0.00000000000E+00  0.00000000000E+00 -0.13126426924E+04  0.13126426924E+04  0.25500000920E-02 0.  1.
    10030    2    1    2    0    0  0.00000000000E+00  0.00000000000E+00  0.11499746022E+04  0.37752599871E+04  0.35958512739E+04 0.  0.
        2    1    3    3  502    0  0.10430764097E+04 -0.13727286070E+04  0.39496073100E+02  0.17245150520E+04  0.25500000920E-02 0.  1.
       -2    1    3    3    0  502 -0.10430764097E+04  0.13727286070E+04  0.11104785291E+04  0.20507449350E+04  0.25500000920E-02 0. -1.
</event>
<event>
 5   0  0.3212523E-08  0.3605320E+04  0.7818609E-02  0.8089274E-01
        1   -1    0    0  501    0  0.00000000000E+00  0.00000000000E+00  0.16737073660E+04  0.16737073660E+04  0.50400001928E-02 0.  1.
       -1   -1    0    0    0  501  0.00000000000E+00  0.00000000000E+00 -0.19415475676E+04  0.19415475676E+04  0.50400001928E-02 0. -1.
    10030    2    1    2    0    0  0.00000000000E+00  0.00000000000E+00 -0.26784020160E+03  0.36152549335E+04  0.36053196614E+04 0.  0.
        3    1    3    3  502    0  0.29130542631E+03  0.38782580548E+03 -0.18748827335E+04  0.19366086288E+04  0.10100000352E+00 0. -1.
       -3    1    3    3    0  502 -0.29130542631E+03 -0.38782580548E+03  0.16070425319E+04  0.16786463047E+04  0.10100000352E+00 0.  1.
</event>
<event>
 5   0  0.1017794E-07  0.3601917E+04  0.7818609E-02  0.8090053E-01
       -2   -1    0    0    0  501  0.00000000000E+00  0.00000000000E+00  0.16195078331E+04  0.16195078331E+04  0.25500000920E-02 0. -1.
        2   -1    0    0  501    0  0.00000000000E+00  0.00000000000E+00 -0.20027386739E+04  0.20027386739E+04  0.25500000920E-02 0.  1.
    10030    2    1    2    0    0  0.00000000000E+00  0.00000000000E+00 -0.38323084074E+03  0.36222465070E+04  0.36019166954E+04 0.  0.
        1    1    3    3  502    0  0.22864140090E+03 -0.10612927189E+04  0.12534472516E+04  0.16582367557E+04  0.50400001928E-02 0. -1.
       -1    1    3    3    0  502 -0.22864140090E+03  0.10612927189E+04 -0.16366780923E+04  0.19640097513E+04  0.50400001928E-02 0.  1.
</event>
<event>
 5   0  0.3215494E-08  0.3601807E+04  0.7818609E-02  0.8090078E-01
        1   -1    0    0  501    0  0.00000000000E+00  0.00000000000E+00  0.26442833871E+04  0.26442833871E+04  0.50400001928E-02 0.  1.
       -1   -1    0    0    0  501  0.00000000000E+00  0.00000000000E+00 -0.12265150544E+04  0.12265150545E+04  0.50400001928E-02 0. -1.
    10030    2    1    2    0    0  0.00000000000E+00  0.00000000000E+00  0.14177683327E+04  0.38707984416E+04  0.36018069813E+04 0.  0.
        4    1    3    3  502    0  0.82366756221E+03 -0.16005269569E+04  0.64869258000E+03  0.19133526776E+04  0.12699999809E+01 0. -1.
       -4    1    3    3    0  502 -0.82366756221E+03  0.16005269569E+04  0.76907575270E+03  0.19574457640E+04  0.12699999809E+01 0.  1.
</event>
<event>
 5   0  0.3215494E-08  0.3611254E+04  0.7818609E-02  0.8087919E-01
        1   -1    0    0  501    0  0.00000000000E+00  0.00000000000E+00  0.14989261125E+04  0.14989261125E+04  0.50400001928E-02 0.  1.
       -1   -1    0    0    0  501  0.00000000000E+00  0.00000000000E+00 -0.21750827704E+04  0.21750827704E+04  0.50400001928E-02 0. -1.
    10030    2    1    2    0    0  0.00000000000E+00  0.00000000000E+00 -0.67615665784E+03  0.36740088829E+04  0.36112537222E+04 0.  0.
        4    1    3    3  502    0  0.12282555424E+04 -0.79747057494E+03 -0.14127083825E+04  0.20347770350E+04  0.12699999809E+01 0. -1.
       -4    1    3    3    0  502 -0.12282555424E+04  0.79747057494E+03  0.73655172461E+03  0.16392318479E+04  0.12699999809E+01 0.  1.
</event>
<event>
 5   0  0.1021087E-07  0.3602518E+04  0.7818609E-02  0.8089915E-01
       -2   -1    0    0    0  501  0.00000000000E+00  0.00000000000E+00  0.16699752584E+04  0.16699752584E+04  0.25500000920E-02 0. -1.
        2   -1    0    0  501    0  0.00000000000E+00  0.00000000000E+00 -0.19428630253E+04  0.19428630253E+04  0.25500000920E-02 0.  1.
    10030    2    1    2    0    0  0.00000000000E+00  0.00000000000E+00 -0.27288776692E+03  0.36128382837E+04  0.36025175546E+04 0.  0.
        3    1    3    3  502    0 -0.81252551429E+03  0.48153271297E+03 -0.16746116211E+04  0.19226012475E+04  0.10100000352E+00 0.  1.
       -3    1    3    3    0  502  0.81252551429E+03 -0.48153271297E+03  0.14017238542E+04  0.16902370362E+04  0.10100000352E+00 0. -1.
</event>
<event>
 5   0  0.9905335E-08  0.3597404E+04  0.7818609E-02  0.8091087E-01
        2   -1    0    0  501    0  0.00000000000E+00  0.00000000000E+00  0.18872187049E+04  0.18872187049E+04  0.25500000920E-02 0. -1.
       -2   -1    0    0    0  501  0.00000000000E+00  0.00000000000E+00 -0.17143366308E+04  0.17143366308E+04  0.25500000920E-02 0.  1.
    10030    2    1    2    0    0  0.00000000000E+00  0.00000000000E+00  0.17288207414E+03  0.36015553357E+04  0.35974035949E+04 0.  0.
        5    1    3    3  502    0 -0.43012447766E+03 -0.66921846347E+03 -0.15286304928E+04  0.17232509079E+04  0.46999998093E+01 0.  1.
       -5    1    3    3    0  502  0.43012447766E+03  0.66921846347E+03  0.17015125669E+04  0.18783044278E+04  0.46999998093E+01 0. -1.
</event>
<event>
 5   0  0.9905335E-08  0.3605286E+04  0.7818609E-02  0.8089282E-01
        2   -1    0    0  501    0  0.00000000000E+00  0.00000000000E+00  0.13944285444E+04  0.13944285444E+04  0.25500000920E-02 0.  1.
       -2   -1    0    0    0  501  0.00000000000E+00  0.00000000000E+00 -0.23303612327E+04  0.23303612327E+04  0.25500000920E-02 0. -1.
    10030    2    1    2    0    0  0.00000000000E+00  0.00000000000E+00 -0.93593268834E+03  0.37247897771E+04  0.36052862420E+04 0.  0.
        5    1    3    3  502    0 -0.49482894881E+03 -0.16131019835E+04 -0.11234622860E+04  0.20271021917E+04  0.46999998093E+01 0. -1.
       -5    1    3    3    0  502  0.49482894881E+03  0.16131019835E+04  0.18752959766E+03  0.16976875854E+04  0.46999998093E+01 0.  1.
</event>
<event>
 5   0  0.1017794E-07  0.3594350E+04  0.7818609E-02  0.8091787E-01
       -2   -1    0    0    0  501  0.00000000000E+00  0.00000000000E+00  0.10032668503E+04  0.10032668503E+04  0.25500000920E-02 0. -1.
        2   -1    0    0  501    0  0.00000000000E+00  0.00000000000E+00 -0.32193204828E+04  0.32193204828E+04  0.25500000920E-02 0.  1.
    10030    2    1    2    0    0  0.00000000000E+00  0.00000000000E+00 -0.22160536325E+04  0.42225873331E+04  0.35943497442E+04 0.  0.
        1    1    3    3  502    0 -0.31855292652E+03 -0.38842273834E+03  0.91911164720E+03  0.10474322941E+04  0.50400001928E-02 0. -1.
       -1    1    3    3    0  502  0.31855292652E+03  0.38842273834E+03 -0.31351652797E+04  0.31751550390E+04  0.50400001928E-02 0.  1.
</event>
<event>
 5   0  0.3202875E-08  0.3589760E+04  0.7818609E-02  0.8092841E-01
       -1   -1    0    0    0  501  0.00000000000E+00  0.00000000000E+00  0.16789743307E+04  0.16789743307E+04  0.50400001928E-02 0.  1.
        1   -1    0    0  501    0  0.00000000000E+00  0.00000000000E+00 -0.19187873791E+04  0.19187873791E+04  0.50400001928E-02 0. -1.
    10030    2    1    2    0    0  0.00000000000E+00  0.00000000000E+00 -0.23981304842E+03  0.35977617098E+04  0.35897603015E+04 0.  0.
        1    1    3    3  502    0 -0.48012652731E+02  0.91784005355E+03 -0.16650494956E+04  0.19018741813E+04  0.50400001928E-02 0. -1.
       -1    1    3    3    0  502  0.48012652731E+02 -0.91784005355E+03  0.14252364472E+04  0.16958875284E+04  0.50400001928E-02 0.  1.
</event>
<event>
 5   0  0.3202875E-08  0.3602005E+04  0.7818609E-02  0.8090033E-01
       -3   -1    0    0    0  501  0.00000000000E+00  0.00000000000E+00  0.26958849141E+04  0.26958849160E+04  0.10100000352E+00 0.  1.
        3   -1    0    0  501    0  0.00000000000E+00  0.00000000000E+00 -0.12031706277E+04  0.12031706319E+04  0.10100000352E+00 0. -1.
    10030    2    1    2    0    0  0.00000000000E+00  0.00000000000E+00  0.14927142864E+04  0.38990555479E+04  0.36020047507E+04 0.  0.
        5    1    3    3  502    0 -0.15887440279E+04 -0.66776431447E+03  0.18018312948E+03  0.17327737348E+04  0.46999998093E+01 0. -1.
       -5    1    3    3    0  502  0.15887440279E+04  0.66776431447E+03  0.13125311569E+04  0.21662818131E+04  0.46999998093E+01 0.  1.
</event>
<event>
 5   0  0.9905335E-08  0.3598154E+04  0.7818609E-02  0.8090915E-01
        2   -1    0    0  501    0  0.00000000000E+00  0.00000000000E+00  0.20096723246E+04  0.20096723246E+04  0.25500000920E-02 0. -1.
       -2   -1    0    0    0  501  0.00000000000E+00  0.00000000000E+00 -0.16105498668E+04  0.16105498668E+04  0.25500000920E-02 0.  1.
    10030    2    1    2    0    0  0.00000000000E+00  0.00000000000E+00  0.39912245783E+03  0.36202221914E+04  0.35981536902E+04 0.  0.
        5    1    3    3  502    0  0.17263438495E+04 -0.48601947949E+03  0.56642896486E+02  0.17943546274E+04  0.46999998093E+01 0.  1.
       -5    1    3    3    0  502 -0.17263438495E+04  0.48601947949E+03  0.34247956134E+03  0.18258675640E+04  0.46999998093E+01 0. -1.
</event>
<event>
 5   0  0.1044678E-07  0.3596808E+04  0.7818609E-02  0.8091223E-01
        2   -1    0    0  501    0  0.00000000000E+00  0.00000000000E+00  0.21933594208E+04  0.21933594208E+04  0.25500000920E-02 0.  1.
       -2   -1    0    0    0  501  0.00000000000E+00  0.00000000000E+00 -0.14745678235E+04  0.14745678235E+04  0.25500000920E-02 0. -1.
    10030    2    1    2    0    0  0.00000000000E+00  0.00000000000E+00  0.71879159725E+03  0.36679272443E+04  0.35968081558E+04 0.  0.
        2    1    3    3  502    0  0.15387316020E+04 -0.35689814772E+03 -0.51736334479E+03  0.16621480263E+04  0.25500000920E-02 0. -1.
       -2    1    3    3    0  502 -0.15387316020E+04  0.35689814772E+03  0.12361549420E+04  0.20057792180E+04  0.25500000920E-02 0.  1.
</event>
<event>
 5   0  0.1021087E-07  0.3597589E+04  0.7818609E-02  0.8091044E-01
        2   -1    0    0  501    0  0.00000000000E+00  0.00000000000E+00  0.24593810671E+04  0.24593810671E+04  0.25500000920E-02 0. -1.
       -2   -1    0    0    0  501  0.00000000000E+00  0.00000000000E+00 -0.13156404756E+04  0.13156404756E+04  0.25500000920E-02 0.  1.
    10030    2    1    2    0    0  0.00000000000E+00  0.00000000000E+00  0.11437405916E+04  0.37750215427E+04  0.35975887907E+04 0.  0.
        3    1    3    3  502    0 -0.64539449474E+03  0.12551243100E+04  0.17421279075E+04  0.22420706376E+04  0.10100000352E+00 0. -1.
       -3    1    3    3    0  502  0.64539449474E+03 -0.12551243100E+04 -0.59838731597E+03  0.15329509051E+04  0.10100000352E+00 0.  1.
</event>
<event>
 5   0  0.3202875E-08  0.3597077E+04  0.7818609E-02  0.8091161E-01
        1   -1    0    0  501    0  0.00000000000E+00  0.00000000000E+00  0.24437483605E+04  0.24437483605E+04  0.50400001928E-02 0. -1.
       -1   -1    0    0    0  501  0.00000000000E+00  0.00000000000E+00 -0.13236801939E+04  0.13236801939E+04  0.50400001928E-02 0.  1.
    10030    2    1    2    0    0  0.00000000000E+00  0.00000000000E+00  0.11200681667E+04  0.37674285544E+04  0.35970773156E+04 0.  0.
        1    1    3    3  502    0  0.37054987529E+03  0.63109410305E+03 -0.11606815747E+04  0.13721401877E+04  0.50400001928E-02 0.  1.
       -1    1    3    3    0  502 -0.37054987529E+03 -0.63109410305E+03  0.22807497413E+04  0.23952883667E+04  0.50400001928E-02 0. -1.
</event>
<event>
 5   0  0.1021087E-07  0.3602231E+04  0.7818609E-02  0.8089981E-01
       -2   -1    0    0    0  501  0.00000000000E+00  0.00000000000E+00  0.13757979183E+04  0.13757979183E+04  0.25500000920E-02 0.  1.
        2   -1    0    0  501    0  0.00000000000E+00  0.00000000000E+00 -0.23579168985E+04  0.23579168985E+04  0.25500000920E-02 0. -1.
    10030    2    1    2    0    0  0.00000000000E+00  0.00000000000E+00 -0.98211898019E+03  0.37337148169E+04  0.36022310646E+04 0.  0.
        3    1    3    3  502    0 -0.15018950168E+04  0.30366929125E+03 -0.14722448939E+04  0.21249491095E+04  0.10100000352E+00 0. -1.
       -3    1    3    3    0  502  0.15018950168E+04 -0.30366929125E+03  0.49012591375E+03  0.16087657074E+04  0.10100000352E+00 0.  1.
</event>
<event>
 5   0  0.9905335E-08  0.3593945E+04  0.7818609E-02  0.8091880E-01
        2   -1    0    0  501    0  0.00000000000E+00  0.00000000000E+00  0.19352010015E+04  0.19352010015E+04  0.25500000920E-02 0. -1.
       -2   -1    0    0    0  501  0.00000000000E+00  0.00000000000E+00 -0.16686170671E+04  0.16686170671E+04  0.25500000920E-02 0.  1.
    10030    2    1    2    0    0  0.00000000000E+00  0.00000000000E+00  0.26658393433E+03  0.36038180686E+04  0.35939445846E+04 0.  0.
        5    1    3    3  502    0  0.72418860524E+03 -0.92187610298E+03  0.14989375165E+04  0.19029294400E+04  0.46999998093E+01 0. -1.
       -5    1    3    3    0  502 -0.72418860524E+03  0.92187610298E+03 -0.12323535822E+04  0.17008886286E+04  0.46999998093E+01 0.  1.
</event>
<event>
 5   0  0.3202875E-08  0.3593808E+04  0.7818609E-02  0.8091911E-01
        1   -1    0    0  501    0  0.00000000000E+00  0.00000000000E+00  0.15412073208E+04  0.15412073209E+04  0.50400001928E-02 0. -1.
       -1   -1    0    0    0  501  0.00000000000E+00  0.00000000000E+00 -0.20950229576E+04  0.20950229576E+04  0.50400001928E-02 0.  1.
    10030    2    1    2    0    0  0.00000000000E+00  0.00000000000E+00 -0.55381563676E+03  0.36362302785E+04  0.35938084087E+04 0.  0.
        1    1    3    3  502    0  0.17302910560E+04 -0.17451001344E+03 -0.73446690887E+03  0.18878036242E+04  0.50400001928E-02 0.  1.
       -1    1    3    3    0  502 -0.17302910560E+04  0.17451001344E+03  0.18065127211E+03  0.17484266543E+04  0.50400001928E-02 0. -1.
</event>
<event>
 5   0  0.3202875E-08  0.3616661E+04  0.7818609E-02  0.8086686E-01
       -1   -1    0    0    0  501  0.00000000000E+00  0.00000000000E+00  0.19800722925E+04  0.19800722925E+04  0.50400001928E-02 0.  1.
        1   -1    0    0  501    0  0.00000000000E+00  0.00000000000E+00 -0.16514845460E+04  0.16514845460E+04  0.50400001928E-02 0. -1.
    10030    2    1    2    0    0  0.00000000000E+00  0.00000000000E+00  0.32858774651E+03  0.36315568385E+04  0.36166607754E+04 0.  0.
        2    1    3    3  502    0 -0.62508996000E+03 -0.26944637825E+03 -0.15179331805E+04  0.16635684384E+04  0.25500000920E-02 0. -1.
       -2    1    3    3    0  502  0.62508996000E+03  0.26944637825E+03  0.18465209270E+04  0.19679884001E+04  0.25500000920E-02 0.  1.
</event>
<event>
 5   0  0.1029908E-07  0.3596266E+04  0.7818609E-02  0.8091348E-01
        2   -1    0    0  501    0  0.00000000000E+00  0.00000000000E+00  0.13005263628E+04  0.13005263628E+04  0.25500000920E-02 0.  1.
       -2   -1    0    0    0  501  0.00000000000E+00  0.00000000000E+00 -0.24861333068E+04  0.24861333068E+04  0.25500000920E-02 0. -1.
    10030    2    1    2    0    0  0.00000000000E+00  0.00000000000E+00 -0.11856069440E+04  0.37866596695E+04  0.35962657893E+04 0.  0.
        4    1    3    3  502    0  0.58465668499E+03  0.16942516316E+04 -0.74527393741E+03  0.19410684906E+04  0.12699999809E+01 0.  1.
       -4    1    3    3    0  502 -0.58465668499E+03 -0.16942516316E+04 -0.44033300658E+03  0.18455911790E+04  0.12699999809E+01 0. -1.
</event>
<event>
 5   0  0.1029908E-07  0.3590024E+04  0.7818609E-02  0.8092781E-01
       -2   -1    0    0    0  501  0.00000000000E+00  0.00000000000E+00  0.24185596174E+04  0.24185596174E+04  0.25500000920E-02 0. -1.
        2   -1    0    0  501    0  0.00000000000E+00  0.00000000000E+00 -0.13322263017E+04  0.13322263017E+04  0.25500000920E-02 0.  1.
    10030    2    1    2    0    0  0.00000000000E+00  0.00000000000E+00  0.10863333157E+04  0.37507859191E+04  0.35900243646E+04 0.  0.
        4    1    3    3  502    0 -0.36645849886E+03 -0.58105314287E+03  0.22757864538E+04  0.23772084852E+04  0.12699999809E+01 0. -1.
       -4    1    3    3    0  502  0.36645849886E+03  0.58105314287E+03 -0.11894531381E+04  0.13735774339E+04  0.12699999809E+01 0.  1.
</event>
<event>
 5   0  0.1044678E-07  0.3598996E+04  0.7818609E-02  0.8090722E-01
        2   -1    0    0  501    0  0.00000000000E+00  0.00000000000E+00  0.17927051416E+04  0.17927051416E+04  0.25500000920E-02 0.  1.
       -2   -1    0    0    0  501  0.00000000000E+00  0.00000000000E+00 -0.18063165750E+04  0.18063165751E+04  0.25500000920E-02 0. -1.
    10030    2    1    2    0    0  0.00000000000E+00  0.00000000000E+00 -0.13611433401E+02  0.35990217167E+04  0.35989959775E+04 0.  0.
        2    1    3    3  502    0  0.72177322830E+03  0.85884859766E+03  0.14001924426E+04  0.17941896174E+04  0.25500000920E-02 0.  1.
       -2    1    3    3    0  502 -0.72177322830E+03 -0.85884859766E+03 -0.14138038760E+04  0.18048320993E+04  0.25500000920E-02 0. -1.
</event>
<event>
 5   0  0.1017794E-07  0.3613599E+04  0.7818609E-02  0.8087384E-01
       -2   -1    0    0    0  501  0.00000000000E+00  0.00000000000E+00  0.20009611026E+04  0.20009611026E+04  0.25500000920E-02 0. -1.
        2   -1    0    0  501    0  0.00000000000E+00  0.00000000000E+00 -0.16314785005E+04  0.16314785005E+04  0.25500000920E-02 0.  1.
    10030    2    1    2    0    0  0.00000000000E+00  0.00000000000E+00  0.36948260211E+03  0.36324396031E+04  0.36135993244E+04 0.  0.
        1    1    3    3  502    0  0.21187833076E+03 -0.16168177965E+04 -0.59747568727E+03  0.17366546608E+04  0.50400001928E-02 0.  1.
       -1    1    3    3    0  502 -0.21187833076E+03  0.16168177965E+04  0.96695828939E+03  0.18957849423E+04  0.50400001928E-02 0. -1.
</event>
<event>
 5   0  0.1029908E-07  0.3606059E+04  0.7818609E-02  0.8089105E-01
        2   -1    0    0  501    0  0.00000000000E+00  0.00000000000E+00  0.22934510724E+04  0.22934510724E+04  0.25500000920E-02 0. -1.
       -2   -1    0    0    0  501  0.00000000000E+00  0.00000000000E+00 -0.14174776612E+04  0.14174776612E+04  0.25500000920E-02 0.  1.
    10030    2    1    2    0    0  0.00000000000E+00  0.00000000000E+00  0.87597341114E+03  0.37109287336E+04  0.36060591577E+04 0.  0.
        4    1    3    3  502    0  0.75736291394E+03 -0.66541379860E+03  0.19762965808E+04  0.22185860125E+04  0.12699999809E+01 0. -1.
       -4    1    3    3    0  502 -0.75736291394E+03  0.66541379860E+03 -0.11003231696E+04  0.14923427211E+04  0.12699999809E+01 0.  1.
</event>
<event>
 5   0  0.9905335E-08  0.3601319E+04  0.7818609E-02  0.8090190E-01
        2   -1    0    0  501    0  0.00000000000E+00  0.00000000000E+00  0.29929719337E+04  0.29929719337E+04  0.25500000920E-02 0. -1.
       -2   -1    0    0    0  501  0.00000000000E+00  0.00000000000E+00 -0.10833295871E+04  0.10833295871E+04  0.25500000920E-02 0.  1.
    10030    2    1    2    0    0  0.00000000000E+00  0.00000000000E+00  0.19096423466E+04  0.40763015209E+04  0.36013192301E+04 0.  0.
        5    1    3    3  502    0  0.12309670636E+04 -0.10244237576E+04  0.18865739097E+04  0.24746529360E+04  0.46999998093E+01 0. -1.
       -5    1    3    3    0  502 -0.12309670636E+04  0.10244237576E+04  0.23068436843E+02  0.16016485849E+04  0.46999998093E+01 0.  1.
</event>
<event>
 5   0  0.3212523E-08  0.3597615E+04  0.7818609E-02  0.8091038E-01
       -1   -1    0    0    0  501  0.00000000000E+00  0.00000000000E+00  0.14962484564E+04  0.14962484564E+04  0.50400001928E-02 0.  1.
        1   -1    0    0  501    0  0.00000000000E+00  0.00000000000E+00 -0.21625481357E+04  0.21625481357E+04  0.50400001928E-02 0. -1.
    10030    2    1    2    0    0  0.00000000000E+00  0.00000000000E+00 -0.66629967934E+03  0.36587965922E+04  0.35976154937E+04 0.  0.
        3    1    3    3  502    0 -0.13833032835E+04 -0.72194721247E+03  0.57704130928E+03  0.16636443233E+04  0.10100000352E+00 0.  1.
       -3    1    3    3    0  502  0.13833032835E+04  0.72194721247E+03 -0.12433409886E+04  0.19951522688E+04  0.10100000352E+00 0. -1.
</event>
<event>
 5   0  0.3212523E-08  0.3602995E+04  0.7818609E-02  0.8089806E-01
       -1   -1    0    0    0  501  0.00000000000E+00  0.00000000000E+00  0.16840548930E+04  0.16840548930E+04  0.50400001928E-02 0. -1.
        1   -1    0    0  501    0  0.00000000000E+00  0.00000000000E+00 -0.19271304318E+04  0.19271304318E+04  0.50400001928E-02 0.  1.
    10030    2    1    2    0    0  0.00000000000E+00  0.00000000000E+00 -0.24307553875E+03  0.36111853248E+04  0.36029951058E+04 0.  0.
        3    1    3    3  502    0 -0.10494712310E+04 -0.88981128286E+03 -0.12870394493E+04  0.18840447282E+04  0.10100000352E+00 0.  1.
       -3    1    3    3    0  502  0.10494712310E+04  0.88981128286E+03  0.10439639105E+04  0.17271405966E+04  0.10100000352E+00 0. -1.
</event>
<event>
 5   0  0.3215494E-08  0.3598797E+04  0.7818609E-02  0.8090767E-01
       -1   -1    0    0    0  501  0.00000000000E+00  0.00000000000E+00  0.23086881824E+04  0.23086881824E+04  0.50400001928E-02 0. -1.
        1   -1    0    0  501    0  0.00000000000E+00  0.00000000000E+00 -0.14024566792E+04  0.14024566792E+04  0.50400001928E-02 0.  1.
    10030    2    1    2    0    0  0.00000000000E+00  0.00000000000E+00  0.90623150321E+03  0.37111448616E+04  0.35987971111E+04 0.  0.
        4    1    3    3  502    0  0.89457399412E+03  0.45174419654E+03  0.19942601688E+04  0.22319074094E+04  0.12699999809E+01 0. -1.
       -4    1    3    3    0  502 -0.89457399412E+03 -0.45174419654E+03 -0.10880286656E+04  0.14792374523E+04  0.12699999809E+01 0.  1.
</event>
<event>
 5   0  0.3202875E-08  0.3599402E+04  0.7818609E-02  0.8090629E-01
       -1   -1    0    0    0  501  0.00000000000E+00  0.00000000000E+00  0.29076150445E+04  0.29076150445E+04  0.50400001928E-02 0. -1.
        1   -1    0    0  501    0  0.00000000000E+00  0.00000000000E+00 -0.11139454478E+04  0.11139454478E+04  0.50400001928E-02 0.  1.
    10030    2    1    2    0    0  0.00000000000E+00  0.00000000000E+00  0.17936695967E+04  0.40215604924E+04  0.35994024742E+04 0.  0.
        1    1    3    3  502    0  0.11183146063E+04 -0.13892021317E+04  0.62679720125E+03  0.18903398776E+04  0.50400001928E-02 0. -1.
       -1    1    3    3    0  502 -0.11183146063E+04  0.13892021317E+04  0.11668723955E+04  0.21312206148E+04  0.50400001928E-02 0.  1.
</event>
<event>
 5   0  0.1017794E-07  0.3597272E+04  0.7818609E-02  0.8091117E-01
       -2   -1    0    0    0  501  0.00000000000E+00  0.00000000000E+00  0.15616940766E+04  0.15616940766E+04  0.25500000920E-02 0. -1.
        2   -1    0    0  501    0  0.00000000000E+00  0.00000000000E+00 -0.20715267182E+04  0.20715267182E+04  0.25500000920E-02 0.  1.
    10030    2    1    2    0    0  0.00000000000E+00  0.00000000000E+00 -0.50983264164E+03  0.36332207948E+04  0.35972717469E+04 0.  0.
        1    1    3    3  502    0 -0.71297016301E+03 -0.80483371995E+03 -0.17112018862E+04  0.20209640436E+04  0.50400001928E-02 0.  1.
       -1    1    3    3    0  502  0.71297016301E+03  0.80483371995E+03  0.12013692445E+04  0.16122567512E+04  0.50400001928E-02 0. -1.
</event>
<event>
 5   0  0.1029908E-07  0.3601800E+04  0.7818609E-02  0.8090080E-01
        2   -1    0    0  501    0  0.00000000000E+00  0.00000000000E+00  0.22748200372E+04  0.22748200372E+04  0.25500000920E-02 0. -1.
       -2   -1    0    0    0  501  0.00000000000E+00  0.00000000000E+00 -0.14257131412E+04  0.14257131413E+04  0.25500000920E-02 0.  1.
    10030    2    1    2    0    0  0.00000000000E+00  0.00000000000E+00  0.84910689594E+03  0.37005331784E+04  0.36018000061E+04 0.  0.
        4    1    3    3  502    0  0.36308475319E+03  0.10619461381E+04 -0.10224861425E+04  0.15182357072E+04  0.12699999809E+01 0.  1.
       -4    1    3    3    0  502 -0.36308475319E+03 -0.10619461381E+04  0.18715930385E+04  0.21822974712E+04  0.12699999809E+01 0. -1.
</event>
<event>
 5   0  0.1044678E-07  0.3595447E+04  0.7818609E-02  0.8091535E-01
       -2   -1    0    0    0  501  0.00000000000E+00  0.00000000000E+00  0.13638847918E+04  0.13638847918E+04  0.25500000920E-02 0.  1.
        2   -1    0    0  501    0  0.00000000000E+00  0.00000000000E+00 -0.23695622193E+04  0.23695622193E+04  0.25500000920E-02 0. -1.
    10030    2    1    2    0    0  0.00000000000E+00  0.00000000000E+00 -0.10056774276E+04  0.37334470111E+04  0.35954470510E+04 0.  0.
        2    1    3    3  502    0  0.13239009342E+04 -0.73443827984E+03 -0.15094247999E+04  0.21378672777E+04  0.25500000920E-02 0. -1.
       -2    1    3    3    0  502 -0.13239009342E+04  0.73443827984E+03  0.50374737229E+03  0.15955797334E+04  0.25500000920E-02 0.  1.
</event>
<event>
 5   0  0.3202875E-08  0.3602720E+04  0.7818609E-02  0.8089869E-01
        3   -1    0    0  501    0  0.00000000000E+00  0.00000000000E+00  0.25099338108E+04  0.25099338129E+04  0.10100000352E+00 0.  1.
       -3   -1    0    0    0  501  0.00000000000E+00  0.00000000000E+00 -0.12928217760E+04  0.12928217799E+04  0.10100000352E+00 0. -1.
    10030    2    1    2    0    0  0.00000000000E+00  0.00000000000E+00  0.12171120349E+04  0.38027555928E+04  0.36027195829E+04 0.  0.
        4    1    3    3  502    0 -0.15429224238E+04  0.75363394458E+03  0.11831349836E+04  0.20852778546E+04  0.12699999809E+01 0.  1.
       -4    1    3    3    0  502  0.15429224238E+04 -0.75363394458E+03  0.33977051266E+02  0.17174777382E+04  0.12699999809E+01 0. -1.
</event>
<event>
 5   0  0.3212523E-08  0.3602968E+04  0.7818609E-02  0.8089812E-01
       -1   -1    0    0    0  501  0.00000000000E+00  0.00000000000E+00  0.12025917020E+04  0.12025917020E+04  0.50400001928E-02 0.  1.
        1   -1    0    0  501    0  0.00000000000E+00  0.00000000000E+00 -0.26986257348E+04  0.26986257349E+04  0.50400001928E-02 0. -1.
    10030    2    1    2    0    0  0.00000000000E+00  0.00000000000E+00 -0.14960340328E+04  0.39012174369E+04  0.36029681739E+04 0.  0.
        3    1    3    3  502    0  0.66109021668E+03  0.32248684373E+03 -0.25286225398E+04  0.26334331201E+04  0.10100000352E+00 0. -1.
       -3    1    3    3    0  502 -0.66109021668E+03 -0.32248684373E+03  0.10325885070E+04  0.12677843168E+04  0.10100000352E+00 0.  1.
</event>
<event>
 5   0  0.1017794E-07  0.3608519E+04  0.7818609E-02  0.8088543E-01
        2   -1    0    0  501    0  0.00000000000E+00  0.00000000000E+00  0.10462150736E+04  0.10462150736E+04  0.25500000920E-02 0.  1.
       -2   -1    0    0    0  501  0.00000000000E+00  0.00000000000E+00 -0.31115509387E+04  0.31115509387E+04  0.25500000920E-02 0. -1.
    10030    2    1    2    0    0  0.00000000000E+00  0.00000000000E+00 -0.20653358651E+04  0.41577660123E+04  0.36085185294E+04 0.  0.
        1    1    3    3  502    0  0.85480069965E+03  0.66813971826E+03  0.62837434584E+03  0.12537739979E+04  0.50400001928E-02 0.  1.
       -1    1    3    3    0  502 -0.85480069965E+03 -0.66813971826E+03 -0.26937102109E+04  0.29039920144E+04  0.50400001928E-02 0. -1.
</event>
<event>
 5   0  0.3215494E-08  0.3600293E+04  0.7818609E-02  0.8090425E-01
       -1   -1    0    0    0  501  0.00000000000E+00  0.00000000000E+00  0.21091020578E+04  0.21091020578E+04  0.50400001928E-02 0. -1.
        1   -1    0    0  501    0  0.00000000000E+00  0.00000000000E+00 -0.15364490641E+04  0.15364490641E+04  0.50400001928E-02 0.  1.
    10030    2    1    2    0    0  0.00000000000E+00  0.00000000000E+00  0.57265299364E+03  0.36455511219E+04  0.36002932563E+04 0.  0.
        4    1    3    3  502    0  0.10986624606E+04  0.14202119158E+04  0.41625623959E+03  0.18431852750E+04  0.12699999809E+01 0.  1.
       -4    1    3    3    0  502 -0.10986624606E+04 -0.14202119158E+04  0.15639675406E+03  0.18023658468E+04  0.12699999809E+01 0. -1.
</event>
<event>
 5   0  0.3212523E-08  0.3615725E+04  0.7818609E-02  0.8086899E-01
        1   -1    0    0  501    0  0.00000000000E+00  0.00000000000E+00  0.13707767132E+04  0.13707767132E+04  0.50400001928E-02 0.  1.
       -1   -1    0    0    0  501  0.00000000000E+00  0.00000000000E+00 -0.23843180385E+04  0.23843180385E+04  0.50400001928E-02 0. -1.
    10030    2    1    2    0    0  0.00000000000E+00  0.00000000000E+00 -0.10135413253E+04  0.37550947518E+04  0.36157254565E+04 0.  0.
        3    1    3    3  502    0  0.76168586460E+03 -0.16082342069E+04 -0.83810570659E+03  0.19669783441E+04  0.10100000352E+00 0.  1.
       -3    1    3    3    0  502 -0.76168586460E+03  0.16082342069E+04 -0.17543561869E+03  0.17881164076E+04  0.10100000352E+00 0. -1.
</event>
<event>
 5   0  0.3202875E-08  0.3598488E+04  0.7818609E-02  0.8090838E-01
       -1   -1    0    0    0  501  0.00000000000E+00  0.00000000000E+00  0.15857264926E+04  0.15857264926E+04  0.50400001928E-02 0.  1.
        1   -1    0    0  501    0  0.00000000000E+00  0.00000000000E+00 -0.20415110930E+04  0.20415110930E+04  0.50400001928E-02 0. -1.
    10030    2    1    2    0    0  0.00000000000E+00  0.00000000000E+00 -0.45578460047E+03  0.36272375856E+04  0.35984875851E+04 0.  0.
        1    1    3    3  502    0  0.12172809322E+04 -0.28987343124E+03  0.10752937552E+04  0.16498654897E+04  0.50400001928E-02 0.  1.
       -1    1    3    3    0  502 -0.12172809322E+04  0.28987343124E+03 -0.15310783557E+04  0.19773720959E+04  0.50400001928E-02 0. -1.
</event>
<event>
 5   0  0.3202875E-08  0.3603071E+04  0.7818609E-02  0.8089789E-01
       -3   -1    0    0    0  501  0.00000000000E+00  0.00000000000E+00  0.12754245230E+04  0.12754245270E+04  0.10100000352E+00 0. -1.
        3   -1    0    0  501    0  0.00000000000E+00  0.00000000000E+00 -0.25446659450E+04  0.25446659470E+04  0.10100000352E+00 0.  1.
    10030    2    1    2    0    0  0.00000000000E+00  0.00000000000E+00 -0.12692414219E+04  0.38200904740E+04  0.36030705575E+04 0.  0.
        4    1    3    3  502    0  0.33460679455E+03 -0.31883770776E+03  0.12114950553E+04  0.12966653665E+04  0.12699999809E+01 0. -1.
       -4    1    3    3    0  502 -0.33460679455E+03  0.31883770776E+03 -0.24807364772E+04  0.25234251075E+04  0.12699999809E+01 0.  1.
</event>
<event>
 5   0  0.3212523E-08  0.3595997E+04  0.7818609E-02  0.8091409E-01
       -1   -1    0    0    0  501  0.00000000000E+00  0.00000000000E+00  0.27346830244E+04  0.27346830244E+04  0.50400001928E-02 0. -1.
        1   -1    0    0  501    0  0.00000000000E+00  0.00000000000E+00 -0.11821474168E+04  0.11821474168E+04  0.50400001928E-02 0.  1.
    10030    2    1    2    0    0  0.00000000000E+00  0.00000000000E+00  0.15525356076E+04  0.39168304412E+04  0.35959969260E+04 0.  0.
        3    1    3    3  502    0  0.16787954257E+03  0.11631519415E+04 -0.70590858756E+03  0.13709168188E+04  0.10100000352E+00 0.  1.
       -3    1    3    3    0  502 -0.16787954257E+03 -0.11631519415E+04  0.22584441952E+04  0.25459136224E+04  0.10100000352E+00 0. -1.
</event>
<event>
 5   0  0.1029908E-07  0.3629482E+04  0.7818609E-02  0.8083772E-01
       -2   -1    0    0    0  501  0.00000000000E+00  0.00000000000E+00  0.14604132819E+04  0.14604132819E+04  0.25500000920E-02 0. -1.
        2   -1    0    0  501    0  0.00000000000E+00  0.00000000000E+00 -0.22550363557E+04  0.22550363557E+04  0.25500000920E-02 0.  1.
    10030    2    1    2    0    0  0.00000000000E+00  0.00000000000E+00 -0.79462307388E+03  0.37154496376E+04  0.36294820815E+04 0.  0.
        4    1    3    3  502    0 -0.89945715106E+03  0.82591022003E+03 -0.17715436426E+04  0.21516317874E+04  0.12699999809E+01 0.  1.
       -4    1    3    3    0  502  0.89945715106E+03 -0.82591022003E+03  0.97692056870E+03  0.15638178502E+04  0.12699999809E+01 0. -1.
</event>
<event>
 5   0  0.1017794E-07  0.3599369E+04  0.7818609E-02  0.8090636E-01
        2   -1    0    0  501    0  0.00000000000E+00  0.00000000000E+00  0.24633364731E+04  0.24633364731E+04  0.25500000920E-02 0.  1.
       -2   -1    0    0    0  501  0.00000000000E+00  0.00000000000E+00 -0.13148284355E+04  0.13148284355E+04  0.25500000920E-02 0. -1.
    10030    2    1    2    0    0  0.00000000000E+00  0.00000000000E+00  0.11485080375E+04  0.37781649086E+04  0.35993693009E+04 0.  0.
        1    1    3    3  502    0  0.15147185755E+04  0.89531151176E+03  0.17744140455E+03  0.17684571010E+04  0.50400001928E-02 0. -1.
       -1    1    3    3    0  502 -0.15147185755E+04 -0.89531151176E+03  0.97106663298E+03  0.20097078076E+04  0.50400001928E-02 0.  1.
</event>
<event>
 5   0  0.3215494E-08  0.3601439E+04  0.7818609E-02  0.8090162E-01
        1   -1    0    0  501    0  0.00000000000E+00  0.00000000000E+00  0.18675481928E+04  0.18675481928E+04  0.50400001928E-02 0.  1.
       -1   -1    0    0    0  501  0.00000000000E+00  0.00000000000E+00 -0.17362821553E+04  0.17362821553E+04  0.50400001928E-02 0. -1.
    10030    2    1    2    0    0  0.00000000000E+00  0.00000000000E+00  0.13126603748E+03  0.36038303481E+04  0.36014389354E+04 0.  0.
        4    1    3    3  502    0  0.20539229933E+03  0.10365449997E+04  0.15246744021E+04  0.18550593463E+04  0.12699999809E+01 0.  1.
       -4    1    3    3    0  502 -0.20539229933E+03 -0.10365449997E+04 -0.13934083646E+04  0.17487710018E+04  0.12699999809E+01 0. -1.
</event>
<event>
 5   0  0.9905335E-08  0.3599254E+04  0.7818609E-02  0.8090663E-01
        2   -1    0    0  501    0  0.00000000000E+00  0.00000000000E+00  0.19332010030E+04  0.19332010030E+04  0.25500000920E-02 0. -1.
       -2   -1    0    0    0  501  0.00000000000E+00  0.00000000000E+00 -0.16752819813E+04  0.16752819813E+04  0.25500000920E-02 0.  1.
    10030    2    1    2    0    0  0.00000000000E+00  0.00000000000E+00  0.25791902174E+03  0.36084829843E+04  0.35992537041E+04 0.  0.
        5    1    3    3  502    0 -0.71066247420E+03  0.87401489094E+03  0.15360152784E+04  0.19048118561E+04  0.46999998093E+01 0. -1.
       -5    1    3    3    0  502  0.71066247420E+03 -0.87401489094E+03 -0.12780962566E+04  0.17036711282E+04  0.46999998093E+01 0.  1.
</event>
<event>
 5   0  0.3215494E-08  0.3595498E+04  0.7818609E-02  0.8091524E-01
       -1   -1    0    0    0  501  0.00000000000E+00  0.00000000000E+00  0.16555082340E+04  0.16555082340E+04  0.50400001928E-02 0. -1.
        1   -1    0    0  501    0  0.00000000000E+00  0.00000000000E+00 -0.19522108234E+04  0.19522108234E+04  0.50400001928E-02 0.  1.
    10030    2    1    2    0    0  0.00000000000E+00  0.00000000000E+00 -0.29670258937E+03  0.36077190574E+04  0.35954977917E+04 0.  0.
        4    1    3    3  502    0 -0.14493927790E+04  0.15281506558E+03  0.90775068277E+03  0.17170045972E+04  0.12699999809E+01 0. -1.
       -4    1    3    3    0  502  0.14493927790E+04 -0.15281506558E+03 -0.12044532721E+04  0.18907144601E+04  0.12699999809E+01 0.  1.
</event>
<event>
 5   0  0.3202875E-08  0.3599899E+04  0.7818609E-02  0.8090515E-01
        1   -1    0    0  501    0  0.00000000000E+00  0.00000000000E+00  0.19899082113E+04  0.19899082113E+04  0.50400001928E-02 0. -1.
       -1   -1    0    0    0  501  0.00000000000E+00  0.00000000000E+00 -0.16281242349E+04  0.16281242349E+04  0.50400001928E-02 0.  1.
    10030    2    1    2    0    0  0.00000000000E+00  0.00000000000E+00  0.36178397636E+03  0.36180324462E+04  0.35998987675E+04 0.  0.
        1    1    3    3  502    0  0.25057854947E+03 -0.12530360807E+04  0.14549244101E+04  0.19364126803E+04  0.50400001928E-02 0. -1.
       -1    1    3    3    0  502 -0.25057854947E+03  0.12530360807E+04 -0.10931404338E+04  0.16816197659E+04  0.50400001928E-02 0.  1.
</event>
<event>
 5   0  0.3212523E-08  0.3604039E+04  0.7818609E-02  0.8089567E-01
       -1   -1    0    0    0  501  0.00000000000E+00  0.00000000000E+00  0.26495878743E+04  0.26495878743E+04  0.50400001928E-02 0.  1.
        1   -1    0    0  501    0  0.00000000000E+00  0.00000000000E+00 -0.12255770579E+04  0.12255770579E+04  0.50400001928E-02 0. -1.
    10030    2    1    2    0    0  0.00000000000E+00  0.00000000000E+00  0.14240108164E+04  0.38751649322E+04  0.36040389074E+04 0.  0.
        3    1    3    3  502    0  0.67668424624E+03  0.12227468007E+04 -0.51123537998E+03  0.14880769240E+04  0.10100000352E+00 0. -1.
       -3    1    3    3    0  502 -0.67668424624E+03 -0.12227468007E+04  0.19352461964E+04  0.23870880082E+04  0.10100000352E+00 0.  1.
</event>
<event>
 5   0  0.3212523E-08  0.3595254E+04  0.7818609E-02  0.8091580E-01
       -1   -1    0    0    0  501  0.00000000000E+00  0.00000000000E+00  0.14047196443E+04  0.14047196443E+04  0.50400001928E-02 0.  1.
        1   -1    0    0  501    0  0.00000000000E+00  0.00000000000E+00 -0.23004325666E+04  0.23004325666E+04  0.50400001928E-02 0. -1.
    10030    2    1    2    0    0  0.00000000000E+00  0.00000000000E+00 -0.89571292229E+03  0.37051522109E+04  0.35952539920E+04 0.  0.
        3    1    3    3  502    0  0.94944492864E+02 -0.15044976296E+04  0.56132930014E+03  0.16086075244E+04  0.10100000352E+00 0.  1.
       -3    1    3    3    0  502 -0.94944492864E+02  0.15044976296E+04 -0.14570422224E+04  0.20965446865E+04  0.10100000352E+00 0. -1.
</event>
<event>
 5   0  0.9905335E-08  0.3597150E+04  0.7818609E-02  0.8091145E-01
       -2   -1    0    0    0  501  0.00000000000E+00  0.00000000000E+00  0.12810578354E+04  0.12810578354E+04  0.25500000920E-02 0. -1.
        2   -1    0    0  501    0  0.00000000000E+00  0.00000000000E+00 -0.25251568369E+04  0.25251568369E+04  0.25500000920E-02 0.  1.
    10030    2    1    2    0    0  0.00000000000E+00  0.00000000000E+00 -0.12440990015E+04  0.38062146722E+04  0.35971499559E+04 0.  0.
        5    1    3    3  502    0 -0.20288599766E+03 -0.16132196955E+04 -0.14356390890E+04  0.21690371592E+04  0.46999998093E+01 0.  1.
       -5    1    3    3    0  502  0.20288599766E+03  0.16132196955E+04  0.19154008750E+03  0.16371775130E+04  0.46999998093E+01 0. -1.
</event>
<event>
 5   0  0.1017794E-07  0.3595512E+04  0.7818609E-02  0.8091521E-01
        2   -1    0    0  501    0  0.00000000000E+00  0.00000000000E+00  0.97890070553E+03  0.97890070553E+03  0.25500000920E-02 0.  1.
       -2   -1    0    0    0  501  0.00000000000E+00  0.00000000000E+00 -0.33015873908E+04  0.33015873908E+04  0.25500000920E-02 0. -1.
    10030    2    1    2    0    0  0.00000000000E+00  0.00000000000E+00 -0.23226866853E+04  0.42804880963E+04  0.35955117723E+04 0.  0.
        1    1    3    3  502    0  0.81582844038E+02  0.95644415788E+03  0.64826320475E+03  0.11583118623E+04  0.50400001928E-02 0.  1.
       -1    1    3    3    0  502 -0.81582844038E+02 -0.95644415788E+03 -0.29709498900E+04  0.31221762341E+04  0.50400001928E-02 0. -1.
</event>
<event>
 5   0  0.3215494E-08  0.3600390E+04  0.7818609E-02  0.8090402E-01
        1   -1    0    0  501    0  0.00000000000E+00  0.00000000000E+00  0.19668599431E+04  0.19668599432E+04  0.50400001928E-02 0. -1.
       -1   -1    0    0    0  501  0.00000000000E+00  0.00000000000E+00 -0.16476529461E+04  0.16476529461E+04  0.50400001928E-02 0.  1.
    10030    2    1    2    0    0  0.00000000000E+00  0.00000000000E+00  0.31920699705E+03  0.36145128893E+04  0.36003903010E+04 0.  0.
        4    1    3    3  502    0 -0.12083251475E+04  0.32239401280E+03  0.14595623723E+04  0.19220591805E+04  0.12699999809E+01 0. -1.
       -4    1    3    3    0  502  0.12083251475E+04 -0.32239401280E+03 -0.11403553753E+04  0.16924537088E+04  0.12699999809E+01 0.  1.
</event>
<event>
 5   0  0.3212523E-08  0.3598873E+04  0.7818609E-02  0.8090750E-01
        1   -1    0    0  501    0  0.00000000000E+00  0.00000000000E+00  0.17879844183E+04  0.17879844183E+04  0.50400001928E-02 0.  1.
       -1   -1    0    0    0  501  0.00000000000E+00  0.00000000000E+00 -0.18109615075E+04  0.18109615075E+04  0.50400001928E-02 0. -1.
    10030    2    1    2    0    0  0.00000000000E+00  0.00000000000E+00 -0.22977089182E+02  0.35989459258E+04  0.35988725777E+04 0.  0.
        3    1    3    3  502    0  0.29210736309E+03 -0.13289117699E+04 -0.11890683788E+04  0.18069910967E+04  0.10100000352E+00 0. -1.
       -3    1    3    3    0  502 -0.29210736309E+03  0.13289117699E+04  0.11660912896E+04  0.17919548292E+04  0.10100000352E+00 0.  1.
</event>
<event>
 5   0  0.9905335E-08  0.3599215E+04  0.7818609E-02  0.8090672E-01
        2   -1    0    0  501    0  0.00000000000E+00  0.00000000000E+00  0.25848044486E+04  0.25848044486E+04  0.25500000920E-02 0. -1.
       -2   -1    0    0    0  501  0.00000000000E+00  0.00000000000E+00 -0.12529329226E+04  0.12529329226E+04  0.25500000920E-02 0.  1.
    10030    2    1    2    0    0  0.00000000000E+00  0.00000000000E+00  0.13318715261E+04  0.38377373712E+04  0.35992146877E+04 0.  0.
        5    1    3    3  502    0  0.15628611389E+04 -0.69440669276E+03  0.68606252422E+02  0.17115678492E+04  0.46999998093E+01 0.  1.
       -5    1    3    3    0  502 -0.15628611389E+04  0.69440669276E+03  0.12632652736E+04  0.21261695220E+04  0.46999998093E+01 0. -1.
</event>
<event>
 5   0  0.3279988E-08  0.3596758E+04  0.7818609E-02  0.8091235E-01
        1   -1    0    0  501    0  0.00000000000E+00  0.00000000000E+00  0.14096064184E+04  0.14096064184E+04  0.50400001928E-02 0.  1.
       -1   -1    0    0    0  501  0.00000000000E+00  0.00000000000E+00 -0.22943764252E+04  0.22943764252E+04  0.50400001928E-02 0. -1.
    10030    2    1    2    0    0  0.00000000000E+00  0.00000000000E+00 -0.88477000682E+03  0.37039828436E+04  0.35967583934E+04 0.  0.
        5    1    3    3  502    0 -0.53680815786E+03 -0.17981406550E+03  0.13154429144E+04  0.14320992450E+04  0.46999998093E+01 0.  1.
       -5    1    3    3    0  502  0.53680815786E+03  0.17981406550E+03 -0.22002129213E+04  0.22718835985E+04  0.46999998093E+01 0. -1.
</event>
<event>
 5   0  0.3212523E-08  0.3628601E+04  0.7818609E-02  0.8083971E-01
       -1   -1    0    0    0  501  0.00000000000E+00  0.00000000000E+00  0.15467437268E+04  0.15467437268E+04  0.50400001928E-02 0. -1.
        1   -1    0    0  501    0  0.00000000000E+00  0.00000000000E+00 -0.21281397443E+04  0.21281397443E+04  0.50400001928E-02 0.  1.
    10030    2    1    2    0    0  0.00000000000E+00  0.00000000000E+00 -0.58139601751E+03  0.36748834710E+04  0.36286012728E+04 0.  0.
        3    1    3    3  502    0  0.53997889149E+02 -0.12220244222E+04  0.10663282126E+04  0.16227493114E+04  0.10100000352E+00 0. -1.
       -3    1    3    3    0  502 -0.53997889149E+02  0.12220244222E+04 -0.16477242301E+04  0.20521341596E+04  0.10100000352E+00 0.  1.
</event>
<event>
 5   0  0.1029908E-07  0.3591557E+04  0.7818609E-02  0.8092428E-01
       -2   -1    0    0    0  501  0.00000000000E+00  0.00000000000E+00  0.22641870364E+04  0.22641870364E+04  0.25500000920E-02 0. -1.
        2   -1    0    0  501    0  0.00000000000E+00  0.00000000000E+00 -0.14242727830E+04  0.14242727830E+04  0.25500000920E-02 0.  1.
    10030    2    1    2    0    0  0.00000000000E+00  0.00000000000E+00  0.83991425335E+03  0.36884598194E+04  0.35915567497E+04 0.  0.
        4    1    3    3  502    0 -0.62416945050E+03 -0.91556144517E+02  0.21466439604E+04  0.22374208224E+04  0.12699999809E+01 0. -1.
       -4    1    3    3    0  502  0.62416945050E+03  0.91556144517E+02 -0.13067297071E+04  0.14510389970E+04  0.12699999809E+01 0.  1.
</event>
<event>
 5   0  0.1044678E-07  0.3594879E+04  0.7818609E-02  0.8091666E-01
        2   -1    0    0  501    0  0.00000000000E+00  0.00000000000E+00  0.17680786845E+04  0.17680786845E+04  0.25500000920E-02 0. -1.
       -2   -1    0    0    0  501  0.00000000000E+00  0.00000000000E+00 -0.18272874836E+04  0.18272874836E+04  0.25500000920E-02 0.  1.
    10030    2    1    2    0    0  0.00000000000E+00  0.00000000000E+00 -0.59208799144E+02  0.35953661681E+04  0.35948786073E+04 0.  0.
        2    1    3    3  502    0  0.11151175853E+04 -0.12325925791E+04  0.65460559354E+03  0.17864154551E+04  0.25500000920E-02 0.  1.
       -2    1    3    3    0  502 -0.11151175853E+04  0.12325925791E+04 -0.71381439269E+03  0.18089507131E+04  0.25500000920E-02 0. -1.
</event>
<event>
 5   0  0.3202875E-08  0.3626610E+04  0.7818609E-02  0.8084423E-01
        1   -1    0    0  501    0  0.00000000000E+00  0.00000000000E+00  0.10613180282E+04  0.10613180282E+04  0.50400001928E-02 0.  1.
       -1   -1    0    0    0  501  0.00000000000E+00  0.00000000000E+00 -0.30981057702E+04  0.30981057702E+04  0.50400001928E-02 0. -1.
    10030    2    1    2    0    0  0.00000000000E+00  0.00000000000E+00 -0.20367877420E+04  0.41594237985E+04  0.36266102671E+04 0.  0.
        2    1    3    3  502    0 -0.16695213179E+04 -0.62657295281E+03 -0.13956241975E+04  0.22644341450E+04  0.25500000920E-02 0. -1.
       -2    1    3    3    0  502  0.16695213179E+04  0.62657295281E+03 -0.64116354448E+03  0.18949896535E+04  0.25500000920E-02 0.  1.
</event>
<event>
 5   0  0.1044678E-07  0.3588197E+04  0.7818609E-02  0.8093201E-01
        2   -1    0    0  501    0  0.00000000000E+00  0.00000000000E+00  0.18890711143E+04  0.18890711143E+04  0.25500000920E-02 0.  1.
       -2   -1    0    0    0  501  0.00000000000E+00  0.00000000000E+00 -0.17039006018E+04  0.17039006018E+04  0.25500000920E-02 0. -1.
    10030    2    1    2    0    0  0.00000000000E+00  0.00000000000E+00  0.18517051247E+03  0.35929717161E+04  0.35881969893E+04 0.  0.
        2    1    3    3  502    0  0.15927580202E+04  0.79198993057E+03  0.32669809755E+03  0.18085513009E+04  0.25500000920E-02 0.  1.
       -2    1    3    3    0  502 -0.15927580202E+04 -0.79198993057E+03 -0.14152758508E+03  0.17844204152E+04  0.25500000920E-02 0. -1.
</event>
<event>
 5   0  0.3202875E-08  0.3603213E+04  0.7818609E-02  0.8089756E-01
       -1   -1    0    0    0  501  0.00000000000E+00  0.00000000000E+00  0.12311508643E+04  0.12311508643E+04  0.50400001928E-02 0.  1.
        1   -1    0    0  501    0  0.00000000000E+00  0.00000000000E+00 -0.26363837547E+04  0.26363837547E+04  0.50400001928E-02 0. -1.
    10030    2    1    2    0    0  0.00000000000E+00  0.00000000000E+00 -0.14052328904E+04  0.38675346190E+04  0.36032130873E+04 0.  0.
        2    1    3    3  502    0  0.49654707990E+03 -0.40962659666E+03 -0.25087398588E+04  0.25900055271E+04  0.25500000920E-02 0. -1.
       -2    1    3    3    0  502 -0.49654707990E+03  0.40962659666E+03  0.11035069684E+04  0.12775290919E+04  0.25500000920E-02 0.  1.
</event>
<event>
 5   0  0.3202875E-08  0.3597768E+04  0.7818609E-02  0.8091003E-01
        1   -1    0    0  501    0  0.00000000000E+00  0.00000000000E+00  0.20982083981E+04  0.20982083982E+04  0.50400001928E-02 0. -1.
       -1   -1    0    0    0  501  0.00000000000E+00  0.00000000000E+00 -0.15422602935E+04  0.15422602935E+04  0.50400001928E-02 0.  1.
    10030    2    1    2    0    0  0.00000000000E+00  0.00000000000E+00  0.55594810464E+03  0.36404686917E+04  0.35977679191E+04 0.  0.
        1    1    3    3  502    0  0.16762966285E+04 -0.64827388687E+03  0.35473001613E+03  0.18319560048E+04  0.50400001928E-02 0. -1.
       -1    1    3    3    0  502 -0.16762966285E+04  0.64827388687E+03  0.20121808850E+03  0.18085126868E+04  0.50400001928E-02 0.  1.
</event>
<event>
 5   0  0.1044678E-07  0.3594572E+04  0.7818609E-02  0.8091736E-01
       -2   -1    0    0    0  501  0.00000000000E+00  0.00000000000E+00  0.11141655687E+04  0.11141655687E+04  0.25500000920E-02 0. -1.
        2   -1    0    0  501    0  0.00000000000E+00  0.00000000000E+00 -0.28992428019E+04  0.28992428019E+04  0.25500000920E-02 0.  1.
    10030    2    1    2    0    0  0.00000000000E+00  0.00000000000E+00 -0.17850772332E+04  0.40134083705E+04  0.35945717436E+04 0.  0.
        2    1    3    3  502    0  0.17766597571E+03 -0.13322744753E+04 -0.22247645494E+04  0.25992494641E+04  0.25500000920E-02 0.  1.
       -2    1    3    3    0  502 -0.17766597571E+03  0.13322744753E+04  0.43968731618E+03  0.14141589064E+04  0.25500000920E-02 0. -1.
</event>
<event>
 5   0  0.1029908E-07  0.3603511E+04  0.7818609E-02  0.8089688E-01
       -2   -1    0    0    0  501  0.00000000000E+00  0.00000000000E+00  0.27710808165E+04  0.27710808165E+04  0.25500000920E-02 0.  1.
        2   -1    0    0  501    0  0.00000000000E+00  0.00000000000E+00 -0.11715003004E+04  0.11715003004E+04  0.25500000920E-02 0. -1.
    10030    2    1    2    0    0  0.00000000000E+00  0.00000000000E+00  0.15995805161E+04  0.39425811169E+04  0.36035105156E+04 0.  0.
        4    1    3    3  502    0  0.69766722070E+03 -0.87497213267E+03  0.23447526888E+04  0.25981113464E+04  0.12699999809E+01 0.  1.
       -4    1    3    3    0  502 -0.69766722070E+03  0.87497213267E+03 -0.74517217273E+03  0.13444697705E+04  0.12699999809E+01 0. -1.
</event>
<event>
 5   0  0.1017794E-07  0.3608880E+04  0.7818609E-02  0.8088461E-01
       -2   -1    0    0    0  501  0.00000000000E+00  0.00000000000E+00  0.18563068595E+04  0.18563068595E+04  0.25500000920E-02 0. -1.
        2   -1    0    0  501    0  0.00000000000E+00  0.00000000000E+00 -0.17540222793E+04  0.17540222793E+04  0.25500000920E-02 0.  1.
    10030    2    1    2    0    0  0.00000000000E+00  0.00000000000E+00  0.10228458022E+03  0.36103291388E+04  0.36088799309E+04 0.  0.
        1    1    3    3  502    0  0.92611173896E+03 -0.13638962452E+04 -0.68271050701E+03  0.17843737156E+04  0.50400001928E-02 0.  1.
       -1    1    3    3    0  502 -0.92611173896E+03  0.13638962452E+04  0.78499508723E+03  0.18259554232E+04  0.50400001928E-02 0. -1.
</event>
<event>
 5   0  0.1017794E-07  0.3593557E+04  0.7818609E-02  0.8091969E-01
       -2   -1    0    0    0  501  0.00000000000E+00  0.00000000000E+00  0.19316996597E+04  0.19316996597E+04  0.25500000920E-02 0.  1.
        2   -1    0    0  501    0  0.00000000000E+00  0.00000000000E+00 -0.16712807748E+04  0.16712807748E+04  0.25500000920E-02 0. -1.
    10030    2    1    2    0    0  0.00000000000E+00  0.00000000000E+00  0.26041888488E+03  0.36029804346E+04  0.35935567362E+04 0.  0.
        1    1    3    3  502    0 -0.15999612841E+04 -0.80604035849E+03 -0.73923399584E+01  0.17915445339E+04  0.50400001928E-02 0.  1.
       -1    1    3    3    0  502  0.15999612841E+04  0.80604035849E+03  0.26781122484E+03  0.18114359007E+04  0.50400001928E-02 0. -1.
</event>
<event>
 5   0  0.3202875E-08  0.3601897E+04  0.7818609E-02  0.8090057E-01
        1   -1    0    0  501    0  0.00000000000E+00  0.00000000000E+00  0.20968075092E+04  0.20968075092E+04  0.50400001928E-02 0. -1.
       -1   -1    0    0    0  501  0.00000000000E+00  0.00000000000E+00 -0.15468352730E+04  0.15468352731E+04  0.50400001928E-02 0.  1.
    10030    2    1    2    0    0  0.00000000000E+00  0.00000000000E+00  0.54997223617E+03  0.36436427823E+04  0.36018971757E+04 0.  0.
        2    1    3    3  502    0 -0.60804186488E+03 -0.94490258160E+03 -0.11487561386E+04  0.16069214244E+04  0.25500000920E-02 0.  1.
       -2    1    3    3    0  502  0.60804186488E+03  0.94490258160E+03  0.16987283748E+04  0.20367213579E+04  0.25500000920E-02 0. -1.
</event>
<event>
 5   0  0.3202875E-08  0.3601963E+04  0.7818609E-02  0.8090042E-01
       -1   -1    0    0    0  501  0.00000000000E+00  0.00000000000E+00  0.12340726412E+04  0.12340726412E+04  0.50400001928E-02 0. -1.
        1   -1    0    0  501    0  0.00000000000E+00  0.00000000000E+00 -0.26283173601E+04  0.26283173601E+04  0.50400001928E-02 0.  1.
    10030    2    1    2    0    0  0.00000000000E+00  0.00000000000E+00 -0.13942447189E+04  0.38623900012E+04  0.36019631016E+04 0.  0.
        2    1    3    3  502    0 -0.39158878176E+03  0.13028665839E+04  0.56834385220E+03  0.14743872774E+04  0.25500000920E-02 0. -1.
       -2    1    3    3    0  502  0.39158878176E+03 -0.13028665839E+04 -0.19625885711E+04  0.23880027238E+04  0.25500000920E-02 0.  1.
</event>
<event>
 5   0  0.1017794E-07  0.3602574E+04  0.7818609E-02  0.8089902E-01
       -2   -1    0    0    0  501  0.00000000000E+00  0.00000000000E+00  0.17373967744E+04  0.17373967744E+04  0.25500000920E-02 0.  1.
        2   -1    0    0  501    0  0.00000000000E+00  0.00000000000E+00 -0.18675270581E+04  0.18675270581E+04  0.25500000920E-02 0. -1.
    10030    2    1    2    0    0  0.00000000000E+00  0.00000000000E+00 -0.13013028367E+03  0.36049238325E+04  0.36025743500E+04 0.  0.
        1    1    3    3  502    0 -0.32157468649E+03  0.90037401958E+03 -0.15926752508E+04  0.18576054771E+04  0.50400001928E-02 0. -1.
       -1    1    3    3    0  502  0.32157468649E+03 -0.90037401958E+03  0.14625449671E+04  0.17473183554E+04  0.50400001928E-02 0.  1.
</event>
<event>
 5   0  0.9905335E-08  0.3602665E+04  0.7818609E-02  0.8089882E-01
       -2   -1    0    0    0  501  0.00000000000E+00  0.00000000000E+00  0.11869446449E+04  0.11869446449E+04  0.25500000920E-02 0. -1.
        2   -1    0    0  501    0  0.00000000000E+00  0.00000000000E+00 -0.27337406512E+04  0.27337406512E+04  0.25500000920E-02 0.  1.
    10030    2    1    2    0    0  0.00000000000E+00  0.00000000000E+00 -0.15467960063E+04  0.39206852960E+04  0.36026650282E+04 0.  0.
        5    1    3    3  502    0  0.12511169843E+04 -0.86701379445E+02 -0.21805849821E+04  0.25155086547E+04  0.46999998093E+01 0.  1.
       -5    1    3    3    0  502 -0.12511169843E+04  0.86701379445E+02  0.63378897583E+03  0.14051766414E+04  0.46999998093E+01 0. -1.
</event>
<event>
 5   0  0.1029908E-07  0.3593364E+04  0.7818609E-02  0.8092013E-01
        2   -1    0    0  501    0  0.00000000000E+00  0.00000000000E+00  0.23879149189E+04  0.23879149189E+04  0.25500000920E-02 0.  1.
       -2   -1    0    0    0  501  0.00000000000E+00  0.00000000000E+00 -0.13518348461E+04  0.13518348461E+04  0.25500000920E-02 0. -1.
    10030    2    1    2    0    0  0.00000000000E+00  0.00000000000E+00  0.10360800728E+04  0.37397497650E+04  0.35933642159E+04 0.  0.
        4    1    3    3  502    0  0.86235460620E+03  0.13740061110E+04 -0.28576850554E+03  0.16471835088E+04  0.12699999809E+01 0.  1.
       -4    1    3    3    0  502 -0.86235460620E+03 -0.13740061110E+04  0.13218485783E+04  0.20925662563E+04  0.12699999809E+01 0. -1.
</event>
<event>
 5   0  0.3202875E-08  0.3589709E+04  0.7818609E-02  0.8092853E-01
       -1   -1    0    0    0  501  0.00000000000E+00  0.00000000000E+00  0.11355647421E+04  0.11355647421E+04  0.50400001928E-02 0.  1.
        1   -1    0    0  501    0  0.00000000000E+00  0.00000000000E+00 -0.28369169988E+04  0.28369169988E+04  0.50400001928E-02 0. -1.
    10030    2    1    2    0    0  0.00000000000E+00  0.00000000000E+00 -0.17013522568E+04  0.39724817409E+04  0.35897091359E+04 0.  0.
        1    1    3    3  502    0  0.60340829160E+03 -0.14092787187E+04 -0.18836639246E+04  0.24286535064E+04  0.50400001928E-02 0. -1.
       -1    1    3    3    0  502 -0.60340829160E+03  0.14092787187E+04  0.18231166785E+03  0.15438282345E+04  0.50400001928E-02 0.  1.
</event>
<event>
 5   0  0.1021087E-07  0.3613235E+04  0.7818609E-02  0.8087467E-01
        2   -1    0    0  501    0  0.00000000000E+00  0.00000000000E+00  0.16712355006E+04  0.16712355006E+04  0.25500000920E-02 0.  1.
       -2   -1    0    0    0  501  0.00000000000E+00  0.00000000000E+00 -0.19529669344E+04  0.19529669344E+04  0.25500000920E-02 0. -1.
    10030    2    1    2    0    0  0.00000000000E+00  0.00000000000E+00 -0.28173143382E+03  0.36242024350E+04  0.36132354876E+04 0.  0.
        3    1    3    3  502    0  0.51907301642E+03  0.17302896229E+04 -0.11780274106E+03  0.18103083913E+04  0.10100000352E+00 0.  1.
       -3    1    3    3    0  502 -0.51907301642E+03 -0.17302896229E+04 -0.16392869277E+03  0.18138940438E+04  0.10100000352E+00 0. -1.
</event>
<event>
 5   0  0.1017794E-07  0.3605718E+04  0.7818609E-02  0.8089183E-01
        2   -1    0    0  501    0  0.00000000000E+00  0.00000000000E+00  0.26004075602E+04  0.26004075602E+04  0.25500000920E-02 0. -1.
       -2   -1    0    0    0  501  0.00000000000E+00  0.00000000000E+00 -0.12499193856E+04  0.12499193856E+04  0.25500000920E-02 0.  1.
    10030    2    1    2    0    0  0.00000000000E+00  0.00000000000E+00  0.13504881746E+04  0.38503269459E+04  0.36057175819E+04 0.  0.
        1    1    3    3  502    0 -0.10139549297E+04  0.12486351644E+04 -0.19431119708E+03  0.16201701190E+04  0.50400001928E-02 0.  1.
       -1    1    3    3    0  502  0.10139549297E+04 -0.12486351644E+04  0.15447993717E+04  0.22301568268E+04  0.50400001928E-02 0. -1.
</event>
<event>
 5   0  0.3215494E-08  0.3605033E+04  0.7818609E-02  0.8089340E-01
        1   -1    0    0  501    0  0.00000000000E+00  0.00000000000E+00  0.20011917889E+04  0.20011917889E+04  0.50400001928E-02 0.  1.
       -1   -1    0    0    0  501  0.00000000000E+00  0.00000000000E+00 -0.16235653760E+04  0.16235653760E+04  0.50400001928E-02 0. -1.
    10030    2    1    2    0    0  0.00000000000E+00  0.00000000000E+00  0.37762641284E+03  0.36247571649E+04  0.36050329814E+04 0.  0.
        4    1    3    3  502    0  0.15962702729E+04  0.99511670015E+02  0.10246754237E+04  0.18994585264E+04  0.12699999809E+01 0.  1.
       -4    1    3    3    0  502 -0.15962702729E+04 -0.99511670015E+02 -0.64704901090E+03  0.17252986385E+04  0.12699999809E+01 0. -1.
</event>
<event>
 5   0  0.1021087E-07  0.3603560E+04  0.7818609E-02  0.8089677E-01
        2   -1    0    0  501    0  0.00000000000E+00  0.00000000000E+00  0.14314271235E+04  0.14314271235E+04  0.25500000920E-02 0.  1.
       -2   -1    0    0    0  501  0.00000000000E+00  0.00000000000E+00 -0.22679544554E+04  0.22679544554E+04  0.25500000920E-02 0. -1.
    10030    2    1    2    0    0  0.00000000000E+00  0.00000000000E+00 -0.83652733188E+03  0.36993815789E+04  0.36035601964E+04 0.  0.
        3    1    3    3  502    0 -0.13325406925E+04 -0.11473627260E+04 -0.15000850281E+02  0.17585024759E+04  0.10100000352E+00 0.  1.
       -3    1    3    3    0  502  0.13325406925E+04  0.11473627260E+04 -0.82152648160E+03  0.19408791030E+04  0.10100000352E+00 0. -1.
</event>
<event>
 5   0  0.1017794E-07  0.3595396E+04  0.7818609E-02  0.8091547E-01
       -2   -1    0    0    0  501  0.00000000000E+00  0.00000000000E+00  0.11112556532E+04  0.11112556532E+04  0.25500000920E-02 0.  1.
        2   -1    0    0  501    0  0.00000000000E+00  0.00000000000E+00 -0.29081673575E+04  0.29081673575E+04  0.25500000920E-02 0. -1.
    10030    2    1    2    0    0  0.00000000000E+00  0.00000000000E+00 -0.17969117043E+04  0.40194230107E+04  0.35953956202E+04 0.  0.
        1    1    3    3  502    0 -0.52214979863E+03  0.14561848098E+04  0.12529714088E+03  0.15520354333E+04  0.50400001928E-02 0.  1.
       -1    1    3    3    0  502  0.52214979863E+03 -0.14561848098E+04 -0.19222088452E+04  0.24673875774E+04  0.50400001928E-02 0. -1.
</event>
<event>
 5   0  0.3202875E-08  0.3607557E+04  0.7818609E-02  0.8088763E-01
       -1   -1    0    0    0  501  0.00000000000E+00  0.00000000000E+00  0.17963036306E+04  0.17963036306E+04  0.50400001928E-02 0. -1.
        1   -1    0    0  501    0  0.00000000000E+00  0.00000000000E+00 -0.18112843668E+04  0.18112843668E+04  0.50400001928E-02 0.  1.
    10030    2    1    2    0    0  0.00000000000E+00  0.00000000000E+00 -0.14980736152E+02  0.36075879974E+04  0.36075568930E+04 0.  0.
        2    1    3    3  502    0 -0.13530285073E+04  0.76317961801E+03  0.90929854256E+03  0.17999869751E+04  0.25500000920E-02 0. -1.
       -2    1    3    3    0  502  0.13530285073E+04 -0.76317961801E+03 -0.92427927871E+03  0.18076010223E+04  0.25500000920E-02 0.  1.
</event>
<event>
 5   0  0.9905335E-08  0.3624626E+04  0.7818609E-02  0.8084874E-01
       -2   -1    0    0    0  501  0.00000000000E+00  0.00000000000E+00  0.16918968296E+04  0.16918968296E+04  0.25500000920E-02 0. -1.
        2   -1    0    0  501    0  0.00000000000E+00  0.00000000000E+00 -0.19412992480E+04  0.19412992480E+04  0.25500000920E-02 0.  1.
    10030    2    1    2    0    0  0.00000000000E+00  0.00000000000E+00 -0.24940241841E+03  0.36331960776E+04  0.36246257975E+04 0.  0.
        5    1    3    3  502    0 -0.12914447574E+04 -0.10549939096E+02  0.11497274847E+04  0.17291142940E+04  0.46999998093E+01 0. -1.
       -5    1    3    3    0  502  0.12914447574E+04  0.10549939096E+02 -0.13991299031E+04  0.19040817836E+04  0.46999998093E+01 0.  1.
</event>
<event>
 5   0  0.3202875E-08  0.3593408E+04  0.7818609E-02  0.8092003E-01
        1   -1    0    0  501    0  0.00000000000E+00  0.00000000000E+00  0.17866050745E+04  0.17866050745E+04  0.50400001928E-02 0. -1.
       -1   -1    0    0    0  501  0.00000000000E+00  0.00000000000E+00 -0.18068599815E+04  0.18068599815E+04  0.50400001928E-02 0.  1.
    10030    2    1    2    0    0  0.00000000000E+00  0.00000000000E+00 -0.20254907004E+02  0.35934650560E+04  0.35934079712E+04 0.  0.
        1    1    3    3  502    0 -0.12622491989E+04 -0.57872392664E+03  0.11300445032E+04  0.17903058405E+04  0.50400001928E-02 0. -1.
       -1    1    3    3    0  502  0.12622491989E+04  0.57872392664E+03 -0.11502994102E+04  0.18031592155E+04  0.50400001928E-02 0.  1.
</event>
<event>
 5   0  0.1017794E-07  0.3598760E+04  0.7818609E-02  0.8090776E-01
        2   -1    0    0  501    0  0.00000000000E+00  0.00000000000E+00  0.19326016757E+04  0.19326016757E+04  0.25500000920E-02 0. -1.
       -2   -1    0    0    0  501  0.00000000000E+00  0.00000000000E+00 -0.16753414906E+04  0.16753414906E+04  0.25500000920E-02 0.  1.
    10030    2    1    2    0    0  0.00000000000E+00  0.00000000000E+00  0.25726018510E+03  0.36079431663E+04  0.35987596598E+04 0.  0.
        1    1    3    3  502    0  0.14549704795E+04 -0.49900341008E+03 -0.80746791789E+03  0.17372242049E+04  0.50400001928E-02 0.  1.
       -1    1    3    3    0  502 -0.14549704795E+04  0.49900341008E+03  0.10647281030E+04  0.18707189615E+04  0.50400001928E-02 0. -1.
</event>
<event>
 5   0  0.1044678E-07  0.3559450E+04  0.7818609E-02  0.8099844E-01
       -2   -1    0    0    0  501  0.00000000000E+00  0.00000000000E+00  0.16136693435E+04  0.16136693435E+04  0.25500000920E-02 0. -1.
        2   -1    0    0  501    0  0.00000000000E+00  0.00000000000E+00 -0.19628691311E+04  0.19628691311E+04  0.25500000920E-02 0.  1.
    10030    2    1    2    0    0  0.00000000000E+00  0.00000000000E+00 -0.34919978759E+03  0.35765384747E+04  0.35594503746E+04 0.  0.
        2    1    3    3  502    0 -0.40658389514E+03  0.13947735180E+04 -0.12075028835E+04  0.18891180069E+04  0.25500000920E-02 0. -1.
       -2    1    3    3    0  502  0.40658389514E+03 -0.13947735180E+04  0.85830309592E+03  0.16874204677E+04  0.25500000920E-02 0.  1.
</event>
<event>
 5   0  0.3202875E-08  0.3593043E+04  0.7818609E-02  0.8092087E-01
        3   -1    0    0  501    0  0.00000000000E+00  0.00000000000E+00  0.14208309930E+04  0.14208309966E+04  0.10100000352E+00 0.  1.
       -3   -1    0    0    0  501  0.00000000000E+00  0.00000000000E+00 -0.22715510864E+04  0.22715510886E+04  0.10100000352E+00 0. -1.
    10030    2    1    2    0    0  0.00000000000E+00  0.00000000000E+00 -0.85072009338E+03  0.36923820852E+04  0.35930433877E+04 0.  0.
        4    1    3    3  502    0 -0.17050298950E+04  0.55423641212E+03 -0.30736552460E+03  0.18190052561E+04  0.12699999809E+01 0.  1.
       -4    1    3    3    0  502  0.17050298950E+04 -0.55423641212E+03 -0.54335456879E+03  0.18733768290E+04  0.12699999809E+01 0. -1.
</event>
<event>
 5   0  0.3212523E-08  0.3598608E+04  0.7818609E-02  0.8090811E-01
        1   -1    0    0  501    0  0.00000000000E+00  0.00000000000E+00  0.17998216492E+04  0.17998216492E+04  0.50400001928E-02 0.  1.
       -1   -1    0    0    0  501  0.00000000000E+00  0.00000000000E+00 -0.17987860836E+04  0.17987860836E+04  0.50400001928E-02 0. -1.
    10030    2    1    2    0    0  0.00000000000E+00  0.00000000000E+00  0.10355655914E+01  0.35986077328E+04  0.35986075838E+04 0.  0.
        3    1    3    3  502    0  0.36729481954E+03 -0.10658966051E+04 -0.14017850486E+04  0.17989003280E+04  0.10100000352E+00 0. -1.
       -3    1    3    3    0  502 -0.36729481954E+03  0.10658966051E+04  0.14028206142E+04  0.17997074049E+04  0.10100000352E+00 0.  1.
</event>
<event>
 5   0  0.1021087E-07  0.3594625E+04  0.7818609E-02  0.8091724E-01
       -2   -1    0    0    0  501  0.00000000000E+00  0.00000000000E+00  0.24940225672E+04  0.24940225672E+04  0.25500000920E-02 0.  1.
        2   -1    0    0  501    0  0.00000000000E+00  0.00000000000E+00 -0.12952297835E+04  0.12952297835E+04  0.25500000920E-02 0. -1.
    10030    2    1    2    0    0  0.00000000000E+00  0.00000000000E+00  0.11987927838E+04  0.37892523507E+04  0.35946250484E+04 0.  0.
        3    1    3    3  502    0  0.78847102817E+03 -0.41357689973E+03 -0.10464190880E+04  0.13739451707E+04  0.10100000352E+00 0. -1.
       -3    1    3    3    0  502 -0.78847102817E+03  0.41357689973E+03  0.22452118717E+04  0.24153071799E+04  0.10100000352E+00 0.  1.
</event>
<event>
 5   0  0.9905335E-08  0.3592713E+04  0.7818609E-02  0.8092163E-01
        2   -1    0    0  501    0  0.00000000000E+00  0.00000000000E+00  0.17925201839E+04  0.17925201839E+04  0.25500000920E-02 0.  1.
       -2   -1    0    0    0  501  0.00000000000E+00  0.00000000000E+00 -0.18002005905E+04  0.18002005905E+04  0.25500000920E-02 0. -1.
    10030    2    1    2    0    0  0.00000000000E+00  0.00000000000E+00 -0.76804066374E+01  0.35927207743E+04  0.35927125649E+04 0.  0.
        5    1    3    3  502    0 -0.11897892395E+04 -0.10507513353E+04  0.83711177654E+03  0.17945626262E+04  0.46999998093E+01 0.  1.
       -5    1    3    3    0  502  0.11897892395E+04  0.10507513353E+04 -0.84479218318E+03  0.17981581481E+04  0.46999998093E+01 0. -1.
</event>
<event>
 5   0  0.3202875E-08  0.3601750E+04  0.7818609E-02  0.8090091E-01
        3   -1    0    0  501    0  0.00000000000E+00  0.00000000000E+00  0.17800634030E+04  0.17800634059E+04  0.10100000352E+00 0.  1.
       -3   -1    0    0    0  501  0.00000000000E+00  0.00000000000E+00 -0.18219301772E+04  0.18219301800E+04  0.10100000352E+00 0. -1.
    10030    2    1    2    0    0  0.00000000000E+00  0.00000000000E+00 -0.41866774215E+02  0.36019935859E+04  0.36017502642E+04 0.  0.
        4    1    3    3  502    0 -0.14534760063E+04  0.37621868265E+03 -0.10154937241E+04  0.18125567894E+04  0.12699999809E+01 0. -1.
       -4    1    3    3    0  502  0.14534760063E+04 -0.37621868265E+03  0.97362694988E+03  0.17894367965E+04  0.12699999809E+01 0.  1.
</event>
<event>
 5   0  0.1017794E-07  0.3608422E+04  0.7818609E-02  0.8088565E-01
        2   -1    0    0  501    0  0.00000000000E+00  0.00000000000E+00  0.19452393983E+04  0.19452393983E+04  0.25500000920E-02 0.  1.
       -2   -1    0    0    0  501  0.00000000000E+00  0.00000000000E+00 -0.16734066953E+04  0.16734066953E+04  0.25500000920E-02 0. -1.
    10030    2    1    2    0    0  0.00000000000E+00  0.00000000000E+00  0.27183270299E+03  0.36186460937E+04  0.36084216124E+04 0.  0.
        1    1    3    3  502    0 -0.88039414399E+02  0.16290033196E+04  0.90866700294E+03  0.18673720776E+04  0.50400001928E-02 0.  1.
       -1    1    3    3    0  502  0.88039414399E+02 -0.16290033196E+04 -0.63683429996E+03  0.17512740161E+04  0.50400001928E-02 0. -1.
</event>
<event>
 5   0  0.3202875E-08  0.3605228E+04  0.7818609E-02  0.8089295E-01
       -1   -1    0    0    0  501  0.00000000000E+00  0.00000000000E+00  0.29699712288E+04  0.29699712288E+04  0.50400001928E-02 0. -1.
        1   -1    0    0  501    0  0.00000000000E+00  0.00000000000E+00 -0.10940907356E+04  0.10940907356E+04  0.50400001928E-02 0.  1.
    10030    2    1    2    0    0  0.00000000000E+00  0.00000000000E+00  0.18758804932E+04  0.40640619644E+04  0.36052284291E+04 0.  0.
        1    1    3    3  502    0 -0.12257601207E+04  0.13216022980E+04  0.91849693550E+03  0.20230563828E+04  0.50400001928E-02 0.  1.
       -1    1    3    3    0  502  0.12257601207E+04 -0.13216022980E+04  0.95738355773E+03  0.20410055816E+04  0.50400001928E-02 0. -1.
</event>
<event>
 5   0  0.1021087E-07  0.3594326E+04  0.7818609E-02  0.8091793E-01
       -2   -1    0    0    0  501  0.00000000000E+00  0.00000000000E+00  0.22270110413E+04  0.22270110413E+04  0.25500000920E-02 0.  1.
        2   -1    0    0  501    0  0.00000000000E+00  0.00000000000E+00 -0.14502820193E+04  0.14502820193E+04  0.25500000920E-02 0. -1.
    10030    2    1    2    0    0  0.00000000000E+00  0.00000000000E+00  0.77672902196E+03  0.36772930606E+04  0.35943255667E+04 0.  0.
        3    1    3    3  502    0  0.74934759174E+03  0.10502143175E+04 -0.89164351631E+03  0.15682793426E+04  0.10100000352E+00 0. -1.
       -3    1    3    3    0  502 -0.74934759174E+03 -0.10502143175E+04  0.16683725383E+04  0.21090137180E+04  0.10100000352E+00 0.  1.
</event>
<event>
 5   0  0.1029908E-07  0.3640921E+04  0.7818609E-02  0.8081182E-01
       -2   -1    0    0    0  501  0.00000000000E+00  0.00000000000E+00  0.11340969624E+04  0.11340969624E+04  0.25500000920E-02 0.  1.
        2   -1    0    0  501    0  0.00000000000E+00  0.00000000000E+00 -0.29222157197E+04  0.29222157197E+04  0.25500000920E-02 0. -1.
    10030    2    1    2    0    0  0.00000000000E+00  0.00000000000E+00 -0.17881187573E+04  0.40563126821E+04  0.36409207468E+04 0.  0.
        4    1    3    3  502    0 -0.26989633895E+03 -0.66603120024E+03  0.96938121719E+03  0.12067075663E+04  0.12699999809E+01 0.  1.
       -4    1    3    3    0  502  0.26989633895E+03  0.66603120024E+03 -0.27574999745E+04  0.28496051158E+04  0.12699999809E+01 0. -1.
</event>
<event>
 5   0  0.1044678E-07  0.3601748E+04  0.7818609E-02  0.8090091E-01
       -2   -1    0    0    0  501  0.00000000000E+00  0.00000000000E+00  0.21989613631E+04  0.21989613631E+04  0.25500000920E-02 0.  1.
        2   -1    0    0  501    0  0.00000000000E+00  0.00000000000E+00 -0.14748543179E+04  0.14748543179E+04  0.25500000920E-02 0. -1.
    10030    2    1    2    0    0  0.00000000000E+00  0.00000000000E+00  0.72410704526E+03  0.36738156810E+04  0.36017482761E+04 0.  0.
        2    1    3    3  502    0  0.51445500130E+03 -0.16840004165E+04 -0.23162044733E+02  0.17609820645E+04  0.25500000920E-02 0. -1.
       -2    1    3    3    0  502 -0.51445500130E+03  0.16840004165E+04  0.74726908999E+03  0.19128336164E+04  0.25500000920E-02 0.  1.
</event>
<event>
 5   0  0.1029908E-07  0.3611582E+04  0.7818609E-02  0.8087844E-01
        2   -1    0    0  501    0  0.00000000000E+00  0.00000000000E+00  0.15278859248E+04  0.15278859248E+04  0.25500000920E-02 0.  1.
       -2   -1    0    0    0  501  0.00000000000E+00  0.00000000000E+00 -0.21342436155E+04  0.21342436155E+04  0.25500000920E-02 0. -1.
    10030    2    1    2    0    0  0.00000000000E+00  0.00000000000E+00 -0.60635769066E+03  0.36621295403E+04  0.36115818031E+04 0.  0.
        4    1    3    3  502    0  0.10468617305E+04  0.38647308108E+03 -0.17427668916E+04  0.20694247936E+04  0.12699999809E+01 0. -1.
       -4    1    3    3    0  502 -0.10468617305E+04 -0.38647308108E+03  0.11364092009E+04  0.15927047466E+04  0.12699999809E+01 0.  1.
</event>
<event>
 5   0  0.1017794E-07  0.3603980E+04  0.7818609E-02  0.8089581E-01
        2   -1    0    0  501    0  0.00000000000E+00  0.00000000000E+00  0.20140215689E+04  0.20140215689E+04  0.25500000920E-02 0.  1.
       -2   -1    0    0    0  501  0.00000000000E+00  0.00000000000E+00 -0.16122809779E+04  0.16122809779E+04  0.25500000920E-02 0. -1.
    10030    2    1    2    0    0  0.00000000000E+00  0.00000000000E+00  0.40174059103E+03  0.36263025469E+04  0.36039803910E+04 0.  0.
        1    1    3    3  502    0 -0.70288913178E+03  0.16298320794E+03 -0.14605844198E+04  0.16290867089E+04  0.50400001928E-02 0. -1.
       -1    1    3    3    0  502  0.70288913178E+03 -0.16298320794E+03  0.18623250108E+04  0.19972158380E+04  0.50400001928E-02 0.  1.
</event>
<event>
 5   0  0.3202875E-08  0.3601500E+04  0.7818609E-02  0.8090148E-01
       -3   -1    0    0    0  501  0.00000000000E+00  0.00000000000E+00  0.12785412978E+04  0.12785413018E+04  0.10100000352E+00 0. -1.
        3   -1    0    0  501    0  0.00000000000E+00  0.00000000000E+00 -0.25362502041E+04  0.25362502061E+04  0.10100000352E+00 0.  1.
    10030    2    1    2    0    0  0.00000000000E+00  0.00000000000E+00 -0.12577089063E+04  0.38147915080E+04  0.36015000425E+04 0.  0.
        4    1    3    3  502    0  0.16982378013E+04  0.28976813800E+03 -0.11840346449E+04  0.20904346095E+04  0.12699999809E+01 0.  1.
       -4    1    3    3    0  502 -0.16982378013E+04 -0.28976813800E+03 -0.73674261354E+02  0.17243568984E+04  0.12699999809E+01 0. -1.
</event>
<event>
 5   0  0.3202875E-08  0.3611270E+04  0.7818609E-02  0.8087915E-01
       -1   -1    0    0    0  501  0.00000000000E+00  0.00000000000E+00  0.12924170180E+04  0.12924170180E+04  0.50400001928E-02 0.  1.
        1   -1    0    0  501    0  0.00000000000E+00  0.00000000000E+00 -0.25226511537E+04  0.25226511537E+04  0.50400001928E-02 0. -1.
    10030    2    1    2    0    0  0.00000000000E+00  0.00000000000E+00 -0.12302341357E+04  0.38150681717E+04  0.36112697388E+04 0.  0.
        1    1    3    3  502    0  0.68664636132E+03  0.37732289729E+03  0.11034843402E+04  0.13533415990E+04  0.50400001928E-02 0.  1.
       -1    1    3    3    0  502 -0.68664636132E+03 -0.37732289729E+03 -0.23337184759E+04  0.24617265728E+04  0.50400001928E-02 0. -1.
</event>
<event>
 5   0  0.1017794E-07  0.3630843E+04  0.7818609E-02  0.8083463E-01
       -2   -1    0    0    0  501  0.00000000000E+00  0.00000000000E+00  0.17028910397E+04  0.17028910397E+04  0.25500000920E-02 0.  1.
        2   -1    0    0  501    0  0.00000000000E+00  0.00000000000E+00 -0.19353878087E+04  0.19353878087E+04  0.25500000920E-02 0. -1.
    10030    2    1    2    0    0  0.00000000000E+00  0.00000000000E+00 -0.23249676901E+03  0.36382788484E+04  0.36308426337E+04 0.  0.
        1    1    3    3  502    0 -0.17062617969E+04 -0.38306163035E+02  0.50385493773E+03  0.17795129896E+04  0.50400001928E-02 0.  1.
       -1    1    3    3    0  502  0.17062617969E+04  0.38306163035E+02 -0.73635170674E+03  0.18587658588E+04  0.50400001928E-02 0. -1.
</event>
<event>
 5   0  0.3202875E-08  0.3593067E+04  0.7818609E-02  0.8092082E-01
        1   -1    0    0  501    0  0.00000000000E+00  0.00000000000E+00  0.19910472658E+04  0.19910472658E+04  0.50400001928E-02 0.  1.
       -1   -1    0    0    0  501  0.00000000000E+00  0.00000000000E+00 -0.16210224004E+04  0.16210224004E+04  0.50400001928E-02 0. -1.
    10030    2    1    2    0    0  0.00000000000E+00  0.00000000000E+00  0.37002486541E+03  0.36120696662E+04  0.35930667782E+04 0.  0.
        2    1    3    3  502    0 -0.64197818606E+03  0.46732695128E+03 -0.14350320899E+04  0.16400754769E+04  0.25500000920E-02 0. -1.
       -2    1    3    3    0  502  0.64197818606E+03 -0.46732695128E+03  0.18050569553E+04  0.19719941893E+04  0.25500000920E-02 0.  1.
</event>
<event>
 5   0  0.3212523E-08  0.3596750E+04  0.7818609E-02  0.8091237E-01
        1   -1    0    0  501    0  0.00000000000E+00  0.00000000000E+00  0.19141316311E+04  0.19141316311E+04  0.50400001928E-02 0.  1.
       -1   -1    0    0    0  501  0.00000000000E+00  0.00000000000E+00 -0.16896185078E+04  0.16896185078E+04  0.50400001928E-02 0. -1.
    10030    2    1    2    0    0  0.00000000000E+00  0.00000000000E+00  0.22451312323E+03  0.36037501389E+04  0.35967497718E+04 0.  0.
        3    1    3    3  502    0 -0.14108190762E+04  0.10340824545E+04 -0.30618677042E+03  0.17758061091E+04  0.10100000352E+00 0. -1.
       -3    1    3    3    0  502  0.14108190762E+04 -0.10340824545E+04  0.53069989365E+03  0.18279440298E+04  0.10100000352E+00 0.  1.
</event>
<event>
 5   0  0.3215494E-08  0.3605280E+04  0.7818609E-02  0.8089283E-01
       -1   -1    0    0    0  501  0.00000000000E+00  0.00000000000E+00  0.11044823423E+04  0.11044823423E+04  0.50400001928E-02 0. -1.
        1   -1    0    0  501    0  0.00000000000E+00  0.00000000000E+00 -0.29421128783E+04  0.29421128784E+04  0.50400001928E-02 0.  1.
    10030    2    1    2    0    0  0.00000000000E+00  0.00000000000E+00 -0.18376305361E+04  0.40465952206E+04  0.36052804180E+04 0.  0.
        4    1    3    3  502    0  0.50967292540E+03 -0.17264162881E+04 -0.10266506875E+04  0.20722675836E+04  0.12699999809E+01 0. -1.
       -4    1    3    3    0  502 -0.50967292540E+03  0.17264162881E+04 -0.81097984857E+03  0.19743276371E+04  0.12699999809E+01 0.  1.
</event>
<event>
 5   0  0.1017794E-07  0.3573485E+04  0.7818609E-02  0.8096592E-01
       -2   -1    0    0    0  501  0.00000000000E+00  0.00000000000E+00  0.13463929510E+04  0.13463929510E+04  0.25500000920E-02 0.  1.
        2   -1    0    0  501    0  0.00000000000E+00  0.00000000000E+00 -0.23711128203E+04  0.23711128203E+04  0.25500000920E-02 0. -1.
    10030    2    1    2    0    0  0.00000000000E+00  0.00000000000E+00 -0.10247198693E+04  0.37175057713E+04  0.35734854623E+04 0.  0.
        1    1    3    3  502    0 -0.87769640186E+03  0.11951139236E+04 -0.15494331482E+04  0.21446191608E+04  0.50400001928E-02 0. -1.
       -1    1    3    3    0  502  0.87769640186E+03 -0.11951139236E+04  0.52471327900E+03  0.15728866104E+04  0.50400001928E-02 0.  1.
</event>
<event>
 5   0  0.3202875E-08  0.3577143E+04  0.7818609E-02  0.8095748E-01
       -1   -1    0    0    0  501  0.00000000000E+00  0.00000000000E+00  0.12912904403E+04  0.12912904403E+04  0.50400001928E-02 0.  1.
        1   -1    0    0  501    0  0.00000000000E+00  0.00000000000E+00 -0.24773572661E+04  0.24773572661E+04  0.50400001928E-02 0. -1.
    10030    2    1    2    0    0  0.00000000000E+00  0.00000000000E+00 -0.11860668258E+04  0.37686477064E+04  0.35771428570E+04 0.  0.
        2    1    3    3  502    0  0.48519118308E+03  0.14165919010E+04  0.43751874014E+03  0.15599890211E+04  0.25500000920E-02 0.  1.
       -2    1    3    3    0  502 -0.48519118308E+03 -0.14165919010E+04 -0.16235855659E+04  0.22086586853E+04  0.25500000920E-02 0. -1.
</event>
<event>
 5   0  0.3279988E-08  0.3599977E+04  0.7818609E-02  0.8090497E-01
        1   -1    0    0  501    0  0.00000000000E+00  0.00000000000E+00  0.19192663790E+04  0.19192663790E+04  0.50400001928E-02 0. -1.
       -1   -1    0    0    0  501  0.00000000000E+00  0.00000000000E+00 -0.16881230506E+04  0.16881230506E+04  0.50400001928E-02 0.  1.
    10030    2    1    2    0    0  0.00000000000E+00  0.00000000000E+00  0.23114332840E+03  0.36073894295E+04  0.35999765635E+04 0.  0.
        5    1    3    3  502    0 -0.72553866383E+03 -0.11860412922E+04  0.12610946398E+04  0.18770940520E+04  0.46999998093E+01 0. -1.
       -5    1    3    3    0  502  0.72553866383E+03  0.11860412922E+04 -0.10299513114E+04  0.17302953775E+04  0.46999998093E+01 0.  1.
</event>
<event>
 5   0  0.3279988E-08  0.3599192E+04  0.7818609E-02  0.8090677E-01
       -1   -1    0    0    0  501  0.00000000000E+00  0.00000000000E+00  0.16170873962E+04  0.16170873962E+04  0.50400001928E-02 0.  1.
        1   -1    0    0  501    0  0.00000000000E+00  0.00000000000E+00 -0.20027031878E+04  0.20027031878E+04  0.50400001928E-02 0. -1.
    10030    2    1    2    0    0  0.00000000000E+00  0.00000000000E+00 -0.38561579161E+03  0.36197905840E+04  0.35991921778E+04 0.  0.
        5    1    3    3  502    0 -0.85736954121E+03 -0.11429207160E+04  0.90760835008E+03  0.16926681011E+04  0.46999998093E+01 0.  1.
       -5    1    3    3    0  502  0.85736954121E+03  0.11429207160E+04 -0.12932241417E+04  0.19271224829E+04  0.46999998093E+01 0. -1.
</event>
<event>
 5   0  0.1017794E-07  0.3600433E+04  0.7818609E-02  0.8090393E-01
       -2   -1    0    0    0  501  0.00000000000E+00  0.00000000000E+00  0.19545863100E+04  0.19545863100E+04  0.25500000920E-02 0.  1.
        2   -1    0    0  501    0  0.00000000000E+00  0.00000000000E+00 -0.16580381855E+04  0.16580381855E+04  0.25500000920E-02 0. -1.
    10030    2    1    2    0    0  0.00000000000E+00  0.00000000000E+00  0.29654812452E+03  0.36126244955E+04  0.36004326067E+04 0.  0.
        1    1    3    3  502    0  0.43342358500E+03  0.34835002847E+03 -0.15697080608E+04  0.16652889066E+04  0.50400001928E-02 0. -1.
       -1    1    3    3    0  502 -0.43342358500E+03 -0.34835002847E+03  0.18662561853E+04  0.19473355889E+04  0.50400001928E-02 0.  1.
</event>
<event>
 5   0  0.3279988E-08  0.3597953E+04  0.7818609E-02  0.8090961E-01
        1   -1    0    0  501    0  0.00000000000E+00  0.00000000000E+00  0.27967368550E+04  0.27967368550E+04  0.50400001928E-02 0. -1.
       -1   -1    0    0    0  501  0.00000000000E+00  0.00000000000E+00 -0.11571757905E+04  0.11571757905E+04  0.50400001928E-02 0.  1.
    10030    2    1    2    0    0  0.00000000000E+00  0.00000000000E+00  0.16395610645E+04  0.39539126455E+04  0.35979528518E+04 0.  0.
        5    1    3    3  502    0 -0.66323917672E+03 -0.16411695229E+04  0.46714345294E+03  0.18307290089E+04  0.46999998093E+01 0. -1.
       -5    1    3    3    0  502  0.66323917672E+03  0.16411695229E+04  0.11724176116E+04  0.21231836365E+04  0.46999998093E+01 0.  1.
</event>
<event>
 5   0  0.1044678E-07  0.3596920E+04  0.7818609E-02  0.8091198E-01
        2   -1    0    0  501    0  0.00000000000E+00  0.00000000000E+00  0.15601793811E+04  0.15601793811E+04  0.25500000920E-02 0. -1.
       -2   -1    0    0    0  501  0.00000000000E+00  0.00000000000E+00 -0.20731321302E+04  0.20731321302E+04  0.25500000920E-02 0.  1.
    10030    2    1    2    0    0  0.00000000000E+00  0.00000000000E+00 -0.51295274916E+03  0.36333115113E+04  0.35969197955E+04 0.  0.
        2    1    3    3  502    0 -0.44297547222E+03 -0.17967634089E+02 -0.20170702323E+04  0.20652172832E+04  0.25500000920E-02 0.  1.
       -2    1    3    3    0  502  0.44297547222E+03  0.17967634089E+02  0.15041174832E+04  0.15680942281E+04  0.25500000920E-02 0. -1.
</event>
<event>
 5   0  0.3202875E-08  0.3607471E+04  0.7818609E-02  0.8088782E-01
        1   -1    0    0  501    0  0.00000000000E+00  0.00000000000E+00  0.11610183944E+04  0.11610183944E+04  0.50400001928E-02 0. -1.
       -1   -1    0    0    0  501  0.00000000000E+00  0.00000000000E+00 -0.28022487211E+04  0.28022487211E+04  0.50400001928E-02 0.  1.
    10030    2    1    2    0    0  0.00000000000E+00  0.00000000000E+00 -0.16412303267E+04  0.39632671155E+04  0.36074713088E+04 0.  0.
        2    1    3    3  502    0  0.74369657358E+03 -0.25492732199E+03  0.96288390430E+03  0.12430679572E+04  0.25500000920E-02 0. -1.
       -2    1    3    3    0  502 -0.74369657358E+03  0.25492732199E+03 -0.26041142310E+04  0.27201991583E+04  0.25500000920E-02 0.  1.
</event>
<event>
 5   0  0.9905335E-08  0.3595908E+04  0.7818609E-02  0.8091430E-01
       -2   -1    0    0    0  501  0.00000000000E+00  0.00000000000E+00  0.14515626384E+04  0.14515626384E+04  0.25500000920E-02 0.  1.
        2   -1    0    0  501    0  0.00000000000E+00  0.00000000000E+00 -0.22270057969E+04  0.22270057969E+04  0.25500000920E-02 0. -1.
    10030    2    1    2    0    0  0.00000000000E+00  0.00000000000E+00 -0.77544315853E+03  0.36785684353E+04  0.35959079022E+04 0.  0.
        5    1    3    3  502    0  0.58328107187E+03  0.54072658215E+03  0.12618005493E+04  0.14915645349E+04  0.46999998093E+01 0.  1.
       -5    1    3    3    0  502 -0.58328107187E+03 -0.54072658215E+03 -0.20372437078E+04  0.21870039005E+04  0.46999998093E+01 0. -1.
</event>
<event>
 5   0  0.1029908E-07  0.3600145E+04  0.7818609E-02  0.8090459E-01
        2   -1    0    0  501    0  0.00000000000E+00  0.00000000000E+00  0.15666544062E+04  0.15666544062E+04  0.25500000920E-02 0. -1.
       -2   -1    0    0    0  501  0.00000000000E+00  0.00000000000E+00 -0.20682677717E+04  0.20682677717E+04  0.25500000920E-02 0.  1.
    10030    2    1    2    0    0  0.00000000000E+00  0.00000000000E+00 -0.50161336557E+03  0.36349221779E+04  0.36001448958E+04 0.  0.
        4    1    3    3  502    0 -0.16983180793E+04  0.35205956125E+03 -0.73715368631E+03  0.18845761867E+04  0.12699999809E+01 0. -1.
       -4    1    3    3    0  502  0.16983180793E+04 -0.35205956125E+03  0.23554032074E+03  0.17503459912E+04  0.12699999809E+01 0.  1.
</event>
<event>
 5   0  0.1029908E-07  0.3609248E+04  0.7818609E-02  0.8088377E-01
       -2   -1    0    0    0  501  0.00000000000E+00  0.00000000000E+00  0.12220834833E+04  0.12220834833E+04  0.25500000920E-02 0. -1.
        2   -1    0    0  501    0  0.00000000000E+00  0.00000000000E+00 -0.26648484371E+04  0.26648484371E+04  0.25500000920E-02 0.  1.
    10030    2    1    2    0    0  0.00000000000E+00  0.00000000000E+00 -0.14427649538E+04  0.38869319204E+04  0.36092477114E+04 0.  0.
        4    1    3    3  502    0  0.11908827453E+04 -0.20311695550E+03  0.72235871543E+03  0.14075730664E+04  0.12699999809E+01 0.  1.
       -4    1    3    3    0  502 -0.11908827453E+04  0.20311695550E+03 -0.21651236693E+04  0.24793588540E+04  0.12699999809E+01 0. -1.
</event>
<event>
 5   0  0.3202875E-08  0.3599317E+04  0.7818609E-02  0.8090648E-01
       -3   -1    0    0    0  501  0.00000000000E+00  0.00000000000E+00  0.29438450003E+04  0.29438450020E+04  0.10100000352E+00 0.  1.
        3   -1    0    0  501    0  0.00000000000E+00  0.00000000000E+00 -0.11001839119E+04  0.11001839165E+04  0.10100000352E+00 0. -1.
    10030    2    1    2    0    0  0.00000000000E+00  0.00000000000E+00  0.18436610884E+04  0.40440289185E+04  0.35993171137E+04 0.  0.
        1    1    3    3  502    0  0.64063422792E+03  0.16742247748E+04  0.11006491416E+04  0.21035373406E+04  0.50400001928E-02 0.  1.
       -1    1    3    3    0  502 -0.64063422792E+03 -0.16742247748E+04  0.74301194682E+03  0.19404915778E+04  0.50400001928E-02 0. -1.
</event>
<event>
 5   0  0.3279988E-08  0.3605702E+04  0.7818609E-02  0.8089187E-01
        1   -1    0    0  501    0  0.00000000000E+00  0.00000000000E+00  0.10433356650E+04  0.10433356650E+04  0.50400001928E-02 0.  1.
       -1   -1    0    0    0  501  0.00000000000E+00  0.00000000000E+00 -0.31152699789E+04  0.31152699789E+04  0.50400001928E-02 0. -1.
    10030    2    1    2    0    0  0.00000000000E+00  0.00000000000E+00 -0.20719343139E+04  0.41586056439E+04  0.36057023033E+04 0.  0.
        5    1    3    3  502    0 -0.10525918929E+04 -0.47622694839E+03  0.56027913015E+03  0.12840080191E+04  0.46999998093E+01 0.  1.
       -5    1    3    3    0  502  0.10525918929E+04  0.47622694839E+03 -0.26322134440E+04  0.28745976248E+04  0.46999998093E+01 0. -1.
</event>
<event>
 5   0  0.1017794E-07  0.3592074E+04  0.7818609E-02  0.8092310E-01
        2   -1    0    0  501    0  0.00000000000E+00  0.00000000000E+00  0.17295645583E+04  0.17295645583E+04  0.25500000920E-02 0. -1.
       -2   -1    0    0    0  501  0.00000000000E+00  0.00000000000E+00 -0.18650643069E+04  0.18650643069E+04  0.25500000920E-02 0.  1.
    10030    2    1    2    0    0  0.00000000000E+00  0.00000000000E+00 -0.13549974855E+03  0.35946288652E+04  0.35920741218E+04 0.  0.
        1    1    3    3  502    0 -0.67736540053E+03 -0.10774394313E+02  0.15968059681E+04  0.17345689013E+04  0.50400001928E-02 0. -1.
       -1    1    3    3    0  502  0.67736540053E+03  0.10774394313E+02 -0.17323057167E+04  0.18600599639E+04  0.50400001928E-02 0.  1.
</event>
<event>
 5   0  0.9905335E-08  0.3604605E+04  0.7818609E-02  0.8089438E-01
        2   -1    0    0  501    0  0.00000000000E+00  0.00000000000E+00  0.25022847708E+04  0.25022847708E+04  0.25500000920E-02 0. -1.
       -2   -1    0    0    0  501  0.00000000000E+00  0.00000000000E+00 -0.12981311384E+04  0.12981311385E+04  0.25500000920E-02 0.  1.
    10030    2    1    2    0    0  0.00000000000E+00  0.00000000000E+00  0.12041536324E+04  0.38004159093E+04  0.36046047097E+04 0.  0.
        5    1    3    3  502    0 -0.11439270947E+04 -0.92835122601E+02 -0.86304616003E+03  0.14359868810E+04  0.46999998093E+01 0.  1.
       -5    1    3    3    0  502  0.11439270947E+04  0.92835122601E+02  0.20671997924E+04  0.23644290283E+04  0.46999998093E+01 0. -1.
</event>
<event>
 5   0  0.3279988E-08  0.3601916E+04  0.7818609E-02  0.8090053E-01
        1   -1    0    0  501    0  0.00000000000E+00  0.00000000000E+00  0.27232597375E+04  0.27232597376E+04  0.50400001928E-02 0. -1.
       -1   -1    0    0    0  501  0.00000000000E+00  0.00000000000E+00 -0.11910175409E+04  0.11910175409E+04  0.50400001928E-02 0.  1.
    10030    2    1    2    0    0  0.00000000000E+00  0.00000000000E+00  0.15322421967E+04  0.39142772784E+04  0.36019162210E+04 0.  0.
        5    1    3    3  502    0 -0.50523038591E+03 -0.15413943525E+04  0.16164575449E+04  0.22900024841E+04  0.46999998093E+01 0. -1.
       -5    1    3    3    0  502  0.50523038591E+03  0.15413943525E+04 -0.84215348161E+02  0.16242747944E+04  0.46999998093E+01 0.  1.
</event>
<event>
 5   0  0.1029908E-07  0.3598329E+04  0.7818609E-02  0.8090875E-01
       -2   -1    0    0    0  501  0.00000000000E+00  0.00000000000E+00  0.22378716555E+04  0.22378716555E+04  0.25500000920E-02 0. -1.
        2   -1    0    0  501    0  0.00000000000E+00  0.00000000000E+00 -0.14464603584E+04  0.14464603584E+04  0.25500000920E-02 0.  1.
    10030    2    1    2    0    0  0.00000000000E+00  0.00000000000E+00  0.79141129710E+03  0.36843320140E+04  0.35983288549E+04 0.  0.
        4    1    3    3  502    0 -0.94672216945E+03 -0.15288060233E+04  0.33547537185E+03  0.18292282692E+04  0.12699999809E+01 0. -1.
       -4    1    3    3    0  502  0.94672216945E+03  0.15288060233E+04  0.45593592524E+03  0.18551037447E+04  0.12699999809E+01 0.  1.
</event>
<event>
 5   0  0.1017794E-07  0.3600538E+04  0.7818609E-02  0.8090368E-01
        2   -1    0    0  501    0  0.00000000000E+00  0.00000000000E+00  0.23363200101E+04  0.23363200101E+04  0.25500000920E-02 0.  1.
       -2   -1    0    0    0  501  0.00000000000E+00  0.00000000000E+00 -0.13872108651E+04  0.13872108651E+04  0.25500000920E-02 0. -1.
    10030    2    1    2    0    0  0.00000000000E+00  0.00000000000E+00  0.94910914505E+03  0.37235308752E+04  0.36005380167E+04 0.  0.
        1    1    3    3  502    0  0.15390915564E+03 -0.12835716851E+04  0.17702389902E+04  0.21920288277E+04  0.50400001928E-02 0.  1.
       -1    1    3    3    0  502 -0.15390915564E+03  0.12835716851E+04 -0.82112984512E+03  0.15315020475E+04  0.50400001928E-02 0. -1.
</event>
<event>
 5   0  0.3212523E-08  0.3591616E+04  0.7818609E-02  0.8092415E-01
       -1   -1    0    0    0  501  0.00000000000E+00  0.00000000000E+00  0.25187945447E+04  0.25187945447E+04  0.50400001928E-02 0. -1.
        1   -1    0    0  501    0  0.00000000000E+00  0.00000000000E+00 -0.12803448147E+04  0.12803448147E+04  0.50400001928E-02 0.  1.
    10030    2    1    2    0    0  0.00000000000E+00  0.00000000000E+00  0.12384497300E+04  0.37991393594E+04  0.35916155332E+04 0.  0.
        3    1    3    3  502    0  0.35091704293E+03 -0.32098782907E+03  0.24509718381E+04  0.24966855867E+04  0.10100000352E+00 0. -1.
       -3    1    3    3    0  502 -0.35091704293E+03  0.32098782907E+03 -0.12125221081E+04  0.13024537727E+04  0.10100000352E+00 0.  1.
</event>
<event>
 5   0  0.1021087E-07  0.3571954E+04  0.7818609E-02  0.8096946E-01
       -2   -1    0    0    0  501  0.00000000000E+00  0.00000000000E+00  0.13143579650E+04  0.13143579650E+04  0.25500000920E-02 0.  1.
        2   -1    0    0  501    0  0.00000000000E+00  0.00000000000E+00 -0.24268231584E+04  0.24268231584E+04  0.25500000920E-02 0. -1.
    10030    2    1    2    0    0  0.00000000000E+00  0.00000000000E+00 -0.11124651934E+04  0.37411811234E+04  0.35719542818E+04 0.  0.
        3    1    3    3  502    0  0.11947424152E+04 -0.13263347478E+04 -0.49753243521E+03  0.18531356766E+04  0.10100000352E+00 0.  1.
       -3    1    3    3    0  502 -0.11947424152E+04  0.13263347478E+04 -0.61493275816E+03  0.18880454467E+04  0.10100000352E+00 0. -1.
</event>
<event>
 5   0  0.3212523E-08  0.3599530E+04  0.7818609E-02  0.8090599E-01
        1   -1    0    0  501    0  0.00000000000E+00  0.00000000000E+00  0.97824374226E+03  0.97824374227E+03  0.50400001928E-02 0. -1.
       -1   -1    0    0    0  501  0.00000000000E+00  0.00000000000E+00 -0.33111934233E+04  0.33111934234E+04  0.50400001928E-02 0.  1.
    10030    2    1    2    0    0  0.00000000000E+00  0.00000000000E+00 -0.23329496811E+04  0.42894371656E+04  0.35995301059E+04 0.  0.
        3    1    3    3  502    0 -0.46290537062E+01  0.91222387066E+03  0.68232876137E+03  0.11391867130E+04  0.10100000352E+00 0. -1.
       -3    1    3    3    0  502  0.46290537062E+01 -0.91222387066E+03 -0.30152784425E+04  0.31502504526E+04  0.10100000352E+00 0.  1.
</event>
<event>
 5   0  0.3279988E-08  0.3601300E+04  0.7818609E-02  0.8090194E-01
        1   -1    0    0  501    0  0.00000000000E+00  0.00000000000E+00  0.15991697558E+04  0.15991697558E+04  0.50400001928E-02 0.  1.
       -1   -1    0    0    0  501  0.00000000000E+00  0.00000000000E+00 -0.20275151544E+04  0.20275151544E+04  0.50400001928E-02 0. -1.
    10030    2    1    2    0    0  0.00000000000E+00  0.00000000000E+00 -0.42834539863E+03  0.36266849101E+04  0.36013002731E+04 0.  0.
        5    1    3    3  502    0  0.33870163176E+03 -0.18988880591E+03 -0.19848445609E+04  0.20224753583E+04  0.46999998093E+01 0. -1.
       -5    1    3    3    0  502 -0.33870163176E+03  0.18988880591E+03  0.15564991623E+04  0.16042095518E+04  0.46999998093E+01 0.  1.
</event>
<event>
 5   0  0.3202875E-08  0.3599029E+04  0.7818609E-02  0.8090714E-01
        1   -1    0    0  501    0  0.00000000000E+00  0.00000000000E+00  0.14301013929E+04  0.14301013929E+04  0.50400001928E-02 0. -1.
       -1   -1    0    0    0  501  0.00000000000E+00  0.00000000000E+00 -0.22643519968E+04  0.22643519968E+04  0.50400001928E-02 0.  1.
    10030    2    1    2    0    0  0.00000000000E+00  0.00000000000E+00 -0.83425060393E+03  0.36944533897E+04  0.35990292828E+04 0.  0.
        1    1    3    3  502    0 -0.12299675499E+04 -0.13107864610E+04 -0.32959054428E+03  0.18274603271E+04  0.50400001928E-02 0. -1.
       -1    1    3    3    0  502  0.12299675499E+04  0.13107864610E+04 -0.50466005965E+03  0.18669930626E+04  0.50400001928E-02 0.  1.
</event>
<event>
 5   0  0.3202875E-08  0.3597811E+04  0.7818609E-02  0.8090993E-01
       -1   -1    0    0    0  501  0.00000000000E+00  0.00000000000E+00  0.28691010100E+04  0.28691010100E+04  0.50400001928E-02 0. -1.
        1   -1    0    0  501    0  0.00000000000E+00  0.00000000000E+00 -0.11279007381E+04  0.11279007381E+04  0.50400001928E-02 0.  1.
    10030    2    1    2    0    0  0.00000000000E+00  0.00000000000E+00  0.17412002719E+04  0.39970017481E+04  0.35978110828E+04 0.  0.
        1    1    3    3  502    0 -0.75520489885E+03  0.16280966446E+04  0.10067906674E+04  0.20578290919E+04  0.50400001928E-02 0.  1.
       -1    1    3    3    0  502  0.75520489885E+03 -0.16280966446E+04  0.73440960452E+03  0.19391726562E+04  0.50400001928E-02 0. -1.
</event>
<event>
 5   0  0.1021087E-07  0.3605237E+04  0.7818609E-02  0.8089293E-01
        2   -1    0    0  501    0  0.00000000000E+00  0.00000000000E+00  0.17032906690E+04  0.17032906690E+04  0.25500000920E-02 0.  1.
       -2   -1    0    0    0  501  0.00000000000E+00  0.00000000000E+00 -0.19077381727E+04  0.19077381727E+04  0.25500000920E-02 0. -1.
    10030    2    1    2    0    0  0.00000000000E+00  0.00000000000E+00 -0.20444750373E+03  0.36110288418E+04  0.36052365407E+04 0.  0.
        3    1    3    3  502    0  0.30336542084E+03 -0.20507026589E+03  0.16656469237E+04  0.17054219646E+04  0.10100000352E+00 0.  1.
       -3    1    3    3    0  502 -0.30336542084E+03  0.20507026589E+03 -0.18700944275E+04  0.19056068772E+04  0.10100000352E+00 0. -1.
</event>
<event>
 5   0  0.3202875E-08  0.3593902E+04  0.7818609E-02  0.8091890E-01
        1   -1    0    0  501    0  0.00000000000E+00  0.00000000000E+00  0.10512892551E+04  0.10512892551E+04  0.50400001928E-02 0.  1.
       -1   -1    0    0    0  501  0.00000000000E+00  0.00000000000E+00 -0.30714978982E+04  0.30714978982E+04  0.50400001928E-02 0. -1.
    10030    2    1    2    0    0  0.00000000000E+00  0.00000000000E+00 -0.20202086431E+04  0.41227871532E+04  0.35939019115E+04 0.  0.
        1    1    3    3  502    0 -0.91762956283E+03  0.20136160810E+03  0.74712979750E+03  0.12003305570E+04  0.50400001928E-02 0.  1.
       -1    1    3    3    0  502  0.91762956283E+03 -0.20136160810E+03 -0.27673384406E+04  0.29224565962E+04  0.50400001928E-02 0. -1.
</event>
<event>
 5   0  0.3202875E-08  0.3601415E+04  0.7818609E-02  0.8090168E-01
       -1   -1    0    0    0  501  0.00000000000E+00  0.00000000000E+00  0.15473216576E+04  0.15473216576E+04  0.50400001928E-02 0.  1.
        1   -1    0    0  501    0  0.00000000000E+00  0.00000000000E+00 -0.20955874674E+04  0.20955874674E+04  0.50400001928E-02 0. -1.
    10030    2    1    2    0    0  0.00000000000E+00  0.00000000000E+00 -0.54826580981E+03  0.36429091250E+04  0.36014152072E+04 0.  0.
        2    1    3    3  502    0 -0.10053338178E+04  0.92075240622E+02 -0.17824109135E+04  0.20484537095E+04  0.25500000920E-02 0. -1.
       -2    1    3    3    0  502  0.10053338178E+04 -0.92075240622E+02  0.12341451037E+04  0.15944554156E+04  0.25500000920E-02 0.  1.
</event>
<event>
 5   0  0.3279988E-08  0.3600848E+04  0.7818609E-02  0.8090297E-01
        1   -1    0    0  501    0  0.00000000000E+00  0.00000000000E+00  0.25706772982E+04  0.25706772982E+04  0.50400001928E-02 0. -1.
       -1   -1    0    0    0  501  0.00000000000E+00  0.00000000000E+00 -0.12609623731E+04  0.12609623732E+04  0.50400001928E-02 0.  1.
    10030    2    1    2    0    0  0.00000000000E+00  0.00000000000E+00  0.13097149250E+04  0.38316396713E+04  0.36008484259E+04 0.  0.
        5    1    3    3  502    0  0.16482911116E+04 -0.42765398259E+03  0.12769234526E+04  0.21284518109E+04  0.46999998093E+01 0. -1.
       -5    1    3    3    0  502 -0.16482911116E+04  0.42765398259E+03  0.32791472399E+02  0.17031878605E+04  0.46999998093E+01 0.  1.
</event>
<event>
 5   0  0.1017794E-07  0.3601357E+04  0.7818609E-02  0.8090181E-01
       -2   -1    0    0    0  501  0.00000000000E+00  0.00000000000E+00  0.18785323418E+04  0.18785323418E+04  0.25500000920E-02 0. -1.
        2   -1    0    0  501    0  0.00000000000E+00  0.00000000000E+00 -0.17260516458E+04  0.17260516458E+04  0.25500000920E-02 0.  1.
    10030    2    1    2    0    0  0.00000000000E+00  0.00000000000E+00  0.15248069604E+03  0.36045839877E+04  0.36013574332E+04 0.  0.
        1    1    3    3  502    0 -0.15778612479E+04 -0.66401085217E+03  0.63520941499E+03  0.18259374388E+04  0.50400001928E-02 0.  1.
       -1    1    3    3    0  502  0.15778612479E+04  0.66401085217E+03 -0.48272871895E+03  0.17786465488E+04  0.50400001928E-02 0. -1.
</event>
<event>
 5   0  0.1021087E-07  0.3586768E+04  0.7818609E-02  0.8093529E-01
        2   -1    0    0  501    0  0.00000000000E+00  0.00000000000E+00  0.21542662712E+04  0.21542662712E+04  0.25500000920E-02 0. -1.
       -2   -1    0    0    0  501  0.00000000000E+00  0.00000000000E+00 -0.14929564624E+04  0.14929564624E+04  0.25500000920E-02 0.  1.
    10030    2    1    2    0    0  0.00000000000E+00  0.00000000000E+00  0.66130980873E+03  0.36472227336E+04  0.35867677657E+04 0.  0.
        3    1    3    3  502    0 -0.16086546801E+04 -0.10890277994E+03  0.11291263608E+04  0.19683892004E+04  0.10100000352E+00 0. -1.
       -3    1    3    3    0  502  0.16086546801E+04  0.10890277994E+03 -0.46781655212E+03  0.16788335332E+04  0.10100000352E+00 0.  1.
</event>
<event>
 5   0  0.3202875E-08  0.3596375E+04  0.7818609E-02  0.8091323E-01
       -1   -1    0    0    0  501  0.00000000000E+00  0.00000000000E+00  0.17859522407E+04  0.17859522407E+04  0.50400001928E-02 0.  1.
        1   -1    0    0  501    0  0.00000000000E+00  0.00000000000E+00 -0.18105062647E+04  0.18105062647E+04  0.50400001928E-02 0. -1.
    10030    2    1    2    0    0  0.00000000000E+00  0.00000000000E+00 -0.24554023954E+02  0.35964585054E+04  0.35963746859E+04 0.  0.
        1    1    3    3  502    0 -0.23766533429E+03  0.64178020684E+03  0.16506240578E+04  0.17868761639E+04  0.50400001928E-02 0.  1.
       -1    1    3    3    0  502  0.23766533429E+03 -0.64178020684E+03 -0.16751780817E+04  0.18095823415E+04  0.50400001928E-02 0. -1.
</event>
<event>
 5   0  0.3202875E-08  0.3543597E+04  0.7818609E-02  0.8103535E-01
        1   -1    0    0  501    0  0.00000000000E+00  0.00000000000E+00  0.97990983058E+03  0.97990983059E+03  0.50400001928E-02 0. -1.
       -1   -1    0    0    0  501  0.00000000000E+00  0.00000000000E+00 -0.32036318353E+04  0.32036318353E+04  0.50400001928E-02 0.  1.
    10030    2    1    2    0    0  0.00000000000E+00  0.00000000000E+00 -0.22237220047E+04  0.41835416659E+04  0.35435972283E+04 0.  0.
        2    1    3    3  502    0 -0.57583467730E+03 -0.87366648404E+03 -0.27998973440E+04  0.29890305850E+04  0.25500000920E-02 0.  1.
       -2    1    3    3    0  502  0.57583467730E+03  0.87366648404E+03  0.57617533927E+03  0.11945110809E+04  0.25500000920E-02 0. -1.
</event>
<event>
 5   0  0.3215494E-08  0.3599438E+04  0.7818609E-02  0.8090620E-01
        1   -1    0    0  501    0  0.00000000000E+00  0.00000000000E+00  0.19379828098E+04  0.19379828098E+04  0.50400001928E-02 0. -1.
       -1   -1    0    0    0  501  0.00000000000E+00  0.00000000000E+00 -0.16713193663E+04  0.16713193663E+04  0.50400001928E-02 0.  1.
    10030    2    1    2    0    0  0.00000000000E+00  0.00000000000E+00  0.26666344357E+03  0.36093021761E+04  0.35994378459E+04 0.  0.
        4    1    3    3  502    0 -0.16499760955E+04  0.39360968476E+03  0.73634229486E+03  0.18492028790E+04  0.12699999809E+01 0. -1.
       -4    1    3    3    0  502  0.16499760955E+04 -0.39360968476E+03 -0.46967885128E+03  0.17600992971E+04  0.12699999809E+01 0.  1.
</event>
<event>
 5   0  0.3212523E-08  0.3599364E+04  0.7818609E-02  0.8090637E-01
        1   -1    0    0  501    0  0.00000000000E+00  0.00000000000E+00  0.18645332112E+04  0.18645332112E+04  0.50400001928E-02 0. -1.
       -1   -1    0    0    0  501  0.00000000000E+00  0.00000000000E+00 -0.17370865940E+04  0.17370865940E+04  0.50400001928E-02 0.  1.
    10030    2    1    2    0    0  0.00000000000E+00  0.00000000000E+00  0.12744661714E+03  0.36016198052E+04  0.35993641912E+04 0.  0.
        3    1    3    3  502    0 -0.32570577190E+03 -0.79240867869E+03  0.16473900338E+04  0.18568494008E+04  0.10100000352E+00 0. -1.
       -3    1    3    3    0  502  0.32570577190E+03  0.79240867869E+03 -0.15199434166E+04  0.17447704043E+04  0.10100000352E+00 0.  1.
</event>
<event>
 5   0  0.3202875E-08  0.3597599E+04  0.7818609E-02  0.8091042E-01
       -1   -1    0    0    0  501  0.00000000000E+00  0.00000000000E+00  0.20460978194E+04  0.20460978194E+04  0.50400001928E-02 0.  1.
        1   -1    0    0  501    0  0.00000000000E+00  0.00000000000E+00 -0.15813907679E+04  0.15813907679E+04  0.50400001928E-02 0. -1.
    10030    2    1    2    0    0  0.00000000000E+00  0.00000000000E+00  0.46470705147E+03  0.36274885872E+04  0.35975993116E+04 0.  0.
        1    1    3    3  502    0 -0.12326303612E+04 -0.11968373954E+04 -0.30487966580E+03  0.17449209062E+04  0.50400001928E-02 0. -1.
       -1    1    3    3    0  502  0.12326303612E+04  0.11968373954E+04  0.76958671727E+03  0.18825676810E+04  0.50400001928E-02 0.  1.
</event>
<event>
 5   0  0.1029908E-07  0.3573396E+04  0.7818609E-02  0.8096613E-01
        2   -1    0    0  501    0  0.00000000000E+00  0.00000000000E+00  0.20462726573E+04  0.20462726573E+04  0.25500000920E-02 0. -1.
       -2   -1    0    0    0  501  0.00000000000E+00  0.00000000000E+00 -0.15600509757E+04  0.15600509757E+04  0.25500000920E-02 0.  1.
    10030    2    1    2    0    0  0.00000000000E+00  0.00000000000E+00  0.48622168165E+03  0.36063236330E+04  0.35733959509E+04 0.  0.
        4    1    3    3  502    0 -0.16322503145E+04 -0.28404186328E+03  0.91812924469E+03  0.18941710039E+04  0.12699999809E+01 0. -1.
       -4    1    3    3    0  502  0.16322503145E+04  0.28404186328E+03 -0.43190756304E+03  0.17121526291E+04  0.12699999809E+01 0.  1.
</event>
<event>
 5   0  0.1029908E-07  0.3574676E+04  0.7818609E-02  0.8096317E-01
       -2   -1    0    0    0  501  0.00000000000E+00  0.00000000000E+00  0.17419751422E+04  0.17419751422E+04  0.25500000920E-02 0. -1.
        2   -1    0    0  501    0  0.00000000000E+00  0.00000000000E+00 -0.18338822125E+04  0.18338822125E+04  0.25500000920E-02 0.  1.
    10030    2    1    2    0    0  0.00000000000E+00  0.00000000000E+00 -0.91907070269E+02  0.35758573547E+04  0.35746760569E+04 0.  0.
        4    1    3    3  502    0  0.15764285013E+04  0.35762125657E+03  0.71689655550E+03  0.17683218223E+04  0.12699999809E+01 0. -1.
       -4    1    3    3    0  502 -0.15764285013E+04 -0.35762125657E+03 -0.80880362577E+03  0.18075355324E+04  0.12699999809E+01 0.  1.
</event>
<event>
 5   0  0.3212523E-08  0.3595800E+04  0.7818609E-02  0.8091454E-01
        1   -1    0    0  501    0  0.00000000000E+00  0.00000000000E+00  0.19216434086E+04  0.19216434086E+04  0.50400001928E-02 0.  1.
       -1   -1    0    0    0  501  0.00000000000E+00  0.00000000000E+00 -0.16821249578E+04  0.16821249578E+04  0.50400001928E-02 0. -1.
    10030    2    1    2    0    0  0.00000000000E+00  0.00000000000E+00  0.23951845082E+03  0.36037683664E+04  0.35957999598E+04 0.  0.
        3    1    3    3  502    0 -0.48436981760E+03 -0.15103866979E+04 -0.72861663356E+03  0.17454982974E+04  0.10100000352E+00 0. -1.
       -3    1    3    3    0  502  0.48436981760E+03  0.15103866979E+04  0.96813508437E+03  0.18582700690E+04  0.10100000352E+00 0.  1.
</event>
<event>
 5   0  0.3215494E-08  0.3597963E+04  0.7818609E-02  0.8090958E-01
        1   -1    0    0  501    0  0.00000000000E+00  0.00000000000E+00  0.27402555630E+04  0.27402555630E+04  0.50400001928E-02 0. -1.
       -1   -1    0    0    0  501  0.00000000000E+00  0.00000000000E+00 -0.11810336570E+04  0.11810336570E+04  0.50400001928E-02 0.  1.
    10030    2    1    2    0    0  0.00000000000E+00  0.00000000000E+00  0.15592219060E+04  0.39212892200E+04  0.35979627840E+04 0.  0.
        4    1    3    3  502    0 -0.15954403911E+04 -0.28766016807E+03 -0.70310908664E+02  0.16226902509E+04  0.12699999809E+01 0. -1.
       -4    1    3    3    0  502  0.15954403911E+04  0.28766016807E+03  0.16295328146E+04  0.22985989691E+04  0.12699999809E+01 0.  1.
</event>
<event>
 5   0  0.1029908E-07  0.3596178E+04  0.7818609E-02  0.8091368E-01
        2   -1    0    0  501    0  0.00000000000E+00  0.00000000000E+00  0.22060874116E+04  0.22060874116E+04  0.25500000920E-02 0.  1.
       -2   -1    0    0    0  501  0.00000000000E+00  0.00000000000E+00 -0.14655469913E+04  0.14655469913E+04  0.25500000920E-02 0. -1.
    10030    2    1    2    0    0  0.00000000000E+00  0.00000000000E+00  0.74054042026E+03  0.36716344030E+04  0.35961783987E+04 0.  0.
        4    1    3    3  502    0  0.15709739987E+04 -0.26557064373E+03 -0.48066574098E+03  0.16641899648E+04  0.12699999809E+01 0. -1.
       -4    1    3    3    0  502 -0.15709739987E+04  0.26557064373E+03  0.12212061612E+04  0.20074444382E+04  0.12699999809E+01 0.  1.
</event>
<event>
 5   0  0.1029908E-07  0.3617890E+04  0.7818609E-02  0.8086406E-01
       -2   -1    0    0    0  501  0.00000000000E+00  0.00000000000E+00  0.16408903388E+04  0.16408903388E+04  0.25500000920E-02 0. -1.
        2   -1    0    0  501    0  0.00000000000E+00  0.00000000000E+00 -0.19942113092E+04  0.19942113092E+04  0.25500000920E-02 0.  1.
    10030    2    1    2    0    0  0.00000000000E+00  0.00000000000E+00 -0.35332097036E+03  0.36351016480E+04  0.36178900320E+04 0.  0.
        4    1    3    3  502    0 -0.33641328969E+03  0.10476192852E+04  0.12659976904E+04  0.16773287791E+04  0.12699999809E+01 0. -1.
       -4    1    3    3    0  502  0.33641328969E+03 -0.10476192852E+04 -0.16193186608E+04  0.19577728689E+04  0.12699999809E+01 0.  1.
</event>
<event>
 5   0  0.9905335E-08  0.3599672E+04  0.7818609E-02  0.8090567E-01
        2   -1    0    0  501    0  0.00000000000E+00  0.00000000000E+00  0.20157987478E+04  0.20157987478E+04  0.25500000920E-02 0. -1.
       -2   -1    0    0    0  501  0.00000000000E+00  0.00000000000E+00 -0.16070102870E+04  0.16070102870E+04  0.25500000920E-02 0.  1.
    10030    2    1    2    0    0  0.00000000000E+00  0.00000000000E+00  0.40878846079E+03  0.36228090349E+04  0.35996718319E+04 0.  0.
        5    1    3    3  502    0  0.61997871579E+03  0.13761957392E+04 -0.78226362005E+03  0.17000725813E+04  0.46999998093E+01 0.  1.
       -5    1    3    3    0  502 -0.61997871579E+03 -0.13761957392E+04  0.11910520808E+04  0.19227364535E+04  0.46999998093E+01 0. -1.
</event>
<event>
 5   0  0.1017794E-07  0.3602758E+04  0.7818609E-02  0.8089860E-01
       -2   -1    0    0    0  501  0.00000000000E+00  0.00000000000E+00  0.13799168771E+04  0.13799168771E+04  0.25500000920E-02 0. -1.
        2   -1    0    0  501    0  0.00000000000E+00  0.00000000000E+00 -0.23515671064E+04  0.23515671064E+04  0.25500000920E-02 0.  1.
    10030    2    1    2    0    0  0.00000000000E+00  0.00000000000E+00 -0.97165022932E+03  0.37314839835E+04  0.36027584641E+04 0.  0.
        1    1    3    3  502    0 -0.98245930570E+03  0.13676952252E+04 -0.11483284090E+04  0.20382528428E+04  0.50400001928E-02 0.  1.
       -1    1    3    3    0  502  0.98245930570E+03 -0.13676952252E+04  0.17667817971E+03  0.16932311406E+04  0.50400001928E-02 0. -1.
</event>
<event>
 5   0  0.3202875E-08  0.3592391E+04  0.7818609E-02  0.8092237E-01
        3   -1    0    0  501    0  0.00000000000E+00  0.00000000000E+00  0.14536066864E+04  0.14536066899E+04  0.10100000352E+00 0.  1.
       -3   -1    0    0    0  501  0.00000000000E+00  0.00000000000E+00 -0.22195260748E+04  0.22195260771E+04  0.10100000352E+00 0. -1.
    10030    2    1    2    0    0  0.00000000000E+00  0.00000000000E+00 -0.76591938833E+03  0.36731327670E+04  0.35923908215E+04 0.  0.
        4    1    3    3  502    0 -0.19451297772E+03 -0.11160736430E+04 -0.18081533360E+04  0.21337468863E+04  0.12699999809E+01 0. -1.
       -4    1    3    3    0  502  0.19451297772E+03  0.11160736430E+04  0.10422339477E+04  0.15393858807E+04  0.12699999809E+01 0.  1.
</event>
<event>
 5   0  0.9905335E-08  0.3602812E+04  0.7818609E-02  0.8089848E-01
       -2   -1    0    0    0  501  0.00000000000E+00  0.00000000000E+00  0.16378308203E+04  0.16378308203E+04  0.25500000920E-02 0.  1.
        2   -1    0    0  501    0  0.00000000000E+00  0.00000000000E+00 -0.19813176176E+04  0.19813176176E+04  0.25500000920E-02 0. -1.
    10030    2    1    2    0    0  0.00000000000E+00  0.00000000000E+00 -0.34348679731E+03  0.36191484379E+04  0.36028117125E+04 0.  0.
        5    1    3    3  502    0  0.36412352539E+03 -0.17207737758E+04  0.21911298618E+03  0.17724787502E+04  0.46999998093E+01 0.  1.
       -5    1    3    3    0  502 -0.36412352539E+03  0.17207737758E+04 -0.56259978349E+03  0.18466696877E+04  0.46999998093E+01 0. -1.
</event>
<event>
 5   0  0.3202875E-08  0.3602254E+04  0.7818609E-02  0.8089975E-01
        1   -1    0    0  501    0  0.00000000000E+00  0.00000000000E+00  0.13631335340E+04  0.13631335340E+04  0.50400001928E-02 0. -1.
       -1   -1    0    0    0  501  0.00000000000E+00  0.00000000000E+00 -0.23798542554E+04  0.23798542554E+04  0.50400001928E-02 0.  1.
    10030    2    1    2    0    0  0.00000000000E+00  0.00000000000E+00 -0.10167207215E+04  0.37429877894E+04  0.36022543728E+04 0.  0.
        2    1    3    3  502    0 -0.93752772651E+03  0.95718759306E+03  0.74236559470E+03  0.15317548768E+04  0.25500000920E-02 0. -1.
       -2    1    3    3    0  502  0.93752772651E+03 -0.95718759306E+03 -0.17590863162E+04  0.22112329127E+04  0.25500000920E-02 0.  1.
</event>
<event>
 5   0  0.9905335E-08  0.3600883E+04  0.7818609E-02  0.8090289E-01
       -2   -1    0    0    0  501  0.00000000000E+00  0.00000000000E+00  0.18118639820E+04  0.18118639820E+04  0.25500000920E-02 0.  1.
        2   -1    0    0  501    0  0.00000000000E+00  0.00000000000E+00 -0.17890908810E+04  0.17890908810E+04  0.25500000920E-02 0. -1.
    10030    2    1    2    0    0  0.00000000000E+00  0.00000000000E+00  0.22773101026E+02  0.36009548631E+04  0.36008828517E+04 0.  0.
        5    1    3    3  502    0 -0.95751827938E+03 -0.10434347938E+04 -0.11003774751E+04  0.17934464313E+04  0.46999998093E+01 0. -1.
       -5    1    3    3    0  502  0.95751827938E+03  0.10434347938E+04  0.11231505761E+04  0.18075084318E+04  0.46999998093E+01 0.  1.
</event>
<event>
 5   0  0.3212523E-08  0.3592195E+04  0.7818609E-02  0.8092282E-01
        1   -1    0    0  501    0  0.00000000000E+00  0.00000000000E+00  0.13626832845E+04  0.13626832845E+04  0.50400001928E-02 0.  1.
       -1   -1    0    0    0  501  0.00000000000E+00  0.00000000000E+00 -0.23673634356E+04  0.23673634356E+04  0.50400001928E-02 0. -1.
    10030    2    1    2    0    0  0.00000000000E+00  0.00000000000E+00 -0.10046801511E+04  0.37300467201E+04  0.35921951963E+04 0.  0.
        3    1    3    3  502    0  0.17804187445E+04 -0.21101206048E+03 -0.61393318346E+03  0.18950807264E+04  0.10100000352E+00 0.  1.
       -3    1    3    3    0  502 -0.17804187445E+04  0.21101206048E+03 -0.39074696759E+03  0.18349659938E+04  0.10100000352E+00 0. -1.
</event>
<event>
 5   0  0.3215494E-08  0.3590899E+04  0.7818609E-02  0.8092580E-01
        1   -1    0    0  501    0  0.00000000000E+00  0.00000000000E+00  0.11401353867E+04  0.11401353867E+04  0.50400001928E-02 0.  1.
       -1   -1    0    0    0  501  0.00000000000E+00  0.00000000000E+00 -0.28274176042E+04  0.28274176042E+04  0.50400001928E-02 0. -1.
    10030    2    1    2    0    0  0.00000000000E+00  0.00000000000E+00 -0.16872822175E+04  0.39675529909E+04  0.35908989757E+04 0.  0.
        4    1    3    3  502    0  0.78267691059E+03 -0.16131456528E+04 -0.94737861546E+03  0.20278929699E+04  0.12699999809E+01 0.  1.
       -4    1    3    3    0  502 -0.78267691059E+03  0.16131456528E+04 -0.73990360207E+03  0.19396600209E+04  0.12699999809E+01 0. -1.
</event>
<event>
 5   0  0.3212523E-08  0.3601172E+04  0.7818609E-02  0.8090223E-01
       -1   -1    0    0    0  501  0.00000000000E+00  0.00000000000E+00  0.14517298858E+04  0.14517298858E+04  0.50400001928E-02 0.  1.
        1   -1    0    0  501    0  0.00000000000E+00  0.00000000000E+00 -0.22332737002E+04  0.22332737003E+04  0.50400001928E-02 0. -1.
    10030    2    1    2    0    0  0.00000000000E+00  0.00000000000E+00 -0.78154381449E+03  0.36850035860E+04  0.36011721279E+04 0.  0.
        3    1    3    3  502    0 -0.75165325744E+03 -0.22457220565E+03  0.12676645929E+04  0.14907678643E+04  0.10100000352E+00 0.  1.
       -3    1    3    3    0  502  0.75165325744E+03  0.22457220565E+03 -0.20492084074E+04  0.21942357217E+04  0.10100000352E+00 0. -1.
</event>
<event>
 5   0  0.3212523E-08  0.3587149E+04  0.7818609E-02  0.8093442E-01
        1   -1    0    0  501    0  0.00000000000E+00  0.00000000000E+00  0.32290274081E+04  0.32290274081E+04  0.50400001928E-02 0. -1.
       -1   -1    0    0    0  501  0.00000000000E+00  0.00000000000E+00 -0.99624712361E+03  0.99624712362E+03  0.50400001928E-02 0.  1.
    10030    2    1    2    0    0  0.00000000000E+00  0.00000000000E+00  0.22327802845E+04  0.42252745317E+04  0.35871488775E+04 0.  0.
        3    1    3    3  502    0  0.11641305652E+04 -0.43766782671E+03 -0.40585315309E+03  0.13082315894E+04  0.10100000352E+00 0.  1.
       -3    1    3    3    0  502 -0.11641305652E+04  0.43766782671E+03  0.26386334375E+04  0.29170429423E+04  0.10100000352E+00 0. -1.
</event>
<event>
 5   0  0.1044678E-07  0.3602464E+04  0.7818609E-02  0.8089927E-01
       -2   -1    0    0    0  501  0.00000000000E+00  0.00000000000E+00  0.13216452230E+04  0.13216452230E+04  0.25500000920E-02 0.  1.
        2   -1    0    0  501    0  0.00000000000E+00  0.00000000000E+00 -0.24548473184E+04  0.24548473184E+04  0.25500000920E-02 0. -1.
    10030    2    1    2    0    0  0.00000000000E+00  0.00000000000E+00 -0.11332020954E+04  0.37764925414E+04  0.36024642852E+04 0.  0.
        2    1    3    3  502    0  0.15056325228E+04  0.17745301057E+03 -0.15862219537E+04  0.21942012102E+04  0.25500000920E-02 0. -1.
       -2    1    3    3    0  502 -0.15056325228E+04 -0.17745301057E+03  0.45301985830E+03  0.15822913311E+04  0.25500000920E-02 0.  1.
</event>
<event>
 5   0  0.3279988E-08  0.3595017E+04  0.7818609E-02  0.8091634E-01
       -1   -1    0    0    0  501  0.00000000000E+00  0.00000000000E+00  0.14337070084E+04  0.14337070085E+04  0.50400001928E-02 0. -1.
        1   -1    0    0  501    0  0.00000000000E+00  0.00000000000E+00 -0.22536240570E+04  0.22536240570E+04  0.50400001928E-02 0.  1.
    10030    2    1    2    0    0  0.00000000000E+00  0.00000000000E+00 -0.81991704859E+03  0.36873310655E+04  0.35950168873E+04 0.  0.
        5    1    3    3  502    0  0.89063492442E+02 -0.80932545227E+02 -0.22494811954E+04  0.22527028480E+04  0.46999998093E+01 0.  1.
       -5    1    3    3    0  502 -0.89063492442E+02  0.80932545227E+02  0.14295641469E+04  0.14346282175E+04  0.46999998093E+01 0. -1.
</event>
<event>
 5   0  0.3202875E-08  0.3605356E+04  0.7818609E-02  0.8089266E-01
       -1   -1    0    0    0  501  0.00000000000E+00  0.00000000000E+00  0.12536312790E+04  0.12536312790E+04  0.50400001928E-02 0. -1.
        1   -1    0    0  501    0  0.00000000000E+00  0.00000000000E+00 -0.25921874164E+04  0.25921874164E+04  0.50400001928E-02 0.  1.
    10030    2    1    2    0    0  0.00000000000E+00  0.00000000000E+00 -0.13385561374E+04  0.38458186954E+04  0.36053555865E+04 0.  0.
        2    1    3    3  502    0 -0.27408636315E+03  0.13328780758E+04 -0.19304899779E+04  0.23618803641E+04  0.25500000920E-02 0.  1.
       -2    1    3    3    0  502  0.27408636315E+03 -0.13328780758E+04  0.59193384054E+03  0.14839383313E+04  0.25500000920E-02 0. -1.
</event>
<event>
 5   0  0.3212523E-08  0.3598504E+04  0.7818609E-02  0.8090835E-01
       -1   -1    0    0    0  501  0.00000000000E+00  0.00000000000E+00  0.13721628724E+04  0.13721628724E+04  0.50400001928E-02 0. -1.
        1   -1    0    0  501    0  0.00000000000E+00  0.00000000000E+00 -0.23592732648E+04  0.23592732648E+04  0.50400001928E-02 0.  1.
    10030    2    1    2    0    0  0.00000000000E+00  0.00000000000E+00 -0.98711039235E+03  0.37314361372E+04  0.35985036778E+04 0.  0.
        3    1    3    3  502    0 -0.13935396856E+04  0.46679703271E+03 -0.15699054097E+04  0.21504546801E+04  0.10100000352E+00 0.  1.
       -3    1    3    3    0  502  0.13935396856E+04 -0.46679703271E+03  0.58279501740E+03  0.15809814571E+04  0.10100000352E+00 0. -1.
</event>
<event>
 5   0  0.1017794E-07  0.3603492E+04  0.7818609E-02  0.8089692E-01
        2   -1    0    0  501    0  0.00000000000E+00  0.00000000000E+00  0.24475130879E+04  0.24475130879E+04  0.25500000920E-02 0.  1.
       -2   -1    0    0    0  501  0.00000000000E+00  0.00000000000E+00 -0.13263617572E+04  0.13263617572E+04  0.25500000920E-02 0. -1.
    10030    2    1    2    0    0  0.00000000000E+00  0.00000000000E+00  0.11211513306E+04  0.37738748451E+04  0.36034915069E+04 0.  0.
        1    1    3    3  502    0  0.82101509361E+03 -0.75619561832E+03  0.20418017302E+04  0.23269834341E+04  0.50400001928E-02 0.  1.
       -1    1    3    3    0  502 -0.82101509361E+03  0.75619561832E+03 -0.92065039953E+03  0.14468914110E+04  0.50400001928E-02 0. -1.
</event>
<event>
 5   0  0.1044678E-07  0.3591845E+04  0.7818609E-02  0.8092362E-01
        2   -1    0    0  501    0  0.00000000000E+00  0.00000000000E+00  0.22530165252E+04  0.22530165252E+04  0.25500000920E-02 0. -1.
       -2   -1    0    0    0  501  0.00000000000E+00  0.00000000000E+00 -0.14315639575E+04  0.14315639575E+04  0.25500000920E-02 0.  1.
    10030    2    1    2    0    0  0.00000000000E+00  0.00000000000E+00  0.82145256772E+03  0.36845804826E+04  0.35918447923E+04 0.  0.
        2    1    3    3  502    0 -0.92918151177E+03  0.82858305226E+03 -0.91706838259E+03  0.15462673038E+04  0.25500000920E-02 0.  1.
       -2    1    3    3    0  502  0.92918151177E+03 -0.82858305226E+03  0.17385209503E+04  0.21383131789E+04  0.25500000920E-02 0. -1.
</event>
<event>
 5   0  0.3212523E-08  0.3593055E+04  0.7818609E-02  0.8092084E-01
       -1   -1    0    0    0  501  0.00000000000E+00  0.00000000000E+00  0.25061041525E+04  0.25061041525E+04  0.50400001928E-02 0. -1.
        1   -1    0    0  501    0  0.00000000000E+00  0.00000000000E+00 -0.12878595854E+04  0.12878595854E+04  0.50400001928E-02 0.  1.
    10030    2    1    2    0    0  0.00000000000E+00  0.00000000000E+00  0.12182445671E+04  0.37939637379E+04  0.35930545528E+04 0.  0.
        3    1    3    3  502    0  0.96656923634E+03 -0.15078501925E+04  0.46113592037E+03  0.18494633381E+04  0.10100000352E+00 0.  1.
       -3    1    3    3    0  502 -0.96656923634E+03  0.15078501925E+04  0.75710864672E+03  0.19445003998E+04  0.10100000352E+00 0. -1.
</event>
<event>
 5   0  0.1017794E-07  0.3600257E+04  0.7818609E-02  0.8090433E-01
       -2   -1    0    0    0  501  0.00000000000E+00  0.00000000000E+00  0.19333639731E+04  0.19333639731E+04  0.25500000920E-02 0.  1.
        2   -1    0    0  501    0  0.00000000000E+00  0.00000000000E+00 -0.16760751454E+04  0.16760751454E+04  0.25500000920E-02 0. -1.
    10030    2    1    2    0    0  0.00000000000E+00  0.00000000000E+00  0.25728882771E+03  0.36094391185E+04  0.36002573810E+04 0.  0.
        1    1    3    3  502    0  0.90661322460E+03  0.95703247821E+03  0.13575783250E+04  0.18923206948E+04  0.50400001928E-02 0.  1.
       -1    1    3    3    0  502 -0.90661322460E+03 -0.95703247821E+03 -0.11002894973E+04  0.17171184238E+04  0.50400001928E-02 0. -1.
</event>
<event>
 5   0  0.3202875E-08  0.3599121E+04  0.7818609E-02  0.8090693E-01
       -1   -1    0    0    0  501  0.00000000000E+00  0.00000000000E+00  0.30707600989E+04  0.30707600989E+04  0.50400001928E-02 0. -1.
        1   -1    0    0  501    0  0.00000000000E+00  0.00000000000E+00 -0.10545981256E+04  0.10545981256E+04  0.50400001928E-02 0.  1.
    10030    2    1    2    0    0  0.00000000000E+00  0.00000000000E+00  0.20161619733E+04  0.41253582244E+04  0.35991209173E+04 0.  0.
        1    1    3    3  502    0  0.90730628044E+02  0.16122062296E+04  0.97597761480E+02  0.16177040201E+04  0.50400001928E-02 0.  1.
       -1    1    3    3    0  502 -0.90730628044E+02 -0.16122062296E+04  0.19185642118E+04  0.25076542043E+04  0.50400001928E-02 0. -1.
</event>
<event>
 5   0  0.3212523E-08  0.3596658E+04  0.7818609E-02  0.8091258E-01
        1   -1    0    0  501    0  0.00000000000E+00  0.00000000000E+00  0.23111201709E+04  0.23111201709E+04  0.50400001928E-02 0.  1.
       -1   -1    0    0    0  501  0.00000000000E+00  0.00000000000E+00 -0.13993158502E+04  0.13993158502E+04  0.50400001928E-02 0. -1.
    10030    2    1    2    0    0  0.00000000000E+00  0.00000000000E+00  0.91180432069E+03  0.37104360210E+04  0.35966579413E+04 0.  0.
        3    1    3    3  502    0  0.35710157773E+03  0.90008820749E+03  0.20191965277E+04  0.22393827153E+04  0.10100000352E+00 0.  1.
       -3    1    3    3    0  502 -0.35710157773E+03 -0.90008820749E+03 -0.11073922070E+04  0.14710533057E+04  0.10100000352E+00 0. -1.
</event>
<event>
 5   0  0.1029908E-07  0.3601860E+04  0.7818609E-02  0.8090066E-01
       -2   -1    0    0    0  501  0.00000000000E+00  0.00000000000E+00  0.14377678521E+04  0.14377678521E+04  0.25500000920E-02 0.  1.
        2   -1    0    0  501    0  0.00000000000E+00  0.00000000000E+00 -0.22558226203E+04  0.22558226203E+04  0.25500000920E-02 0. -1.
    10030    2    1    2    0    0  0.00000000000E+00  0.00000000000E+00 -0.81805476815E+03  0.36935904724E+04  0.36018602102E+04 0.  0.
        4    1    3    3  502    0 -0.14352597454E+04 -0.63686271848E+03 -0.13134077037E+04  0.20470969855E+04  0.12699999809E+01 0. -1.
       -4    1    3    3    0  502  0.14352597454E+04  0.63686271848E+03  0.49535293554E+03  0.16464934869E+04  0.12699999809E+01 0.  1.
</event>
<event>
 5   0  0.3202875E-08  0.3609485E+04  0.7818609E-02  0.8088323E-01
        1   -1    0    0  501    0  0.00000000000E+00  0.00000000000E+00  0.15783393245E+04  0.15783393245E+04  0.50400001928E-02 0. -1.
       -1   -1    0    0    0  501  0.00000000000E+00  0.00000000000E+00 -0.20636213334E+04  0.20636213334E+04  0.50400001928E-02 0.  1.
    10030    2    1    2    0    0  0.00000000000E+00  0.00000000000E+00 -0.48528200896E+03  0.36419606579E+04  0.36094845623E+04 0.  0.
        2    1    3    3  502    0 -0.53791238433E+03 -0.16972402136E+04  0.55176728577E+02  0.17812968723E+04  0.25500000920E-02 0. -1.
       -2    1    3    3    0  502  0.53791238433E+03  0.16972402136E+04 -0.54045873753E+03  0.18606637856E+04  0.25500000920E-02 0.  1.
</event>
<event>
 5   0  0.1017794E-07  0.3600550E+04  0.7818609E-02  0.8090366E-01
        2   -1    0    0  501    0  0.00000000000E+00  0.00000000000E+00  0.16557777187E+04  0.16557777187E+04  0.25500000920E-02 0. -1.
       -2   -1    0    0    0  501  0.00000000000E+00  0.00000000000E+00 -0.19573818203E+04  0.19573818203E+04  0.25500000920E-02 0.  1.
    10030    2    1    2    0    0  0.00000000000E+00  0.00000000000E+00 -0.30160410152E+03  0.36131595390E+04  0.36005495164E+04 0.  0.
        1    1    3    3  502    0  0.86214914364E+03  0.25239646425E+03 -0.17163890900E+04  0.19372652450E+04  0.50400001928E-02 0.  1.
       -1    1    3    3    0  502 -0.86214914364E+03 -0.25239646425E+03  0.14147849885E+04  0.16758942940E+04  0.50400001928E-02 0. -1.
</event>
<event>
 5   0  0.9905335E-08  0.3596266E+04  0.7818609E-02  0.8091348E-01
       -2   -1    0    0    0  501  0.00000000000E+00  0.00000000000E+00  0.20890205094E+04  0.20890205094E+04  0.25500000920E-02 0. -1.
        2   -1    0    0  501    0  0.00000000000E+00  0.00000000000E+00 -0.15477505209E+04  0.15477505209E+04  0.25500000920E-02 0.  1.
    10030    2    1    2    0    0  0.00000000000E+00  0.00000000000E+00  0.54126998848E+03  0.36367710303E+04  0.35962661646E+04 0.  0.
        5    1    3    3  502    0 -0.15625086431E+04 -0.39631980477E+03  0.10763253595E+04  0.19382984850E+04  0.46999998093E+01 0. -1.
       -5    1    3    3    0  502  0.15625086431E+04  0.39631980477E+03 -0.53505537102E+03  0.16984725454E+04  0.46999998093E+01 0.  1.
</event>
<event>
 5   0  0.1029908E-07  0.3601324E+04  0.7818609E-02  0.8090189E-01
        2   -1    0    0  501    0  0.00000000000E+00  0.00000000000E+00  0.20706288950E+04  0.20706288950E+04  0.25500000920E-02 0.  1.
       -2   -1    0    0    0  501  0.00000000000E+00  0.00000000000E+00 -0.15658929115E+04  0.15658929115E+04  0.25500000920E-02 0. -1.
    10030    2    1    2    0    0  0.00000000000E+00  0.00000000000E+00  0.50473598354E+03  0.36365218066E+04  0.36013237062E+04 0.  0.
        4    1    3    3  502    0  0.10302946998E+04 -0.62051795443E+03  0.16055520249E+04  0.20060779192E+04  0.12699999809E+01 0.  1.
       -4    1    3    3    0  502 -0.10302946998E+04  0.62051795443E+03 -0.11008160414E+04  0.16304438874E+04  0.12699999809E+01 0. -1.
</event>
<event>
 5   0  0.3212523E-08  0.3599960E+04  0.7818609E-02  0.8090501E-01
       -1   -1    0    0    0  501  0.00000000000E+00  0.00000000000E+00  0.25701469102E+04  0.25701469102E+04  0.50400001928E-02 0. -1.
        1   -1    0    0  501    0  0.00000000000E+00  0.00000000000E+00 -0.12606000463E+04  0.12606000463E+04  0.50400001928E-02 0.  1.
    10030    2    1    2    0    0  0.00000000000E+00  0.00000000000E+00  0.13095468639E+04  0.38307469565E+04  0.35999596186E+04 0.  0.
        3    1    3    3  502    0  0.70852012588E+03 -0.15155376810E+04  0.13614824222E+04  0.21569630566E+04  0.10100000352E+00 0. -1.
       -3    1    3    3    0  502 -0.70852012588E+03  0.15155376810E+04 -0.51935558260E+02  0.16737838999E+04  0.10100000352E+00 0.  1.
</event>
<event>
 5   0  0.3212523E-08  0.3606887E+04  0.7818609E-02  0.8088916E-01
       -1   -1    0    0    0  501  0.00000000000E+00  0.00000000000E+00  0.34871472859E+04  0.34871472859E+04  0.50400001928E-02 0. -1.
        1   -1    0    0  501    0  0.00000000000E+00  0.00000000000E+00 -0.93268469516E+03  0.93268469517E+03  0.50400001928E-02 0.  1.
    10030    2    1    2    0    0  0.00000000000E+00  0.00000000000E+00  0.25544625907E+04  0.44198319811E+04  0.36068872471E+04 0.  0.
        3    1    3    3  502    0  0.11079658411E+04  0.15793248814E+03 -0.45567442858E+03  0.12083750125E+04  0.10100000352E+00 0.  1.
       -3    1    3    3    0  502 -0.11079658411E+04 -0.15793248814E+03  0.30101370193E+04  0.32114569686E+04  0.10100000352E+00 0. -1.
</event>
<event>
 5   0  0.1021087E-07  0.3601632E+04  0.7818609E-02  0.8090118E-01
       -2   -1    0    0    0  501  0.00000000000E+00  0.00000000000E+00  0.10939054321E+04  0.10939054321E+04  0.25500000920E-02 0. -1.
        2   -1    0    0  501    0  0.00000000000E+00  0.00000000000E+00 -0.29645500578E+04  0.29645500578E+04  0.25500000920E-02 0.  1.
    10030    2    1    2    0    0  0.00000000000E+00  0.00000000000E+00 -0.18706446258E+04  0.40584554899E+04  0.36016315258E+04 0.  0.
        3    1    3    3  502    0  0.13022254132E+04 -0.73932653657E+03 -0.20624660716E+04  0.25487567677E+04  0.10100000352E+00 0.  1.
       -3    1    3    3    0  502 -0.13022254132E+04  0.73932653657E+03  0.19182144578E+03  0.15096987222E+04  0.10100000352E+00 0. -1.
</event>
<event>
 5   0  0.1029908E-07  0.3593948E+04  0.7818609E-02  0.8091879E-01
       -2   -1    0    0    0  501  0.00000000000E+00  0.00000000000E+00  0.17526052769E+04  0.17526052769E+04  0.25500000920E-02 0. -1.
        2   -1    0    0  501    0  0.00000000000E+00  0.00000000000E+00 -0.18424658403E+04  0.18424658403E+04  0.25500000920E-02 0.  1.
    10030    2    1    2    0    0  0.00000000000E+00  0.00000000000E+00 -0.89860563343E+02  0.35950711172E+04  0.35939478873E+04 0.  0.
        4    1    3    3  502    0  0.89356772090E+03  0.15353351232E+04 -0.31593289052E+03  0.18043094015E+04  0.12699999809E+01 0. -1.
       -4    1    3    3    0  502 -0.89356772090E+03 -0.15353351232E+04  0.22607232718E+03  0.17907617157E+04  0.12699999809E+01 0.  1.
</event>
<event>
 5   0  0.3215494E-08  0.3623798E+04  0.7818609E-02  0.8085062E-01
        1   -1    0    0  501    0  0.00000000000E+00  0.00000000000E+00  0.20353820640E+04  0.20353820640E+04  0.50400001928E-02 0. -1.
       -1   -1    0    0    0  501  0.00000000000E+00  0.00000000000E+00 -0.16129540186E+04  0.16129540186E+04  0.50400001928E-02 0.  1.
    10030    2    1    2    0    0  0.00000000000E+00  0.00000000000E+00  0.42242804538E+03  0.36483360825E+04  0.36237978307E+04 0.  0.
        4    1    3    3  502    0  0.17952668828E+04  0.22541977402E+03  0.11475916553E+03  0.18129998715E+04  0.12699999809E+01 0.  1.
       -4    1    3    3    0  502 -0.17952668828E+04 -0.22541977402E+03  0.30766887985E+03  0.18353362110E+04  0.12699999809E+01 0. -1.
</event>
<event>
 5   0  0.3202875E-08  0.3601414E+04  0.7818609E-02  0.8090168E-01
        1   -1    0    0  501    0  0.00000000000E+00  0.00000000000E+00  0.19397573305E+04  0.19397573305E+04  0.50400001928E-02 0.  1.
       -1   -1    0    0    0  501  0.00000000000E+00  0.00000000000E+00 -0.16716244768E+04  0.16716244768E+04  0.50400001928E-02 0. -1.
    10030    2    1    2    0    0  0.00000000000E+00  0.00000000000E+00  0.26813285369E+03  0.36113818073E+04  0.36014140738E+04 0.  0.
        1    1    3    3  502    0 -0.10120869190E+04  0.66213902226E+03 -0.12037166054E+04  0.17063650497E+04  0.50400001928E-02 0. -1.
       -1    1    3    3    0  502  0.10120869190E+04 -0.66213902226E+03  0.14718494591E+04  0.19050167576E+04  0.50400001928E-02 0.  1.
</event>
<event>
 5   0  0.3202875E-08  0.3593830E+04  0.7818609E-02  0.8091907E-01
       -1   -1    0    0    0  501  0.00000000000E+00  0.00000000000E+00  0.15902091974E+04  0.15902091974E+04  0.50400001928E-02 0.  1.
        1   -1    0    0  501    0  0.00000000000E+00  0.00000000000E+00 -0.20304892235E+04  0.20304892235E+04  0.50400001928E-02 0. -1.
    10030    2    1    2    0    0  0.00000000000E+00  0.00000000000E+00 -0.44028002612E+03  0.36206984209E+04  0.35938295109E+04 0.  0.
        2    1    3    3  502    0 -0.15941117712E+04  0.44670742623E+03  0.48377011090E+03  0.17247531371E+04  0.25500000920E-02 0.  1.
       -2    1    3    3    0  502  0.15941117712E+04 -0.44670742623E+03 -0.92405013702E+03  0.18959452838E+04  0.25500000920E-02 0. -1.
</event>
<event>
 5   0  0.1029908E-07  0.3596603E+04  0.7818609E-02  0.8091270E-01
       -2   -1    0    0    0  501  0.00000000000E+00  0.00000000000E+00  0.28179084315E+04  0.28179084315E+04  0.25500000920E-02 0. -1.
        2   -1    0    0  501    0  0.00000000000E+00  0.00000000000E+00 -0.11476199443E+04  0.11476199443E+04  0.25500000920E-02 0.  1.
    10030    2    1    2    0    0  0.00000000000E+00  0.00000000000E+00  0.16702884872E+04  0.39655283758E+04  0.35966027956E+04 0.  0.
        4    1    3    3  502    0  0.64543442524E+03  0.16622940684E+04  0.57874103116E+03  0.18747666418E+04  0.12699999809E+01 0.  1.
       -4    1    3    3    0  502 -0.64543442524E+03 -0.16622940684E+04  0.10915474561E+04  0.20907617341E+04  0.12699999809E+01 0. -1.
</event>
<event>
 5   0  0.1029908E-07  0.3608719E+04  0.7818609E-02  0.8088497E-01
        2   -1    0    0  501    0  0.00000000000E+00  0.00000000000E+00  0.16218869782E+04  0.16218869782E+04  0.25500000920E-02 0. -1.
       -2   -1    0    0    0  501  0.00000000000E+00  0.00000000000E+00 -0.20073618081E+04  0.20073618081E+04  0.25500000920E-02 0.  1.
    10030    2    1    2    0    0  0.00000000000E+00  0.00000000000E+00 -0.38547482990E+03  0.36292487863E+04  0.36087194278E+04 0.  0.
        4    1    3    3  502    0  0.17857094757E+04  0.23652028686E+03 -0.29827336033E+03  0.18258337241E+04  0.12699999809E+01 0.  1.
       -4    1    3    3    0  502 -0.17857094757E+04 -0.23652028686E+03 -0.87201469575E+02  0.18034150622E+04  0.12699999809E+01 0. -1.
</event>
<event>
 5   0  0.9905335E-08  0.3602162E+04  0.7818609E-02  0.8089997E-01
        2   -1    0    0  501    0  0.00000000000E+00  0.00000000000E+00  0.20070384185E+04  0.20070384185E+04  0.25500000920E-02 0.  1.
       -2   -1    0    0    0  501  0.00000000000E+00  0.00000000000E+00 -0.16162582317E+04  0.16162582317E+04  0.25500000920E-02 0. -1.
    10030    2    1    2    0    0  0.00000000000E+00  0.00000000000E+00  0.39078018681E+03  0.36232966503E+04  0.36021617761E+04 0.  0.
        5    1    3    3  502    0 -0.53512798026E+03 -0.17127713877E+04  0.39813627445E+02  0.17948690751E+04  0.46999998093E+01 0. -1.
       -5    1    3    3    0  502  0.53512798026E+03  0.17127713877E+04  0.35096655937E+03  0.18284275752E+04  0.46999998093E+01 0.  1.
</event>
<event>
 5   0  0.3212523E-08  0.3593276E+04  0.7818609E-02  0.8092034E-01
       -1   -1    0    0    0  501  0.00000000000E+00  0.00000000000E+00  0.10580193486E+04  0.10580193486E+04  0.50400001928E-02 0.  1.
        1   -1    0    0  501    0  0.00000000000E+00  0.00000000000E+00 -0.30508967868E+04  0.30508967868E+04  0.50400001928E-02 0. -1.
    10030    2    1    2    0    0  0.00000000000E+00  0.00000000000E+00 -0.19928774383E+04  0.41089161354E+04  0.35932758486E+04 0.  0.
        3    1    3    3  502    0  0.79682176279E+03 -0.10011980472E+04  0.44572714126E+03  0.13549889837E+04  0.10100000352E+00 0.  1.
       -3    1    3    3    0  502 -0.79682176279E+03  0.10011980472E+04 -0.24386045795E+04  0.27539271517E+04  0.10100000352E+00 0. -1.
</event>
<event>
 5   0  0.3202875E-08  0.3595965E+04  0.7818609E-02  0.8091417E-01
        1   -1    0    0  501    0  0.00000000000E+00  0.00000000000E+00  0.18275377637E+04  0.18275377637E+04  0.50400001928E-02 0.  1.
       -1   -1    0    0    0  501  0.00000000000E+00  0.00000000000E+00 -0.17689051075E+04  0.17689051075E+04  0.50400001928E-02 0. -1.
    10030    2    1    2    0    0  0.00000000000E+00  0.00000000000E+00  0.58632656184E+02  0.35964428712E+04  0.35959648966E+04 0.  0.
        2    1    3    3  502    0  0.27549376798E+03  0.17752208750E+04  0.10304798926E+03  0.17994234797E+04  0.25500000920E-02 0. -1.
       -2    1    3    3    0  502 -0.27549376798E+03 -0.17752208750E+04 -0.44415333078E+02  0.17970193914E+04  0.25500000920E-02 0.  1.
</event>
<event>
 5   0  0.1017794E-07  0.3602699E+04  0.7818609E-02  0.8089874E-01
        2   -1    0    0  501    0  0.00000000000E+00  0.00000000000E+00  0.22200826259E+04  0.22200826260E+04  0.25500000920E-02 0.  1.
       -2   -1    0    0    0  501  0.00000000000E+00  0.00000000000E+00 -0.14615938934E+04  0.14615938934E+04  0.25500000920E-02 0. -1.
    10030    2    1    2    0    0  0.00000000000E+00  0.00000000000E+00  0.75848873258E+03  0.36816765193E+04  0.36026985491E+04 0.  0.
        1    1    3    3  502    0 -0.98730138547E+03 -0.68944061974E+03  0.17483019601E+04  0.21228876884E+04  0.50400001928E-02 0.  1.
       -1    1    3    3    0  502  0.98730138547E+03  0.68944061974E+03 -0.98981322754E+03  0.15587888309E+04  0.50400001928E-02 0. -1.
</event>
<event>
 5   0  0.3215494E-08  0.3607381E+04  0.7818609E-02  0.8088803E-01
        1   -1    0    0  501    0  0.00000000000E+00  0.00000000000E+00  0.16354642131E+04  0.16354642131E+04  0.50400001928E-02 0. -1.
       -1   -1    0    0    0  501  0.00000000000E+00  0.00000000000E+00 -0.19892202656E+04  0.19892202656E+04  0.50400001928E-02 0.  1.
    10030    2    1    2    0    0  0.00000000000E+00  0.00000000000E+00 -0.35375605254E+03  0.36246844787E+04  0.36073805213E+04 0.  0.
        4    1    3    3  502    0 -0.55747697809E+03  0.16178373604E+04  0.39604883650E+03  0.17564266565E+04  0.12699999809E+01 0. -1.
       -4    1    3    3    0  502  0.55747697809E+03 -0.16178373604E+04 -0.74980488904E+03  0.18682578222E+04  0.12699999809E+01 0.  1.
</event>
<event>
 5   0  0.1017794E-07  0.3532528E+04  0.7818609E-02  0.8106124E-01
       -2   -1    0    0    0  501  0.00000000000E+00  0.00000000000E+00  0.20932399827E+04  0.20932399827E+04  0.25500000920E-02 0. -1.
        2   -1    0    0  501    0  0.00000000000E+00  0.00000000000E+00 -0.14903635311E+04  0.14903635311E+04  0.25500000920E-02 0.  1.
    10030    2    1    2    0    0  0.00000000000E+00  0.00000000000E+00  0.60287645160E+03  0.35836035139E+04  0.35325280082E+04 0.  0.
        1    1    3    3  502    0 -0.20642379372E+03 -0.16371348815E+04 -0.33764424372E+03  0.16842876946E+04  0.50400001928E-02 0.  1.
       -1    1    3    3    0  502  0.20642379372E+03  0.16371348815E+04  0.94052069532E+03  0.18993158193E+04  0.50400001928E-02 0. -1.
</event>
<event>
 5   0  0.1044678E-07  0.3596776E+04  0.7818609E-02  0.8091231E-01
       -2   -1    0    0    0  501  0.00000000000E+00  0.00000000000E+00  0.13822511483E+04  0.13822511483E+04  0.25500000920E-02 0.  1.
        2   -1    0    0  501    0  0.00000000000E+00  0.00000000000E+00 -0.23398063572E+04  0.23398063572E+04  0.25500000920E-02 0. -1.
    10030    2    1    2    0    0  0.00000000000E+00  0.00000000000E+00 -0.95755520891E+03  0.37220575055E+04  0.35967763478E+04 0.  0.
        2    1    3    3  502    0 -0.38602527342E+03  0.13511704476E+04 -0.16401531707E+04  0.21598100643E+04  0.25500000920E-02 0. -1.
       -2    1    3    3    0  502  0.38602527342E+03 -0.13511704476E+04  0.68259796179E+03  0.15622474413E+04  0.25500000920E-02 0.  1.
</event>
<event>
 5   0  0.3202875E-08  0.3597333E+04  0.7818609E-02  0.8091103E-01
       -1   -1    0    0    0  501  0.00000000000E+00  0.00000000000E+00  0.17322200447E+04  0.17322200447E+04  0.50400001928E-02 0.  1.
        1   -1    0    0  501    0  0.00000000000E+00  0.00000000000E+00 -0.18676618719E+04  0.18676618720E+04  0.50400001928E-02 0. -1.
    10030    2    1    2    0    0  0.00000000000E+00  0.00000000000E+00 -0.13544182728E+03  0.35998819166E+04  0.35973330851E+04 0.  0.
        1    1    3    3  502    0 -0.35479051595E+03 -0.15298090344E+04  0.80983219770E+03  0.17669239317E+04  0.50400001928E-02 0.  1.
       -1    1    3    3    0  502  0.35479051595E+03  0.15298090344E+04 -0.94527402497E+03  0.18329579849E+04  0.50400001928E-02 0. -1.
</event>
<event>
 5   0  0.1029908E-07  0.3601034E+04  0.7818609E-02  0.8090255E-01
       -2   -1    0    0    0  501  0.00000000000E+00  0.00000000000E+00  0.20593808894E+04  0.20593808894E+04  0.25500000920E-02 0. -1.
        2   -1    0    0  501    0  0.00000000000E+00  0.00000000000E+00 -0.15741922113E+04  0.15741922113E+04  0.25500000920E-02 0.  1.
    10030    2    1    2    0    0  0.00000000000E+00  0.00000000000E+00  0.48518867801E+03  0.36335731007E+04  0.36010339383E+04 0.  0.
        4    1    3    3  502    0 -0.12615580063E+04  0.74021560457E+03  0.13020399182E+04  0.19582536368E+04  0.12699999809E+01 0.  1.
       -4    1    3    3    0  502  0.12615580063E+04 -0.74021560457E+03 -0.81685124024E+03  0.16753194639E+04  0.12699999809E+01 0. -1.
</event>
<event>
 5   0  0.3212523E-08  0.3615506E+04  0.7818609E-02  0.8086949E-01
        1   -1    0    0  501    0  0.00000000000E+00  0.00000000000E+00  0.11463539412E+04  0.11463539412E+04  0.50400001928E-02 0. -1.
       -1   -1    0    0    0  501  0.00000000000E+00  0.00000000000E+00 -0.28507521765E+04  0.28507521765E+04  0.50400001928E-02 0.  1.
    10030    2    1    2    0    0  0.00000000000E+00  0.00000000000E+00 -0.17043982353E+04  0.39971061177E+04  0.36155060464E+04 0.  0.
        3    1    3    3  502    0 -0.35707801411E+03 -0.49013107078E+02  0.11062283146E+04  0.11634638315E+04  0.10100000352E+00 0. -1.
       -3    1    3    3    0  502  0.35707801411E+03  0.49013107078E+02 -0.28106265499E+04  0.28336422862E+04  0.10100000352E+00 0.  1.
</event>
<event>
 5   0  0.9905335E-08  0.3601791E+04  0.7818609E-02  0.8090082E-01
       -2   -1    0    0    0  501  0.00000000000E+00  0.00000000000E+00  0.18318874951E+04  0.18318874951E+04  0.25500000920E-02 0.  1.
        2   -1    0    0  501    0  0.00000000000E+00  0.00000000000E+00 -0.17704274535E+04  0.17704274535E+04  0.25500000920E-02 0. -1.
    10030    2    1    2    0    0  0.00000000000E+00  0.00000000000E+00  0.61460041523E+02  0.36023149486E+04  0.36017906175E+04 0.  0.
        5    1    3    3  502    0  0.86630045089E+03  0.12318207120E+04  0.10184683855E+04  0.18180095380E+04  0.46999998093E+01 0.  1.
       -5    1    3    3    0  502 -0.86630045089E+03 -0.12318207120E+04 -0.95700834403E+03  0.17843054106E+04  0.46999998093E+01 0. -1.
</event>
<event>
 5   0  0.9905335E-08  0.3598993E+04  0.7818609E-02  0.8090722E-01
       -2   -1    0    0    0  501  0.00000000000E+00  0.00000000000E+00  0.99106595956E+03  0.99106595956E+03  0.25500000920E-02 0.  1.
        2   -1    0    0  501    0  0.00000000000E+00  0.00000000000E+00 -0.32673790139E+04  0.32673790139E+04  0.25500000920E-02 0. -1.
    10030    2    1    2    0    0  0.00000000000E+00  0.00000000000E+00 -0.22763130544E+04  0.42584449735E+04  0.35989932579E+04 0.  0.
        5    1    3    3  502    0  0.55904776896E+02 -0.48577071695E+03  0.91094334646E+03  0.10338947741E+04  0.46999998093E+01 0.  1.
       -5    1    3    3    0  502 -0.55904776896E+02  0.48577071695E+03 -0.31872564008E+04  0.32245501993E+04  0.46999998093E+01 0. -1.
</event>
<event>
 5   0  0.1017794E-07  0.3591777E+04  0.7818609E-02  0.8092378E-01
        2   -1    0    0  501    0  0.00000000000E+00  0.00000000000E+00  0.21209397591E+04  0.21209397591E+04  0.25500000920E-02 0.  1.
       -2   -1    0    0    0  501  0.00000000000E+00  0.00000000000E+00 -0.15206539031E+04  0.15206539031E+04  0.25500000920E-02 0. -1.
    10030    2    1    2    0    0  0.00000000000E+00  0.00000000000E+00  0.60028585606E+03  0.36415936622E+04  0.35917768989E+04 0.  0.
        1    1    3    3  502    0 -0.63527932407E+03  0.16062441506E+04  0.79850420106E+03  0.19029474638E+04  0.50400001928E-02 0. -1.
       -1    1    3    3    0  502  0.63527932407E+03 -0.16062441506E+04 -0.19821834499E+03  0.17386461984E+04  0.50400001928E-02 0.  1.
</event>
<event>
 5   0  0.3215494E-08  0.3622499E+04  0.7818609E-02  0.8085357E-01
       -1   -1    0    0    0  501  0.00000000000E+00  0.00000000000E+00  0.19506841113E+04  0.19506841113E+04  0.50400001928E-02 0. -1.
        1   -1    0    0  501    0  0.00000000000E+00  0.00000000000E+00 -0.16817818287E+04  0.16817818287E+04  0.50400001928E-02 0.  1.
    10030    2    1    2    0    0  0.00000000000E+00  0.00000000000E+00  0.26890228260E+03  0.36324659400E+04  0.36224991881E+04 0.  0.
        4    1    3    3  502    0 -0.13463575995E+04  0.27326829877E+03  0.13180669618E+04  0.19038530609E+04  0.12699999809E+01 0. -1.
       -4    1    3    3    0  502  0.13463575995E+04 -0.27326829877E+03 -0.10491646792E+04  0.17286128791E+04  0.12699999809E+01 0.  1.
</event>
<event>
 5   0  0.3212523E-08  0.3597771E+04  0.7818609E-02  0.8091002E-01
        1   -1    0    0  501    0  0.00000000000E+00  0.00000000000E+00  0.24927053415E+04  0.24927053415E+04  0.50400001928E-02 0. -1.
       -1   -1    0    0    0  501  0.00000000000E+00  0.00000000000E+00 -0.12981835639E+04  0.12981835639E+04  0.50400001928E-02 0.  1.
    10030    2    1    2    0    0  0.00000000000E+00  0.00000000000E+00  0.11945217776E+04  0.37908889054E+04  0.35977710344E+04 0.  0.
        3    1    3    3  502    0  0.13217490399E+04  0.45011023632E+03  0.17923227241E+04  0.22720124354E+04  0.10100000352E+00 0. -1.
       -3    1    3    3    0  502 -0.13217490399E+04 -0.45011023632E+03 -0.59780094643E+03  0.15188764700E+04  0.10100000352E+00 0.  1.
</event>
<event>
 5   0  0.3212523E-08  0.3600028E+04  0.7818609E-02  0.8090485E-01
       -1   -1    0    0    0  501  0.00000000000E+00  0.00000000000E+00  0.14203724502E+04  0.14203724502E+04  0.50400001928E-02 0. -1.
        1   -1    0    0  501    0  0.00000000000E+00  0.00000000000E+00 -0.22811269893E+04  0.22811269893E+04  0.50400001928E-02 0.  1.
    10030    2    1    2    0    0  0.00000000000E+00  0.00000000000E+00 -0.86075453912E+03  0.37014994395E+04  0.36000277393E+04 0.  0.
        3    1    3    3  502    0  0.14958476139E+04 -0.12778895598E+03 -0.14514237026E+04  0.20881860253E+04  0.10100000352E+00 0.  1.
       -3    1    3    3    0  502 -0.14958476139E+04  0.12778895598E+03  0.59066916352E+03  0.16133134142E+04  0.10100000352E+00 0. -1.
</event>
<event>
 5   0  0.1029908E-07  0.3600934E+04  0.7818609E-02  0.8090278E-01
       -2   -1    0    0    0  501  0.00000000000E+00  0.00000000000E+00  0.29422766786E+04  0.29422766786E+04  0.25500000920E-02 0.  1.
        2   -1    0    0  501    0  0.00000000000E+00  0.00000000000E+00 -0.11017595468E+04  0.11017595468E+04  0.25500000920E-02 0. -1.
    10030    2    1    2    0    0  0.00000000000E+00  0.00000000000E+00  0.18405171318E+04  0.40440362254E+04  0.36009340010E+04 0.  0.
        4    1    3    3  502    0 -0.98051853970E+03 -0.37182715384E+03  0.25639125486E+04  0.27700760294E+04  0.12699999809E+01 0.  1.
       -4    1    3    3    0  502  0.98051853970E+03  0.37182715384E+03 -0.72339541676E+03  0.12739601960E+04  0.12699999809E+01 0. -1.
</event>
<event>
 5   0  0.3279988E-08  0.3604883E+04  0.7818609E-02  0.8089374E-01
        1   -1    0    0  501    0  0.00000000000E+00  0.00000000000E+00  0.24450692124E+04  0.24450692124E+04  0.50400001928E-02 0. -1.
       -1   -1    0    0    0  501  0.00000000000E+00  0.00000000000E+00 -0.13287132889E+04  0.13287132889E+04  0.50400001928E-02 0.  1.
    10030    2    1    2    0    0  0.00000000000E+00  0.00000000000E+00  0.11163559235E+04  0.37737825013E+04  0.36048833295E+04 0.  0.
        5    1    3    3  502    0 -0.17819471215E+04  0.10134509006E+03  0.82128500591E+03  0.19647232686E+04  0.46999998093E+01 0. -1.
       -5    1    3    3    0  502  0.17819471215E+04 -0.10134509006E+03  0.29507091761E+03  0.18090592327E+04  0.46999998093E+01 0.  1.
</event>
<event>
 5   0  0.3202875E-08  0.3619391E+04  0.7818609E-02  0.8086064E-01
       -1   -1    0    0    0  501  0.00000000000E+00  0.00000000000E+00  0.19060409484E+04  0.19060409484E+04  0.50400001928E-02 0.  1.
        1   -1    0    0  501    0  0.00000000000E+00  0.00000000000E+00 -0.17182200321E+04  0.17182200322E+04  0.50400001928E-02 0. -1.
    10030    2    1    2    0    0  0.00000000000E+00  0.00000000000E+00  0.18782091628E+03  0.36242609806E+04  0.36193909652E+04 0.  0.
        1    1    3    3  502    0 -0.58053372438E+03  0.11913326975E+03  0.18061192657E+04  0.19008626839E+04  0.50400001928E-02 0.  1.
       -1    1    3    3    0  502  0.58053372438E+03 -0.11913326975E+03 -0.16182983494E+04  0.17233982967E+04  0.50400001928E-02 0. -1.
</event>
<event>
 5   0  0.3202875E-08  0.3595018E+04  0.7818609E-02  0.8091634E-01
       -1   -1    0    0    0  501  0.00000000000E+00  0.00000000000E+00  0.32707353991E+04  0.32707353991E+04  0.50400001928E-02 0.  1.
        1   -1    0    0  501    0  0.00000000000E+00  0.00000000000E+00 -0.98786315783E+03  0.98786315784E+03  0.50400001928E-02 0. -1.
    10030    2    1    2    0    0  0.00000000000E+00  0.00000000000E+00  0.22828722413E+04  0.42585985570E+04  0.35950182196E+04 0.  0.
        2    1    3    3  502    0  0.10856343271E+03 -0.34556233703E+03 -0.94418406513E+03  0.10112778533E+04  0.25500000920E-02 0. -1.
       -2    1    3    3    0  502 -0.10856343271E+03  0.34556233703E+03  0.32270563064E+04  0.32473207037E+04  0.25500000920E-02 0.  1.
</event>
<event>
 5   0  0.1021087E-07  0.3599042E+04  0.7818609E-02  0.8090711E-01
       -2   -1    0    0    0  501  0.00000000000E+00  0.00000000000E+00  0.13982118416E+04  0.13982118416E+04  0.25500000920E-02 0.  1.
        2   -1    0    0  501    0  0.00000000000E+00  0.00000000000E+00 -0.23160123931E+04  0.23160123931E+04  0.25500000920E-02 0. -1.
    10030    2    1    2    0    0  0.00000000000E+00  0.00000000000E+00 -0.91780055151E+03  0.37142242348E+04  0.35990420689E+04 0.  0.
        3    1    3    3  502    0  0.33153361268E+03  0.12129836626E+04 -0.17873546690E+04  0.21853788287E+04  0.10100000352E+00 0. -1.
       -3    1    3    3    0  502 -0.33153361268E+03 -0.12129836626E+04  0.86955411749E+03  0.15288454060E+04  0.10100000352E+00 0.  1.
</event>
<event>
 5   0  0.1029908E-07  0.3604283E+04  0.7818609E-02  0.8089511E-01
        2   -1    0    0  501    0  0.00000000000E+00  0.00000000000E+00  0.30016053102E+04  0.30016053102E+04  0.25500000920E-02 0. -1.
       -2   -1    0    0    0  501  0.00000000000E+00  0.00000000000E+00 -0.10819925463E+04  0.10819925463E+04  0.25500000920E-02 0.  1.
    10030    2    1    2    0    0  0.00000000000E+00  0.00000000000E+00  0.19196127639E+04  0.40835978565E+04  0.36042833254E+04 0.  0.
        4    1    3    3  502    0 -0.90900097314E+03 -0.44430318793E+03 -0.72983237953E+03  0.12475355735E+04  0.12699999809E+01 0.  1.
       -4    1    3    3    0  502  0.90900097314E+03  0.44430318793E+03  0.26494451434E+04  0.28360622830E+04  0.12699999809E+01 0. -1.
</event>
<event>
 5   0  0.1017794E-07  0.3650927E+04  0.7818609E-02  0.8078925E-01
       -2   -1    0    0    0  501  0.00000000000E+00  0.00000000000E+00  0.20481110662E+04  0.20481110662E+04  0.25500000920E-02 0.  1.
        2   -1    0    0  501    0  0.00000000000E+00  0.00000000000E+00 -0.16270199419E+04  0.16270199419E+04  0.25500000920E-02 0. -1.
    10030    2    1    2    0    0  0.00000000000E+00  0.00000000000E+00  0.42109112434E+03  0.36751310081E+04  0.36509273057E+04 0.  0.
        1    1    3    3  502    0  0.35870466646E+03 -0.13604378737E+04 -0.96028927065E+03  0.17034129650E+04  0.50400001928E-02 0. -1.
       -1    1    3    3    0  502 -0.35870466646E+03  0.13604378737E+04  0.13813803950E+04  0.19717180431E+04  0.50400001928E-02 0.  1.
</event>
<event>
 5   0  0.1021087E-07  0.3595370E+04  0.7818609E-02  0.8091553E-01
        2   -1    0    0  501    0  0.00000000000E+00  0.00000000000E+00  0.25478952246E+04  0.25478952246E+04  0.25500000920E-02 0. -1.
       -2   -1    0    0    0  501  0.00000000000E+00  0.00000000000E+00 -0.12683689027E+04  0.12683689027E+04  0.25500000920E-02 0.  1.
    10030    2    1    2    0    0  0.00000000000E+00  0.00000000000E+00  0.12795263219E+04  0.38162641273E+04  0.35953698392E+04 0.  0.
        3    1    3    3  502    0  0.10382661253E+04 -0.12466594275E+04 -0.18209108475E+03  0.16325787725E+04  0.10100000352E+00 0.  1.
       -3    1    3    3    0  502 -0.10382661253E+04  0.12466594275E+04  0.14616174066E+04  0.21836853548E+04  0.10100000352E+00 0. -1.
</event>
<event>
 5   0  0.3279988E-08  0.3594211E+04  0.7818609E-02  0.8091819E-01
        1   -1    0    0  501    0  0.00000000000E+00  0.00000000000E+00  0.19289958779E+04  0.19289958779E+04  0.50400001928E-02 0. -1.
       -1   -1    0    0    0  501  0.00000000000E+00  0.00000000000E+00 -0.16742327054E+04  0.16742327054E+04  0.50400001928E-02 0.  1.
    10030    2    1    2    0    0  0.00000000000E+00  0.00000000000E+00  0.25476317250E+03  0.36032285834E+04  0.35942108939E+04 0.  0.
        5    1    3    3  502    0  0.70104707223E+03 -0.11891973919E+04  0.12808806251E+04  0.18831714474E+04  0.46999998093E+01 0. -1.
       -5    1    3    3    0  502 -0.70104707223E+03  0.11891973919E+04 -0.10261174526E+04  0.17200571360E+04  0.46999998093E+01 0.  1.
</event>
<event>
 5   0  0.3215494E-08  0.3600671E+04  0.7818609E-02  0.8090338E-01
        1   -1    0    0  501    0  0.00000000000E+00  0.00000000000E+00  0.14710598409E+04  0.14710598409E+04  0.50400001928E-02 0.  1.
       -1   -1    0    0    0  501  0.00000000000E+00  0.00000000000E+00 -0.22033149938E+04  0.22033149939E+04  0.50400001928E-02 0. -1.
    10030    2    1    2    0    0  0.00000000000E+00  0.00000000000E+00 -0.73225515294E+03  0.36743748348E+04  0.36006711621E+04 0.  0.
        4    1    3    3  502    0 -0.29445631509E+03  0.11305594199E+03 -0.21748993215E+04  0.21976521196E+04  0.12699999809E+01 0. -1.
       -4    1    3    3    0  502  0.29445631509E+03 -0.11305594199E+03  0.14426441685E+04  0.14767227151E+04  0.12699999809E+01 0.  1.
</event>
<event>
 5   0  0.3279988E-08  0.3601619E+04  0.7818609E-02  0.8090121E-01
       -1   -1    0    0    0  501  0.00000000000E+00  0.00000000000E+00  0.15702831826E+04  0.15702831826E+04  0.50400001928E-02 0.  1.
        1   -1    0    0  501    0  0.00000000000E+00  0.00000000000E+00 -0.20651787298E+04  0.20651787298E+04  0.50400001928E-02 0. -1.
    10030    2    1    2    0    0  0.00000000000E+00  0.00000000000E+00 -0.49489554721E+03  0.36354619125E+04  0.36016193184E+04 0.  0.
        5    1    3    3  502    0  0.78751913325E+02  0.12801815676E+04  0.10284815519E+04  0.16440386561E+04  0.46999998093E+01 0.  1.
       -5    1    3    3    0  502 -0.78751913325E+02 -0.12801815676E+04 -0.15233770992E+04  0.19914232564E+04  0.46999998093E+01 0. -1.
</event>
<event>
 5   0  0.3212523E-08  0.3672257E+04  0.7818609E-02  0.8074138E-01
       -1   -1    0    0    0  501  0.00000000000E+00  0.00000000000E+00  0.15142620208E+04  0.15142620208E+04  0.50400001928E-02 0. -1.
        1   -1    0    0  501    0  0.00000000000E+00  0.00000000000E+00 -0.22264096848E+04  0.22264096848E+04  0.50400001928E-02 0.  1.
    10030    2    1    2    0    0  0.00000000000E+00  0.00000000000E+00 -0.71214766401E+03  0.37406717056E+04  0.36722568692E+04 0.  0.
        3    1    3    3  502    0 -0.11611123236E+04 -0.13861927666E+03  0.10859160177E+04  0.15958103708E+04  0.10100000352E+00 0. -1.
       -3    1    3    3    0  502  0.11611123236E+04  0.13861927666E+03 -0.17980636817E+04  0.21448613348E+04  0.10100000352E+00 0.  1.
</event>
<event>
 5   0  0.1029908E-07  0.3595294E+04  0.7818609E-02  0.8091571E-01
        2   -1    0    0  501    0  0.00000000000E+00  0.00000000000E+00  0.23707271144E+04  0.23707271144E+04  0.25500000920E-02 0.  1.
       -2   -1    0    0    0  501  0.00000000000E+00  0.00000000000E+00 -0.13630983977E+04  0.13630983977E+04  0.25500000920E-02 0. -1.
    10030    2    1    2    0    0  0.00000000000E+00  0.00000000000E+00  0.10076287168E+04  0.37338255121E+04  0.35952937744E+04 0.  0.
        4    1    3    3  502    0 -0.16412795434E+04  0.13308472104E+03  0.12527263078E+04  0.20690178582E+04  0.12699999809E+01 0.  1.
       -4    1    3    3    0  502  0.16412795434E+04 -0.13308472104E+03 -0.24509759107E+03  0.16648076539E+04  0.12699999809E+01 0. -1.
</event>
<event>
 5   0  0.1017794E-07  0.3598707E+04  0.7818609E-02  0.8090788E-01
        2   -1    0    0  501    0  0.00000000000E+00  0.00000000000E+00  0.16638161891E+04  0.16638161891E+04  0.25500000920E-02 0. -1.
       -2   -1    0    0    0  501  0.00000000000E+00  0.00000000000E+00 -0.19459316118E+04  0.19459316118E+04  0.25500000920E-02 0.  1.
    10030    2    1    2    0    0  0.00000000000E+00  0.00000000000E+00 -0.28211542277E+03  0.36097478009E+04  0.35987067225E+04 0.  0.
        1    1    3    3  502    0  0.11053282402E+04  0.61404012089E+03  0.11430561966E+04  0.17045155491E+04  0.50400001928E-02 0. -1.
       -1    1    3    3    0  502 -0.11053282402E+04 -0.61404012089E+03 -0.14251716193E+04  0.19052322518E+04  0.50400001928E-02 0.  1.
</event>
<event>
 5   0  0.1044678E-07  0.3610327E+04  0.7818609E-02  0.8088130E-01
       -2   -1    0    0    0  501  0.00000000000E+00  0.00000000000E+00  0.13187846890E+04  0.13187846890E+04  0.25500000920E-02 0.  1.
        2   -1    0    0  501    0  0.00000000000E+00  0.00000000000E+00 -0.24709231416E+04  0.24709231416E+04  0.25500000920E-02 0. -1.
    10030    2    1    2    0    0  0.00000000000E+00  0.00000000000E+00 -0.11521384526E+04  0.37897078306E+04  0.36103271912E+04 0.  0.
        2    1    3    3  502    0  0.14672241551E+04 -0.99321169183E+03 -0.21335860213E+03  0.17845834470E+04  0.25500000920E-02 0.  1.
       -2    1    3    3    0  502 -0.14672241551E+04  0.99321169183E+03 -0.93877985050E+03  0.20051243836E+04  0.25500000920E-02 0. -1.
</event>
<event>
 5   0  0.3212523E-08  0.3596448E+04  0.7818609E-02  0.8091306E-01
       -1   -1    0    0    0  501  0.00000000000E+00  0.00000000000E+00  0.20097978683E+04  0.20097978683E+04  0.50400001928E-02 0. -1.
        1   -1    0    0  501    0  0.00000000000E+00  0.00000000000E+00 -0.16089232142E+04  0.16089232142E+04  0.50400001928E-02 0.  1.
    10030    2    1    2    0    0  0.00000000000E+00  0.00000000000E+00  0.40087465404E+03  0.36187210825E+04  0.35964484960E+04 0.  0.
        3    1    3    3  502    0 -0.14802941643E+04 -0.26022652690E+02 -0.82650195994E+03  0.16955982694E+04  0.10100000352E+00 0.  1.
       -3    1    3    3    0  502  0.14802941643E+04  0.26022652690E+02  0.12273766140E+04  0.19231228131E+04  0.10100000352E+00 0. -1.
</event>
<event>
 5   0  0.1021087E-07  0.3613097E+04  0.7818609E-02  0.8087498E-01
        2   -1    0    0  501    0  0.00000000000E+00  0.00000000000E+00  0.15253115600E+04  0.15253115600E+04  0.25500000920E-02 0. -1.
       -2   -1    0    0    0  501  0.00000000000E+00  0.00000000000E+00 -0.21396393683E+04  0.21396393683E+04  0.25500000920E-02 0.  1.
    10030    2    1    2    0    0  0.00000000000E+00  0.00000000000E+00 -0.61432780825E+03  0.36649509283E+04  0.36130965460E+04 0.  0.
        3    1    3    3  502    0  0.33621310105E+03  0.16579200004E+03 -0.20997535199E+04  0.21329536073E+04  0.10100000352E+00 0.  1.
       -3    1    3    3    0  502 -0.33621310105E+03 -0.16579200004E+03  0.14854257116E+04  0.15319973210E+04  0.10100000352E+00 0. -1.
</event>
<event>
 5   0  0.9905335E-08  0.3599777E+04  0.7818609E-02  0.8090543E-01
        2   -1    0    0  501    0  0.00000000000E+00  0.00000000000E+00  0.18230258400E+04  0.18230258400E+04  0.25500000920E-02 0.  1.
       -2   -1    0    0    0  501  0.00000000000E+00  0.00000000000E+00 -0.17770448075E+04  0.17770448075E+04  0.25500000920E-02 0. -1.
    10030    2    1    2    0    0  0.00000000000E+00  0.00000000000E+00  0.45981032526E+02  0.36000706474E+04  0.35997769947E+04 0.  0.
        5    1    3    3  502    0  0.96729468174E+02 -0.12222676953E+04  0.13407783940E+04  0.18168664510E+04  0.46999998093E+01 0.  1.
       -5    1    3    3    0  502 -0.96729468174E+02  0.12222676953E+04 -0.12947973615E+04  0.17832041964E+04  0.46999998093E+01 0. -1.
</event>
<event>
 5   0  0.1017794E-07  0.3651541E+04  0.7818609E-02  0.8078786E-01
        2   -1    0    0  501    0  0.00000000000E+00  0.00000000000E+00  0.17647277387E+04  0.17647277387E+04  0.25500000920E-02 0.  1.
       -2   -1    0    0    0  501  0.00000000000E+00  0.00000000000E+00 -0.18889251721E+04  0.18889251721E+04  0.25500000920E-02 0. -1.
    10030    2    1    2    0    0  0.00000000000E+00  0.00000000000E+00 -0.12419743338E+03  0.36536529108E+04  0.36515413992E+04 0.  0.
        1    1    3    3  502    0  0.12209430657E+04 -0.91860781624E+03  0.93792724279E+03  0.17928328987E+04  0.50400001928E-02 0.  1.
       -1    1    3    3    0  502 -0.12209430657E+04  0.91860781624E+03 -0.10621246762E+04  0.18608200121E+04  0.50400001928E-02 0. -1.
</event>
<event>
 5   0  0.3212523E-08  0.3600106E+04  0.7818609E-02  0.8090467E-01
        1   -1    0    0  501    0  0.00000000000E+00  0.00000000000E+00  0.20538689820E+04  0.20538689821E+04  0.50400001928E-02 0. -1.
       -1   -1    0    0    0  501  0.00000000000E+00  0.00000000000E+00 -0.15776037369E+04  0.15776037369E+04  0.50400001928E-02 0.  1.
    10030    2    1    2    0    0  0.00000000000E+00  0.00000000000E+00  0.47626524519E+03  0.36314727189E+04  0.36001063213E+04 0.  0.
        3    1    3    3  502    0 -0.14013701601E+04  0.65004494703E+03 -0.69392800760E+03  0.16934972243E+04  0.10100000352E+00 0.  1.
       -3    1    3    3    0  502  0.14013701601E+04 -0.65004494703E+03  0.11701932528E+04  0.19379754946E+04  0.10100000352E+00 0. -1.
</event>
<event>
 5   0  0.3215494E-08  0.3605628E+04  0.7818609E-02  0.8089204E-01
        1   -1    0    0  501    0  0.00000000000E+00  0.00000000000E+00  0.12842299206E+04  0.12842299206E+04  0.50400001928E-02 0. -1.
       -1   -1    0    0    0  501  0.00000000000E+00  0.00000000000E+00 -0.25308069090E+04  0.25308069090E+04  0.50400001928E-02 0.  1.
    10030    2    1    2    0    0  0.00000000000E+00  0.00000000000E+00 -0.12465769884E+04  0.38150368297E+04  0.36056277989E+04 0.  0.
        4    1    3    3  502    0  0.36506226560E+03  0.45854677964E+03 -0.24271804882E+04  0.24969466038E+04  0.12699999809E+01 0.  1.
       -4    1    3    3    0  502 -0.36506226560E+03 -0.45854677964E+03  0.11806034998E+04  0.13180902259E+04  0.12699999809E+01 0. -1.
</event>
<event>
 5   0  0.3212523E-08  0.3610855E+04  0.7818609E-02  0.8088010E-01
       -1   -1    0    0    0  501  0.00000000000E+00  0.00000000000E+00  0.19892370615E+04  0.19892370615E+04  0.50400001928E-02 0.  1.
        1   -1    0    0  501    0  0.00000000000E+00  0.00000000000E+00 -0.16386022909E+04  0.16386022909E+04  0.50400001928E-02 0. -1.
    10030    2    1    2    0    0  0.00000000000E+00  0.00000000000E+00  0.35063477054E+03  0.36278393524E+04  0.36108549714E+04 0.  0.
        3    1    3    3  502    0  0.17547200461E+04 -0.12892224549E+03 -0.23143875403E+03  0.17746062360E+04  0.10100000352E+00 0.  1.
       -3    1    3    3    0  502 -0.17547200461E+04  0.12892224549E+03  0.58207352457E+03  0.18532331164E+04  0.10100000352E+00 0. -1.
</event>
<event>
 5   0  0.1017794E-07  0.3608019E+04  0.7818609E-02  0.8088657E-01
       -2   -1    0    0    0  501  0.00000000000E+00  0.00000000000E+00  0.12481189423E+04  0.12481189423E+04  0.25500000920E-02 0. -1.
        2   -1    0    0  501    0  0.00000000000E+00  0.00000000000E+00 -0.26074842127E+04  0.26074842127E+04  0.25500000920E-02 0.  1.
    10030    2    1    2    0    0  0.00000000000E+00  0.00000000000E+00 -0.13593652703E+04  0.38556031550E+04  0.36080190896E+04 0.  0.
        1    1    3    3  502    0 -0.96624939346E+03 -0.12251858615E+04  0.28783632634E+03  0.15866846052E+04  0.50400001928E-02 0. -1.
       -1    1    3    3    0  502  0.96624939346E+03  0.12251858615E+04 -0.16472015967E+04  0.22689185498E+04  0.50400001928E-02 0.  1.
</event>
<event>
 5   0  0.9905335E-08  0.3603998E+04  0.7818609E-02  0.8089577E-01
       -2   -1    0    0    0  501  0.00000000000E+00  0.00000000000E+00  0.23279545686E+04  0.23279545686E+04  0.25500000920E-02 0. -1.
        2   -1    0    0  501    0  0.00000000000E+00  0.00000000000E+00 -0.13948724538E+04  0.13948724538E+04  0.25500000920E-02 0.  1.
    10030    2    1    2    0    0  0.00000000000E+00  0.00000000000E+00  0.93308211488E+03  0.37228270224E+04  0.36039976145E+04 0.  0.
        5    1    3    3  502    0  0.90977343659E+03  0.15051979860E+04  0.61346291041E+02  0.17598562841E+04  0.46999998093E+01 0.  1.
       -5    1    3    3    0  502 -0.90977343659E+03 -0.15051979860E+04  0.87173582384E+03  0.19629707384E+04  0.46999998093E+01 0. -1.
</event>
<event>
 5   0  0.1044678E-07  0.3593485E+04  0.7818609E-02  0.8091986E-01
        2   -1    0    0  501    0  0.00000000000E+00  0.00000000000E+00  0.24223846712E+04  0.24223846712E+04  0.25500000920E-02 0.  1.
       -2   -1    0    0    0  501  0.00000000000E+00  0.00000000000E+00 -0.13326879058E+04  0.13326879058E+04  0.25500000920E-02 0. -1.
    10030    2    1    2    0    0  0.00000000000E+00  0.00000000000E+00  0.10896967654E+04  0.37550725770E+04  0.35934845231E+04 0.  0.
        2    1    3    3  502    0  0.65968202918E+03 -0.10824526603E+04 -0.78575142154E+03  0.14914051890E+04  0.25500000920E-02 0. -1.
       -2    1    3    3    0  502 -0.65968202918E+03  0.10824526603E+04  0.18754481869E+04  0.22636673879E+04  0.25500000920E-02 0.  1.
</event>
<event>
 5   0  0.1021087E-07  0.3599849E+04  0.7818609E-02  0.8090526E-01
        2   -1    0    0  501    0  0.00000000000E+00  0.00000000000E+00  0.26472637386E+04  0.26472637386E+04  0.25500000920E-02 0. -1.
       -2   -1    0    0    0  501  0.00000000000E+00  0.00000000000E+00 -0.12238023050E+04  0.12238023050E+04  0.25500000920E-02 0.  1.
    10030    2    1    2    0    0  0.00000000000E+00  0.00000000000E+00  0.14234614336E+04  0.38710660435E+04  0.35998485885E+04 0.  0.
        3    1    3    3  502    0 -0.79737143980E+03 -0.68636424605E+03 -0.85872069290E+03  0.13580494578E+04  0.10100000352E+00 0.  1.
       -3    1    3    3    0  502  0.79737143980E+03  0.68636424605E+03  0.22821821265E+04  0.25130165857E+04  0.10100000352E+00 0. -1.
</event>
<event>
 5   0  0.1044678E-07  0.3620750E+04  0.7818609E-02  0.8085755E-01
        2   -1    0    0  501    0  0.00000000000E+00  0.00000000000E+00  0.26798601652E+04  0.26798601652E+04  0.25500000920E-02 0. -1.
       -2   -1    0    0    0  501  0.00000000000E+00  0.00000000000E+00 -0.12229957400E+04  0.12229957400E+04  0.25500000920E-02 0.  1.
    10030    2    1    2    0    0  0.00000000000E+00  0.00000000000E+00  0.14568644252E+04  0.39028559053E+04  0.36207499588E+04 0.  0.
        2    1    3    3  502    0 -0.18124874202E+03 -0.17914556594E+04  0.52593047107E+03  0.18758377719E+04  0.25500000920E-02 0.  1.
       -2    1    3    3    0  502  0.18124874202E+03  0.17914556594E+04  0.93093395412E+03  0.20270181334E+04  0.25500000920E-02 0. -1.
</event>
<event>
 5   0  0.1021087E-07  0.3598796E+04  0.7818609E-02  0.8090767E-01
        2   -1    0    0  501    0  0.00000000000E+00  0.00000000000E+00  0.17108190782E+04  0.17108190782E+04  0.25500000920E-02 0. -1.
       -2   -1    0    0    0  501  0.00000000000E+00  0.00000000000E+00 -0.18925633386E+04  0.18925633386E+04  0.25500000920E-02 0.  1.
    10030    2    1    2    0    0  0.00000000000E+00  0.00000000000E+00 -0.18174426049E+03  0.36033824168E+04  0.35987961689E+04 0.  0.
        3    1    3    3  502    0  0.25652496524E+03 -0.67750040084E+00 -0.18741606244E+04  0.18916351586E+04  0.10100000352E+00 0.  1.
       -3    1    3    3    0  502 -0.25652496524E+03  0.67750040084E+00  0.16924163640E+04  0.17117472582E+04  0.10100000352E+00 0. -1.
</event>
<event>
 5   0  0.1021087E-07  0.3599210E+04  0.7818609E-02  0.8090673E-01
        2   -1    0    0  501    0  0.00000000000E+00  0.00000000000E+00  0.28635217516E+04  0.28635217516E+04  0.25500000920E-02 0.  1.
       -2   -1    0    0    0  501  0.00000000000E+00  0.00000000000E+00 -0.11309770761E+04  0.11309770761E+04  0.25500000920E-02 0. -1.
    10030    2    1    2    0    0  0.00000000000E+00  0.00000000000E+00  0.17325446756E+04  0.39944988277E+04  0.35992096121E+04 0.  0.
        3    1    3    3  502    0  0.17399791976E+03  0.16218769213E+04  0.22645329802E+02  0.16313408121E+04  0.10100000352E+00 0. -1.
       -3    1    3    3    0  502 -0.17399791976E+03 -0.16218769213E+04  0.17098993458E+04  0.23631580156E+04  0.10100000352E+00 0.  1.
</event>
<event>
 5   0  0.1029908E-07  0.3578004E+04  0.7818609E-02  0.8095549E-01
       -2   -1    0    0    0  501  0.00000000000E+00  0.00000000000E+00  0.13069822313E+04  0.13069822313E+04  0.25500000920E-02 0.  1.
        2   -1    0    0  501    0  0.00000000000E+00  0.00000000000E+00 -0.24487927223E+04  0.24487927223E+04  0.25500000920E-02 0. -1.
    10030    2    1    2    0    0  0.00000000000E+00  0.00000000000E+00 -0.11418104910E+04  0.37557749536E+04  0.35780042349E+04 0.  0.
        4    1    3    3  502    0 -0.11124995784E+03  0.10552336028E+04  0.94101643524E+03  0.14182411833E+04  0.12699999809E+01 0.  1.
       -4    1    3    3    0  502  0.11124995784E+03 -0.10552336028E+04 -0.20828269263E+04  0.23375337703E+04  0.12699999809E+01 0. -1.
</event>
<event>
 5   0  0.3279988E-08  0.3613972E+04  0.7818609E-02  0.8087299E-01
        1   -1    0    0  501    0  0.00000000000E+00  0.00000000000E+00  0.27930830465E+04  0.27930830465E+04  0.50400001928E-02 0. -1.
       -1   -1    0    0    0  501  0.00000000000E+00  0.00000000000E+00 -0.11690302950E+04  0.11690302951E+04  0.50400001928E-02 0.  1.
    10030    2    1    2    0    0  0.00000000000E+00  0.00000000000E+00  0.16240527515E+04  0.39621133416E+04  0.36139721626E+04 0.  0.
        5    1    3    3  502    0  0.11115056350E+04  0.43489262922E+03 -0.67535325016E+03  0.13713863344E+04  0.46999998093E+01 0.  1.
       -5    1    3    3    0  502 -0.11115056350E+04 -0.43489262922E+03  0.22994060016E+04  0.25907270072E+04  0.46999998093E+01 0. -1.
</event>
<event>
 5   0  0.3202875E-08  0.3591407E+04  0.7818609E-02  0.8092463E-01
        1   -1    0    0  501    0  0.00000000000E+00  0.00000000000E+00  0.12099420023E+04  0.12099420023E+04  0.50400001928E-02 0.  1.
       -1   -1    0    0    0  501  0.00000000000E+00  0.00000000000E+00 -0.26650460569E+04  0.26650460569E+04  0.50400001928E-02 0. -1.
    10030    2    1    2    0    0  0.00000000000E+00  0.00000000000E+00 -0.14551040546E+04  0.38749880592E+04  0.35914070570E+04 0.  0.
        2    1    3    3  502    0  0.13695014144E+04 -0.69572854887E+03  0.27592740331E+03  0.15606755812E+04  0.25500000920E-02 0. -1.
       -2    1    3    3    0  502 -0.13695014144E+04  0.69572854887E+03 -0.17310314579E+04  0.23143124780E+04  0.25500000920E-02 0.  1.
</event>
<event>
 5   0  0.3202875E-08  0.3600468E+04  0.7818609E-02  0.8090384E-01
        1   -1    0    0  501    0  0.00000000000E+00  0.00000000000E+00  0.16324592321E+04  0.16324592321E+04  0.50400001928E-02 0.  1.
       -1   -1    0    0    0  501  0.00000000000E+00  0.00000000000E+00 -0.19852522070E+04  0.19852522070E+04  0.50400001928E-02 0. -1.
    10030    2    1    2    0    0  0.00000000000E+00  0.00000000000E+00 -0.35279297495E+03  0.36177114391E+04  0.36004684658E+04 0.  0.
        2    1    3    3  502    0  0.15295361138E+04 -0.79898204817E+03  0.33888523874E+03  0.17586063350E+04  0.25500000920E-02 0.  1.
       -2    1    3    3    0  502 -0.15295361138E+04  0.79898204817E+03 -0.69167821369E+03  0.18591051040E+04  0.25500000920E-02 0. -1.
</event>
<event>
 5   0  0.3212523E-08  0.3600396E+04  0.7818609E-02  0.8090401E-01
       -1   -1    0    0    0  501  0.00000000000E+00  0.00000000000E+00  0.18604523201E+04  0.18604523201E+04  0.50400001928E-02 0.  1.
        1   -1    0    0  501    0  0.00000000000E+00  0.00000000000E+00 -0.17418954696E+04  0.17418954696E+04  0.50400001928E-02 0. -1.
    10030    2    1    2    0    0  0.00000000000E+00  0.00000000000E+00  0.11855685055E+03  0.36023477897E+04  0.36003963492E+04 0.  0.
        3    1    3    3  502    0 -0.87454510166E+02 -0.17689782514E+04 -0.26304694310E+03  0.17905658462E+04  0.10100000352E+00 0. -1.
       -3    1    3    3    0  502  0.87454510166E+02  0.17689782514E+04  0.38160379365E+03  0.18117819435E+04  0.10100000352E+00 0.  1.
</event>
<event>
 5   0  0.1017794E-07  0.3613008E+04  0.7818609E-02  0.8087519E-01
        2   -1    0    0  501    0  0.00000000000E+00  0.00000000000E+00  0.25984680566E+04  0.25984680566E+04  0.25500000920E-02 0. -1.
       -2   -1    0    0    0  501  0.00000000000E+00  0.00000000000E+00 -0.12559153428E+04  0.12559153428E+04  0.25500000920E-02 0.  1.
    10030    2    1    2    0    0  0.00000000000E+00  0.00000000000E+00  0.13425527138E+04  0.38543833994E+04  0.36130075560E+04 0.  0.
        1    1    3    3  502    0  0.68342457514E+03 -0.16684452948E+04  0.55116194618E+03  0.18853536386E+04  0.50400001928E-02 0. -1.
       -1    1    3    3    0  502 -0.68342457514E+03  0.16684452948E+04  0.79139076759E+03  0.19690297608E+04  0.50400001928E-02 0.  1.
</event>
<event>
 5   0  0.3212523E-08  0.3582404E+04  0.7818609E-02  0.8094534E-01
        1   -1    0    0  501    0  0.00000000000E+00  0.00000000000E+00  0.14159745318E+04  0.14159745318E+04  0.50400001928E-02 0.  1.
       -1   -1    0    0    0  501  0.00000000000E+00  0.00000000000E+00 -0.22658630257E+04  0.22658630257E+04  0.50400001928E-02 0. -1.
    10030    2    1    2    0    0  0.00000000000E+00  0.00000000000E+00 -0.84988849393E+03  0.36818375575E+04  0.35824038504E+04 0.  0.
        3    1    3    3  502    0 -0.20557245648E+03  0.81298424456E+03 -0.20516588333E+04  0.22164176942E+04  0.10100000352E+00 0. -1.
       -3    1    3    3    0  502  0.20557245648E+03 -0.81298424456E+03  0.12017703394E+04  0.14654198632E+04  0.10100000352E+00 0.  1.
</event>
<event>
 5   0  0.1021087E-07  0.3604195E+04  0.7818609E-02  0.8089531E-01
       -2   -1    0    0    0  501  0.00000000000E+00  0.00000000000E+00  0.12301527663E+04  0.12301527663E+04  0.25500000920E-02 0.  1.
        2   -1    0    0  501    0  0.00000000000E+00  0.00000000000E+00 -0.26399617588E+04  0.26399617588E+04  0.25500000920E-02 0. -1.
    10030    2    1    2    0    0  0.00000000000E+00  0.00000000000E+00 -0.14098089925E+04  0.38701145251E+04  0.36041954778E+04 0.  0.
        3    1    3    3  502    0 -0.75023557177E+03  0.15579931528E+04 -0.12496405865E+04  0.21334942425E+04  0.10100000352E+00 0. -1.
       -3    1    3    3    0  502  0.75023557177E+03 -0.15579931528E+04 -0.16016840605E+03  0.17366202826E+04  0.10100000352E+00 0.  1.
</event>
<event>
 5   0  0.3202875E-08  0.3598525E+04  0.7818609E-02  0.8090830E-01
       -1   -1    0    0    0  501  0.00000000000E+00  0.00000000000E+00  0.17755201605E+04  0.17755201605E+04  0.50400001928E-02 0.  1.
        1   -1    0    0  501    0  0.00000000000E+00  0.00000000000E+00 -0.18233226408E+04  0.18233226408E+04  0.50400001928E-02 0. -1.
    10030    2    1    2    0    0  0.00000000000E+00  0.00000000000E+00 -0.47802480352E+02  0.35988428013E+04  0.35985253134E+04 0.  0.
        1    1    3    3  502    0  0.16053542823E+04  0.80534880255E+03  0.83797825263E+02  0.17979908623E+04  0.50400001928E-02 0.  1.
       -1    1    3    3    0  502 -0.16053542823E+04 -0.80534880255E+03 -0.13160030561E+03  0.18008519389E+04  0.50400001928E-02 0. -1.
</event>
<event>
 5   0  0.1029908E-07  0.3599199E+04  0.7818609E-02  0.8090675E-01
       -2   -1    0    0    0  501  0.00000000000E+00  0.00000000000E+00  0.15703504003E+04  0.15703504003E+04  0.25500000920E-02 0. -1.
        2   -1    0    0  501    0  0.00000000000E+00  0.00000000000E+00 -0.20623154575E+04  0.20623154575E+04  0.25500000920E-02 0.  1.
    10030    2    1    2    0    0  0.00000000000E+00  0.00000000000E+00 -0.49196505721E+03  0.36326658579E+04  0.35991987466E+04 0.  0.
        4    1    3    3  502    0  0.47463651494E+03  0.11029343946E+03  0.15024976463E+04  0.15795395703E+04  0.12699999809E+01 0. -1.
       -4    1    3    3    0  502 -0.47463651494E+03 -0.11029343946E+03 -0.19944627035E+04  0.20531262876E+04  0.12699999809E+01 0.  1.
</event>
<event>
 5   0  0.1029908E-07  0.3594497E+04  0.7818609E-02  0.8091753E-01
        2   -1    0    0  501    0  0.00000000000E+00  0.00000000000E+00  0.25415199021E+04  0.25415199021E+04  0.25500000920E-02 0. -1.
       -2   -1    0    0    0  501  0.00000000000E+00  0.00000000000E+00 -0.12709332864E+04  0.12709332864E+04  0.25500000920E-02 0.  1.
    10030    2    1    2    0    0  0.00000000000E+00  0.00000000000E+00  0.12705866157E+04  0.38124531885E+04  0.35944970394E+04 0.  0.
        4    1    3    3  502    0  0.12662210433E+04  0.12124269777E+04  0.21529519160E+03  0.17662526827E+04  0.12699999809E+01 0. -1.
       -4    1    3    3    0  502 -0.12662210433E+04 -0.12124269777E+04  0.10552914241E+04  0.20462005057E+04  0.12699999809E+01 0.  1.
</event>
<event>
 5   0  0.3279988E-08  0.3578613E+04  0.7818609E-02  0.8095408E-01
        1   -1    0    0  501    0  0.00000000000E+00  0.00000000000E+00  0.17934228414E+04  0.17934228414E+04  0.50400001928E-02 0.  1.
       -1   -1    0    0    0  501  0.00000000000E+00  0.00000000000E+00 -0.17851993301E+04  0.17851993301E+04  0.50400001928E-02 0. -1.
    10030    2    1    2    0    0  0.00000000000E+00  0.00000000000E+00  0.82235113665E+01  0.35786221715E+04  0.35786127229E+04 0.  0.
        5    1    3    3  502    0  0.13467343807E+04  0.11701614877E+04 -0.13235752219E+03  0.17889974856E+04  0.46999998093E+01 0.  1.
       -5    1    3    3    0  502 -0.13467343807E+04 -0.11701614877E+04  0.14058103356E+03  0.17896246860E+04  0.46999998093E+01 0. -1.
</event>
<event>
 5   0  0.3212523E-08  0.3596839E+04  0.7818609E-02  0.8091216E-01
       -1   -1    0    0    0  501  0.00000000000E+00  0.00000000000E+00  0.15699663167E+04  0.15699663167E+04  0.50400001928E-02 0. -1.
        1   -1    0    0  501    0  0.00000000000E+00  0.00000000000E+00 -0.20601162524E+04  0.20601162524E+04  0.50400001928E-02 0.  1.
    10030    2    1    2    0    0  0.00000000000E+00  0.00000000000E+00 -0.49014993565E+03  0.36300825691E+04  0.35968392373E+04 0.  0.
        3    1    3    3  502    0  0.89680606521E+03  0.77072704436E+03 -0.16126009235E+04  0.19996907371E+04  0.10100000352E+00 0.  1.
       -3    1    3    3    0  502 -0.89680606521E+03 -0.77072704436E+03  0.11224509878E+04  0.16303918320E+04  0.10100000352E+00 0. -1.
</event>
<event>
 5   0  0.3202875E-08  0.3601370E+04  0.7818609E-02  0.8090178E-01
        1   -1    0    0  501    0  0.00000000000E+00  0.00000000000E+00  0.19493540789E+04  0.19493540789E+04  0.50400001928E-02 0.  1.
       -1   -1    0    0    0  501  0.00000000000E+00  0.00000000000E+00 -0.16633542024E+04  0.16633542024E+04  0.50400001928E-02 0. -1.
    10030    2    1    2    0    0  0.00000000000E+00  0.00000000000E+00  0.28599987650E+03  0.36127082813E+04  0.36013699056E+04 0.  0.
        2    1    3    3  502    0  0.74692191459E+03 -0.66788670754E+03  0.16438725716E+04  0.19251706502E+04  0.25500000920E-02 0.  1.
       -2    1    3    3    0  502 -0.74692191459E+03  0.66788670754E+03 -0.13578726951E+04  0.16875376312E+04  0.25500000920E-02 0. -1.
</event>
<event>
 5   0  0.1029908E-07  0.3598325E+04  0.7818609E-02  0.8090876E-01
        2   -1    0    0  501    0  0.00000000000E+00  0.00000000000E+00  0.23068705075E+04  0.23068705075E+04  0.25500000920E-02 0. -1.
       -2   -1    0    0    0  501  0.00000000000E+00  0.00000000000E+00 -0.14031932005E+04  0.14031932005E+04  0.25500000920E-02 0.  1.
    10030    2    1    2    0    0  0.00000000000E+00  0.00000000000E+00  0.90367730694E+03  0.37100637080E+04  0.35983246161E+04 0.  0.
        4    1    3    3  502    0  0.37264339646E+03  0.12162003092E+04 -0.86006330664E+03  0.15354858506E+04  0.12699999809E+01 0.  1.
       -4    1    3    3    0  502 -0.37264339646E+03 -0.12162003092E+04  0.17637406136E+04  0.21745778574E+04  0.12699999809E+01 0. -1.
</event>
<event>
 5   0  0.3212523E-08  0.3533645E+04  0.7818609E-02  0.8105863E-01
        1   -1    0    0  501    0  0.00000000000E+00  0.00000000000E+00  0.14868207358E+04  0.14868207358E+04  0.50400001928E-02 0. -1.
       -1   -1    0    0    0  501  0.00000000000E+00  0.00000000000E+00 -0.20995546023E+04  0.20995546023E+04  0.50400001928E-02 0.  1.
    10030    2    1    2    0    0  0.00000000000E+00  0.00000000000E+00 -0.61273386645E+03  0.35863753381E+04  0.35336447578E+04 0.  0.
        3    1    3    3  502    0  0.16429338139E+04 -0.74273953705E+02  0.34895644328E+03  0.16812253705E+04  0.10100000352E+00 0.  1.
       -3    1    3    3    0  502 -0.16429338139E+04  0.74273953705E+02 -0.96169030973E+03  0.19051499676E+04  0.10100000352E+00 0. -1.
</event>
<event>
 5   0  0.1044678E-07  0.3600963E+04  0.7818609E-02  0.8090271E-01
       -2   -1    0    0    0  501  0.00000000000E+00  0.00000000000E+00  0.21574128987E+04  0.21574128987E+04  0.25500000920E-02 0. -1.
        2   -1    0    0  501    0  0.00000000000E+00  0.00000000000E+00 -0.15026024754E+04  0.15026024754E+04  0.25500000920E-02 0.  1.
    10030    2    1    2    0    0  0.00000000000E+00  0.00000000000E+00  0.65481042327E+03  0.36600153741E+04  0.36009631834E+04 0.  0.
        2    1    3    3  502    0  0.10905338039E+03 -0.17968634573E+04  0.36146652940E+03  0.18361015702E+04  0.25500000920E-02 0.  1.
       -2    1    3    3    0  502 -0.10905338039E+03  0.17968634573E+04  0.29334389387E+03  0.18239138039E+04  0.25500000920E-02 0. -1.
</event>
<event>
 5   0  0.1029908E-07  0.3604231E+04  0.7818609E-02  0.8089523E-01
       -2   -1    0    0    0  501  0.00000000000E+00  0.00000000000E+00  0.22646227743E+04  0.22646227743E+04  0.25500000920E-02 0.  1.
        2   -1    0    0  501    0  0.00000000000E+00  0.00000000000E+00 -0.14340671431E+04  0.14340671431E+04  0.25500000920E-02 0. -1.
    10030    2    1    2    0    0  0.00000000000E+00  0.00000000000E+00  0.83055563119E+03  0.36986899173E+04  0.36042314643E+04 0.  0.
        4    1    3    3  502    0 -0.12155874289E+04 -0.66857048313E+03 -0.76507522683E+03  0.15842919566E+04  0.12699999809E+01 0. -1.
       -4    1    3    3    0  502  0.12155874289E+04  0.66857048313E+03  0.15956308580E+04  0.21143979607E+04  0.12699999809E+01 0.  1.
</event>
<event>
 5   0  0.3279988E-08  0.3606703E+04  0.7818609E-02  0.8088958E-01
       -1   -1    0    0    0  501  0.00000000000E+00  0.00000000000E+00  0.26165654483E+04  0.26165654483E+04  0.50400001928E-02 0.  1.
        1   -1    0    0  501    0  0.00000000000E+00  0.00000000000E+00 -0.12428802454E+04  0.12428802454E+04  0.50400001928E-02 0. -1.
    10030    2    1    2    0    0  0.00000000000E+00  0.00000000000E+00  0.13736852029E+04  0.38594456937E+04  0.36067034847E+04 0.  0.
        5    1    3    3  502    0 -0.13076160746E+04  0.12351316162E+04  0.82490106402E+03  0.19788617342E+04  0.46999998093E+01 0. -1.
       -5    1    3    3    0  502  0.13076160746E+04 -0.12351316162E+04  0.54878413886E+03  0.18805839595E+04  0.46999998093E+01 0.  1.
</event>
<event>
 5   0  0.3202875E-08  0.3585280E+04  0.7818609E-02  0.8093872E-01
        1   -1    0    0  501    0  0.00000000000E+00  0.00000000000E+00  0.17434536129E+04  0.17434536129E+04  0.50400001928E-02 0.  1.
       -1   -1    0    0    0  501  0.00000000000E+00  0.00000000000E+00 -0.18432143309E+04  0.18432143309E+04  0.50400001928E-02 0. -1.
    10030    2    1    2    0    0  0.00000000000E+00  0.00000000000E+00 -0.99760718028E+02  0.35866679438E+04  0.35852802873E+04 0.  0.
        2    1    3    3  502    0 -0.61225055260E+03 -0.16500265827E+04 -0.39077642282E+03  0.18028157630E+04  0.25500000920E-02 0. -1.
       -2    1    3    3    0  502  0.61225055260E+03  0.16500265827E+04  0.29101570479E+03  0.17838521808E+04  0.25500000920E-02 0.  1.
</event>
<event>
 5   0  0.1044678E-07  0.3576843E+04  0.7818609E-02  0.8095817E-01
        2   -1    0    0  501    0  0.00000000000E+00  0.00000000000E+00  0.27630322116E+04  0.27630322116E+04  0.25500000920E-02 0. -1.
       -2   -1    0    0    0  501  0.00000000000E+00  0.00000000000E+00 -0.11575874801E+04  0.11575874801E+04  0.25500000920E-02 0.  1.
    10030    2    1    2    0    0  0.00000000000E+00  0.00000000000E+00  0.16054447315E+04  0.39206196917E+04  0.35768430188E+04 0.  0.
        2    1    3    3  502    0  0.48556245284E+03 -0.43564477590E+03 -0.10225239843E+04  0.12128942925E+04  0.25500000920E-02 0.  1.
       -2    1    3    3    0  502 -0.48556245284E+03  0.43564477590E+03  0.26279687158E+04  0.27077253992E+04  0.25500000920E-02 0. -1.
</event>
<event>
 5   0  0.1021087E-07  0.3525068E+04  0.7818609E-02  0.8107875E-01
        2   -1    0    0  501    0  0.00000000000E+00  0.00000000000E+00  0.17508230514E+04  0.17508230514E+04  0.25500000920E-02 0.  1.
       -2   -1    0    0    0  501  0.00000000000E+00  0.00000000000E+00 -0.17743237840E+04  0.17743237840E+04  0.25500000920E-02 0. -1.
    10030    2    1    2    0    0  0.00000000000E+00  0.00000000000E+00 -0.23500732613E+02  0.35251468353E+04  0.35250684995E+04 0.  0.
        3    1    3    3  502    0 -0.36513157574E+03  0.76475215805E+03 -0.15572167012E+04  0.17728764186E+04  0.10100000352E+00 0. -1.
       -3    1    3    3    0  502  0.36513157574E+03 -0.76475215805E+03  0.15337159686E+04  0.17522704167E+04  0.10100000352E+00 0.  1.
</event>
<event>
 5   0  0.9905335E-08  0.3609725E+04  0.7818609E-02  0.8088268E-01
       -2   -1    0    0    0  501  0.00000000000E+00  0.00000000000E+00  0.21835119954E+04  0.21835119954E+04  0.25500000920E-02 0. -1.
        2   -1    0    0  501    0  0.00000000000E+00  0.00000000000E+00 -0.14918754891E+04  0.14918754891E+04  0.25500000920E-02 0.  1.
    10030    2    1    2    0    0  0.00000000000E+00  0.00000000000E+00  0.69163650632E+03  0.36753874844E+04  0.36097246576E+04 0.  0.
        5    1    3    3  502    0  0.12952503726E+04  0.86903374937E+03 -0.57878215111E+03  0.16637019125E+04  0.46999998093E+01 0.  1.
       -5    1    3    3    0  502 -0.12952503726E+04 -0.86903374937E+03  0.12704186574E+04  0.20116855719E+04  0.46999998093E+01 0. -1.
</event>
<event>
 5   0  0.3202875E-08  0.3613100E+04  0.7818609E-02  0.8087498E-01
       -1   -1    0    0    0  501  0.00000000000E+00  0.00000000000E+00  0.17949325476E+04  0.17949325476E+04  0.50400001928E-02 0. -1.
        1   -1    0    0  501    0  0.00000000000E+00  0.00000000000E+00 -0.18182429086E+04  0.18182429086E+04  0.50400001928E-02 0.  1.
    10030    2    1    2    0    0  0.00000000000E+00  0.00000000000E+00 -0.23310360993E+02  0.36131754562E+04  0.36131002621E+04 0.  0.
        2    1    3    3  502    0  0.59870681456E+03 -0.10253608648E+04 -0.13732299251E+04  0.18153719123E+04  0.25500000920E-02 0.  1.
       -2    1    3    3    0  502 -0.59870681456E+03  0.10253608648E+04  0.13499195641E+04  0.17978035439E+04  0.25500000920E-02 0. -1.
</event>
<event>
 5   0  0.1044678E-07  0.3600589E+04  0.7818609E-02  0.8090357E-01
       -2   -1    0    0    0  501  0.00000000000E+00  0.00000000000E+00  0.13967069632E+04  0.13967069632E+04  0.25500000920E-02 0. -1.
        2   -1    0    0  501    0  0.00000000000E+00  0.00000000000E+00 -0.23205017444E+04  0.23205017444E+04  0.25500000920E-02 0.  1.
    10030    2    1    2    0    0  0.00000000000E+00  0.00000000000E+00 -0.92379478123E+03  0.37172087076E+04  0.36005893654E+04 0.  0.
        2    1    3    3  502    0  0.67769623948E+03 -0.11640789249E+04 -0.16950336075E+04  0.21650614003E+04  0.25500000920E-02 0.  1.
       -2    1    3    3    0  502 -0.67769623948E+03  0.11640789249E+04  0.77123882624E+03  0.15521473073E+04  0.25500000920E-02 0. -1.
</event>
<event>
 5   0  0.3202875E-08  0.3596563E+04  0.7818609E-02  0.8091280E-01
       -1   -1    0    0    0  501  0.00000000000E+00  0.00000000000E+00  0.27239449971E+04  0.27239449971E+04  0.50400001928E-02 0. -1.
        1   -1    0    0  501    0  0.00000000000E+00  0.00000000000E+00 -0.11871809143E+04  0.11871809143E+04  0.50400001928E-02 0.  1.
    10030    2    1    2    0    0  0.00000000000E+00  0.00000000000E+00  0.15367640828E+04  0.39111259114E+04  0.35965625323E+04 0.  0.
        2    1    3    3  502    0  0.11772040039E+04 -0.10769727142E+04  0.16704750706E+04  0.23100143843E+04  0.25500000920E-02 0. -1.
       -2    1    3    3    0  502 -0.11772040039E+04  0.10769727142E+04 -0.13371098785E+03  0.16011115271E+04  0.25500000920E-02 0.  1.
</event>
<event>
 5   0  0.9905335E-08  0.3602658E+04  0.7818609E-02  0.8089883E-01
        2   -1    0    0  501    0  0.00000000000E+00  0.00000000000E+00  0.22040381542E+04  0.22040381542E+04  0.25500000920E-02 0. -1.
       -2   -1    0    0    0  501  0.00000000000E+00  0.00000000000E+00 -0.14722004675E+04  0.14722004675E+04  0.25500000920E-02 0.  1.
    10030    2    1    2    0    0  0.00000000000E+00  0.00000000000E+00  0.73183768674E+03  0.36762386217E+04  0.36026579082E+04 0.  0.
        5    1    3    3  502    0  0.13540960606E+04  0.76916029719E+03  0.12897155265E+04  0.20220217440E+04  0.46999998093E+01 0. -1.
       -5    1    3    3    0  502 -0.13540960606E+04 -0.76916029719E+03 -0.55787783973E+03  0.16542168776E+04  0.46999998093E+01 0.  1.
</event>
<event>
 5   0  0.3202875E-08  0.3610466E+04  0.7818609E-02  0.8088099E-01
        1   -1    0    0  501    0  0.00000000000E+00  0.00000000000E+00  0.20128098228E+04  0.20128098228E+04  0.50400001928E-02 0. -1.
       -1   -1    0    0    0  501  0.00000000000E+00  0.00000000000E+00 -0.16190632528E+04  0.16190632528E+04  0.50400001928E-02 0.  1.
    10030    2    1    2    0    0  0.00000000000E+00  0.00000000000E+00  0.39374656997E+03  0.36318730756E+04  0.36104661300E+04 0.  0.
        1    1    3    3  502    0 -0.32819191168E+03 -0.12698988561E+04  0.14445958424E+04  0.19512073656E+04  0.50400001928E-02 0. -1.
       -1    1    3    3    0  502  0.32819191168E+03  0.12698988561E+04 -0.10508492724E+04  0.16806657100E+04  0.50400001928E-02 0.  1.
</event>
<event>
 5   0  0.3215494E-08  0.3598735E+04  0.7818609E-02  0.8090782E-01
       -1   -1    0    0    0  501  0.00000000000E+00  0.00000000000E+00  0.15640565855E+04  0.15640565855E+04  0.50400001928E-02 0.  1.
        1   -1    0    0  501    0  0.00000000000E+00  0.00000000000E+00 -0.20700806630E+04  0.20700806630E+04  0.50400001928E-02 0. -1.
    10030    2    1    2    0    0  0.00000000000E+00  0.00000000000E+00 -0.50602407754E+03  0.36341372485E+04  0.35987349408E+04 0.  0.
        4    1    3    3  502    0 -0.15827437309E+04 -0.48285693618E+03 -0.96671291410E+03  0.19164456710E+04  0.12699999809E+01 0.  1.
       -4    1    3    3    0  502  0.15827437309E+04  0.48285693618E+03  0.46068883656E+03  0.17176915775E+04  0.12699999809E+01 0. -1.
</event>
<event>
 5   0  0.3202875E-08  0.3598159E+04  0.7818609E-02  0.8090914E-01
       -1   -1    0    0    0  501  0.00000000000E+00  0.00000000000E+00  0.12289806741E+04  0.12289806741E+04  0.50400001928E-02 0.  1.
        1   -1    0    0  501    0  0.00000000000E+00  0.00000000000E+00 -0.26336352041E+04  0.26336352041E+04  0.50400001928E-02 0. -1.
    10030    2    1    2    0    0  0.00000000000E+00  0.00000000000E+00 -0.14046545300E+04  0.38626158782E+04  0.35981588450E+04 0.  0.
        1    1    3    3  502    0  0.45848112929E+03 -0.10841042679E+04  0.75826108427E+03  0.14001595914E+04  0.50400001928E-02 0.  1.
       -1    1    3    3    0  502 -0.45848112929E+03  0.10841042679E+04 -0.21629156143E+04  0.24624562867E+04  0.50400001928E-02 0. -1.
</event>
<event>
 5   0  0.9905335E-08  0.3598363E+04  0.7818609E-02  0.8090867E-01
       -2   -1    0    0    0  501  0.00000000000E+00  0.00000000000E+00  0.12768267124E+04  0.12768267124E+04  0.25500000920E-02 0.  1.
        2   -1    0    0  501    0  0.00000000000E+00  0.00000000000E+00 -0.25352330941E+04  0.25352330942E+04  0.25500000920E-02 0. -1.
    10030    2    1    2    0    0  0.00000000000E+00  0.00000000000E+00 -0.12584063818E+04  0.38120598065E+04  0.35983625924E+04 0.  0.
        5    1    3    3  502    0 -0.11473211718E+04  0.13282028416E+04 -0.21002490583E+03  0.17676541548E+04  0.46999998093E+01 0.  1.
       -5    1    3    3    0  502  0.11473211718E+04 -0.13282028416E+04 -0.10483814760E+04  0.20444056517E+04  0.46999998093E+01 0. -1.
</event>
<event>
 5   0  0.3279988E-08  0.3572994E+04  0.7818609E-02  0.8096706E-01
       -1   -1    0    0    0  501  0.00000000000E+00  0.00000000000E+00  0.11025544341E+04  0.11025544341E+04  0.50400001928E-02 0.  1.
        1   -1    0    0  501    0  0.00000000000E+00  0.00000000000E+00 -0.28947063720E+04  0.28947063720E+04  0.50400001928E-02 0. -1.
    10030    2    1    2    0    0  0.00000000000E+00  0.00000000000E+00 -0.17921519378E+04  0.39972608061E+04  0.35729938964E+04 0.  0.
        5    1    3    3  502    0  0.13986790423E+04  0.64573007294E+03  0.11592488296E+03  0.15449048706E+04  0.46999998093E+01 0.  1.
       -5    1    3    3    0  502 -0.13986790423E+04 -0.64573007294E+03 -0.19080768208E+04  0.24523559355E+04  0.46999998093E+01 0. -1.
</event>
<event>
 5   0  0.3212523E-08  0.3613595E+04  0.7818609E-02  0.8087385E-01
       -1   -1    0    0    0  501  0.00000000000E+00  0.00000000000E+00  0.17103352404E+04  0.17103352404E+04  0.50400001928E-02 0.  1.
        1   -1    0    0  501    0  0.00000000000E+00  0.00000000000E+00 -0.19086999332E+04  0.19086999332E+04  0.50400001928E-02 0. -1.
    10030    2    1    2    0    0  0.00000000000E+00  0.00000000000E+00 -0.19836469279E+03  0.36190351736E+04  0.36135947527E+04 0.  0.
        3    1    3    3  502    0 -0.97716169720E+02  0.98412887758E+03 -0.16135629313E+04  0.18925230358E+04  0.10100000352E+00 0. -1.
       -3    1    3    3    0  502  0.97716169720E+02 -0.98412887758E+03  0.14151982385E+04  0.17265121378E+04  0.10100000352E+00 0.  1.
</event>
<event>
 5   0  0.1017794E-07  0.3641481E+04  0.7818609E-02  0.8081056E-01
       -2   -1    0    0    0  501  0.00000000000E+00  0.00000000000E+00  0.11201329364E+04  0.11201329364E+04  0.25500000920E-02 0.  1.
        2   -1    0    0  501    0  0.00000000000E+00  0.00000000000E+00 -0.29595556776E+04  0.29595556776E+04  0.25500000920E-02 0. -1.
    10030    2    1    2    0    0  0.00000000000E+00  0.00000000000E+00 -0.18394227412E+04  0.40796886141E+04  0.36414809030E+04 0.  0.
        1    1    3    3  502    0 -0.78442216528E+03 -0.11793041289E+04 -0.22015165619E+04  0.26177760664E+04  0.50400001928E-02 0. -1.
       -1    1    3    3    0  502  0.78442216528E+03  0.11793041289E+04  0.36209382068E+03  0.14619125476E+04  0.50400001928E-02 0.  1.
</event>
<event>
 5   0  0.3212523E-08  0.3593065E+04  0.7818609E-02  0.8092082E-01
       -1   -1    0    0    0  501  0.00000000000E+00  0.00000000000E+00  0.13100557346E+04  0.13100557346E+04  0.50400001928E-02 0. -1.
        1   -1    0    0  501    0  0.00000000000E+00  0.00000000000E+00 -0.24636581425E+04  0.24636581425E+04  0.50400001928E-02 0.  1.
    10030    2    1    2    0    0  0.00000000000E+00  0.00000000000E+00 -0.11536024079E+04  0.37737138771E+04  0.35930652528E+04 0.  0.
        3    1    3    3  502    0  0.12680189296E+04  0.28844401141E+03  0.72505837319E+03  0.14888860293E+04  0.10100000352E+00 0. -1.
       -3    1    3    3    0  502 -0.12680189296E+04 -0.28844401141E+03 -0.18786607811E+04  0.22848278478E+04  0.10100000352E+00 0.  1.
</event>
<event>
 5   0  0.1021087E-07  0.3598429E+04  0.7818609E-02  0.8090852E-01
        2   -1    0    0  501    0  0.00000000000E+00  0.00000000000E+00  0.22245649926E+04  0.22245649926E+04  0.25500000920E-02 0.  1.
       -2   -1    0    0    0  501  0.00000000000E+00  0.00000000000E+00 -0.14551934477E+04  0.14551934478E+04  0.25500000920E-02 0. -1.
    10030    2    1    2    0    0  0.00000000000E+00  0.00000000000E+00  0.76937154486E+03  0.36797584404E+04  0.35984287690E+04 0.  0.
        3    1    3    3  502    0  0.34749217996E+03  0.80410625769E+03 -0.12224047654E+04  0.15038653894E+04  0.10100000352E+00 0. -1.
       -3    1    3    3    0  502 -0.34749217996E+03 -0.80410625769E+03  0.19917763103E+04  0.21758930509E+04  0.10100000352E+00 0.  1.
</event>
<event>
 5   0  0.3202875E-08  0.3594703E+04  0.7818609E-02  0.8091706E-01
       -1   -1    0    0    0  501  0.00000000000E+00  0.00000000000E+00  0.14165183143E+04  0.14165183143E+04  0.50400001928E-02 0. -1.
        1   -1    0    0  501    0  0.00000000000E+00  0.00000000000E+00 -0.22805727020E+04  0.22805727020E+04  0.50400001928E-02 0.  1.
    10030    2    1    2    0    0  0.00000000000E+00  0.00000000000E+00 -0.86405438767E+03  0.36970910163E+04  0.35947033255E+04 0.  0.
        1    1    3    3  502    0 -0.10925466584E+04  0.18438955531E+03  0.10234906636E+04  0.15083735769E+04  0.50400001928E-02 0. -1.
       -1    1    3    3    0  502  0.10925466584E+04 -0.18438955531E+03 -0.18875450513E+04  0.21887174394E+04  0.50400001928E-02 0.  1.
</event>
<event>
 5   0  0.3202875E-08  0.3600012E+04  0.7818609E-02  0.8090489E-01
        1   -1    0    0  501    0  0.00000000000E+00  0.00000000000E+00  0.21901200903E+04  0.21901200903E+04  0.50400001928E-02 0. -1.
       -1   -1    0    0    0  501  0.00000000000E+00  0.00000000000E+00 -0.14793811559E+04  0.14793811559E+04  0.50400001928E-02 0.  1.
    10030    2    1    2    0    0  0.00000000000E+00  0.00000000000E+00  0.71073893438E+03  0.36695012462E+04  0.36000124393E+04 0.  0.
        1    1    3    3  502    0 -0.35175261517E+03 -0.73106668340E+03  0.19931933336E+04  0.21519777097E+04  0.50400001928E-02 0. -1.
       -1    1    3    3    0  502  0.35175261517E+03  0.73106668340E+03 -0.12824543992E+04  0.15175235365E+04  0.50400001928E-02 0.  1.
</event>
<event>
 5   0  0.1017794E-07  0.3605882E+04  0.7818609E-02  0.8089146E-01
        2   -1    0    0  501    0  0.00000000000E+00  0.00000000000E+00  0.23889001840E+04  0.23889001840E+04  0.25500000920E-02 0.  1.
       -2   -1    0    0    0  501  0.00000000000E+00  0.00000000000E+00 -0.13607083799E+04  0.13607083799E+04  0.25500000920E-02 0. -1.
    10030    2    1    2    0    0  0.00000000000E+00  0.00000000000E+00  0.10281918041E+04  0.37496085639E+04  0.36058821384E+04 0.  0.
        1    1    3    3  502    0 -0.36566212885E+03  0.62074732913E+03 -0.12045239097E+04  0.14035362083E+04  0.50400001928E-02 0. -1.
       -1    1    3    3    0  502  0.36566212885E+03 -0.62074732913E+03  0.22327157137E+04  0.23460723556E+04  0.50400001928E-02 0.  1.
</event>
<event>
 5   0  0.3212523E-08  0.3645197E+04  0.7818609E-02  0.8080217E-01
       -1   -1    0    0    0  501  0.00000000000E+00  0.00000000000E+00  0.27712063603E+04  0.27712063603E+04  0.50400001928E-02 0. -1.
        1   -1    0    0  501    0  0.00000000000E+00  0.00000000000E+00 -0.11987073448E+04  0.11987073448E+04  0.50400001928E-02 0.  1.
    10030    2    1    2    0    0  0.00000000000E+00  0.00000000000E+00  0.15724990156E+04  0.39699137051E+04  0.36451970690E+04 0.  0.
        3    1    3    3  502    0 -0.10308200711E+04 -0.97962631353E+03 -0.45530613410E+03  0.14931715973E+04  0.10100000352E+00 0.  1.
       -3    1    3    3    0  502  0.10308200711E+04  0.97962631353E+03  0.20278051497E+04  0.24767421078E+04  0.10100000352E+00 0. -1.
</event>
<event>
 5   0  0.3212523E-08  0.3594147E+04  0.7818609E-02  0.8091834E-01
       -1   -1    0    0    0  501  0.00000000000E+00  0.00000000000E+00  0.25630904667E+04  0.25630904668E+04  0.50400001928E-02 0. -1.
        1   -1    0    0  501    0  0.00000000000E+00  0.00000000000E+00 -0.12599921222E+04  0.12599921222E+04  0.50400001928E-02 0.  1.
    10030    2    1    2    0    0  0.00000000000E+00  0.00000000000E+00  0.13030983445E+04  0.38230825890E+04  0.35941473518E+04 0.  0.
        3    1    3    3  502    0 -0.71642905593E+02 -0.13471922949E+04 -0.61125815334E+03  0.14811132048E+04  0.10100000352E+00 0.  1.
       -3    1    3    3    0  502  0.71642905593E+02  0.13471922949E+04  0.19143564979E+04  0.23419693842E+04  0.10100000352E+00 0. -1.
</event>
<event>
 5   0  0.1021087E-07  0.3623584E+04  0.7818609E-02  0.8085111E-01
        2   -1    0    0  501    0  0.00000000000E+00  0.00000000000E+00  0.20310077026E+04  0.20310077026E+04  0.25500000920E-02 0.  1.
       -2   -1    0    0    0  501  0.00000000000E+00  0.00000000000E+00 -0.16162372996E+04  0.16162372996E+04  0.25500000920E-02 0. -1.
    10030    2    1    2    0    0  0.00000000000E+00  0.00000000000E+00  0.41477040301E+03  0.36472450021E+04  0.36235840846E+04 0.  0.
        3    1    3    3  502    0 -0.62489840060E+03 -0.17005470588E+04  0.19205142302E+03  0.18218787198E+04  0.10100000352E+00 0. -1.
       -3    1    3    3    0  502  0.62489840060E+03  0.17005470588E+04  0.22271897999E+03  0.18253662823E+04  0.10100000352E+00 0.  1.
</event>
<event>
 5   0  0.9905335E-08  0.3600569E+04  0.7818609E-02  0.8090361E-01
       -2   -1    0    0    0  501  0.00000000000E+00  0.00000000000E+00  0.14330910970E+04  0.14330910970E+04  0.25500000920E-02 0.  1.
        2   -1    0    0  501    0  0.00000000000E+00  0.00000000000E+00 -0.22615617258E+04  0.22615617258E+04  0.25500000920E-02 0. -1.
    10030    2    1    2    0    0  0.00000000000E+00  0.00000000000E+00 -0.82847062874E+03  0.36946528228E+04  0.36005688298E+04 0.  0.
        5    1    3    3  502    0  0.10963559360E+04 -0.12985320039E+04  0.19527242813E+03  0.17106534175E+04  0.46999998093E+01 0.  1.
       -5    1    3    3    0  502 -0.10963559360E+04  0.12985320039E+04 -0.10237430569E+04  0.19839994053E+04  0.46999998093E+01 0. -1.
</event>
<event>
 5   0  0.1044678E-07  0.3593667E+04  0.7818609E-02  0.8091944E-01
        2   -1    0    0  501    0  0.00000000000E+00  0.00000000000E+00  0.21023093624E+04  0.21023093624E+04  0.25500000920E-02 0.  1.
       -2   -1    0    0    0  501  0.00000000000E+00  0.00000000000E+00 -0.15357450494E+04  0.15357450494E+04  0.25500000920E-02 0. -1.
    10030    2    1    2    0    0  0.00000000000E+00  0.00000000000E+00  0.56656431298E+03  0.36380544118E+04  0.35936673167E+04 0.  0.
        2    1    3    3  502    0 -0.41549129773E+03  0.14802136058E+04  0.12247939883E+04  0.19656514572E+04  0.25500000920E-02 0.  1.
       -2    1    3    3    0  502  0.41549129773E+03 -0.14802136058E+04 -0.65822967535E+03  0.16724029547E+04  0.25500000920E-02 0. -1.
</event>
<event>
 5   0  0.1044678E-07  0.3595691E+04  0.7818609E-02  0.8091480E-01
       -2   -1    0    0    0  501  0.00000000000E+00  0.00000000000E+00  0.17159340502E+04  0.17159340502E+04  0.25500000920E-02 0.  1.
        2   -1    0    0  501    0  0.00000000000E+00  0.00000000000E+00 -0.18836665755E+04  0.18836665755E+04  0.25500000920E-02 0. -1.
    10030    2    1    2    0    0  0.00000000000E+00  0.00000000000E+00 -0.16773252537E+03  0.35996006257E+04  0.35956905407E+04 0.  0.
        2    1    3    3  502    0  0.14508615520E+04 -0.42629799216E+03 -0.10573013635E+04  0.18451599915E+04  0.25500000920E-02 0. -1.
       -2    1    3    3    0  502 -0.14508615520E+04  0.42629799216E+03  0.88956883809E+03  0.17544406342E+04  0.25500000920E-02 0.  1.
</event>
<event>
 5   0  0.1021087E-07  0.3594605E+04  0.7818609E-02  0.8091729E-01
        2   -1    0    0  501    0  0.00000000000E+00  0.00000000000E+00  0.28656636493E+04  0.28656636493E+04  0.25500000920E-02 0. -1.
       -2   -1    0    0    0  501  0.00000000000E+00  0.00000000000E+00 -0.11272418904E+04  0.11272418904E+04  0.25500000920E-02 0.  1.
    10030    2    1    2    0    0  0.00000000000E+00  0.00000000000E+00  0.17384217588E+04  0.39929055397E+04  0.35946049070E+04 0.  0.
        3    1    3    3  502    0 -0.65612242038E+03 -0.16618981401E+04  0.65297720376E+03  0.19023094642E+04  0.10100000352E+00 0. -1.
       -3    1    3    3    0  502  0.65612242038E+03  0.16618981401E+04  0.10854445551E+04  0.20905960755E+04  0.10100000352E+00 0.  1.
</event>
<event>
 5   0  0.3202875E-08  0.3592654E+04  0.7818609E-02  0.8092177E-01
        1   -1    0    0  501    0  0.00000000000E+00  0.00000000000E+00  0.20070221150E+04  0.20070221150E+04  0.50400001928E-02 0. -1.
       -1   -1    0    0    0  501  0.00000000000E+00  0.00000000000E+00 -0.16077500392E+04  0.16077500392E+04  0.50400001928E-02 0.  1.
    10030    2    1    2    0    0  0.00000000000E+00  0.00000000000E+00  0.39927207585E+03  0.36147721542E+04  0.35926535508E+04 0.  0.
        2    1    3    3  502    0  0.17463658405E+04  0.30974172292E+03  0.48609273360E+03  0.18390268430E+04  0.25500000920E-02 0.  1.
       -2    1    3    3    0  502 -0.17463658405E+04 -0.30974172292E+03 -0.86820657741E+02  0.17757453112E+04  0.25500000920E-02 0. -1.
</event>
<event>
 5   0  0.1017794E-07  0.3599454E+04  0.7818609E-02  0.8090617E-01
        2   -1    0    0  501    0  0.00000000000E+00  0.00000000000E+00  0.26537820553E+04  0.26537820553E+04  0.25500000920E-02 0. -1.
       -2   -1    0    0    0  501  0.00000000000E+00  0.00000000000E+00 -0.12205290698E+04  0.12205290698E+04  0.25500000920E-02 0.  1.
    10030    2    1    2    0    0  0.00000000000E+00  0.00000000000E+00  0.14332529855E+04  0.38743111251E+04  0.35994544828E+04 0.  0.
        1    1    3    3  502    0 -0.10429009833E+04 -0.13709943888E+04  0.12777295547E+04  0.21447286285E+04  0.50400001928E-02 0. -1.
       -1    1    3    3    0  502  0.10429009833E+04  0.13709943888E+04  0.15552343088E+03  0.17295824966E+04  0.50400001928E-02 0.  1.
</event>
<event>
 5   0  0.3212523E-08  0.3599222E+04  0.7818609E-02  0.8090670E-01
       -1   -1    0    0    0  501  0.00000000000E+00  0.00000000000E+00  0.23166203431E+04  0.23166203431E+04  0.50400001928E-02 0. -1.
        1   -1    0    0  501    0  0.00000000000E+00  0.00000000000E+00 -0.13979847477E+04  0.13979847477E+04  0.50400001928E-02 0.  1.
    10030    2    1    2    0    0  0.00000000000E+00  0.00000000000E+00  0.91863559541E+03  0.37146050909E+04  0.35992220860E+04 0.  0.
        3    1    3    3  502    0  0.50590491714E+03 -0.17039974250E+04  0.74949472004E+03  0.19290643730E+04  0.10100000352E+00 0.  1.
       -3    1    3    3    0  502 -0.50590491714E+03  0.17039974250E+04  0.16914087537E+03  0.17855407179E+04  0.10100000352E+00 0. -1.
</event>
<event>
 5   0  0.3212523E-08  0.3605616E+04  0.7818609E-02  0.8089206E-01
        1   -1    0    0  501    0  0.00000000000E+00  0.00000000000E+00  0.22764097039E+04  0.22764097039E+04  0.50400001928E-02 0. -1.
       -1   -1    0    0    0  501  0.00000000000E+00  0.00000000000E+00 -0.14277382349E+04  0.14277382349E+04  0.50400001928E-02 0.  1.
    10030    2    1    2    0    0  0.00000000000E+00  0.00000000000E+00  0.84867146907E+03  0.37041479388E+04  0.36056162705E+04 0.  0.
        3    1    3    3  502    0 -0.14235501070E+04 -0.19197401868E+03 -0.69482322213E+03  0.15956591902E+04  0.10100000352E+00 0.  1.
       -3    1    3    3    0  502  0.14235501070E+04  0.19197401868E+03  0.15434946912E+04  0.21084887486E+04  0.10100000352E+00 0. -1.
</event>
<event>
 5   0  0.3215494E-08  0.3600284E+04  0.7818609E-02  0.8090427E-01
       -1   -1    0    0    0  501  0.00000000000E+00  0.00000000000E+00  0.15144948712E+04  0.15144948712E+04  0.50400001928E-02 0. -1.
        1   -1    0    0  501    0  0.00000000000E+00  0.00000000000E+00 -0.21396645159E+04  0.21396645159E+04  0.50400001928E-02 0.  1.
    10030    2    1    2    0    0  0.00000000000E+00  0.00000000000E+00 -0.62516964469E+03  0.36541593871E+04  0.36002838418E+04 0.  0.
        4    1    3    3  502    0 -0.77980967538E+03 -0.13443483619E+04 -0.12345465666E+04  0.19848129599E+04  0.12699999809E+01 0.  1.
       -4    1    3    3    0  502  0.77980967538E+03  0.13443483619E+04  0.60937692191E+03  0.16693464272E+04  0.12699999809E+01 0. -1.
</event>
<event>
 5   0  0.1029908E-07  0.3609053E+04  0.7818609E-02  0.8088421E-01
        2   -1    0    0  501    0  0.00000000000E+00  0.00000000000E+00  0.18157823474E+04  0.18157823474E+04  0.25500000920E-02 0.  1.
       -2   -1    0    0    0  501  0.00000000000E+00  0.00000000000E+00 -0.17933404908E+04  0.17933404908E+04  0.25500000920E-02 0. -1.
    10030    2    1    2    0    0  0.00000000000E+00  0.00000000000E+00  0.22441856577E+02  0.36091228382E+04  0.36090530648E+04 0.  0.
        4    1    3    3  502    0 -0.59873460890E+03 -0.11168463600E+04 -0.12735161216E+04  0.17965728064E+04  0.12699999809E+01 0. -1.
       -4    1    3    3    0  502  0.59873460890E+03  0.11168463600E+04  0.12959579782E+04  0.18125500318E+04  0.12699999809E+01 0.  1.
</event>
<event>
 5   0  0.3212523E-08  0.3601481E+04  0.7818609E-02  0.8090153E-01
        1   -1    0    0  501    0  0.00000000000E+00  0.00000000000E+00  0.19802592535E+04  0.19802592535E+04  0.50400001928E-02 0. -1.
       -1   -1    0    0    0  501  0.00000000000E+00  0.00000000000E+00 -0.16374954882E+04  0.16374954882E+04  0.50400001928E-02 0.  1.
    10030    2    1    2    0    0  0.00000000000E+00  0.00000000000E+00  0.34276376524E+03  0.36177547417E+04  0.36014805806E+04 0.  0.
        3    1    3    3  502    0 -0.16419973361E+04 -0.39753391906E+03 -0.45471387859E+03  0.17495579985E+04  0.10100000352E+00 0.  1.
       -3    1    3    3    0  502  0.16419973361E+04  0.39753391906E+03  0.79747764384E+03  0.18681967432E+04  0.10100000352E+00 0. -1.
</event>
<event>
 5   0  0.9905335E-08  0.3595979E+04  0.7818609E-02  0.8091413E-01
       -2   -1    0    0    0  501  0.00000000000E+00  0.00000000000E+00  0.24234702166E+04  0.24234702166E+04  0.25500000920E-02 0. -1.
        2   -1    0    0  501    0  0.00000000000E+00  0.00000000000E+00 -0.13339412090E+04  0.13339412090E+04  0.25500000920E-02 0.  1.
    10030    2    1    2    0    0  0.00000000000E+00  0.00000000000E+00  0.10895290076E+04  0.37574114256E+04  0.35959793051E+04 0.  0.
        5    1    3    3  502    0  0.10548959918E+04 -0.54627846533E+03  0.19549895349E+04  0.22876258188E+04  0.46999998093E+01 0. -1.
       -5    1    3    3    0  502 -0.10548959918E+04  0.54627846533E+03 -0.86546052739E+03  0.14697856067E+04  0.46999998093E+01 0.  1.
</event>
<event>
 5   0  0.3212523E-08  0.3603229E+04  0.7818609E-02  0.8089753E-01
        1   -1    0    0  501    0  0.00000000000E+00  0.00000000000E+00  0.23385252455E+04  0.23385252455E+04  0.50400001928E-02 0. -1.
       -1   -1    0    0    0  501  0.00000000000E+00  0.00000000000E+00 -0.13879749328E+04  0.13879749328E+04  0.50400001928E-02 0.  1.
    10030    2    1    2    0    0  0.00000000000E+00  0.00000000000E+00  0.95055031271E+03  0.37265001783E+04  0.36032287857E+04 0.  0.
        3    1    3    3  502    0  0.64923760767E+03  0.10378387915E+04  0.18423115273E+04  0.22119517630E+04  0.10100000352E+00 0. -1.
       -3    1    3    3    0  502 -0.64923760767E+03 -0.10378387915E+04 -0.89176121456E+03  0.15145484153E+04  0.10100000352E+00 0.  1.
</event>
<event>
 5   0  0.1017794E-07  0.3605302E+04  0.7818609E-02  0.8089278E-01
        2   -1    0    0  501    0  0.00000000000E+00  0.00000000000E+00  0.28539329650E+04  0.28539329650E+04  0.25500000920E-02 0. -1.
       -2   -1    0    0    0  501  0.00000000000E+00  0.00000000000E+00 -0.11386218351E+04  0.11386218351E+04  0.25500000920E-02 0.  1.
    10030    2    1    2    0    0  0.00000000000E+00  0.00000000000E+00  0.17153111300E+04  0.39925548001E+04  0.36053018680E+04 0.  0.
        1    1    3    3  502    0  0.17304784567E+04 -0.50327564794E+03  0.90342696962E+03  0.20159420518E+04  0.50400001928E-02 0. -1.
       -1    1    3    3    0  502 -0.17304784567E+04  0.50327564794E+03  0.81188416036E+03  0.19766127483E+04  0.50400001928E-02 0.  1.
</event>
<event>
 5   0  0.3212523E-08  0.3586226E+04  0.7818609E-02  0.8093654E-01
       -1   -1    0    0    0  501  0.00000000000E+00  0.00000000000E+00  0.25303498622E+04  0.25303498622E+04  0.50400001928E-02 0.  1.
        1   -1    0    0  501    0  0.00000000000E+00  0.00000000000E+00 -0.12706757770E+04  0.12706757771E+04  0.50400001928E-02 0. -1.
    10030    2    1    2    0    0  0.00000000000E+00  0.00000000000E+00  0.12596740852E+04  0.38010256393E+04  0.35862260260E+04 0.  0.
        3    1    3    3  502    0 -0.52481962048E+03 -0.12418359050E+04  0.18828750774E+04  0.23157743017E+04  0.10100000352E+00 0.  1.
       -3    1    3    3    0  502  0.52481962048E+03  0.12418359050E+04 -0.62320099226E+03  0.14852513376E+04  0.10100000352E+00 0. -1.
</event>
<event>
 5   0  0.9905335E-08  0.3617685E+04  0.7818609E-02  0.8086453E-01
        2   -1    0    0  501    0  0.00000000000E+00  0.00000000000E+00  0.11648595332E+04  0.11648595332E+04  0.25500000920E-02 0.  1.
       -2   -1    0    0    0  501  0.00000000000E+00  0.00000000000E+00 -0.28088467607E+04  0.28088467607E+04  0.25500000920E-02 0. -1.
    10030    2    1    2    0    0  0.00000000000E+00  0.00000000000E+00 -0.16439872275E+04  0.39737062938E+04  0.36176854072E+04 0.  0.
        5    1    3    3  502    0  0.79693983656E+03 -0.13893737713E+04  0.10120600431E+03  0.16049103791E+04  0.46999998093E+01 0.  1.
       -5    1    3    3    0  502 -0.79693983656E+03  0.13893737713E+04 -0.17451932318E+04  0.23687959148E+04  0.46999998093E+01 0. -1.
</event>
<event>
 5   0  0.1021087E-07  0.3605386E+04  0.7818609E-02  0.8089259E-01
        2   -1    0    0  501    0  0.00000000000E+00  0.00000000000E+00  0.25552199380E+04  0.25552199380E+04  0.25500000920E-02 0. -1.
       -2   -1    0    0    0  501  0.00000000000E+00  0.00000000000E+00 -0.12717898094E+04  0.12717898094E+04  0.25500000920E-02 0.  1.
    10030    2    1    2    0    0  0.00000000000E+00  0.00000000000E+00  0.12834301286E+04  0.38270097474E+04  0.36053863470E+04 0.  0.
        3    1    3    3  502    0  0.13041955296E+04 -0.79291829531E+03  0.16598730880E+04  0.22549554499E+04  0.10100000352E+00 0. -1.
       -3    1    3    3    0  502 -0.13041955296E+04  0.79291829531E+03 -0.37644295941E+03  0.15720542975E+04  0.10100000352E+00 0.  1.
</event>
<event>
 5   0  0.1021087E-07  0.3597611E+04  0.7818609E-02  0.8091039E-01
        2   -1    0    0  501    0  0.00000000000E+00  0.00000000000E+00  0.14131339891E+04  0.14131339891E+04  0.25500000920E-02 0. -1.
       -2   -1    0    0    0  501  0.00000000000E+00  0.00000000000E+00 -0.22897339859E+04  0.22897339859E+04  0.25500000920E-02 0.  1.
    10030    2    1    2    0    0  0.00000000000E+00  0.00000000000E+00 -0.87659999683E+03  0.37028679750E+04  0.35976108303E+04 0.  0.
        3    1    3    3  502    0  0.12349664907E+04  0.12326212801E+04  0.11761557142E+02  0.17448884772E+04  0.10100000352E+00 0.  1.
       -3    1    3    3    0  502 -0.12349664907E+04 -0.12326212801E+04 -0.88836155397E+03  0.19579794979E+04  0.10100000352E+00 0. -1.
</event>
<event>
 5   0  0.3202875E-08  0.3601141E+04  0.7818609E-02  0.8090230E-01
       -1   -1    0    0    0  501  0.00000000000E+00  0.00000000000E+00  0.19924863208E+04  0.19924863208E+04  0.50400001928E-02 0. -1.
        1   -1    0    0  501    0  0.00000000000E+00  0.00000000000E+00 -0.16271396994E+04  0.16271396994E+04  0.50400001928E-02 0.  1.
    10030    2    1    2    0    0  0.00000000000E+00  0.00000000000E+00  0.36534662137E+03  0.36196260202E+04  0.36011407044E+04 0.  0.
        1    1    3    3  502    0  0.21235075205E+03  0.17847859610E+03  0.19708801449E+04  0.19903055034E+04  0.50400001928E-02 0. -1.
       -1    1    3    3    0  502 -0.21235075205E+03 -0.17847859610E+03 -0.16055335236E+04  0.16293205168E+04  0.50400001928E-02 0.  1.
</event>
<event>
 5   0  0.3215494E-08  0.3592757E+04  0.7818609E-02  0.8092153E-01
       -1   -1    0    0    0  501  0.00000000000E+00  0.00000000000E+00  0.14337198656E+04  0.14337198656E+04  0.50400001928E-02 0.  1.
        1   -1    0    0  501    0  0.00000000000E+00  0.00000000000E+00 -0.22507710043E+04  0.22507710043E+04  0.50400001928E-02 0. -1.
    10030    2    1    2    0    0  0.00000000000E+00  0.00000000000E+00 -0.81705113869E+03  0.36844908699E+04  0.35927566585E+04 0.  0.
        4    1    3    3  502    0 -0.52652566497E+03 -0.75318631869E+03  0.11744054763E+04  0.14912239074E+04  0.12699999809E+01 0.  1.
       -4    1    3    3    0  502  0.52652566497E+03  0.75318631869E+03 -0.19914566149E+04  0.21932669625E+04  0.12699999809E+01 0. -1.
</event>
<event>
 5   0  0.3202875E-08  0.3599828E+04  0.7818609E-02  0.8090531E-01
        1   -1    0    0  501    0  0.00000000000E+00  0.00000000000E+00  0.16572672060E+04  0.16572672060E+04  0.50400001928E-02 0.  1.
       -1   -1    0    0    0  501  0.00000000000E+00  0.00000000000E+00 -0.19548393739E+04  0.19548393739E+04  0.50400001928E-02 0. -1.
    10030    2    1    2    0    0  0.00000000000E+00  0.00000000000E+00 -0.29757216787E+03  0.36121065799E+04  0.35998284334E+04 0.  0.
        1    1    3    3  502    0 -0.14197132244E+04 -0.90442024929E+03  0.49067048615E+03  0.17533736490E+04  0.50400001928E-02 0.  1.
       -1    1    3    3    0  502  0.14197132244E+04  0.90442024929E+03 -0.78824265403E+03  0.18587329309E+04  0.50400001928E-02 0. -1.
</event>
<event>
 5   0  0.3279988E-08  0.3589570E+04  0.7818609E-02  0.8092885E-01
       -1   -1    0    0    0  501  0.00000000000E+00  0.00000000000E+00  0.13383039540E+04  0.13383039540E+04  0.50400001928E-02 0.  1.
        1   -1    0    0  501    0  0.00000000000E+00  0.00000000000E+00 -0.24069664503E+04  0.24069664503E+04  0.50400001928E-02 0. -1.
    10030    2    1    2    0    0  0.00000000000E+00  0.00000000000E+00 -0.10686624963E+04  0.37452704043E+04  0.35895697333E+04 0.  0.
        5    1    3    3  502    0  0.78079292922E+03  0.74257621306E+02  0.11500273532E+04  0.13920261477E+04  0.46999998093E+01 0.  1.
       -5    1    3    3    0  502 -0.78079292922E+03 -0.74257621306E+02 -0.22186898496E+04  0.23532442566E+04  0.46999998093E+01 0. -1.
</event>
<event>
 5   0  0.3215494E-08  0.3597505E+04  0.7818609E-02  0.8091064E-01
       -1   -1    0    0    0  501  0.00000000000E+00  0.00000000000E+00  0.15359490076E+04  0.15359490076E+04  0.50400001928E-02 0. -1.
        1   -1    0    0  501    0  0.00000000000E+00  0.00000000000E+00 -0.21065215431E+04  0.21065215431E+04  0.50400001928E-02 0.  1.
    10030    2    1    2    0    0  0.00000000000E+00  0.00000000000E+00 -0.57057253548E+03  0.36424705507E+04  0.35975045093E+04 0.  0.
        4    1    3    3  502    0  0.15668326632E+04  0.71568699304E+03  0.23919966534E+03  0.17390775023E+04  0.12699999809E+01 0. -1.
       -4    1    3    3    0  502 -0.15668326632E+04 -0.71568699304E+03 -0.80977220082E+03  0.19033930483E+04  0.12699999809E+01 0.  1.
</event>
<event>
 5   0  0.3202875E-08  0.3605629E+04  0.7818609E-02  0.8089204E-01
       -1   -1    0    0    0  501  0.00000000000E+00  0.00000000000E+00  0.16790524532E+04  0.16790524532E+04  0.50400001928E-02 0.  1.
        1   -1    0    0  501    0  0.00000000000E+00  0.00000000000E+00 -0.19356987656E+04  0.19356987656E+04  0.50400001928E-02 0. -1.
    10030    2    1    2    0    0  0.00000000000E+00  0.00000000000E+00 -0.25664631240E+03  0.36147512188E+04  0.36056288001E+04 0.  0.
        2    1    3    3  502    0 -0.10918084547E+04  0.58572551992E+03  0.11845777621E+04  0.17141600162E+04  0.25500000920E-02 0.  1.
       -2    1    3    3    0  502  0.10918084547E+04 -0.58572551992E+03 -0.14412240745E+04  0.19005912026E+04  0.25500000920E-02 0. -1.
</event>
<event>
 5   0  0.1044678E-07  0.3599438E+04  0.7818609E-02  0.8090620E-01
        2   -1    0    0  501    0  0.00000000000E+00  0.00000000000E+00  0.18343893706E+04  0.18343893706E+04  0.25500000920E-02 0. -1.
       -2   -1    0    0    0  501  0.00000000000E+00  0.00000000000E+00 -0.17657036805E+04  0.17657036805E+04  0.25500000920E-02 0.  1.
    10030    2    1    2    0    0  0.00000000000E+00  0.00000000000E+00  0.68685690130E+02  0.36000930511E+04  0.35994377689E+04 0.  0.
        2    1    3    3  502    0 -0.97297785689E+03  0.14959421261E+04 -0.19906482214E+03  0.17955933721E+04  0.25500000920E-02 0. -1.
       -2    1    3    3    0  502  0.97297785689E+03 -0.14959421261E+04  0.26775051227E+03  0.18044996790E+04  0.25500000920E-02 0.  1.
</event>
<event>
 5   0  0.3279988E-08  0.3603128E+04  0.7818609E-02  0.8089776E-01
       -1   -1    0    0    0  501  0.00000000000E+00  0.00000000000E+00  0.26190682882E+04  0.26190682882E+04  0.50400001928E-02 0.  1.
        1   -1    0    0  501    0  0.00000000000E+00  0.00000000000E+00 -0.12392319366E+04  0.12392319366E+04  0.50400001928E-02 0. -1.
    10030    2    1    2    0    0  0.00000000000E+00  0.00000000000E+00  0.13798363516E+04  0.38583002248E+04  0.36031281226E+04 0.  0.
        5    1    3    3  502    0  0.12499343454E+04  0.87209228216E+02  0.20760690909E+04  0.24248765489E+04  0.46999998093E+01 0.  1.
       -5    1    3    3    0  502 -0.12499343454E+04 -0.87209228216E+02 -0.69623273930E+03  0.14334236759E+04  0.46999998093E+01 0. -1.
</event>
<event>
 5   0  0.3212523E-08  0.3587792E+04  0.7818609E-02  0.8093294E-01
       -1   -1    0    0    0  501  0.00000000000E+00  0.00000000000E+00  0.23442229660E+04  0.23442229660E+04  0.50400001928E-02 0.  1.
        1   -1    0    0  501    0  0.00000000000E+00  0.00000000000E+00 -0.13727631201E+04  0.13727631201E+04  0.50400001928E-02 0. -1.
    10030    2    1    2    0    0  0.00000000000E+00  0.00000000000E+00  0.97145984585E+03  0.37169860861E+04  0.35877919856E+04 0.  0.
        3    1    3    3  502    0 -0.14811050799E+04  0.79185475175E+03 -0.16733131133E+03  0.16878110035E+04  0.10100000352E+00 0. -1.
       -3    1    3    3    0  502  0.14811050799E+04 -0.79185475175E+03  0.11387911572E+04  0.20291750825E+04  0.10100000352E+00 0.  1.
</event>
<event>
 5   0  0.1044678E-07  0.3596528E+04  0.7818609E-02  0.8091288E-01
       -2   -1    0    0    0  501  0.00000000000E+00  0.00000000000E+00  0.25573190473E+04  0.25573190473E+04  0.25500000920E-02 0.  1.
        2   -1    0    0  501    0  0.00000000000E+00  0.00000000000E+00 -0.12645088401E+04  0.12645088401E+04  0.25500000920E-02 0. -1.
    10030    2    1    2    0    0  0.00000000000E+00  0.00000000000E+00  0.12928102071E+04  0.38218278874E+04  0.35965275154E+04 0.  0.
        2    1    3    3  502    0  0.70072632762E+03  0.75325298882E+03 -0.92089376072E+03  0.13807435569E+04  0.25500000920E-02 0. -1.
       -2    1    3    3    0  502 -0.70072632762E+03 -0.75325298882E+03  0.22137039678E+04  0.24410843305E+04  0.25500000920E-02 0.  1.
</event>
<event>
 5   0  0.3202875E-08  0.3600343E+04  0.7818609E-02  0.8090413E-01
        1   -1    0    0  501    0  0.00000000000E+00  0.00000000000E+00  0.22007709153E+04  0.22007709153E+04  0.50400001928E-02 0.  1.
       -1   -1    0    0    0  501  0.00000000000E+00  0.00000000000E+00 -0.14724918042E+04  0.14724918042E+04  0.50400001928E-02 0. -1.
    10030    2    1    2    0    0  0.00000000000E+00  0.00000000000E+00  0.72827911104E+03  0.36732627195E+04  0.36003428369E+04 0.  0.
        2    1    3    3  502    0  0.10916518254E+04  0.23246952491E+03 -0.10768657497E+04  0.15509305693E+04  0.25500000920E-02 0. -1.
       -2    1    3    3    0  502 -0.10916518254E+04 -0.23246952491E+03  0.18051448607E+04  0.21223321503E+04  0.25500000920E-02 0.  1.
</event>
<event>
 5   0  0.3279988E-08  0.3671535E+04  0.7818609E-02  0.8074299E-01
        1   -1    0    0  501    0  0.00000000000E+00  0.00000000000E+00  0.26892468130E+04  0.26892468130E+04  0.50400001928E-02 0. -1.
       -1   -1    0    0    0  501  0.00000000000E+00  0.00000000000E+00 -0.12531546483E+04  0.12531546483E+04  0.50400001928E-02 0.  1.
    10030    2    1    2    0    0  0.00000000000E+00  0.00000000000E+00  0.14360921647E+04  0.39424014614E+04  0.36715349075E+04 0.  0.
        5    1    3    3  502    0 -0.12681063111E+04 -0.11029880313E+04  0.15110008082E+04  0.22600490583E+04  0.46999998093E+01 0. -1.
       -5    1    3    3    0  502  0.12681063111E+04  0.11029880313E+04 -0.74908643497E+02  0.16823524031E+04  0.46999998093E+01 0.  1.
</event>
<event>
 5   0  0.1017794E-07  0.3603614E+04  0.7818609E-02  0.8089664E-01
        2   -1    0    0  501    0  0.00000000000E+00  0.00000000000E+00  0.21330024425E+04  0.21330024425E+04  0.25500000920E-02 0.  1.
       -2   -1    0    0    0  501  0.00000000000E+00  0.00000000000E+00 -0.15220372277E+04  0.15220372277E+04  0.25500000920E-02 0. -1.
    10030    2    1    2    0    0  0.00000000000E+00  0.00000000000E+00  0.61096521485E+03  0.36550396702E+04  0.36036143657E+04 0.  0.
        1    1    3    3  502    0  0.16806827002E+04 -0.60604121550E+03  0.68636158773E+02  0.17879293096E+04  0.50400001928E-02 0.  1.
       -1    1    3    3    0  502 -0.16806827002E+04  0.60604121550E+03  0.54232905608E+03  0.18671103606E+04  0.50400001928E-02 0. -1.
</event>
<event>
 5   0  0.1044678E-07  0.3554573E+04  0.7818609E-02  0.8100977E-01
        2   -1    0    0  501    0  0.00000000000E+00  0.00000000000E+00  0.15269419233E+04  0.15269419233E+04  0.25500000920E-02 0.  1.
       -2   -1    0    0    0  501  0.00000000000E+00  0.00000000000E+00 -0.20686757062E+04  0.20686757062E+04  0.25500000920E-02 0. -1.
    10030    2    1    2    0    0  0.00000000000E+00  0.00000000000E+00 -0.54173378288E+03  0.35956176295E+04  0.35545732017E+04 0.  0.
        2    1    3    3  502    0  0.69601983366E+03 -0.16296375738E+04 -0.13296432329E+03  0.17770317223E+04  0.25500000920E-02 0. -1.
       -2    1    3    3    0  502 -0.69601983366E+03  0.16296375738E+04 -0.40876945959E+03  0.18185859072E+04  0.25500000920E-02 0.  1.
</event>
<event>
 5   0  0.1029908E-07  0.3598332E+04  0.7818609E-02  0.8090874E-01
        2   -1    0    0  501    0  0.00000000000E+00  0.00000000000E+00  0.15593307897E+04  0.15593307897E+04  0.25500000920E-02 0. -1.
       -2   -1    0    0    0  501  0.00000000000E+00  0.00000000000E+00 -0.20758895207E+04  0.20758895207E+04  0.25500000920E-02 0.  1.
    10030    2    1    2    0    0  0.00000000000E+00  0.00000000000E+00 -0.51655873108E+03  0.36352203104E+04  0.35983320834E+04 0.  0.
        4    1    3    3  502    0 -0.14609959814E+03 -0.17800617536E+04 -0.47737096541E+03  0.18487427054E+04  0.12699999809E+01 0.  1.
       -4    1    3    3    0  502  0.14609959814E+03  0.17800617536E+04 -0.39187765663E+02  0.17864776050E+04  0.12699999809E+01 0. -1.
</event>
<event>
 5   0  0.9905335E-08  0.3599509E+04  0.7818609E-02  0.8090604E-01
        2   -1    0    0  501    0  0.00000000000E+00  0.00000000000E+00  0.21671092289E+04  0.21671092289E+04  0.25500000920E-02 0. -1.
       -2   -1    0    0    0  501  0.00000000000E+00  0.00000000000E+00 -0.14946713748E+04  0.14946713749E+04  0.25500000920E-02 0.  1.
    10030    2    1    2    0    0  0.00000000000E+00  0.00000000000E+00  0.67243785407E+03  0.36617806038E+04  0.35995089280E+04 0.  0.
        5    1    3    3  502    0  0.15865431950E+04 -0.30841055622E+02  0.12000399968E+04  0.19895196818E+04  0.46999998093E+01 0. -1.
       -5    1    3    3    0  502 -0.15865431950E+04  0.30841055622E+02 -0.52760214273E+03  0.16722609220E+04  0.46999998093E+01 0.  1.
</event>
<event>
 5   0  0.1029908E-07  0.3602582E+04  0.7818609E-02  0.8089900E-01
        2   -1    0    0  501    0  0.00000000000E+00  0.00000000000E+00  0.20858469437E+04  0.20858469437E+04  0.25500000920E-02 0. -1.
       -2   -1    0    0    0  501  0.00000000000E+00  0.00000000000E+00 -0.15555551260E+04  0.15555551260E+04  0.25500000920E-02 0.  1.
    10030    2    1    2    0    0  0.00000000000E+00  0.00000000000E+00  0.53029181769E+03  0.36414020697E+04  0.36025823546E+04 0.  0.
        4    1    3    3  502    0 -0.14497985196E+04 -0.13501536974E+03 -0.80670678223E+03  0.16646087657E+04  0.12699999809E+01 0.  1.
       -4    1    3    3    0  502  0.14497985196E+04  0.13501536974E+03  0.13369985999E+04  0.19767933040E+04  0.12699999809E+01 0. -1.
</event>
<event>
 5   0  0.1017794E-07  0.3574327E+04  0.7818609E-02  0.8096398E-01
       -2   -1    0    0    0  501  0.00000000000E+00  0.00000000000E+00  0.15023324381E+04  0.15023324381E+04  0.25500000920E-02 0.  1.
        2   -1    0    0  501    0  0.00000000000E+00  0.00000000000E+00 -0.21259967263E+04  0.21259967263E+04  0.25500000920E-02 0. -1.
    10030    2    1    2    0    0  0.00000000000E+00  0.00000000000E+00 -0.62366428826E+03  0.36283291644E+04  0.35743272627E+04 0.  0.
        1    1    3    3  502    0 -0.78057572951E+03  0.15927585415E+04 -0.89953522121E+02  0.17760264292E+04  0.50400001928E-02 0.  1.
       -1    1    3    3    0  502  0.78057572951E+03 -0.15927585415E+04 -0.53371076613E+03  0.18523027352E+04  0.50400001928E-02 0. -1.
</event>
<event>
 5   0  0.3215494E-08  0.3626937E+04  0.7818609E-02  0.8084349E-01
        1   -1    0    0  501    0  0.00000000000E+00  0.00000000000E+00  0.18767969260E+04  0.18767969260E+04  0.50400001928E-02 0.  1.
       -1   -1    0    0    0  501  0.00000000000E+00  0.00000000000E+00 -0.17522770445E+04  0.17522770445E+04  0.50400001928E-02 0. -1.
    10030    2    1    2    0    0  0.00000000000E+00  0.00000000000E+00  0.12451988151E+03  0.36290739705E+04  0.36269370938E+04 0.  0.
        4    1    3    3  502    0  0.32755104385E+03  0.12521045942E+04 -0.12087683413E+04  0.17709257797E+04  0.12699999809E+01 0. -1.
       -4    1    3    3    0  502 -0.32755104385E+03 -0.12521045942E+04  0.13332882229E+04  0.18581481909E+04  0.12699999809E+01 0.  1.
</event>
<event>
 5   0  0.1044678E-07  0.3640691E+04  0.7818609E-02  0.8081234E-01
       -2   -1    0    0    0  501  0.00000000000E+00  0.00000000000E+00  0.19143593721E+04  0.19143593721E+04  0.25500000920E-02 0. -1.
        2   -1    0    0  501    0  0.00000000000E+00  0.00000000000E+00 -0.17309489649E+04  0.17309489649E+04  0.25500000920E-02 0.  1.
    10030    2    1    2    0    0  0.00000000000E+00  0.00000000000E+00  0.18341040724E+03  0.36453083370E+04  0.36406913484E+04 0.  0.
        2    1    3    3  502    0  0.86210761864E+03  0.55255144103E+03 -0.14152335627E+04  0.17468339011E+04  0.25500000920E-02 0.  1.
       -2    1    3    3    0  502 -0.86210761864E+03 -0.55255144103E+03  0.15986439700E+04  0.18984744359E+04  0.25500000920E-02 0. -1.
</event>
<event>
 5   0  0.1021087E-07  0.3602670E+04  0.7818609E-02  0.8089880E-01
       -2   -1    0    0    0  501  0.00000000000E+00  0.00000000000E+00  0.15434907356E+04  0.15434907356E+04  0.25500000920E-02 0.  1.
        2   -1    0    0  501    0  0.00000000000E+00  0.00000000000E+00 -0.21022525924E+04  0.21022525924E+04  0.25500000920E-02 0. -1.
    10030    2    1    2    0    0  0.00000000000E+00  0.00000000000E+00 -0.55876185689E+03  0.36457433280E+04  0.36026697879E+04 0.  0.
        3    1    3    3  502    0 -0.77393925867E+01  0.17944955858E+04 -0.43788400981E+03  0.18471645086E+04  0.10100000352E+00 0. -1.
       -3    1    3    3    0  502  0.77393925867E+01 -0.17944955858E+04 -0.12087784708E+03  0.17985788194E+04  0.10100000352E+00 0.  1.
</event>
<event>
 5   0  0.3202875E-08  0.3602160E+04  0.7818609E-02  0.8089997E-01
       -1   -1    0    0    0  501  0.00000000000E+00  0.00000000000E+00  0.20117781004E+04  0.20117781004E+04  0.50400001928E-02 0.  1.
        1   -1    0    0  501    0  0.00000000000E+00  0.00000000000E+00 -0.16124487073E+04  0.16124487073E+04  0.50400001928E-02 0. -1.
    10030    2    1    2    0    0  0.00000000000E+00  0.00000000000E+00  0.39932939305E+03  0.36242268077E+04  0.36021599061E+04 0.  0.
        2    1    3    3  502    0  0.11658698681E+03 -0.18794849926E+03  0.19980630544E+04  0.20102669309E+04  0.25500000920E-02 0.  1.
       -2    1    3    3    0  502 -0.11658698681E+03  0.18794849926E+03 -0.15987336614E+04  0.16139598768E+04  0.25500000920E-02 0. -1.
</event>
<event>
 5   0  0.1017794E-07  0.3614464E+04  0.7818609E-02  0.8087187E-01
       -2   -1    0    0    0  501  0.00000000000E+00  0.00000000000E+00  0.23215101594E+04  0.23215101594E+04  0.25500000920E-02 0. -1.
        2   -1    0    0  501    0  0.00000000000E+00  0.00000000000E+00 -0.14068803570E+04  0.14068803570E+04  0.25500000920E-02 0.  1.
    10030    2    1    2    0    0  0.00000000000E+00  0.00000000000E+00  0.91462980237E+03  0.37283905165E+04  0.36144637455E+04 0.  0.
        1    1    3    3  502    0  0.15220189922E+04 -0.83840006828E+03  0.96958730580E+03  0.19898633196E+04  0.50400001928E-02 0.  1.
       -1    1    3    3    0  502 -0.15220189922E+04  0.83840006828E+03 -0.54957503429E+02  0.17385271969E+04  0.50400001928E-02 0. -1.
</event>
<event>
 5   0  0.3202875E-08  0.3600654E+04  0.7818609E-02  0.8090342E-01
       -1   -1    0    0    0  501  0.00000000000E+00  0.00000000000E+00  0.19416431680E+04  0.19416431680E+04  0.50400001928E-02 0. -1.
        1   -1    0    0  501    0  0.00000000000E+00  0.00000000000E+00 -0.16692963332E+04  0.16692963332E+04  0.50400001928E-02 0.  1.
    10030    2    1    2    0    0  0.00000000000E+00  0.00000000000E+00  0.27234683471E+03  0.36109395012E+04  0.36006542854E+04 0.  0.
        1    1    3    3  502    0  0.69257004848E+03  0.68226693424E+03 -0.13834226808E+04  0.16908576982E+04  0.50400001928E-02 0.  1.
       -1    1    3    3    0  502 -0.69257004848E+03 -0.68226693424E+03  0.16557695156E+04  0.19200818030E+04  0.50400001928E-02 0. -1.
</event>
<event>
 5   0  0.1044678E-07  0.3602325E+04  0.7818609E-02  0.8089959E-01
       -2   -1    0    0    0  501  0.00000000000E+00  0.00000000000E+00  0.10615388419E+04  0.10615388419E+04  0.25500000920E-02 0.  1.
        2   -1    0    0  501    0  0.00000000000E+00  0.00000000000E+00 -0.30561169927E+04  0.30561169927E+04  0.25500000920E-02 0. -1.
    10030    2    1    2    0    0  0.00000000000E+00  0.00000000000E+00 -0.19945781508E+04  0.41176558346E+04  0.36023253007E+04 0.  0.
        2    1    3    3  502    0 -0.12555084746E+04  0.74219169156E+03  0.21080531357E+03  0.14736312012E+04  0.25500000920E-02 0.  1.
       -2    1    3    3    0  502  0.12555084746E+04 -0.74219169156E+03 -0.22053834644E+04  0.26440246334E+04  0.25500000920E-02 0. -1.
</event>
<event>
 5   0  0.3279988E-08  0.3598857E+04  0.7818609E-02  0.8090754E-01
        1   -1    0    0  501    0  0.00000000000E+00  0.00000000000E+00  0.20324893116E+04  0.20324893116E+04  0.50400001928E-02 0.  1.
       -1   -1    0    0    0  501  0.00000000000E+00  0.00000000000E+00 -0.15930924020E+04  0.15930924021E+04  0.50400001928E-02 0. -1.
    10030    2    1    2    0    0  0.00000000000E+00  0.00000000000E+00  0.43939690953E+03  0.36255817136E+04  0.35988571961E+04 0.  0.
        5    1    3    3  502    0  0.10576427948E+03 -0.13503657564E+04 -0.97368554717E+03  0.16681604820E+04  0.46999998093E+01 0.  1.
       -5    1    3    3    0  502 -0.10576427948E+03  0.13503657564E+04  0.14130824567E+04  0.19574212317E+04  0.46999998093E+01 0. -1.
</event>
<event>
 5   0  0.9905335E-08  0.3591427E+04  0.7818609E-02  0.8092458E-01
        2   -1    0    0  501    0  0.00000000000E+00  0.00000000000E+00  0.21029801374E+04  0.21029801374E+04  0.25500000920E-02 0.  1.
       -2   -1    0    0    0  501  0.00000000000E+00  0.00000000000E+00 -0.15333415500E+04  0.15333415500E+04  0.25500000920E-02 0. -1.
    10030    2    1    2    0    0  0.00000000000E+00  0.00000000000E+00  0.56963858743E+03  0.36363216874E+04  0.35914269161E+04 0.  0.
        5    1    3    3  502    0 -0.15782777475E+04 -0.47190626578E+02  0.11507157273E+04  0.19538056144E+04  0.46999998093E+01 0.  1.
       -5    1    3    3    0  502  0.15782777475E+04  0.47190626578E+02 -0.58107713988E+03  0.16825160731E+04  0.46999998093E+01 0. -1.
</event>
<event>
 5   0  0.3215494E-08  0.3626068E+04  0.7818609E-02  0.8084547E-01
       -1   -1    0    0    0  501  0.00000000000E+00  0.00000000000E+00  0.13737491268E+04  0.13737491268E+04  0.50400001928E-02 0.  1.
        1   -1    0    0  501    0  0.00000000000E+00  0.00000000000E+00 -0.23927891354E+04  0.23927891355E+04  0.50400001928E-02 0. -1.
    10030    2    1    2    0    0  0.00000000000E+00  0.00000000000E+00 -0.10190400087E+04  0.37665382622E+04  0.36260678347E+04 0.  0.
        4    1    3    3  502    0 -0.34685372819E+03  0.97262303581E+03 -0.20574807423E+04  0.23020711753E+04  0.12699999809E+01 0. -1.
       -4    1    3    3    0  502  0.34685372819E+03 -0.97262303581E+03  0.10384407336E+04  0.14644670869E+04  0.12699999809E+01 0.  1.
</event>
<event>
 5   0  0.1029908E-07  0.3600158E+04  0.7818609E-02  0.8090456E-01
       -2   -1    0    0    0  501  0.00000000000E+00  0.00000000000E+00  0.14270189216E+04  0.14270189216E+04  0.25500000920E-02 0.  1.
        2   -1    0    0  501    0  0.00000000000E+00  0.00000000000E+00 -0.22706666198E+04  0.22706666198E+04  0.25500000920E-02 0. -1.
    10030    2    1    2    0    0  0.00000000000E+00  0.00000000000E+00 -0.84364769818E+03  0.36976855415E+04  0.36001579028E+04 0.  0.
        4    1    3    3  502    0  0.51449480096E+03 -0.43752433935E+03 -0.21356026011E+04  0.22398510063E+04  0.12699999809E+01 0. -1.
       -4    1    3    3    0  502 -0.51449480096E+03  0.43752433935E+03  0.12919549029E+04  0.14578345351E+04  0.12699999809E+01 0.  1.
</event>
<event>
 5   0  0.3202875E-08  0.3606724E+04  0.7818609E-02  0.8088953E-01
        1   -1    0    0  501    0  0.00000000000E+00  0.00000000000E+00  0.30026680148E+04  0.30026680148E+04  0.50400001928E-02 0.  1.
       -1   -1    0    0    0  501  0.00000000000E+00  0.00000000000E+00 -0.10830749294E+04  0.10830749294E+04  0.50400001928E-02 0. -1.
    10030    2    1    2    0    0  0.00000000000E+00  0.00000000000E+00  0.19195930854E+04  0.40857429442E+04  0.36067239695E+04 0.  0.
        1    1    3    3  502    0 -0.81834859238E+03  0.65323560887E+03 -0.70343465819E+03  0.12614402474E+04  0.50400001928E-02 0. -1.
       -1    1    3    3    0  502  0.81834859238E+03 -0.65323560887E+03  0.26230277436E+04  0.28243026968E+04  0.50400001928E-02 0.  1.
</event>
<event>
 5   0  0.1017794E-07  0.3640726E+04  0.7818609E-02  0.8081226E-01
        2   -1    0    0  501    0  0.00000000000E+00  0.00000000000E+00  0.21046398321E+04  0.21046398321E+04  0.25500000920E-02 0.  1.
       -2   -1    0    0    0  501  0.00000000000E+00  0.00000000000E+00 -0.15744834567E+04  0.15744834567E+04  0.25500000920E-02 0. -1.
    10030    2    1    2    0    0  0.00000000000E+00  0.00000000000E+00  0.53015637540E+03  0.36791232887E+04  0.36407255309E+04 0.  0.
        1    1    3    3  502    0  0.33777494734E+03 -0.13783580279E+04  0.14171714141E+04  0.20055766216E+04  0.50400001928E-02 0.  1.
       -1    1    3    3    0  502 -0.33777494734E+03  0.13783580279E+04 -0.88701503867E+03  0.16735466671E+04  0.50400001928E-02 0. -1.
</event>
<event>
 5   0  0.3215494E-08  0.3597878E+04  0.7818609E-02  0.8090978E-01
       -1   -1    0    0    0  501  0.00000000000E+00  0.00000000000E+00  0.20385906623E+04  0.20385906623E+04  0.50400001928E-02 0.  1.
        1   -1    0    0  501    0  0.00000000000E+00  0.00000000000E+00 -0.15874599832E+04  0.15874599832E+04  0.50400001928E-02 0. -1.
    10030    2    1    2    0    0  0.00000000000E+00  0.00000000000E+00  0.45113067913E+03  0.36260506455E+04  0.35978777625E+04 0.  0.
        4    1    3    3  502    0  0.68732081101E+03 -0.51017074375E+03  0.18201987548E+04  0.20114196988E+04  0.12699999809E+01 0.  1.
       -4    1    3    3    0  502 -0.68732081101E+03  0.51017074375E+03 -0.13690680757E+04  0.16146309466E+04  0.12699999809E+01 0. -1.
</event>
<event>
 5   0  0.1021087E-07  0.3601004E+04  0.7818609E-02  0.8090262E-01
       -2   -1    0    0    0  501  0.00000000000E+00  0.00000000000E+00  0.13656315036E+04  0.13656315036E+04  0.25500000920E-02 0.  1.
        2   -1    0    0  501    0  0.00000000000E+00  0.00000000000E+00 -0.23738524004E+04  0.23738524004E+04  0.25500000920E-02 0. -1.
    10030    2    1    2    0    0  0.00000000000E+00  0.00000000000E+00 -0.10082208968E+04  0.37394839040E+04  0.36010040949E+04 0.  0.
        3    1    3    3  502    0 -0.17288234901E+03 -0.10377412260E+04 -0.20214691492E+04  0.22788445954E+04  0.10100000352E+00 0. -1.
       -3    1    3    3    0  502  0.17288234901E+03  0.10377412260E+04  0.10132482524E+04  0.14606393086E+04  0.10100000352E+00 0.  1.
</event>
<event>
 5   0  0.3212523E-08  0.3609152E+04  0.7818609E-02  0.8088399E-01
       -1   -1    0    0    0  501  0.00000000000E+00  0.00000000000E+00  0.23004974208E+04  0.23004974208E+04  0.50400001928E-02 0. -1.
        1   -1    0    0  501    0  0.00000000000E+00  0.00000000000E+00 -0.14155610839E+04  0.14155610839E+04  0.50400001928E-02 0.  1.
    10030    2    1    2    0    0  0.00000000000E+00  0.00000000000E+00  0.88493633689E+03  0.37160585047E+04  0.36091520459E+04 0.  0.
        3    1    3    3  502    0 -0.52763323891E+03  0.15886986892E+04  0.11363244017E+04  0.20232630862E+04  0.10100000352E+00 0. -1.
       -3    1    3    3    0  502  0.52763323891E+03 -0.15886986892E+04 -0.25138806480E+03  0.16927954186E+04  0.10100000352E+00 0.  1.
</event>
<event>
 5   0  0.1017794E-07  0.3596155E+04  0.7818609E-02  0.8091373E-01
        2   -1    0    0  501    0  0.00000000000E+00  0.00000000000E+00  0.13768726714E+04  0.13768726714E+04  0.25500000920E-02 0. -1.
       -2   -1    0    0    0  501  0.00000000000E+00  0.00000000000E+00 -0.23481354087E+04  0.23481354087E+04  0.25500000920E-02 0.  1.
    10030    2    1    2    0    0  0.00000000000E+00  0.00000000000E+00 -0.97126273730E+03  0.37250080800E+04  0.35961554320E+04 0.  0.
        1    1    3    3  502    0 -0.94909633026E+02  0.17474046291E+04 -0.91353437968E+03  0.19740759456E+04  0.50400001928E-02 0. -1.
       -1    1    3    3    0  502  0.94909633026E+02 -0.17474046291E+04 -0.57728357611E+02  0.17509321344E+04  0.50400001928E-02 0.  1.
</event>
<event>
 5   0  0.3215494E-08  0.3568619E+04  0.7818609E-02  0.8097718E-01
        1   -1    0    0  501    0  0.00000000000E+00  0.00000000000E+00  0.12359685800E+04  0.12359685800E+04  0.50400001928E-02 0. -1.
       -1   -1    0    0    0  501  0.00000000000E+00  0.00000000000E+00 -0.25759235890E+04  0.25759235890E+04  0.50400001928E-02 0.  1.
    10030    2    1    2    0    0  0.00000000000E+00  0.00000000000E+00 -0.13399550090E+04  0.38118921690E+04  0.35686191281E+04 0.  0.
        4    1    3    3  502    0 -0.58954400710E+03  0.12826555858E+04 -0.18356988323E+04  0.23157200401E+04  0.12699999809E+01 0.  1.
       -4    1    3    3    0  502  0.58954400710E+03 -0.12826555858E+04  0.49574382328E+03  0.14961721289E+04  0.12699999809E+01 0. -1.
</event>
<event>
 5   0  0.1021087E-07  0.3603070E+04  0.7818609E-02  0.8089789E-01
       -2   -1    0    0    0  501  0.00000000000E+00  0.00000000000E+00  0.21109940417E+04  0.21109940417E+04  0.25500000920E-02 0.  1.
        2   -1    0    0  501    0  0.00000000000E+00  0.00000000000E+00 -0.15374410645E+04  0.15374410645E+04  0.25500000920E-02 0. -1.
    10030    2    1    2    0    0  0.00000000000E+00  0.00000000000E+00  0.57355297723E+03  0.36484351062E+04  0.36030703166E+04 0.  0.
        3    1    3    3  502    0 -0.31872556198E+03  0.28243278672E+03 -0.14857414785E+04  0.15455685083E+04  0.10100000352E+00 0. -1.
       -3    1    3    3    0  502  0.31872556198E+03 -0.28243278672E+03  0.20592944557E+04  0.21028665979E+04  0.10100000352E+00 0.  1.
</event>
<event>
 5   0  0.3215494E-08  0.3521756E+04  0.7818609E-02  0.8108653E-01
        1   -1    0    0  501    0  0.00000000000E+00  0.00000000000E+00  0.18950241738E+04  0.18950241738E+04  0.50400001928E-02 0.  1.
       -1   -1    0    0    0  501  0.00000000000E+00  0.00000000000E+00 -0.16362277991E+04  0.16362277991E+04  0.50400001928E-02 0. -1.
    10030    2    1    2    0    0  0.00000000000E+00  0.00000000000E+00  0.25879637466E+03  0.35312519729E+04  0.35217559445E+04 0.  0.
        4    1    3    3  502    0 -0.92204997986E+03 -0.55152234703E+03 -0.12694752424E+04  0.16631061507E+04  0.12699999809E+01 0. -1.
       -4    1    3    3    0  502  0.92204997986E+03  0.55152234703E+03  0.15282716170E+04  0.18681458222E+04  0.12699999809E+01 0.  1.
</event>
<event>
 5   0  0.3215494E-08  0.3602553E+04  0.7818609E-02  0.8089907E-01
        1   -1    0    0  501    0  0.00000000000E+00  0.00000000000E+00  0.22414317827E+04  0.22414317828E+04  0.50400001928E-02 0.  1.
       -1   -1    0    0    0  501  0.00000000000E+00  0.00000000000E+00 -0.14475558800E+04  0.14475558800E+04  0.50400001928E-02 0. -1.
    10030    2    1    2    0    0  0.00000000000E+00  0.00000000000E+00  0.79387590273E+03  0.36889876628E+04  0.36025534038E+04 0.  0.
        4    1    3    3  502    0  0.31161855414E+03 -0.17688178523E+04  0.53724146299E+03  0.18746873661E+04  0.12699999809E+01 0.  1.
       -4    1    3    3    0  502 -0.31161855414E+03  0.17688178523E+04  0.25663443974E+03  0.18143002967E+04  0.12699999809E+01 0. -1.
</event>
<event>
 5   0  0.3279988E-08  0.3595587E+04  0.7818609E-02  0.8091503E-01
       -1   -1    0    0    0  501  0.00000000000E+00  0.00000000000E+00  0.18966629328E+04  0.18966629328E+04  0.50400001928E-02 0.  1.
        1   -1    0    0  501    0  0.00000000000E+00  0.00000000000E+00 -0.17040782725E+04  0.17040782725E+04  0.50400001928E-02 0. -1.
    10030    2    1    2    0    0  0.00000000000E+00  0.00000000000E+00  0.19258466035E+03  0.36007412053E+04  0.35955873478E+04 0.  0.
        5    1    3    3  502    0  0.73259026710E+03 -0.13430038078E+04  0.10419404591E+04  0.18509483346E+04  0.46999998093E+01 0.  1.
       -5    1    3    3    0  502 -0.73259026710E+03  0.13430038078E+04 -0.84935579880E+03  0.17497928706E+04  0.46999998093E+01 0. -1.
</event>
<event>
 5   0  0.1044678E-07  0.3599118E+04  0.7818609E-02  0.8090694E-01
        2   -1    0    0  501    0  0.00000000000E+00  0.00000000000E+00  0.26002530832E+04  0.26002530832E+04  0.25500000920E-02 0.  1.
       -2   -1    0    0    0  501  0.00000000000E+00  0.00000000000E+00 -0.12454218520E+04  0.12454218520E+04  0.25500000920E-02 0. -1.
    10030    2    1    2    0    0  0.00000000000E+00  0.00000000000E+00  0.13548312312E+04  0.38456749352E+04  0.35991176755E+04 0.  0.
        2    1    3    3  502    0 -0.51809543383E+03  0.11928888562E+04 -0.65157656993E+03  0.14546335374E+04  0.25500000920E-02 0. -1.
       -2    1    3    3    0  502  0.51809543383E+03 -0.11928888562E+04  0.20064078011E+04  0.23910413978E+04  0.25500000920E-02 0.  1.
</event>
<event>
 5   0  0.1029908E-07  0.3599961E+04  0.7818609E-02  0.8090501E-01
       -2   -1    0    0    0  501  0.00000000000E+00  0.00000000000E+00  0.26034155883E+04  0.26034155883E+04  0.25500000920E-02 0.  1.
        2   -1    0    0  501    0  0.00000000000E+00  0.00000000000E+00 -0.12444916304E+04  0.12444916304E+04  0.25500000920E-02 0. -1.
    10030    2    1    2    0    0  0.00000000000E+00  0.00000000000E+00  0.13589239579E+04  0.38479072187E+04  0.35999605054E+04 0.  0.
        4    1    3    3  502    0  0.19639852825E+03  0.16096980977E+04  0.15144352002E+04  0.22188321109E+04  0.12699999809E+01 0. -1.
       -4    1    3    3    0  502 -0.19639852825E+03 -0.16096980977E+04 -0.15551124238E+03  0.16290751078E+04  0.12699999809E+01 0.  1.
</event>
<event>
 5   0  0.9905335E-08  0.3602870E+04  0.7818609E-02  0.8089834E-01
        2   -1    0    0  501    0  0.00000000000E+00  0.00000000000E+00  0.22054744862E+04  0.22054744862E+04  0.25500000920E-02 0.  1.
       -2   -1    0    0    0  501  0.00000000000E+00  0.00000000000E+00 -0.14714153154E+04  0.14714153154E+04  0.25500000920E-02 0. -1.
    10030    2    1    2    0    0  0.00000000000E+00  0.00000000000E+00  0.73405917079E+03  0.36768898016E+04  0.36028704871E+04 0.  0.
        5    1    3    3  502    0 -0.53030252734E+03 -0.65438472509E+03 -0.12580755886E+04  0.15140067423E+04  0.46999998093E+01 0. -1.
       -5    1    3    3    0  502  0.53030252734E+03  0.65438472509E+03  0.19921347594E+04  0.21628830594E+04  0.46999998093E+01 0.  1.
</event>
<event>
 5   0  0.9905335E-08  0.3589958E+04  0.7818609E-02  0.8092796E-01
        2   -1    0    0  501    0  0.00000000000E+00  0.00000000000E+00  0.29559713996E+04  0.29559713996E+04  0.25500000920E-02 0. -1.
       -2   -1    0    0    0  501  0.00000000000E+00  0.00000000000E+00 -0.10899802688E+04  0.10899802688E+04  0.25500000920E-02 0.  1.
    10030    2    1    2    0    0  0.00000000000E+00  0.00000000000E+00  0.18659911309E+04  0.40459516684E+04  0.35899584959E+04 0.  0.
        5    1    3    3  502    0 -0.51959400534E+03 -0.77811868609E+03  0.26593893231E+04  0.28191878763E+04  0.46999998093E+01 0. -1.
       -5    1    3    3    0  502  0.51959400534E+03  0.77811868609E+03 -0.79339819227E+03  0.12267637921E+04  0.46999998093E+01 0.  1.
</event>
<event>
 5   0  0.3215494E-08  0.3602639E+04  0.7818609E-02  0.8089887E-01
        1   -1    0    0  501    0  0.00000000000E+00  0.00000000000E+00  0.24706905271E+04  0.24706905271E+04  0.50400001928E-02 0. -1.
       -1   -1    0    0    0  501  0.00000000000E+00  0.00000000000E+00 -0.13132978008E+04  0.13132978008E+04  0.50400001928E-02 0.  1.
    10030    2    1    2    0    0  0.00000000000E+00  0.00000000000E+00  0.11573927263E+04  0.37839883279E+04  0.36026392746E+04 0.  0.
        4    1    3    3  502    0 -0.47159489545E+03 -0.17124092415E+04  0.89380413209E+03  0.19883748629E+04  0.12699999809E+01 0. -1.
       -4    1    3    3    0  502  0.47159489545E+03  0.17124092415E+04  0.26358859422E+03  0.17956134650E+04  0.12699999809E+01 0.  1.
</event>
<event>
 5   0  0.3202875E-08  0.3598189E+04  0.7818609E-02  0.8090907E-01
       -1   -1    0    0    0  501  0.00000000000E+00  0.00000000000E+00  0.28778968858E+04  0.28778968858E+04  0.50400001928E-02 0. -1.
        1   -1    0    0  501    0  0.00000000000E+00  0.00000000000E+00 -0.11246897372E+04  0.11246897372E+04  0.50400001928E-02 0.  1.
    10030    2    1    2    0    0  0.00000000000E+00  0.00000000000E+00  0.17532071486E+04  0.40025866230E+04  0.35981890402E+04 0.  0.
        1    1    3    3  502    0  0.31305440009E+03  0.26216873568E+03  0.28256686796E+04  0.28550199632E+04  0.50400001928E-02 0. -1.
       -1    1    3    3    0  502 -0.31305440009E+03 -0.26216873568E+03 -0.10724615310E+04  0.11475666598E+04  0.50400001928E-02 0.  1.
</event>
<event>
 5   0  0.1021087E-07  0.3594296E+04  0.7818609E-02  0.8091799E-01
        2   -1    0    0  501    0  0.00000000000E+00  0.00000000000E+00  0.23347013704E+04  0.23347013704E+04  0.25500000920E-02 0.  1.
       -2   -1    0    0    0  501  0.00000000000E+00  0.00000000000E+00 -0.13833636985E+04  0.13833636985E+04  0.25500000920E-02 0. -1.
    10030    2    1    2    0    0  0.00000000000E+00  0.00000000000E+00  0.95133767184E+03  0.37180650689E+04  0.35942961051E+04 0.  0.
        3    1    3    3  502    0  0.72875087244E+03 -0.67207122977E+03 -0.10749429452E+04  0.14622790150E+04  0.10100000352E+00 0. -1.
       -3    1    3    3    0  502 -0.72875087244E+03  0.67207122977E+03  0.20262806171E+04  0.22557860540E+04  0.10100000352E+00 0.  1.
</event>
<event>
 5   0  0.1017794E-07  0.3606645E+04  0.7818609E-02  0.8088971E-01
       -2   -1    0    0    0  501  0.00000000000E+00  0.00000000000E+00  0.12801775282E+04  0.12801775282E+04  0.25500000920E-02 0.  1.
        2   -1    0    0  501    0  0.00000000000E+00  0.00000000000E+00 -0.25402508316E+04  0.25402508316E+04  0.25500000920E-02 0. -1.
    10030    2    1    2    0    0  0.00000000000E+00  0.00000000000E+00 -0.12600733034E+04  0.38204283598E+04  0.36066449954E+04 0.  0.
        1    1    3    3  502    0  0.86676200043E+03  0.18426440104E+03  0.10336462529E+04  0.13614897396E+04  0.50400001928E-02 0.  1.
       -1    1    3    3    0  502 -0.86676200043E+03 -0.18426440104E+03 -0.22937195563E+04  0.24589386202E+04  0.50400001928E-02 0. -1.
</event>
<event>
 5   0  0.9905335E-08  0.3597769E+04  0.7818609E-02  0.8091003E-01
       -2   -1    0    0    0  501  0.00000000000E+00  0.00000000000E+00  0.18300867667E+04  0.18300867667E+04  0.25500000920E-02 0.  1.
        2   -1    0    0  501    0  0.00000000000E+00  0.00000000000E+00 -0.17682141257E+04  0.17682141257E+04  0.25500000920E-02 0. -1.
    10030    2    1    2    0    0  0.00000000000E+00  0.00000000000E+00  0.61872641016E+02  0.35983008923E+04  0.35977689042E+04 0.  0.
        5    1    3    3  502    0 -0.72065584242E+03 -0.11024846729E+03  0.16757048363E+04  0.18274321755E+04  0.46999998093E+01 0.  1.
       -5    1    3    3    0  502  0.72065584242E+03  0.11024846729E+03 -0.16138321953E+04  0.17708687168E+04  0.46999998093E+01 0. -1.
</event>
<event>
 5   0  0.3279988E-08  0.3614508E+04  0.7818609E-02  0.8087177E-01
       -1   -1    0    0    0  501  0.00000000000E+00  0.00000000000E+00  0.19729424118E+04  0.19729424118E+04  0.50400001928E-02 0. -1.
        1   -1    0    0  501    0  0.00000000000E+00  0.00000000000E+00 -0.16554799701E+04  0.16554799701E+04  0.50400001928E-02 0.  1.
    10030    2    1    2    0    0  0.00000000000E+00  0.00000000000E+00  0.31746244167E+03  0.36284223820E+04  0.36145077922E+04 0.  0.
        5    1    3    3  502    0  0.86780151179E+03 -0.15842308839E+04  0.10126052041E+03  0.18091828930E+04  0.46999998093E+01 0. -1.
       -5    1    3    3    0  502 -0.86780151179E+03  0.15842308839E+04  0.21620192126E+03  0.18192394889E+04  0.46999998093E+01 0.  1.
</event>
<event>
 5   0  0.1044678E-07  0.3609363E+04  0.7818609E-02  0.8088350E-01
       -2   -1    0    0    0  501  0.00000000000E+00  0.00000000000E+00  0.18981169150E+04  0.18981169150E+04  0.25500000920E-02 0.  1.
        2   -1    0    0  501    0  0.00000000000E+00  0.00000000000E+00 -0.17158455349E+04  0.17158455349E+04  0.25500000920E-02 0. -1.
    10030    2    1    2    0    0  0.00000000000E+00  0.00000000000E+00  0.18227138008E+03  0.36139624499E+04  0.36093630647E+04 0.  0.
        2    1    3    3  502    0  0.38470178441E+03  0.14013795166E+04  0.11625531856E+04  0.18610185173E+04  0.25500000920E-02 0.  1.
       -2    1    3    3    0  502 -0.38470178441E+03 -0.14013795166E+04 -0.98028180555E+03  0.17529439326E+04  0.25500000920E-02 0. -1.
</event>
<event>
 5   0  0.3202875E-08  0.3617218E+04  0.7818609E-02  0.8086559E-01
        1   -1    0    0  501    0  0.00000000000E+00  0.00000000000E+00  0.19739779779E+04  0.19739779779E+04  0.50400001928E-02 0. -1.
       -1   -1    0    0    0  501  0.00000000000E+00  0.00000000000E+00 -0.16570936484E+04  0.16570936485E+04  0.50400001928E-02 0.  1.
    10030    2    1    2    0    0  0.00000000000E+00  0.00000000000E+00  0.31688432944E+03  0.36310716263E+04  0.36172179195E+04 0.  0.
        1    1    3    3  502    0  0.28185726573E+03 -0.17769780778E+04 -0.26578049310E+02  0.17993890630E+04  0.50400001928E-02 0. -1.
       -1    1    3    3    0  502 -0.28185726573E+03  0.17769780778E+04  0.34346237875E+03  0.18316825634E+04  0.50400001928E-02 0.  1.
</event>
<event>
 5   0  0.1021087E-07  0.3601602E+04  0.7818609E-02  0.8090125E-01
        2   -1    0    0  501    0  0.00000000000E+00  0.00000000000E+00  0.21542322058E+04  0.21542322058E+04  0.25500000920E-02 0. -1.
       -2   -1    0    0    0  501  0.00000000000E+00  0.00000000000E+00 -0.15053550733E+04  0.15053550733E+04  0.25500000920E-02 0.  1.
    10030    2    1    2    0    0  0.00000000000E+00  0.00000000000E+00  0.64887713252E+03  0.36595872791E+04  0.36016020769E+04 0.  0.
        3    1    3    3  502    0  0.17927214241E+04 -0.48301490789E+02  0.49047447593E+03  0.18592332722E+04  0.10100000352E+00 0. -1.
       -3    1    3    3    0  502 -0.17927214241E+04  0.48301490789E+02  0.15840265660E+03  0.18003540070E+04  0.10100000352E+00 0.  1.
</event>
<event>
 5   0  0.1044678E-07  0.3596939E+04  0.7818609E-02  0.8091193E-01
        2   -1    0    0  501    0  0.00000000000E+00  0.00000000000E+00  0.33406540917E+04  0.33406540917E+04  0.25500000920E-02 0.  1.
       -2   -1    0    0    0  501  0.00000000000E+00  0.00000000000E+00 -0.96822159066E+03  0.96822159067E+03  0.25500000920E-02 0. -1.
    10030    2    1    2    0    0  0.00000000000E+00  0.00000000000E+00  0.23724325011E+04  0.43088756824E+04  0.35969394871E+04 0.  0.
        2    1    3    3  502    0 -0.35679307465E+03 -0.48538328631E+03  0.32161994375E+04  0.32721303541E+04  0.25500000920E-02 0.  1.
       -2    1    3    3    0  502  0.35679307465E+03  0.48538328631E+03 -0.84376693640E+03  0.10367453283E+04  0.25500000920E-02 0. -1.
</event>
<event>
 5   0  0.3212523E-08  0.3596284E+04  0.7818609E-02  0.8091343E-01
       -1   -1    0    0    0  501  0.00000000000E+00  0.00000000000E+00  0.13573302389E+04  0.13573302390E+04  0.50400001928E-02 0. -1.
        1   -1    0    0  501    0  0.00000000000E+00  0.00000000000E+00 -0.23821134189E+04  0.23821134189E+04  0.50400001928E-02 0.  1.
    10030    2    1    2    0    0  0.00000000000E+00  0.00000000000E+00 -0.10247831799E+04  0.37394436578E+04  0.35962839577E+04 0.  0.
        3    1    3    3  502    0 -0.12869664868E+04 -0.12475186743E+04 -0.66209856529E+03  0.19107485709E+04  0.10100000352E+00 0.  1.
       -3    1    3    3    0  502  0.12869664868E+04  0.12475186743E+04 -0.36268461462E+03  0.18286950869E+04  0.10100000352E+00 0. -1.
</event>
<event>
 5   0  0.9905335E-08  0.3600353E+04  0.7818609E-02  0.8090411E-01
       -2   -1    0    0    0  501  0.00000000000E+00  0.00000000000E+00  0.11772467608E+04  0.11772467608E+04  0.25500000920E-02 0.  1.
        2   -1    0    0  501    0  0.00000000000E+00  0.00000000000E+00 -0.27527246213E+04  0.27527246213E+04  0.25500000920E-02 0. -1.
    10030    2    1    2    0    0  0.00000000000E+00  0.00000000000E+00 -0.15754778605E+04  0.39299713821E+04  0.36003533958E+04 0.  0.
        5    1    3    3  502    0 -0.61080027583E+03 -0.14316837150E+03  0.10540549806E+04  0.12266328512E+04  0.46999998093E+01 0.  1.
       -5    1    3    3    0  502  0.61080027583E+03  0.14316837150E+03 -0.26295328412E+04  0.27033385308E+04  0.46999998093E+01 0. -1.
</event>
<event>
 5   0  0.1044678E-07  0.3591277E+04  0.7818609E-02  0.8092493E-01
        2   -1    0    0  501    0  0.00000000000E+00  0.00000000000E+00  0.31029073110E+04  0.31029073110E+04  0.25500000920E-02 0. -1.
       -2   -1    0    0    0  501  0.00000000000E+00  0.00000000000E+00 -0.10391279446E+04  0.10391279446E+04  0.25500000920E-02 0.  1.
    10030    2    1    2    0    0  0.00000000000E+00  0.00000000000E+00  0.20637793664E+04  0.41420352557E+04  0.35912770411E+04 0.  0.
        2    1    3    3  502    0  0.11385504395E+04  0.90090133674E+03 -0.18674710731E+03  0.14638288165E+04  0.25500000920E-02 0.  1.
       -2    1    3    3    0  502 -0.11385504395E+04 -0.90090133674E+03  0.22505264738E+04  0.26782064392E+04  0.25500000920E-02 0. -1.
</event>
<event>
 5   0  0.9905335E-08  0.3601933E+04  0.7818609E-02  0.8090049E-01
        2   -1    0    0  501    0  0.00000000000E+00  0.00000000000E+00  0.18311754875E+04  0.18311754875E+04  0.25500000920E-02 0. -1.
       -2   -1    0    0    0  501  0.00000000000E+00  0.00000000000E+00 -0.17712556541E+04  0.17712556541E+04  0.25500000920E-02 0.  1.
    10030    2    1    2    0    0  0.00000000000E+00  0.00000000000E+00  0.59919833409E+02  0.36024311415E+04  0.36019327788E+04 0.  0.
        5    1    3    3  502    0  0.33804763873E+02 -0.16078430748E+04  0.84072350185E+03  0.18147011357E+04  0.46999998093E+01 0. -1.
       -5    1    3    3    0  502 -0.33804763873E+02  0.16078430748E+04 -0.78080366844E+03  0.17877300059E+04  0.46999998093E+01 0.  1.
</event>
<event>
 5   0  0.3202875E-08  0.3594191E+04  0.7818609E-02  0.8091824E-01
        1   -1    0    0  501    0  0.00000000000E+00  0.00000000000E+00  0.22032564273E+04  0.22032564273E+04  0.50400001928E-02 0.  1.
       -1   -1    0    0    0  501  0.00000000000E+00  0.00000000000E+00 -0.14658086085E+04  0.14658086085E+04  0.50400001928E-02 0. -1.
    10030    2    1    2    0    0  0.00000000000E+00  0.00000000000E+00  0.73744781873E+03  0.36690650358E+04  0.35941910010E+04 0.  0.
        1    1    3    3  502    0  0.14234197534E+04  0.10965685052E+04  0.40045121010E+03  0.18409094091E+04  0.50400001928E-02 0.  1.
       -1    1    3    3    0  502 -0.14234197534E+04 -0.10965685052E+04  0.33699660863E+03  0.18281556266E+04  0.50400001928E-02 0. -1.
</event>
<event>
 5   0  0.1029908E-07  0.3597755E+04  0.7818609E-02  0.8091006E-01
       -2   -1    0    0    0  501  0.00000000000E+00  0.00000000000E+00  0.13936559572E+04  0.13936559572E+04  0.25500000920E-02 0. -1.
        2   -1    0    0  501    0  0.00000000000E+00  0.00000000000E+00 -0.23219222801E+04  0.23219222801E+04  0.25500000920E-02 0.  1.
    10030    2    1    2    0    0  0.00000000000E+00  0.00000000000E+00 -0.92826632290E+03  0.37155782374E+04  0.35977553101E+04 0.  0.
        4    1    3    3  502    0 -0.11135850520E+03 -0.17419780282E+04 -0.91319617999E+03  0.19699789450E+04  0.12699999809E+01 0.  1.
       -4    1    3    3    0  502  0.11135850520E+03  0.17419780282E+04 -0.15070142907E+02  0.17455992924E+04  0.12699999809E+01 0. -1.
</event>
<event>
 5   0  0.1021087E-07  0.3599130E+04  0.7818609E-02  0.8090691E-01
        2   -1    0    0  501    0  0.00000000000E+00  0.00000000000E+00  0.16257451065E+04  0.16257451065E+04  0.25500000920E-02 0. -1.
       -2   -1    0    0    0  501  0.00000000000E+00  0.00000000000E+00 -0.19919692708E+04  0.19919692708E+04  0.25500000920E-02 0.  1.
    10030    2    1    2    0    0  0.00000000000E+00  0.00000000000E+00 -0.36622416433E+03  0.36177143773E+04  0.35991300584E+04 0.  0.
        3    1    3    3  502    0  0.66449295262E+03 -0.16461512787E+04 -0.47971090982E+03  0.18388821288E+04  0.10100000352E+00 0.  1.
       -3    1    3    3    0  502 -0.66449295262E+03  0.16461512787E+04  0.11348674548E+03  0.17788322485E+04  0.10100000352E+00 0. -1.
</event>
<event>
 5   0  0.9905335E-08  0.3600648E+04  0.7818609E-02  0.8090343E-01
        2   -1    0    0  501    0  0.00000000000E+00  0.00000000000E+00  0.23461592317E+04  0.23461592317E+04  0.25500000920E-02 0.  1.
       -2   -1    0    0    0  501  0.00000000000E+00  0.00000000000E+00 -0.13814776091E+04  0.13814776091E+04  0.25500000920E-02 0. -1.
    10030    2    1    2    0    0  0.00000000000E+00  0.00000000000E+00  0.96468162257E+03  0.37276368408E+04  0.36006479673E+04 0.  0.
        5    1    3    3  502    0  0.33145499776E+03 -0.29415591949E+03 -0.13241221195E+04  0.13963207361E+04  0.46999998093E+01 0. -1.
       -5    1    3    3    0  502 -0.33145499776E+03  0.29415591949E+03  0.22888037421E+04  0.23313161048E+04  0.46999998093E+01 0.  1.
</event>
<event>
 5   0  0.1021087E-07  0.3600792E+04  0.7818609E-02  0.8090310E-01
        2   -1    0    0  501    0  0.00000000000E+00  0.00000000000E+00  0.23055331137E+04  0.23055331137E+04  0.25500000920E-02 0. -1.
       -2   -1    0    0    0  501  0.00000000000E+00  0.00000000000E+00 -0.14059331189E+04  0.14059331189E+04  0.25500000920E-02 0.  1.
    10030    2    1    2    0    0  0.00000000000E+00  0.00000000000E+00  0.89959999475E+03  0.37114662326E+04  0.36007917803E+04 0.  0.
        3    1    3    3  502    0  0.10086936185E+04 -0.12958348725E+04  0.12105744107E+04  0.20401326542E+04  0.10100000352E+00 0.  1.
       -3    1    3    3    0  502 -0.10086936185E+04  0.12958348725E+04 -0.31097441591E+03  0.16713335784E+04  0.10100000352E+00 0. -1.
</event>
<event>
 5   0  0.3212523E-08  0.3598969E+04  0.7818609E-02  0.8090728E-01
       -1   -1    0    0    0  501  0.00000000000E+00  0.00000000000E+00  0.16417499445E+04  0.16417499445E+04  0.50400001928E-02 0.  1.
        1   -1    0    0  501    0  0.00000000000E+00  0.00000000000E+00 -0.19723736475E+04  0.19723736475E+04  0.50400001928E-02 0. -1.
    10030    2    1    2    0    0  0.00000000000E+00  0.00000000000E+00 -0.33062370298E+03  0.36141235920E+04  0.35989689225E+04 0.  0.
        3    1    3    3  502    0 -0.48377336244E+03  0.68786482698E+03  0.14322830084E+04  0.16609121929E+04  0.10100000352E+00 0.  1.
       -3    1    3    3    0  502  0.48377336244E+03 -0.68786482698E+03 -0.17629067113E+04  0.19532113991E+04  0.10100000352E+00 0. -1.
</event>
<event>
 5   0  0.3212523E-08  0.3591120E+04  0.7818609E-02  0.8092529E-01
        1   -1    0    0  501    0  0.00000000000E+00  0.00000000000E+00  0.22420939659E+04  0.22420939659E+04  0.50400001928E-02 0. -1.
       -1   -1    0    0    0  501  0.00000000000E+00  0.00000000000E+00 -0.14379571148E+04  0.14379571148E+04  0.50400001928E-02 0.  1.
    10030    2    1    2    0    0  0.00000000000E+00  0.00000000000E+00  0.80413685107E+03  0.36800510807E+04  0.35911195860E+04 0.  0.
        3    1    3    3  502    0 -0.90497131799E+03  0.15489733933E+04  0.32440710792E+03  0.18230555782E+04  0.10100000352E+00 0.  1.
       -3    1    3    3    0  502  0.90497131799E+03 -0.15489733933E+04  0.47972974315E+03  0.18569955025E+04  0.10100000352E+00 0. -1.
</event>
<event>
 5   0  0.1029908E-07  0.3600159E+04  0.7818609E-02  0.8090455E-01
       -2   -1    0    0    0  501  0.00000000000E+00  0.00000000000E+00  0.15680645922E+04  0.15680645922E+04  0.25500000920E-02 0.  1.
        2   -1    0    0  501    0  0.00000000000E+00  0.00000000000E+00 -0.20664240138E+04  0.20664240138E+04  0.25500000920E-02 0. -1.
    10030    2    1    2    0    0  0.00000000000E+00  0.00000000000E+00 -0.49835942169E+03  0.36344886060E+04  0.36001590679E+04 0.  0.
        4    1    3    3  502    0  0.76056140901E+03 -0.13026925161E+04  0.74244081071E+03  0.16812737489E+04  0.12699999809E+01 0.  1.
       -4    1    3    3    0  502 -0.76056140901E+03  0.13026925161E+04 -0.12408002324E+04  0.19532148571E+04  0.12699999809E+01 0. -1.
</event>
<event>
 5   0  0.3279988E-08  0.3607008E+04  0.7818609E-02  0.8088888E-01
        1   -1    0    0  501    0  0.00000000000E+00  0.00000000000E+00  0.14267805881E+04  0.14267805881E+04  0.50400001928E-02 0. -1.
       -1   -1    0    0    0  501  0.00000000000E+00  0.00000000000E+00 -0.22796968874E+04  0.22796968874E+04  0.50400001928E-02 0.  1.
    10030    2    1    2    0    0  0.00000000000E+00  0.00000000000E+00 -0.85291629933E+03  0.37064774754E+04  0.36070083258E+04 0.  0.
        5    1    3    3  502    0  0.95581082946E+03  0.84904938825E+03  0.88068475084E+03  0.15524454663E+04  0.46999998093E+01 0. -1.
       -5    1    3    3    0  502 -0.95581082946E+03 -0.84904938825E+03 -0.17336010502E+04  0.21540320092E+04  0.46999998093E+01 0.  1.
</event>
<event>
 5   0  0.3279988E-08  0.3599964E+04  0.7818609E-02  0.8090500E-01
        1   -1    0    0  501    0  0.00000000000E+00  0.00000000000E+00  0.23980509219E+04  0.23980509219E+04  0.50400001928E-02 0.  1.
       -1   -1    0    0    0  501  0.00000000000E+00  0.00000000000E+00 -0.13510703324E+04  0.13510703325E+04  0.50400001928E-02 0. -1.
    10030    2    1    2    0    0  0.00000000000E+00  0.00000000000E+00  0.10469805894E+04  0.37491212543E+04  0.35999641422E+04 0.  0.
        5    1    3    3  502    0 -0.22917709880E+02 -0.21192114958E+03 -0.13378733760E+04  0.13547557180E+04  0.46999998093E+01 0. -1.
       -5    1    3    3    0  502  0.22917709880E+02  0.21192114958E+03  0.23848539655E+04  0.23943655364E+04  0.46999998093E+01 0.  1.
</event>
<event>
 5   0  0.3212523E-08  0.3597108E+04  0.7818609E-02  0.8091154E-01
       -1   -1    0    0    0  501  0.00000000000E+00  0.00000000000E+00  0.16094319840E+04  0.16094319840E+04  0.50400001928E-02 0. -1.
        1   -1    0    0  501    0  0.00000000000E+00  0.00000000000E+00 -0.20098998744E+04  0.20098998744E+04  0.50400001928E-02 0.  1.
    10030    2    1    2    0    0  0.00000000000E+00  0.00000000000E+00 -0.40046789034E+03  0.36193318584E+04  0.35971083623E+04 0.  0.
        3    1    3    3  502    0 -0.97879863811E+03  0.20590709170E+02 -0.17183051773E+04  0.19776358219E+04  0.10100000352E+00 0.  1.
       -3    1    3    3    0  502  0.97879863811E+03 -0.20590709170E+02  0.13178372870E+04  0.16416960366E+04  0.10100000352E+00 0. -1.
</event>
<event>
 5   0  0.1017794E-07  0.3583237E+04  0.7818609E-02  0.8094342E-01
       -2   -1    0    0    0  501  0.00000000000E+00  0.00000000000E+00  0.17451106130E+04  0.17451106130E+04  0.25500000920E-02 0.  1.
        2   -1    0    0  501    0  0.00000000000E+00  0.00000000000E+00 -0.18393656541E+04  0.18393656541E+04  0.25500000920E-02 0. -1.
    10030    2    1    2    0    0  0.00000000000E+00  0.00000000000E+00 -0.94255041015E+02  0.35844762671E+04  0.35832368184E+04 0.  0.
        1    1    3    3  502    0 -0.17706995792E+04 -0.25253805848E+03 -0.15081689926E+03  0.17949646816E+04  0.50400001928E-02 0. -1.
       -1    1    3    3    0  502  0.17706995792E+04  0.25253805848E+03  0.56561858241E+02  0.17895115855E+04  0.50400001928E-02 0.  1.
</event>
<event>
 5   0  0.3202875E-08  0.3601710E+04  0.7818609E-02  0.8090100E-01
        1   -1    0    0  501    0  0.00000000000E+00  0.00000000000E+00  0.19671069414E+04  0.19671069414E+04  0.50400001928E-02 0. -1.
       -1   -1    0    0    0  501  0.00000000000E+00  0.00000000000E+00 -0.16486542523E+04  0.16486542523E+04  0.50400001928E-02 0.  1.
    10030    2    1    2    0    0  0.00000000000E+00  0.00000000000E+00  0.31845268913E+03  0.36157611937E+04  0.36017102736E+04 0.  0.
        2    1    3    3  502    0  0.13645426131E+04  0.61408094706E+03  0.11651369657E+04  0.18964746508E+04  0.25500000920E-02 0. -1.
       -2    1    3    3    0  502 -0.13645426131E+04 -0.61408094706E+03 -0.84668427654E+03  0.17192865429E+04  0.25500000920E-02 0.  1.
</event>
<event>
 5   0  0.3212523E-08  0.3600922E+04  0.7818609E-02  0.8090280E-01
       -1   -1    0    0    0  501  0.00000000000E+00  0.00000000000E+00  0.16268768989E+04  0.16268768989E+04  0.50400001928E-02 0. -1.
        1   -1    0    0  501    0  0.00000000000E+00  0.00000000000E+00 -0.19925665999E+04  0.19925665999E+04  0.50400001928E-02 0.  1.
    10030    2    1    2    0    0  0.00000000000E+00  0.00000000000E+00 -0.36568970094E+03  0.36194434988E+04  0.36009224212E+04 0.  0.
        3    1    3    3  502    0  0.99025981307E+03 -0.14030018160E+04  0.36089219148E+03  0.17547853935E+04  0.10100000352E+00 0. -1.
       -3    1    3    3    0  502 -0.99025981307E+03  0.14030018160E+04 -0.72658189242E+03  0.18646581053E+04  0.10100000352E+00 0.  1.
</event>
<event>
 5   0  0.3202875E-08  0.3598682E+04  0.7818609E-02  0.8090794E-01
        1   -1    0    0  501    0  0.00000000000E+00  0.00000000000E+00  0.20384626008E+04  0.20384626008E+04  0.50400001928E-02 0. -1.
       -1   -1    0    0    0  501  0.00000000000E+00  0.00000000000E+00 -0.15882697745E+04  0.15882697745E+04  0.50400001928E-02 0.  1.
    10030    2    1    2    0    0  0.00000000000E+00  0.00000000000E+00  0.45019282634E+03  0.36267323753E+04  0.35986822785E+04 0.  0.
        2    1    3    3  502    0  0.15369152031E+04  0.28355859990E+03 -0.67354597337E+03  0.17018160886E+04  0.25500000920E-02 0.  1.
       -2    1    3    3    0  502 -0.15369152031E+04 -0.28355859990E+03  0.11237387997E+04  0.19249162868E+04  0.25500000920E-02 0. -1.
</event>
<event>
 5   0  0.3212523E-08  0.3596166E+04  0.7818609E-02  0.8091371E-01
       -1   -1    0    0    0  501  0.00000000000E+00  0.00000000000E+00  0.16438774085E+04  0.16438774085E+04  0.50400001928E-02 0. -1.
        1   -1    0    0  501    0  0.00000000000E+00  0.00000000000E+00 -0.19667538946E+04  0.19667538946E+04  0.50400001928E-02 0.  1.
    10030    2    1    2    0    0  0.00000000000E+00  0.00000000000E+00 -0.32287648613E+03  0.36106313031E+04  0.35961659002E+04 0.  0.
        3    1    3    3  502    0  0.75898416730E+03 -0.15690592797E+04  0.28203779858E+03  0.17656583246E+04  0.10100000352E+00 0.  1.
       -3    1    3    3    0  502 -0.75898416730E+03  0.15690592797E+04 -0.60491428471E+03  0.18449729785E+04  0.10100000352E+00 0. -1.
</event>
<event>
 5   0  0.9905335E-08  0.3641650E+04  0.7818609E-02  0.8081017E-01
       -2   -1    0    0    0  501  0.00000000000E+00  0.00000000000E+00  0.14387237882E+04  0.14387237882E+04  0.25500000920E-02 0. -1.
        2   -1    0    0  501    0  0.00000000000E+00  0.00000000000E+00 -0.23044062132E+04  0.23044062132E+04  0.25500000920E-02 0.  1.
    10030    2    1    2    0    0  0.00000000000E+00  0.00000000000E+00 -0.86568242498E+03  0.37431300014E+04  0.36416501955E+04 0.  0.
        5    1    3    3  502    0 -0.16453932296E+04 -0.56241760900E+02 -0.12322675489E+04  0.20564501982E+04  0.46999998093E+01 0.  1.
       -5    1    3    3    0  502  0.16453932296E+04  0.56241760900E+02  0.36658512390E+03  0.16866798032E+04  0.46999998093E+01 0. -1.
</event>
<event>
 5   0  0.1017794E-07  0.3621586E+04  0.7818609E-02  0.8085565E-01
        2   -1    0    0  501    0  0.00000000000E+00  0.00000000000E+00  0.26585646327E+04  0.26585646327E+04  0.25500000920E-02 0.  1.
       -2   -1    0    0    0  501  0.00000000000E+00  0.00000000000E+00 -0.12333616088E+04  0.12333616088E+04  0.25500000920E-02 0. -1.
    10030    2    1    2    0    0  0.00000000000E+00  0.00000000000E+00  0.14252030239E+04  0.38919262415E+04  0.36215861456E+04 0.  0.
        1    1    3    3  502    0  0.10417933330E+04 -0.11056210005E+04 -0.34647942777E+03  0.15581332226E+04  0.50400001928E-02 0. -1.
       -1    1    3    3    0  502 -0.10417933330E+04  0.11056210005E+04  0.17716824517E+04  0.23337930189E+04  0.50400001928E-02 0.  1.
</event>
<event>
 5   0  0.3202875E-08  0.3607160E+04  0.7818609E-02  0.8088853E-01
       -1   -1    0    0    0  501  0.00000000000E+00  0.00000000000E+00  0.16682489142E+04  0.16682489142E+04  0.50400001928E-02 0.  1.
        1   -1    0    0  501    0  0.00000000000E+00  0.00000000000E+00 -0.19498898028E+04  0.19498898028E+04  0.50400001928E-02 0. -1.
    10030    2    1    2    0    0  0.00000000000E+00  0.00000000000E+00 -0.28164088860E+03  0.36181387170E+04  0.36071604047E+04 0.  0.
        1    1    3    3  502    0  0.14409738493E+04 -0.47029644376E+03 -0.11211984270E+04  0.18853833276E+04  0.50400001928E-02 0. -1.
       -1    1    3    3    0  502 -0.14409738493E+04  0.47029644376E+03  0.83955753837E+03  0.17327553894E+04  0.50400001928E-02 0.  1.
</event>
<event>
 5   0  0.1044678E-07  0.3594111E+04  0.7818609E-02  0.8091842E-01
       -2   -1    0    0    0  501  0.00000000000E+00  0.00000000000E+00  0.14012854638E+04  0.14012854638E+04  0.25500000920E-02 0. -1.
        2   -1    0    0  501    0  0.00000000000E+00  0.00000000000E+00 -0.23046047453E+04  0.23046047453E+04  0.25500000920E-02 0.  1.
    10030    2    1    2    0    0  0.00000000000E+00  0.00000000000E+00 -0.90331928149E+03  0.37058902092E+04  0.35941113670E+04 0.  0.
        2    1    3    3  502    0 -0.14241904077E+04 -0.10246933275E+04 -0.85245732029E+03  0.19506404629E+04  0.25500000920E-02 0.  1.
       -2    1    3    3    0  502  0.14241904077E+04  0.10246933275E+04 -0.50861961199E+02  0.17552497463E+04  0.25500000920E-02 0. -1.
</event>
<event>
 5   0  0.9905335E-08  0.3584132E+04  0.7818609E-02  0.8094136E-01
        2   -1    0    0  501    0  0.00000000000E+00  0.00000000000E+00  0.24089621632E+04  0.24089621632E+04  0.25500000920E-02 0.  1.
       -2   -1    0    0    0  501  0.00000000000E+00  0.00000000000E+00 -0.13331470990E+04  0.13331470990E+04  0.25500000920E-02 0. -1.
    10030    2    1    2    0    0  0.00000000000E+00  0.00000000000E+00  0.10758150642E+04  0.37421092622E+04  0.35841322071E+04 0.  0.
        5    1    3    3  502    0  0.46385173525E+03 -0.15332917889E+03 -0.12622729985E+04  0.13535226198E+04  0.46999998093E+01 0. -1.
       -5    1    3    3    0  502 -0.46385173525E+03  0.15332917889E+03  0.23380880628E+04  0.23885866425E+04  0.46999998093E+01 0.  1.
</event>
<event>
 5   0  0.3202875E-08  0.3595100E+04  0.7818609E-02  0.8091615E-01
       -1   -1    0    0    0  501  0.00000000000E+00  0.00000000000E+00  0.15368410538E+04  0.15368410538E+04  0.50400001928E-02 0. -1.
        1   -1    0    0  501    0  0.00000000000E+00  0.00000000000E+00 -0.21024856489E+04  0.21024856489E+04  0.50400001928E-02 0.  1.
    10030    2    1    2    0    0  0.00000000000E+00  0.00000000000E+00 -0.56564459508E+03  0.36393267027E+04  0.35951001434E+04 0.  0.
        2    1    3    3  502    0  0.10121351481E+04 -0.45791987276E+03 -0.17133872314E+04  0.20420097876E+04  0.25500000920E-02 0.  1.
       -2    1    3    3    0  502 -0.10121351481E+04  0.45791987276E+03  0.11477426363E+04  0.15973169151E+04  0.25500000920E-02 0. -1.
</event>
<event>
 5   0  0.1044678E-07  0.3601645E+04  0.7818609E-02  0.8090115E-01
       -2   -1    0    0    0  501  0.00000000000E+00  0.00000000000E+00  0.15992513862E+04  0.15992513862E+04  0.25500000920E-02 0.  1.
        2   -1    0    0  501    0  0.00000000000E+00  0.00000000000E+00 -0.20277996103E+04  0.20277996103E+04  0.25500000920E-02 0. -1.
    10030    2    1    2    0    0  0.00000000000E+00  0.00000000000E+00 -0.42854822418E+03  0.36270509965E+04  0.36016448119E+04 0.  0.
        2    1    3    3  502    0  0.35765401190E+02 -0.10479435288E+04 -0.16886702121E+04  0.19877303360E+04  0.25500000920E-02 0. -1.
       -2    1    3    3    0  502 -0.35765401190E+02  0.10479435288E+04  0.12601219879E+04  0.16393206605E+04  0.25500000920E-02 0.  1.
</event>
<event>
 5   0  0.1021087E-07  0.3607592E+04  0.7818609E-02  0.8088755E-01
       -2   -1    0    0    0  501  0.00000000000E+00  0.00000000000E+00  0.11671901117E+04  0.11671901117E+04  0.25500000920E-02 0.  1.
        2   -1    0    0  501    0  0.00000000000E+00  0.00000000000E+00 -0.27876171725E+04  0.27876171725E+04  0.25500000920E-02 0. -1.
    10030    2    1    2    0    0  0.00000000000E+00  0.00000000000E+00 -0.16204270608E+04  0.39548072842E+04  0.36075915506E+04 0.  0.
        3    1    3    3  502    0  0.11850036204E+04  0.44385384094E+03 -0.22194073571E+04  0.25548011350E+04  0.10100000352E+00 0. -1.
       -3    1    3    3    0  502 -0.11850036204E+04 -0.44385384094E+03  0.59898029626E+03  0.14000061493E+04  0.10100000352E+00 0.  1.
</event>
<event>
 5   0  0.3202875E-08  0.3592561E+04  0.7818609E-02  0.8092198E-01
       -3   -1    0    0    0  501  0.00000000000E+00  0.00000000000E+00  0.15358617462E+04  0.15358617495E+04  0.10100000352E+00 0. -1.
        3   -1    0    0  501    0  0.00000000000E+00  0.00000000000E+00 -0.21008558055E+04  0.21008558079E+04  0.10100000352E+00 0.  1.
    10030    2    1    2    0    0  0.00000000000E+00  0.00000000000E+00 -0.56499405928E+03  0.36367175574E+04  0.35925612459E+04 0.  0.
        5    1    3    3  502    0 -0.16255265809E+04  0.27285281513E+02  0.49077726970E+03  0.16982242402E+04  0.46999998093E+01 0. -1.
       -5    1    3    3    0  502  0.16255265809E+04 -0.27285281513E+02 -0.10557713290E+04  0.19384933172E+04  0.46999998093E+01 0.  1.
</event>
<event>
 5   0  0.3279988E-08  0.3600070E+04  0.7818609E-02  0.8090476E-01
        1   -1    0    0  501    0  0.00000000000E+00  0.00000000000E+00  0.18715848007E+04  0.18715848007E+04  0.50400001928E-02 0. -1.
       -1   -1    0    0    0  501  0.00000000000E+00  0.00000000000E+00 -0.17312207612E+04  0.17312207612E+04  0.50400001928E-02 0.  1.
    10030    2    1    2    0    0  0.00000000000E+00  0.00000000000E+00  0.14036403950E+03  0.36028055619E+04  0.36000702568E+04 0.  0.
        5    1    3    3  502    0  0.12243503427E+04  0.19673256342E+03 -0.12355571514E+04  0.17505316414E+04  0.46999998093E+01 0.  1.
       -5    1    3    3    0  502 -0.12243503427E+04 -0.19673256342E+03  0.13759211909E+04  0.18522739205E+04  0.46999998093E+01 0. -1.
</event>
<event>
 5   0  0.1017794E-07  0.3536510E+04  0.7818609E-02  0.8105192E-01
        2   -1    0    0  501    0  0.00000000000E+00  0.00000000000E+00  0.13517655998E+04  0.13517655998E+04  0.25500000920E-02 0. -1.
       -2   -1    0    0    0  501  0.00000000000E+00  0.00000000000E+00 -0.23130686373E+04  0.23130686373E+04  0.25500000920E-02 0.  1.
    10030    2    1    2    0    0  0.00000000000E+00  0.00000000000E+00 -0.96130303754E+03  0.36648342371E+04  0.35365104913E+04 0.  0.
        1    1    3    3  502    0 -0.98594946233E+03  0.14457168343E+04 -0.74390290762E+03  0.19014691802E+04  0.50400001928E-02 0. -1.
       -1    1    3    3    0  502  0.98594946233E+03 -0.14457168343E+04 -0.21740012993E+03  0.17633650569E+04  0.50400001928E-02 0.  1.
</event>
<event>
 5   0  0.3215494E-08  0.3604420E+04  0.7818609E-02  0.8089480E-01
       -1   -1    0    0    0  501  0.00000000000E+00  0.00000000000E+00  0.12370759627E+04  0.12370759627E+04  0.50400001928E-02 0.  1.
        1   -1    0    0  501    0  0.00000000000E+00  0.00000000000E+00 -0.26255146163E+04  0.26255146163E+04  0.50400001928E-02 0. -1.
    10030    2    1    2    0    0  0.00000000000E+00  0.00000000000E+00 -0.13884386536E+04  0.38625905790E+04  0.36044200763E+04 0.  0.
        4    1    3    3  502    0  0.10925337889E+04  0.14316460976E+04 -0.62060571382E+03  0.19048342956E+04  0.12699999809E+01 0. -1.
       -4    1    3    3    0  502 -0.10925337889E+04 -0.14316460976E+04 -0.76783293973E+03  0.19577562834E+04  0.12699999809E+01 0.  1.
</event>
<event>
 5   0  0.3202875E-08  0.3599414E+04  0.7818609E-02  0.8090626E-01
        1   -1    0    0  501    0  0.00000000000E+00  0.00000000000E+00  0.14385279518E+04  0.14385279518E+04  0.50400001928E-02 0.  1.
       -1   -1    0    0    0  501  0.00000000000E+00  0.00000000000E+00 -0.22515696980E+04  0.22515696980E+04  0.50400001928E-02 0. -1.
    10030    2    1    2    0    0  0.00000000000E+00  0.00000000000E+00 -0.81304174625E+03  0.36900976498E+04  0.35994143668E+04 0.  0.
        2    1    3    3  502    0  0.14705992066E+04 -0.10935059914E+03 -0.14641744038E+04  0.20780823528E+04  0.25500000920E-02 0. -1.
       -2    1    3    3    0  502 -0.14705992066E+04  0.10935059914E+03  0.65113265758E+03  0.16120152970E+04  0.25500000920E-02 0.  1.
</event>
<event>
 5   0  0.1029908E-07  0.3603696E+04  0.7818609E-02  0.8089646E-01
       -2   -1    0    0    0  501  0.00000000000E+00  0.00000000000E+00  0.10874482433E+04  0.10874482433E+04  0.25500000920E-02 0. -1.
        2   -1    0    0  501    0  0.00000000000E+00  0.00000000000E+00 -0.29855733567E+04  0.29855733567E+04  0.25500000920E-02 0.  1.
    10030    2    1    2    0    0  0.00000000000E+00  0.00000000000E+00 -0.18981251134E+04  0.40730216000E+04  0.36036961592E+04 0.  0.
        4    1    3    3  502    0 -0.50989615558E+03 -0.17260836338E+04 -0.10456039589E+04  0.20815013937E+04  0.12699999809E+01 0. -1.
       -4    1    3    3    0  502  0.50989615558E+03  0.17260836338E+04 -0.85252115452E+03  0.19915202063E+04  0.12699999809E+01 0.  1.
</event>
<event>
 5   0  0.1044678E-07  0.3601673E+04  0.7818609E-02  0.8090108E-01
        2   -1    0    0  501    0  0.00000000000E+00  0.00000000000E+00  0.12517665978E+04  0.12517665978E+04  0.25500000920E-02 0.  1.
       -2   -1    0    0    0  501  0.00000000000E+00  0.00000000000E+00 -0.25907488597E+04  0.25907488597E+04  0.25500000920E-02 0. -1.
    10030    2    1    2    0    0  0.00000000000E+00  0.00000000000E+00 -0.13389822619E+04  0.38425154575E+04  0.36016734365E+04 0.  0.
        2    1    3    3  502    0  0.24754410503E+03 -0.11644059029E+04 -0.21111052760E+04  0.24236098442E+04  0.25500000920E-02 0. -1.
       -2    1    3    3    0  502 -0.24754410503E+03  0.11644059029E+04  0.77212301407E+03  0.14189056133E+04  0.25500000920E-02 0.  1.
</event>
<event>
 5   0  0.9905335E-08  0.3597686E+04  0.7818609E-02  0.8091022E-01
       -2   -1    0    0    0  501  0.00000000000E+00  0.00000000000E+00  0.19899218666E+04  0.19899218666E+04  0.25500000920E-02 0.  1.
        2   -1    0    0  501    0  0.00000000000E+00  0.00000000000E+00 -0.16261124592E+04  0.16261124592E+04  0.25500000920E-02 0. -1.
    10030    2    1    2    0    0  0.00000000000E+00  0.00000000000E+00  0.36380940733E+03  0.36160343258E+04  0.35976863344E+04 0.  0.
        5    1    3    3  502    0 -0.15032933532E+04 -0.96032516772E+03  0.41481764906E+03  0.18314505468E+04  0.46999998093E+01 0. -1.
       -5    1    3    3    0  502  0.15032933532E+04  0.96032516772E+03 -0.51008241729E+02  0.17845837790E+04  0.46999998093E+01 0.  1.
</event>
<event>
 5   0  0.3202875E-08  0.3550963E+04  0.7818609E-02  0.8101817E-01
       -1   -1    0    0    0  501  0.00000000000E+00  0.00000000000E+00  0.16492913252E+04  0.16492913252E+04  0.50400001928E-02 0. -1.
        1   -1    0    0  501    0  0.00000000000E+00  0.00000000000E+00 -0.19113270261E+04  0.19113270261E+04  0.50400001928E-02 0.  1.
    10030    2    1    2    0    0  0.00000000000E+00  0.00000000000E+00 -0.26203570091E+03  0.35606183514E+04  0.35509632968E+04 0.  0.
        2    1    3    3  502    0 -0.88934139235E+03 -0.91363300848E+03 -0.13699670289E+04  0.18714868545E+04  0.25500000920E-02 0.  1.
       -2    1    3    3    0  502  0.88934139235E+03  0.91363300848E+03  0.11079313279E+04  0.16891314969E+04  0.25500000920E-02 0. -1.
</event>
<event>
 5   0  0.1029908E-07  0.3600233E+04  0.7818609E-02  0.8090438E-01
       -2   -1    0    0    0  501  0.00000000000E+00  0.00000000000E+00  0.12596544864E+04  0.12596544864E+04  0.25500000920E-02 0. -1.
        2   -1    0    0  501    0  0.00000000000E+00  0.00000000000E+00 -0.25724662738E+04  0.25724662738E+04  0.25500000920E-02 0.  1.
    10030    2    1    2    0    0  0.00000000000E+00  0.00000000000E+00 -0.13128117874E+04  0.38321207601E+04  0.36002325940E+04 0.  0.
        4    1    3    3  502    0 -0.27730709729E+03 -0.10141455285E+04  0.89888017302E+03  0.13832489138E+04  0.12699999809E+01 0. -1.
       -4    1    3    3    0  502  0.27730709729E+03  0.10141455285E+04 -0.22116919604E+04  0.24488718464E+04  0.12699999809E+01 0.  1.
</event>
<event>
 5   0  0.1021087E-07  0.3602758E+04  0.7818609E-02  0.8089860E-01
       -2   -1    0    0    0  501  0.00000000000E+00  0.00000000000E+00  0.21001954275E+04  0.21001954275E+04  0.25500000920E-02 0. -1.
        2   -1    0    0  501    0  0.00000000000E+00  0.00000000000E+00 -0.15450779234E+04  0.15450779234E+04  0.25500000920E-02 0.  1.
    10030    2    1    2    0    0  0.00000000000E+00  0.00000000000E+00  0.55511750409E+03  0.36452733509E+04  0.36027576048E+04 0.  0.
        3    1    3    3  502    0  0.14764038581E+04 -0.31650941358E+03  0.12715052166E+04  0.19739990089E+04  0.10100000352E+00 0. -1.
       -3    1    3    3    0  502 -0.14764038581E+04  0.31650941358E+03 -0.71638771255E+03  0.16712743419E+04  0.10100000352E+00 0.  1.
</event>
<event>
 5   0  0.3279988E-08  0.3601714E+04  0.7818609E-02  0.8090099E-01
       -1   -1    0    0    0  501  0.00000000000E+00  0.00000000000E+00  0.22018224334E+04  0.22018224334E+04  0.50400001928E-02 0.  1.
        1   -1    0    0  501    0  0.00000000000E+00  0.00000000000E+00 -0.14729101170E+04  0.14729101170E+04  0.50400001928E-02 0. -1.
    10030    2    1    2    0    0  0.00000000000E+00  0.00000000000E+00  0.72891231641E+03  0.36747325504E+04  0.36017143351E+04 0.  0.
        5    1    3    3  502    0  0.45892872077E+02  0.21868938701E+03 -0.14587047179E+04  0.14757278704E+04  0.46999998093E+01 0. -1.
       -5    1    3    3    0  502 -0.45892872077E+02 -0.21868938701E+03  0.21876170343E+04  0.21990046799E+04  0.46999998093E+01 0.  1.
</event>
<event>
 5   0  0.1021087E-07  0.3597956E+04  0.7818609E-02  0.8090960E-01
        2   -1    0    0  501    0  0.00000000000E+00  0.00000000000E+00  0.24147417709E+04  0.24147417709E+04  0.25500000920E-02 0. -1.
       -2   -1    0    0    0  501  0.00000000000E+00  0.00000000000E+00 -0.13402349149E+04  0.13402349149E+04  0.25500000920E-02 0.  1.
    10030    2    1    2    0    0  0.00000000000E+00  0.00000000000E+00  0.10745068560E+04  0.37549766859E+04  0.35979556595E+04 0.  0.
        3    1    3    3  502    0 -0.18917549201E+03  0.11966221672E+04 -0.85068384489E+03  0.14803225973E+04  0.10100000352E+00 0.  1.
       -3    1    3    3    0  502  0.18917549201E+03 -0.11966221672E+04  0.19251907009E+04  0.22746540886E+04  0.10100000352E+00 0. -1.
</event>
<event>
 5   0  0.3202875E-08  0.3597225E+04  0.7818609E-02  0.8091128E-01
        1   -1    0    0  501    0  0.00000000000E+00  0.00000000000E+00  0.17042621217E+04  0.17042621217E+04  0.50400001928E-02 0.  1.
       -1   -1    0    0    0  501  0.00000000000E+00  0.00000000000E+00 -0.18981862472E+04  0.18981862472E+04  0.50400001928E-02 0. -1.
    10030    2    1    2    0    0  0.00000000000E+00  0.00000000000E+00 -0.19392412550E+03  0.36024483689E+04  0.35972249977E+04 0.  0.
        2    1    3    3  502    0 -0.14824435500E+04  0.67099319914E+03 -0.86432280953E+03  0.18425321358E+04  0.25500000920E-02 0. -1.
       -2    1    3    3    0  502  0.14824435500E+04 -0.67099319914E+03  0.67039868404E+03  0.17599162332E+04  0.25500000920E-02 0.  1.
</event>
<event>
 5   0  0.3202875E-08  0.3603929E+04  0.7818609E-02  0.8089592E-01
       -1   -1    0    0    0  501  0.00000000000E+00  0.00000000000E+00  0.26527248218E+04  0.26527248218E+04  0.50400001928E-02 0.  1.
        1   -1    0    0  501    0  0.00000000000E+00  0.00000000000E+00 -0.12240529484E+04  0.12240529484E+04  0.50400001928E-02 0. -1.
    10030    2    1    2    0    0  0.00000000000E+00  0.00000000000E+00  0.14286718735E+04  0.38767777702E+04  0.36039287670E+04 0.  0.
        1    1    3    3  502    0 -0.24554180291E+03 -0.53424398970E+03 -0.11179621711E+04  0.12631495690E+04  0.50400001928E-02 0. -1.
       -1    1    3    3    0  502  0.24554180291E+03  0.53424398970E+03  0.25466340446E+04  0.26136282013E+04  0.50400001928E-02 0.  1.
</event>
<event>
 5   0  0.1029908E-07  0.3572364E+04  0.7818609E-02  0.8096852E-01
       -2   -1    0    0    0  501  0.00000000000E+00  0.00000000000E+00  0.22256100843E+04  0.22256100843E+04  0.25500000920E-02 0.  1.
        2   -1    0    0  501    0  0.00000000000E+00  0.00000000000E+00 -0.14335150829E+04  0.14335150829E+04  0.25500000920E-02 0. -1.
    10030    2    1    2    0    0  0.00000000000E+00  0.00000000000E+00  0.79209500140E+03  0.36591251672E+04  0.35723637130E+04 0.  0.
        4    1    3    3  502    0  0.12436069276E+04  0.12623057413E+04  0.62615904470E+03  0.18793750922E+04  0.12699999809E+01 0.  1.
       -4    1    3    3    0  502 -0.12436069276E+04 -0.12623057413E+04  0.16593595669E+03  0.17797500750E+04  0.12699999809E+01 0. -1.
</event>
<event>
 5   0  0.1029908E-07  0.3612465E+04  0.7818609E-02  0.8087642E-01
       -2   -1    0    0    0  501  0.00000000000E+00  0.00000000000E+00  0.15325754145E+04  0.15325754145E+04  0.25500000920E-02 0. -1.
        2   -1    0    0  501    0  0.00000000000E+00  0.00000000000E+00 -0.21287542735E+04  0.21287542735E+04  0.25500000920E-02 0.  1.
    10030    2    1    2    0    0  0.00000000000E+00  0.00000000000E+00 -0.59617885902E+03  0.36613296880E+04  0.36124653427E+04 0.  0.
        4    1    3    3  502    0 -0.90856005561E+03  0.14497005940E+04  0.28884806714E+03  0.17350930827E+04  0.12699999809E+01 0. -1.
       -4    1    3    3    0  502  0.90856005561E+03 -0.14497005940E+04 -0.88502692616E+03  0.19262366053E+04  0.12699999809E+01 0.  1.
</event>
<event>
 5   0  0.1029908E-07  0.3596927E+04  0.7818609E-02  0.8091196E-01
        2   -1    0    0  501    0  0.00000000000E+00  0.00000000000E+00  0.27175677986E+04  0.27175677986E+04  0.25500000920E-02 0. -1.
       -2   -1    0    0    0  501  0.00000000000E+00  0.00000000000E+00 -0.11902083252E+04  0.11902083252E+04  0.25500000920E-02 0.  1.
    10030    2    1    2    0    0  0.00000000000E+00  0.00000000000E+00  0.15273594734E+04  0.39077761238E+04  0.35969274767E+04 0.  0.
        4    1    3    3  502    0  0.69917779340E+03  0.11613851936E+04 -0.52032283025E+03  0.14520339580E+04  0.12699999809E+01 0.  1.
       -4    1    3    3    0  502 -0.69917779340E+03 -0.11613851936E+04  0.20476823037E+04  0.24557421657E+04  0.12699999809E+01 0. -1.
</event>
<event>
 5   0  0.3212523E-08  0.3599516E+04  0.7818609E-02  0.8090602E-01
       -1   -1    0    0    0  501  0.00000000000E+00  0.00000000000E+00  0.17926497882E+04  0.17926497882E+04  0.50400001928E-02 0. -1.
        1   -1    0    0  501    0  0.00000000000E+00  0.00000000000E+00 -0.18068948624E+04  0.18068948624E+04  0.50400001928E-02 0.  1.
    10030    2    1    2    0    0  0.00000000000E+00  0.00000000000E+00 -0.14245074233E+02  0.35995446506E+04  0.35995164633E+04 0.  0.
        3    1    3    3  502    0  0.32834809044E+03 -0.15764453632E+04  0.79671037482E+03  0.17965911842E+04  0.10100000352E+00 0. -1.
       -3    1    3    3    0  502 -0.32834809044E+03  0.15764453632E+04 -0.81095544905E+03  0.18029534664E+04  0.10100000352E+00 0.  1.
</event>
<event>
 5   0  0.1021087E-07  0.3596756E+04  0.7818609E-02  0.8091235E-01
       -2   -1    0    0    0  501  0.00000000000E+00  0.00000000000E+00  0.16014192123E+04  0.16014192123E+04  0.25500000920E-02 0.  1.
        2   -1    0    0  501    0  0.00000000000E+00  0.00000000000E+00 -0.20195604919E+04  0.20195604919E+04  0.25500000920E-02 0. -1.
    10030    2    1    2    0    0  0.00000000000E+00  0.00000000000E+00 -0.41814127961E+03  0.36209797043E+04  0.35967557450E+04 0.  0.
        3    1    3    3  502    0 -0.30050376572E+03  0.12662556252E+04  0.10404399882E+04  0.16661996281E+04  0.10100000352E+00 0.  1.
       -3    1    3    3    0  502  0.30050376572E+03 -0.12662556252E+04 -0.14585812678E+04  0.19547800762E+04  0.10100000352E+00 0. -1.
</event>
<event>
 5   0  0.1017794E-07  0.3584898E+04  0.7818609E-02  0.8093960E-01
        2   -1    0    0  501    0  0.00000000000E+00  0.00000000000E+00  0.11868517357E+04  0.11868517357E+04  0.25500000920E-02 0. -1.
       -2   -1    0    0    0  501  0.00000000000E+00  0.00000000000E+00 -0.27070548967E+04  0.27070548967E+04  0.25500000920E-02 0.  1.
    10030    2    1    2    0    0  0.00000000000E+00  0.00000000000E+00 -0.15202031610E+04  0.38939066325E+04  0.35848976571E+04 0.  0.
        1    1    3    3  502    0 -0.90733547412E+03  0.24487826830E+03 -0.24179853901E+04  0.25942005273E+04  0.50400001928E-02 0.  1.
       -1    1    3    3    0  502  0.90733547412E+03 -0.24487826830E+03  0.89778222912E+03  0.12997061052E+04  0.50400001928E-02 0. -1.
</event>
<event>
 5   0  0.3202875E-08  0.3614756E+04  0.7818609E-02  0.8087120E-01
       -1   -1    0    0    0  501  0.00000000000E+00  0.00000000000E+00  0.17723871016E+04  0.17723871016E+04  0.50400001928E-02 0.  1.
        1   -1    0    0  501    0  0.00000000000E+00  0.00000000000E+00 -0.18430598137E+04  0.18430598137E+04  0.50400001928E-02 0. -1.
    10030    2    1    2    0    0  0.00000000000E+00  0.00000000000E+00 -0.70672712109E+02  0.36154469153E+04  0.36147561142E+04 0.  0.
        2    1    3    3  502    0 -0.14225361834E+04 -0.31486860463E+03 -0.11050565297E+04  0.18286337428E+04  0.25500000920E-02 0. -1.
       -2    1    3    3    0  502  0.14225361834E+04  0.31486860463E+03  0.10343838176E+04  0.17868131725E+04  0.25500000920E-02 0.  1.
</event>
<event>
 5   0  0.3202875E-08  0.3603858E+04  0.7818609E-02  0.8089609E-01
        1   -1    0    0  501    0  0.00000000000E+00  0.00000000000E+00  0.17532750690E+04  0.17532750690E+04  0.50400001928E-02 0.  1.
       -1   -1    0    0    0  501  0.00000000000E+00  0.00000000000E+00 -0.18519332558E+04  0.18519332558E+04  0.50400001928E-02 0. -1.
    10030    2    1    2    0    0  0.00000000000E+00  0.00000000000E+00 -0.98658186822E+02  0.36052083248E+04  0.36038581586E+04 0.  0.
        1    1    3    3  502    0 -0.72244753953E+03  0.34654044639E+03  0.15652544097E+04  0.17584203409E+04  0.50400001928E-02 0.  1.
       -1    1    3    3    0  502  0.72244753953E+03 -0.34654044639E+03 -0.16639125965E+04  0.18467879838E+04  0.50400001928E-02 0. -1.
</event>
<event>
 5   0  0.3202875E-08  0.3597704E+04  0.7818609E-02  0.8091018E-01
        1   -1    0    0  501    0  0.00000000000E+00  0.00000000000E+00  0.22365297076E+04  0.22365297076E+04  0.50400001928E-02 0. -1.
       -1   -1    0    0    0  501  0.00000000000E+00  0.00000000000E+00 -0.14468256242E+04  0.14468256243E+04  0.50400001928E-02 0.  1.
    10030    2    1    2    0    0  0.00000000000E+00  0.00000000000E+00  0.78970408337E+03  0.36833553319E+04  0.35977039847E+04 0.  0.
        2    1    3    3  502    0 -0.29675965773E+03 -0.92341485236E+03 -0.11561761019E+04  0.15091403058E+04  0.25500000920E-02 0.  1.
       -2    1    3    3    0  502  0.29675965773E+03  0.92341485236E+03  0.19458801853E+04  0.21742150261E+04  0.25500000920E-02 0. -1.
</event>
<event>
 5   0  0.1021087E-07  0.3636059E+04  0.7818609E-02  0.8082282E-01
       -2   -1    0    0    0  501  0.00000000000E+00  0.00000000000E+00  0.11274288807E+04  0.11274288808E+04  0.25500000920E-02 0.  1.
        2   -1    0    0  501    0  0.00000000000E+00  0.00000000000E+00 -0.29316532730E+04  0.29316532730E+04  0.25500000920E-02 0. -1.
    10030    2    1    2    0    0  0.00000000000E+00  0.00000000000E+00 -0.18042243923E+04  0.40590821538E+04  0.36360586180E+04 0.  0.
        3    1    3    3  502    0 -0.18000692936E+04  0.30107889730E+02 -0.61953314936E+03  0.19039373099E+04  0.10100000352E+00 0.  1.
       -3    1    3    3    0  502  0.18000692936E+04 -0.30107889730E+02 -0.11846912429E+04  0.21551448439E+04  0.10100000352E+00 0. -1.
</event>
<event>
 5   0  0.3202875E-08  0.3619760E+04  0.7818609E-02  0.8085980E-01
       -1   -1    0    0    0  501  0.00000000000E+00  0.00000000000E+00  0.22946092782E+04  0.22946092782E+04  0.50400001928E-02 0.  1.
        1   -1    0    0  501    0  0.00000000000E+00  0.00000000000E+00 -0.14275484437E+04  0.14275484437E+04  0.50400001928E-02 0. -1.
    10030    2    1    2    0    0  0.00000000000E+00  0.00000000000E+00  0.86706083454E+03  0.37221577220E+04  0.36197601601E+04 0.  0.
        2    1    3    3  502    0  0.12555903818E+04  0.63317820293E+03 -0.73810677197E+03  0.15881509533E+04  0.25500000920E-02 0. -1.
       -2    1    3    3    0  502 -0.12555903818E+04 -0.63317820293E+03  0.16051676065E+04  0.21340067686E+04  0.25500000920E-02 0.  1.
</event>
<event>
 5   0  0.1029908E-07  0.3599475E+04  0.7818609E-02  0.8090612E-01
        2   -1    0    0  501    0  0.00000000000E+00  0.00000000000E+00  0.24627793956E+04  0.24627793956E+04  0.25500000920E-02 0. -1.
       -2   -1    0    0    0  501  0.00000000000E+00  0.00000000000E+00 -0.13152030719E+04  0.13152030719E+04  0.25500000920E-02 0.  1.
    10030    2    1    2    0    0  0.00000000000E+00  0.00000000000E+00  0.11475763237E+04  0.37779824675E+04  0.35994749765E+04 0.  0.
        4    1    3    3  502    0 -0.13020924269E+04 -0.12287753654E+04  0.76652443063E+03  0.19475355972E+04  0.12699999809E+01 0. -1.
       -4    1    3    3    0  502  0.13020924269E+04  0.12287753654E+04  0.38105189306E+03  0.18304468703E+04  0.12699999809E+01 0.  1.
</event>
<event>
 5   0  0.3212523E-08  0.3598957E+04  0.7818609E-02  0.8090731E-01
        1   -1    0    0  501    0  0.00000000000E+00  0.00000000000E+00  0.24402484491E+04  0.24402484491E+04  0.50400001928E-02 0. -1.
       -1   -1    0    0    0  501  0.00000000000E+00  0.00000000000E+00 -0.13269646003E+04  0.13269646004E+04  0.50400001928E-02 0.  1.
    10030    2    1    2    0    0  0.00000000000E+00  0.00000000000E+00  0.11132838487E+04  0.37672130494E+04  0.35989572423E+04 0.  0.
        3    1    3    3  502    0  0.16679358690E+04 -0.66074056375E+03  0.70294443559E+03  0.19268417282E+04  0.10100000352E+00 0.  1.
       -3    1    3    3    0  502 -0.16679358690E+04  0.66074056375E+03  0.41033941311E+03  0.18403713212E+04  0.10100000352E+00 0. -1.
</event>
<event>
 5   0  0.3202875E-08  0.3600051E+04  0.7818609E-02  0.8090480E-01
       -1   -1    0    0    0  501  0.00000000000E+00  0.00000000000E+00  0.12823679789E+04  0.12823679789E+04  0.50400001928E-02 0.  1.
        1   -1    0    0  501    0  0.00000000000E+00  0.00000000000E+00 -0.25266475048E+04  0.25266475048E+04  0.50400001928E-02 0. -1.
    10030    2    1    2    0    0  0.00000000000E+00  0.00000000000E+00 -0.12442795259E+04  0.38090154837E+04  0.36000510297E+04 0.  0.
        1    1    3    3  502    0  0.37667690676E+03  0.10328007752E+04 -0.21301892245E+04  0.23971376818E+04  0.50400001928E-02 0. -1.
       -1    1    3    3    0  502 -0.37667690676E+03 -0.10328007752E+04  0.88590969859E+03  0.14118778019E+04  0.50400001928E-02 0.  1.
</event>
<event>
 5   0  0.1029908E-07  0.3602497E+04  0.7818609E-02  0.8089920E-01
       -2   -1    0    0    0  501  0.00000000000E+00  0.00000000000E+00  0.18984331110E+04  0.18984331110E+04  0.25500000920E-02 0.  1.
        2   -1    0    0  501    0  0.00000000000E+00  0.00000000000E+00 -0.17090392718E+04  0.17090392718E+04  0.25500000920E-02 0. -1.
    10030    2    1    2    0    0  0.00000000000E+00  0.00000000000E+00  0.18939383916E+03  0.36074723829E+04  0.36024973236E+04 0.  0.
        4    1    3    3  502    0  0.13283249679E+04 -0.91035174439E+03  0.90284775176E+03  0.18461644549E+04  0.12699999809E+01 0.  1.
       -4    1    3    3    0  502 -0.13283249679E+04  0.91035174439E+03 -0.71345391261E+03  0.17613079280E+04  0.12699999809E+01 0. -1.
</event>
<event>
 5   0  0.9905335E-08  0.3588130E+04  0.7818609E-02  0.8093216E-01
       -2   -1    0    0    0  501  0.00000000000E+00  0.00000000000E+00  0.16254737586E+04  0.16254737586E+04  0.25500000920E-02 0. -1.
        2   -1    0    0  501    0  0.00000000000E+00  0.00000000000E+00 -0.19801422807E+04  0.19801422807E+04  0.25500000920E-02 0.  1.
    10030    2    1    2    0    0  0.00000000000E+00  0.00000000000E+00 -0.35466852214E+03  0.36056160393E+04  0.35881300509E+04 0.  0.
        5    1    3    3  502    0 -0.17671676723E+04  0.30823811011E+03 -0.20494380415E+03  0.18055238484E+04  0.46999998093E+01 0. -1.
       -5    1    3    3    0  502  0.17671676723E+04 -0.30823811011E+03 -0.14972471800E+03  0.18000921909E+04  0.46999998093E+01 0.  1.
</event>
<event>
 5   0  0.3202875E-08  0.3606039E+04  0.7818609E-02  0.8089110E-01
        1   -1    0    0  501    0  0.00000000000E+00  0.00000000000E+00  0.15937962093E+04  0.15937962093E+04  0.50400001928E-02 0. -1.
       -1   -1    0    0    0  501  0.00000000000E+00  0.00000000000E+00 -0.20397087977E+04  0.20397087977E+04  0.50400001928E-02 0.  1.
    10030    2    1    2    0    0  0.00000000000E+00  0.00000000000E+00 -0.44591258844E+03  0.36335050070E+04  0.36060394617E+04 0.  0.
        2    1    3    3  502    0  0.33258261027E+03  0.16688689842E+04  0.37752337242E+03  0.17430601756E+04  0.25500000920E-02 0. -1.
       -2    1    3    3    0  502 -0.33258261027E+03 -0.16688689842E+04 -0.82343596086E+03  0.18904448314E+04  0.25500000920E-02 0.  1.
</event>
<event>
 5   0  0.3215494E-08  0.3599663E+04  0.7818609E-02  0.8090569E-01
        1   -1    0    0  501    0  0.00000000000E+00  0.00000000000E+00  0.23604337206E+04  0.23604337206E+04  0.50400001928E-02 0.  1.
       -1   -1    0    0    0  501  0.00000000000E+00  0.00000000000E+00 -0.13723719755E+04  0.13723719755E+04  0.50400001928E-02 0. -1.
    10030    2    1    2    0    0  0.00000000000E+00  0.00000000000E+00  0.98806174505E+03  0.37328056961E+04  0.35996628110E+04 0.  0.
        4    1    3    3  502    0 -0.10382723285E+04  0.91508710815E+03  0.16872416490E+04  0.21822419294E+04  0.12699999809E+01 0.  1.
       -4    1    3    3    0  502  0.10382723285E+04 -0.91508710815E+03 -0.69917990396E+03  0.15505637667E+04  0.12699999809E+01 0. -1.
</event>
<event>
 5   0  0.3202875E-08  0.3595728E+04  0.7818609E-02  0.8091471E-01
        1   -1    0    0  501    0  0.00000000000E+00  0.00000000000E+00  0.11016650150E+04  0.11016650151E+04  0.50400001928E-02 0.  1.
       -1   -1    0    0    0  501  0.00000000000E+00  0.00000000000E+00 -0.29340270279E+04  0.29340270279E+04  0.50400001928E-02 0. -1.
    10030    2    1    2    0    0  0.00000000000E+00  0.00000000000E+00 -0.18323620128E+04  0.40356920429E+04  0.35957279818E+04 0.  0.
        1    1    3    3  502    0  0.47217897218E+03 -0.33230102952E+03 -0.28271368431E+04  0.28854947038E+04  0.50400001928E-02 0. -1.
       -1    1    3    3    0  502 -0.47217897218E+03  0.33230102952E+03  0.99477483027E+03  0.11501973391E+04  0.50400001928E-02 0.  1.
</event>
<event>
 5   0  0.3279988E-08  0.3595000E+04  0.7818609E-02  0.8091638E-01
       -1   -1    0    0    0  501  0.00000000000E+00  0.00000000000E+00  0.11896936163E+04  0.11896936163E+04  0.50400001928E-02 0.  1.
        1   -1    0    0  501    0  0.00000000000E+00  0.00000000000E+00 -0.27158302453E+04  0.27158302453E+04  0.50400001928E-02 0. -1.
    10030    2    1    2    0    0  0.00000000000E+00  0.00000000000E+00 -0.15261366290E+04  0.39055238615E+04  0.35949998085E+04 0.  0.
        5    1    3    3  502    0 -0.13619474907E+03 -0.16231340090E+04 -0.15889080914E+04  0.22754700688E+04  0.46999998093E+01 0. -1.
       -5    1    3    3    0  502  0.13619474907E+03  0.16231340090E+04  0.62771462465E+02  0.16300537928E+04  0.46999998093E+01 0.  1.
</event>
<event>
 5   0  0.3212523E-08  0.3567010E+04  0.7818609E-02  0.8098091E-01
       -1   -1    0    0    0  501  0.00000000000E+00  0.00000000000E+00  0.18921997834E+04  0.18921997834E+04  0.50400001928E-02 0. -1.
        1   -1    0    0  501    0  0.00000000000E+00  0.00000000000E+00 -0.16810538713E+04  0.16810538713E+04  0.50400001928E-02 0.  1.
    10030    2    1    2    0    0  0.00000000000E+00  0.00000000000E+00  0.21114591210E+03  0.35732536548E+04  0.35670098241E+04 0.  0.
        3    1    3    3  502    0  0.12515412353E+04 -0.12333599544E+04  0.41165242227E+03  0.18047132647E+04  0.10100000352E+00 0. -1.
       -3    1    3    3    0  502 -0.12515412353E+04  0.12333599544E+04 -0.20050651017E+03  0.17685403901E+04  0.10100000352E+00 0.  1.
</event>
<event>
 5   0  0.1017794E-07  0.3599815E+04  0.7818609E-02  0.8090534E-01
        2   -1    0    0  501    0  0.00000000000E+00  0.00000000000E+00  0.12518524280E+04  0.12518524280E+04  0.25500000920E-02 0. -1.
       -2   -1    0    0    0  501  0.00000000000E+00  0.00000000000E+00 -0.25878982853E+04  0.25878982853E+04  0.25500000920E-02 0.  1.
    10030    2    1    2    0    0  0.00000000000E+00  0.00000000000E+00 -0.13360458573E+04  0.38397507133E+04  0.35998148574E+04 0.  0.
        1    1    3    3  502    0  0.45409069429E+03  0.11679588040E+04  0.71012344277E+03  0.14403476770E+04  0.50400001928E-02 0. -1.
       -1    1    3    3    0  502 -0.45409069429E+03 -0.11679588040E+04 -0.20461693000E+04  0.23994030364E+04  0.50400001928E-02 0.  1.
</event>
<event>
 5   0  0.3279988E-08  0.3605202E+04  0.7818609E-02  0.8089301E-01
        1   -1    0    0  501    0  0.00000000000E+00  0.00000000000E+00  0.16013146145E+04  0.16013146145E+04  0.50400001928E-02 0.  1.
       -1   -1    0    0    0  501  0.00000000000E+00  0.00000000000E+00 -0.20291896929E+04  0.20291896929E+04  0.50400001928E-02 0. -1.
    10030    2    1    2    0    0  0.00000000000E+00  0.00000000000E+00 -0.42787507843E+03  0.36305043074E+04  0.36052024137E+04 0.  0.
        5    1    3    3  502    0  0.24603937698E+03  0.12920173561E+04  0.10273955752E+04  0.16689541580E+04  0.46999998093E+01 0.  1.
       -5    1    3    3    0  502 -0.24603937698E+03 -0.12920173561E+04 -0.14552706537E+04  0.19615501495E+04  0.46999998093E+01 0. -1.
</event>
<event>
 5   0  0.3202875E-08  0.3602828E+04  0.7818609E-02  0.8089844E-01
       -1   -1    0    0    0  501  0.00000000000E+00  0.00000000000E+00  0.30165031754E+04  0.30165031754E+04  0.50400001928E-02 0.  1.
        1   -1    0    0  501    0  0.00000000000E+00  0.00000000000E+00 -0.10757797562E+04  0.10757797562E+04  0.50400001928E-02 0. -1.
    10030    2    1    2    0    0  0.00000000000E+00  0.00000000000E+00  0.19407234192E+04  0.40922829317E+04  0.36028283616E+04 0.  0.
        1    1    3    3  502    0 -0.75477109875E+03  0.70867614663E+03  0.26448075467E+04  0.28402303166E+04  0.50400001928E-02 0.  1.
       -1    1    3    3    0  502  0.75477109875E+03 -0.70867614663E+03 -0.70408412749E+03  0.12520526151E+04  0.50400001928E-02 0. -1.
</event>
<event>
 5   0  0.3212523E-08  0.3601042E+04  0.7818609E-02  0.8090253E-01
       -1   -1    0    0    0  501  0.00000000000E+00  0.00000000000E+00  0.12498888342E+04  0.12498888342E+04  0.50400001928E-02 0.  1.
        1   -1    0    0  501    0  0.00000000000E+00  0.00000000000E+00 -0.25937319627E+04  0.25937319627E+04  0.50400001928E-02 0. -1.
    10030    2    1    2    0    0  0.00000000000E+00  0.00000000000E+00 -0.13438431285E+04  0.38436207969E+04  0.36010424153E+04 0.  0.
        3    1    3    3  502    0  0.85389317568E+03  0.87499470323E+02  0.10174442259E+04  0.13311583211E+04  0.10100000352E+00 0.  1.
       -3    1    3    3    0  502 -0.85389317568E+03 -0.87499470323E+02 -0.23612873543E+04  0.25124624759E+04  0.10100000352E+00 0. -1.
</event>
<event>
 5   0  0.3215494E-08  0.3598275E+04  0.7818609E-02  0.8090887E-01
        1   -1    0    0  501    0  0.00000000000E+00  0.00000000000E+00  0.23224705974E+04  0.23224705974E+04  0.50400001928E-02 0.  1.
       -1   -1    0    0    0  501  0.00000000000E+00  0.00000000000E+00 -0.13937295615E+04  0.13937295615E+04  0.50400001928E-02 0. -1.
    10030    2    1    2    0    0  0.00000000000E+00  0.00000000000E+00  0.92874103588E+03  0.37162001589E+04  0.35982751019E+04 0.  0.
        4    1    3    3  502    0  0.75663628851E+03 -0.10773119115E+04  0.17308525587E+04  0.21746152810E+04  0.12699999809E+01 0.  1.
       -4    1    3    3    0  502 -0.75663628851E+03  0.10773119115E+04 -0.80211152282E+03  0.15415848778E+04  0.12699999809E+01 0. -1.
</event>
<event>
 5   0  0.3212523E-08  0.3601048E+04  0.7818609E-02  0.8090252E-01
        1   -1    0    0  501    0  0.00000000000E+00  0.00000000000E+00  0.20537434405E+04  0.20537434405E+04  0.50400001928E-02 0. -1.
       -1   -1    0    0    0  501  0.00000000000E+00  0.00000000000E+00 -0.15785255681E+04  0.15785255681E+04  0.50400001928E-02 0.  1.
    10030    2    1    2    0    0  0.00000000000E+00  0.00000000000E+00  0.47521787243E+03  0.36322690085E+04  0.36010479203E+04 0.  0.
        3    1    3    3  502    0  0.26648001705E+03  0.23818458044E+03 -0.15423844230E+04  0.15832539948E+04  0.10100000352E+00 0.  1.
       -3    1    3    3    0  502 -0.26648001705E+03 -0.23818458044E+03  0.20176022954E+04  0.20490150137E+04  0.10100000352E+00 0. -1.
</event>
<event>
 5   0  0.1017794E-07  0.3596566E+04  0.7818609E-02  0.8091279E-01
        2   -1    0    0  501    0  0.00000000000E+00  0.00000000000E+00  0.14447148606E+04  0.14447148606E+04  0.25500000920E-02 0. -1.
       -2   -1    0    0    0  501  0.00000000000E+00  0.00000000000E+00 -0.22383802871E+04  0.22383802871E+04  0.25500000920E-02 0.  1.
    10030    2    1    2    0    0  0.00000000000E+00  0.00000000000E+00 -0.79366542654E+03  0.36830951477E+04  0.35965657310E+04 0.  0.
        1    1    3    3  502    0  0.10340299851E+04  0.12459069140E+03 -0.18980766611E+04  0.21650486973E+04  0.50400001928E-02 0.  1.
       -1    1    3    3    0  502 -0.10340299851E+04 -0.12459069140E+03  0.11044112345E+04  0.15180464504E+04  0.50400001928E-02 0. -1.
</event>
<event>
 5   0  0.9905335E-08  0.3602314E+04  0.7818609E-02  0.8089962E-01
        2   -1    0    0  501    0  0.00000000000E+00  0.00000000000E+00  0.19829105842E+04  0.19829105842E+04  0.25500000920E-02 0. -1.
       -2   -1    0    0    0  501  0.00000000000E+00  0.00000000000E+00 -0.16360632972E+04  0.16360632972E+04  0.25500000920E-02 0.  1.
    10030    2    1    2    0    0  0.00000000000E+00  0.00000000000E+00  0.34684728693E+03  0.36189738814E+04  0.36023143830E+04 0.  0.
        5    1    3    3  502    0 -0.16653197083E+04 -0.17784995095E+03  0.83922896923E+03  0.18732986117E+04  0.46999998093E+01 0.  1.
       -5    1    3    3    0  502  0.16653197083E+04  0.17784995095E+03 -0.49238168229E+03  0.17456752696E+04  0.46999998093E+01 0. -1.
</event>
<event>
 5   0  0.3212523E-08  0.3602339E+04  0.7818609E-02  0.8089956E-01
       -1   -1    0    0    0  501  0.00000000000E+00  0.00000000000E+00  0.12099164719E+04  0.12099164719E+04  0.50400001928E-02 0.  1.
        1   -1    0    0  501    0  0.00000000000E+00  0.00000000000E+00 -0.26813518868E+04  0.26813518868E+04  0.50400001928E-02 0. -1.
    10030    2    1    2    0    0  0.00000000000E+00  0.00000000000E+00 -0.14714354149E+04  0.38912683586E+04  0.36023391371E+04 0.  0.
        3    1    3    3  502    0 -0.14752902110E+03  0.28578270070E+03 -0.26500838974E+04  0.26695282800E+04  0.10100000352E+00 0. -1.
       -3    1    3    3    0  502  0.14752902110E+03 -0.28578270070E+03  0.11786484825E+04  0.12217400786E+04  0.10100000352E+00 0.  1.
</event>
<event>
 5   0  0.3202875E-08  0.3595757E+04  0.7818609E-02  0.8091464E-01
        1   -1    0    0  501    0  0.00000000000E+00  0.00000000000E+00  0.13989715270E+04  0.13989715270E+04  0.50400001928E-02 0.  1.
       -1   -1    0    0    0  501  0.00000000000E+00  0.00000000000E+00 -0.23105306323E+04  0.23105306323E+04  0.50400001928E-02 0. -1.
    10030    2    1    2    0    0  0.00000000000E+00  0.00000000000E+00 -0.91155910534E+03  0.37095021594E+04  0.35957567031E+04 0.  0.
        2    1    3    3  502    0  0.16541449359E+04  0.41969772234E+03 -0.10393821663E+04  0.19981633904E+04  0.25500000920E-02 0. -1.
       -2    1    3    3    0  502 -0.16541449359E+04 -0.41969772234E+03  0.12782306097E+03  0.17113387689E+04  0.25500000920E-02 0.  1.
</event>
<event>
 5   0  0.3215494E-08  0.3595288E+04  0.7818609E-02  0.8091572E-01
        1   -1    0    0  501    0  0.00000000000E+00  0.00000000000E+00  0.21460527513E+04  0.21460527513E+04  0.50400001928E-02 0.  1.
       -1   -1    0    0    0  501  0.00000000000E+00  0.00000000000E+00 -0.15057986942E+04  0.15057986943E+04  0.50400001928E-02 0. -1.
    10030    2    1    2    0    0  0.00000000000E+00  0.00000000000E+00  0.64025405706E+03  0.36518514456E+04  0.35952877107E+04 0.  0.
        4    1    3    3  502    0 -0.13323334521E+03  0.16644509226E+04 -0.35621203985E+03  0.17073478346E+04  0.12699999809E+01 0. -1.
       -4    1    3    3    0  502  0.13323334521E+03 -0.16644509226E+04  0.99646609691E+03  0.19445036110E+04  0.12699999809E+01 0.  1.
</event>
<event>
 5   0  0.3202875E-08  0.3595184E+04  0.7818609E-02  0.8091596E-01
       -1   -1    0    0    0  501  0.00000000000E+00  0.00000000000E+00  0.11987114496E+04  0.11987114496E+04  0.50400001928E-02 0. -1.
        1   -1    0    0  501    0  0.00000000000E+00  0.00000000000E+00 -0.26956757894E+04  0.26956757894E+04  0.50400001928E-02 0.  1.
    10030    2    1    2    0    0  0.00000000000E+00  0.00000000000E+00 -0.14969643398E+04  0.38943872390E+04  0.35951842419E+04 0.  0.
        2    1    3    3  502    0  0.19432615325E+03  0.16116358762E+04  0.87920935571E+02  0.16256884518E+04  0.25500000920E-02 0. -1.
       -2    1    3    3    0  502 -0.19432615325E+03 -0.16116358762E+04 -0.15848852754E+04  0.22686987873E+04  0.25500000920E-02 0.  1.
</event>
<event>
 5   0  0.3202875E-08  0.3600008E+04  0.7818609E-02  0.8090490E-01
       -1   -1    0    0    0  501  0.00000000000E+00  0.00000000000E+00  0.13788231821E+04  0.13788231821E+04  0.50400001928E-02 0.  1.
        1   -1    0    0  501    0  0.00000000000E+00  0.00000000000E+00 -0.23498398990E+04  0.23498398990E+04  0.50400001928E-02 0. -1.
    10030    2    1    2    0    0  0.00000000000E+00  0.00000000000E+00 -0.97101671688E+03  0.37286630810E+04  0.36000076260E+04 0.  0.
        1    1    3    3  502    0  0.12809859188E+04 -0.12623549858E+04 -0.40835673751E+03  0.18442397510E+04  0.50400001928E-02 0. -1.
       -1    1    3    3    0  502 -0.12809859188E+04  0.12623549858E+04 -0.56265997937E+03  0.18844233300E+04  0.50400001928E-02 0.  1.
</event>
<event>
 5   0  0.3279988E-08  0.3604721E+04  0.7818609E-02  0.8089411E-01
       -1   -1    0    0    0  501  0.00000000000E+00  0.00000000000E+00  0.12770663145E+04  0.12770663145E+04  0.50400001928E-02 0. -1.
        1   -1    0    0  501    0  0.00000000000E+00  0.00000000000E+00 -0.25437239958E+04  0.25437239958E+04  0.50400001928E-02 0.  1.
    10030    2    1    2    0    0  0.00000000000E+00  0.00000000000E+00 -0.12666576813E+04  0.38207903103E+04  0.36047214751E+04 0.  0.
        5    1    3    3  502    0 -0.11324212340E+04  0.13776376469E+02  0.85282511802E+03  0.14177095654E+04  0.46999998093E+01 0. -1.
       -5    1    3    3    0  502  0.11324212340E+04 -0.13776376469E+02 -0.21194827994E+04  0.24030807449E+04  0.46999998093E+01 0.  1.
</event>
<event>
 5   0  0.9905335E-08  0.3598991E+04  0.7818609E-02  0.8090723E-01
       -2   -1    0    0    0  501  0.00000000000E+00  0.00000000000E+00  0.12084799512E+04  0.12084799512E+04  0.25500000920E-02 0.  1.
        2   -1    0    0  501    0  0.00000000000E+00  0.00000000000E+00 -0.26795507462E+04  0.26795507462E+04  0.25500000920E-02 0. -1.
    10030    2    1    2    0    0  0.00000000000E+00  0.00000000000E+00 -0.14710707950E+04  0.38880306975E+04  0.35989906114E+04 0.  0.
        5    1    3    3  502    0 -0.91447376298E+03 -0.28396685909E+03  0.91039337056E+03  0.13212636449E+04  0.46999998093E+01 0.  1.
       -5    1    3    3    0  502  0.91447376298E+03  0.28396685909E+03 -0.23814641656E+04  0.25667670526E+04  0.46999998093E+01 0. -1.
</event>
<event>
 5   0  0.1029908E-07  0.3564858E+04  0.7818609E-02  0.8098589E-01
       -2   -1    0    0    0  501  0.00000000000E+00  0.00000000000E+00  0.13038353335E+04  0.13038353335E+04  0.25500000920E-02 0. -1.
        2   -1    0    0  501    0  0.00000000000E+00  0.00000000000E+00 -0.24366979996E+04  0.24366979996E+04  0.25500000920E-02 0.  1.
    10030    2    1    2    0    0  0.00000000000E+00  0.00000000000E+00 -0.11328626661E+04  0.37405333332E+04  0.35648578929E+04 0.  0.
        4    1    3    3  502    0  0.13149051335E+03 -0.15061225756E+04  0.42421125143E+03  0.15702393979E+04  0.12699999809E+01 0. -1.
       -4    1    3    3    0  502 -0.13149051335E+03  0.15061225756E+04 -0.15570739175E+04  0.21702939353E+04  0.12699999809E+01 0.  1.
</event>
<event>
 5   0  0.3279988E-08  0.3598559E+04  0.7818609E-02  0.8090822E-01
       -1   -1    0    0    0  501  0.00000000000E+00  0.00000000000E+00  0.13947496288E+04  0.13947496288E+04  0.50400001928E-02 0. -1.
        1   -1    0    0  501    0  0.00000000000E+00  0.00000000000E+00 -0.23211388438E+04  0.23211388438E+04  0.50400001928E-02 0.  1.
    10030    2    1    2    0    0  0.00000000000E+00  0.00000000000E+00 -0.92638921496E+03  0.37158884726E+04  0.35985594566E+04 0.  0.
        5    1    3    3  502    0 -0.14748897351E+04  0.77761997138E+03 -0.11615535484E+04  0.20320485443E+04  0.46999998093E+01 0.  1.
       -5    1    3    3    0  502  0.14748897351E+04 -0.77761997138E+03  0.23516433341E+03  0.16838399283E+04  0.46999998093E+01 0. -1.
</event>
<event>
 5   0  0.1021087E-07  0.3594328E+04  0.7818609E-02  0.8091792E-01
        2   -1    0    0  501    0  0.00000000000E+00  0.00000000000E+00  0.10890974106E+04  0.10890974106E+04  0.25500000920E-02 0. -1.
       -2   -1    0    0    0  501  0.00000000000E+00  0.00000000000E+00 -0.29655727451E+04  0.29655727451E+04  0.25500000920E-02 0.  1.
    10030    2    1    2    0    0  0.00000000000E+00  0.00000000000E+00 -0.18764753345E+04  0.40546701557E+04  0.35943275297E+04 0.  0.
        3    1    3    3  502    0 -0.13040692783E+04  0.68982411135E+03  0.21953398489E+03  0.14915257852E+04  0.10100000352E+00 0. -1.
       -3    1    3    3    0  502  0.13040692783E+04 -0.68982411135E+03 -0.20960093194E+04  0.25631443705E+04  0.10100000352E+00 0.  1.
</event>
<event>
 5   0  0.1029908E-07  0.3588054E+04  0.7818609E-02  0.8093233E-01
        2   -1    0    0  501    0  0.00000000000E+00  0.00000000000E+00  0.28639007623E+04  0.28639007623E+04  0.25500000920E-02 0.  1.
       -2   -1    0    0    0  501  0.00000000000E+00  0.00000000000E+00 -0.11238285658E+04  0.11238285658E+04  0.25500000920E-02 0. -1.
    10030    2    1    2    0    0  0.00000000000E+00  0.00000000000E+00  0.17400721964E+04  0.39877293281E+04  0.35880543398E+04 0.  0.
        4    1    3    3  502    0  0.15818763679E+04 -0.40990004026E+03  0.16929012020E+04  0.23529273212E+04  0.12699999809E+01 0.  1.
       -4    1    3    3    0  502 -0.15818763679E+04  0.40990004026E+03  0.47170994428E+02  0.16348020069E+04  0.12699999809E+01 0. -1.
</event>
<event>
 5   0  0.1029908E-07  0.3604895E+04  0.7818609E-02  0.8089371E-01
       -2   -1    0    0    0  501  0.00000000000E+00  0.00000000000E+00  0.16016401135E+04  0.16016401135E+04  0.25500000920E-02 0. -1.
        2   -1    0    0  501    0  0.00000000000E+00  0.00000000000E+00 -0.20284310297E+04  0.20284310297E+04  0.25500000920E-02 0.  1.
    10030    2    1    2    0    0  0.00000000000E+00  0.00000000000E+00 -0.42679091615E+03  0.36300711432E+04  0.36048947305E+04 0.  0.
        4    1    3    3  502    0  0.12196864434E+02  0.11718622812E+04  0.11656229874E+04  0.16529030616E+04  0.12699999809E+01 0. -1.
       -4    1    3    3    0  502 -0.12196864434E+02 -0.11718622812E+04 -0.15924139035E+04  0.19771680815E+04  0.12699999809E+01 0.  1.
</event>
<event>
 5   0  0.3202875E-08  0.3602704E+04  0.7818609E-02  0.8089873E-01
       -1   -1    0    0    0  501  0.00000000000E+00  0.00000000000E+00  0.17989119564E+04  0.17989119565E+04  0.50400001928E-02 0.  1.
        1   -1    0    0  501    0  0.00000000000E+00  0.00000000000E+00 -0.18037951295E+04  0.18037951295E+04  0.50400001928E-02 0. -1.
    10030    2    1    2    0    0  0.00000000000E+00  0.00000000000E+00 -0.48831730662E+01  0.36027070860E+04  0.36027037766E+04 0.  0.
        1    1    3    3  502    0  0.14230653758E+03 -0.15768261908E+04 -0.86164935823E+03  0.18025181284E+04  0.50400001928E-02 0. -1.
       -1    1    3    3    0  502 -0.14230653758E+03  0.15768261908E+04  0.85676618517E+03  0.18001889575E+04  0.50400001928E-02 0.  1.
</event>
<event>
 5   0  0.3279988E-08  0.3598235E+04  0.7818609E-02  0.8090896E-01
        1   -1    0    0  501    0  0.00000000000E+00  0.00000000000E+00  0.13726675752E+04  0.13726675752E+04  0.50400001928E-02 0.  1.
       -1   -1    0    0    0  501  0.00000000000E+00  0.00000000000E+00 -0.23580536348E+04  0.23580536348E+04  0.50400001928E-02 0. -1.
    10030    2    1    2    0    0  0.00000000000E+00  0.00000000000E+00 -0.98538605960E+03  0.37307212100E+04  0.35982349923E+04 0.  0.
        5    1    3    3  502    0 -0.41153629335E+03  0.15593142972E+04 -0.13195387496E+04  0.20837532963E+04  0.46999998093E+01 0. -1.
       -5    1    3    3    0  502  0.41153629335E+03 -0.15593142972E+04  0.33415269000E+03  0.16469679136E+04  0.46999998093E+01 0.  1.
</event>
<event>
 5   0  0.3212523E-08  0.3603279E+04  0.7818609E-02  0.8089741E-01
       -1   -1    0    0    0  501  0.00000000000E+00  0.00000000000E+00  0.13278144846E+04  0.13278144846E+04  0.50400001928E-02 0.  1.
        1   -1    0    0  501    0  0.00000000000E+00  0.00000000000E+00 -0.24445472349E+04  0.24445472349E+04  0.50400001928E-02 0. -1.
    10030    2    1    2    0    0  0.00000000000E+00  0.00000000000E+00 -0.11167327502E+04  0.37723617195E+04  0.36032791881E+04 0.  0.
        3    1    3    3  502    0  0.30093658037E+03  0.68343295788E+03 -0.22748955722E+04  0.23943252302E+04  0.10100000352E+00 0. -1.
       -3    1    3    3    0  502 -0.30093658037E+03 -0.68343295788E+03  0.11581628220E+04  0.13780364893E+04  0.10100000352E+00 0.  1.
</event>
<event>
 5   0  0.1017794E-07  0.3595962E+04  0.7818609E-02  0.8091417E-01
       -2   -1    0    0    0  501  0.00000000000E+00  0.00000000000E+00  0.15049883985E+04  0.15049883985E+04  0.25500000920E-02 0. -1.
        2   -1    0    0  501    0  0.00000000000E+00  0.00000000000E+00 -0.21480131401E+04  0.21480131401E+04  0.25500000920E-02 0.  1.
    10030    2    1    2    0    0  0.00000000000E+00  0.00000000000E+00 -0.64302474159E+03  0.36530015386E+04  0.35959615436E+04 0.  0.
        1    1    3    3  502    0 -0.79151898732E+03 -0.95960072972E+03 -0.16403343638E+04  0.20586482684E+04  0.50400001928E-02 0.  1.
       -1    1    3    3    0  502  0.79151898732E+03  0.95960072972E+03  0.99730962221E+03  0.15943532702E+04  0.50400001928E-02 0. -1.
</event>
<event>
 5   0  0.3215494E-08  0.3601116E+04  0.7818609E-02  0.8090236E-01
       -1   -1    0    0    0  501  0.00000000000E+00  0.00000000000E+00  0.18003160989E+04  0.18003160989E+04  0.50400001928E-02 0.  1.
        1   -1    0    0  501    0  0.00000000000E+00  0.00000000000E+00 -0.18008004021E+04  0.18008004021E+04  0.50400001928E-02 0. -1.
    10030    2    1    2    0    0  0.00000000000E+00  0.00000000000E+00 -0.48430315038E+00  0.36011165010E+04  0.36011164684E+04 0.  0.
        4    1    3    3  502    0 -0.26503579162E+03 -0.67163884521E+03  0.16492019008E+04  0.18003364218E+04  0.12699999809E+01 0.  1.
       -4    1    3    3    0  502  0.26503579162E+03  0.67163884521E+03 -0.16496862039E+04  0.18007800792E+04  0.12699999809E+01 0. -1.
</event>
<event>
 5   0  0.1021087E-07  0.3593162E+04  0.7818609E-02  0.8092060E-01
        2   -1    0    0  501    0  0.00000000000E+00  0.00000000000E+00  0.23994491326E+04  0.23994491326E+04  0.25500000920E-02 0. -1.
       -2   -1    0    0    0  501  0.00000000000E+00  0.00000000000E+00 -0.13451854921E+04  0.13451854921E+04  0.25500000920E-02 0.  1.
    10030    2    1    2    0    0  0.00000000000E+00  0.00000000000E+00  0.10542636405E+04  0.37446346247E+04  0.35931624858E+04 0.  0.
        3    1    3    3  502    0  0.16766526475E+04 -0.63395849273E+03  0.65321405465E+03  0.19078144780E+04  0.10100000352E+00 0.  1.
       -3    1    3    3    0  502 -0.16766526475E+04  0.63395849273E+03  0.40104958584E+03  0.18368201467E+04  0.10100000352E+00 0. -1.
</event>
<event>
 5   0  0.3279988E-08  0.3599002E+04  0.7818609E-02  0.8090720E-01
       -1   -1    0    0    0  501  0.00000000000E+00  0.00000000000E+00  0.11745053131E+04  0.11745053131E+04  0.50400001928E-02 0.  1.
        1   -1    0    0  501    0  0.00000000000E+00  0.00000000000E+00 -0.27570796459E+04  0.27570796459E+04  0.50400001928E-02 0. -1.
    10030    2    1    2    0    0  0.00000000000E+00  0.00000000000E+00 -0.15825743328E+04  0.39315849590E+04  0.35990024688E+04 0.  0.
        5    1    3    3  502    0  0.19213978570E+03  0.28581349476E+03 -0.27207360366E+04  0.27424503135E+04  0.46999998093E+01 0. -1.
       -5    1    3    3    0  502 -0.19213978570E+03 -0.28581349476E+03  0.11381617038E+04  0.11891346455E+04  0.46999998093E+01 0.  1.
</event>
<event>
 5   0  0.1021087E-07  0.3598764E+04  0.7818609E-02  0.8090775E-01
       -2   -1    0    0    0  501  0.00000000000E+00  0.00000000000E+00  0.12301849728E+04  0.12301849728E+04  0.25500000920E-02 0. -1.
        2   -1    0    0  501    0  0.00000000000E+00  0.00000000000E+00 -0.26319417392E+04  0.26319417392E+04  0.25500000920E-02 0.  1.
    10030    2    1    2    0    0  0.00000000000E+00  0.00000000000E+00 -0.14017567663E+04  0.38621267120E+04  0.35987637749E+04 0.  0.
        3    1    3    3  502    0  0.42184692970E+03  0.10790958457E+03 -0.25745487472E+04  0.26111109843E+04  0.10100000352E+00 0.  1.
       -3    1    3    3    0  502 -0.42184692970E+03 -0.10790958457E+03  0.11727919808E+04  0.12510157277E+04  0.10100000352E+00 0. -1.
</event>
<event>
 5   0  0.1017794E-07  0.3613077E+04  0.7818609E-02  0.8087503E-01
       -2   -1    0    0    0  501  0.00000000000E+00  0.00000000000E+00  0.94137997308E+03  0.94137997308E+03  0.25500000920E-02 0. -1.
        2   -1    0    0  501    0  0.00000000000E+00  0.00000000000E+00 -0.34668061677E+04  0.34668061677E+04  0.25500000920E-02 0.  1.
    10030    2    1    2    0    0  0.00000000000E+00  0.00000000000E+00 -0.25254261946E+04  0.44081861408E+04  0.36130773016E+04 0.  0.
        1    1    3    3  502    0  0.15424397304E+04  0.20425047093E+03 -0.23827448391E+04  0.28457532474E+04  0.50400001928E-02 0.  1.
       -1    1    3    3    0  502 -0.15424397304E+04 -0.20425047093E+03 -0.14268135549E+03  0.15624328933E+04  0.50400001928E-02 0. -1.
</event>
<event>
 5   0  0.3279988E-08  0.3598629E+04  0.7818609E-02  0.8090806E-01
        1   -1    0    0  501    0  0.00000000000E+00  0.00000000000E+00  0.15759091970E+04  0.15759091970E+04  0.50400001928E-02 0.  1.
       -1   -1    0    0    0  501  0.00000000000E+00  0.00000000000E+00 -0.20543900618E+04  0.20543900618E+04  0.50400001928E-02 0. -1.
    10030    2    1    2    0    0  0.00000000000E+00  0.00000000000E+00 -0.47848086483E+03  0.36302992589E+04  0.35986287348E+04 0.  0.
        5    1    3    3  502    0 -0.11387449685E+02 -0.15035001519E+04  0.75782408985E+03  0.16837344868E+04  0.46999998093E+01 0. -1.
       -5    1    3    3    0  502  0.11387449685E+02  0.15035001519E+04 -0.12363049547E+04  0.19465647721E+04  0.46999998093E+01 0.  1.
</event>
<event>
 5   0  0.3202875E-08  0.3595100E+04  0.7818609E-02  0.8091615E-01
        1   -1    0    0  501    0  0.00000000000E+00  0.00000000000E+00  0.19478491735E+04  0.19478491735E+04  0.50400001928E-02 0.  1.
       -1   -1    0    0    0  501  0.00000000000E+00  0.00000000000E+00 -0.16588484964E+04  0.16588484965E+04  0.50400001928E-02 0. -1.
    10030    2    1    2    0    0  0.00000000000E+00  0.00000000000E+00  0.28900067702E+03  0.36066976699E+04  0.35951003729E+04 0.  0.
        2    1    3    3  502    0 -0.13271280066E+04  0.79264332415E+03 -0.77586547940E+03  0.17296009446E+04  0.25500000920E-02 0. -1.
       -2    1    3    3    0  502  0.13271280066E+04 -0.79264332415E+03  0.10648661564E+04  0.18770967254E+04  0.25500000920E-02 0.  1.
</event>
<event>
 5   0  0.1044678E-07  0.3643307E+04  0.7818609E-02  0.8080643E-01
       -2   -1    0    0    0  501  0.00000000000E+00  0.00000000000E+00  0.11478543484E+04  0.11478543484E+04  0.25500000920E-02 0. -1.
        2   -1    0    0  501    0  0.00000000000E+00  0.00000000000E+00 -0.28909774539E+04  0.28909774539E+04  0.25500000920E-02 0.  1.
    10030    2    1    2    0    0  0.00000000000E+00  0.00000000000E+00 -0.17431231055E+04  0.40388318024E+04  0.36433067626E+04 0.  0.
        2    1    3    3  502    0 -0.47388649364E+03  0.57757652941E+02 -0.28203988102E+04  0.28605163526E+04  0.25500000920E-02 0.  1.
       -2    1    3    3    0  502  0.47388649364E+03 -0.57757652941E+02  0.10772757046E+04  0.11783154497E+04  0.25500000920E-02 0. -1.
</event>
<event>
 5   0  0.1044678E-07  0.3587501E+04  0.7818609E-02  0.8093361E-01
       -2   -1    0    0    0  501  0.00000000000E+00  0.00000000000E+00  0.18952434805E+04  0.18952434805E+04  0.25500000920E-02 0. -1.
        2   -1    0    0  501    0  0.00000000000E+00  0.00000000000E+00 -0.16976925050E+04  0.16976925050E+04  0.25500000920E-02 0.  1.
    10030    2    1    2    0    0  0.00000000000E+00  0.00000000000E+00  0.19755097551E+03  0.35929359855E+04  0.35875008861E+04 0.  0.
        2    1    3    3  502    0  0.11160541690E+04  0.11333727263E+04  0.92914559292E+03  0.18421243654E+04  0.25500000920E-02 0. -1.
       -2    1    3    3    0  502 -0.11160541690E+04 -0.11333727263E+04 -0.73159461741E+03  0.17508116201E+04  0.25500000920E-02 0.  1.
</event>
<event>
 5   0  0.3212523E-08  0.3594566E+04  0.7818609E-02  0.8091738E-01
        1   -1    0    0  501    0  0.00000000000E+00  0.00000000000E+00  0.20774531638E+04  0.20774531638E+04  0.50400001928E-02 0. -1.
       -1   -1    0    0    0  501  0.00000000000E+00  0.00000000000E+00 -0.15548970200E+04  0.15548970200E+04  0.50400001928E-02 0.  1.
    10030    2    1    2    0    0  0.00000000000E+00  0.00000000000E+00  0.52255614384E+03  0.36323501838E+04  0.35945657505E+04 0.  0.
        3    1    3    3  502    0  0.26195479889E+03 -0.14063302872E+04 -0.83820331371E+03  0.16580018090E+04  0.10100000352E+00 0.  1.
       -3    1    3    3    0  502 -0.26195479889E+03  0.14063302872E+04  0.13607594576E+04  0.19743483748E+04  0.10100000352E+00 0. -1.
</event>
<event>
 5   0  0.3202875E-08  0.3601823E+04  0.7818609E-02  0.8090074E-01
       -1   -1    0    0    0  501  0.00000000000E+00  0.00000000000E+00  0.14658613148E+04  0.14658613148E+04  0.50400001928E-02 0. -1.
        1   -1    0    0  501    0  0.00000000000E+00  0.00000000000E+00 -0.22125436419E+04  0.22125436419E+04  0.50400001928E-02 0.  1.
    10030    2    1    2    0    0  0.00000000000E+00  0.00000000000E+00 -0.74668232710E+03  0.36784049567E+04  0.36018229451E+04 0.  0.
        2    1    3    3  502    0 -0.11998370150E+04 -0.70661276133E+03 -0.15397152396E+04  0.20759656732E+04  0.25500000920E-02 0.  1.
       -2    1    3    3    0  502  0.11998370150E+04  0.70661276133E+03  0.79303291253E+03  0.16024392835E+04  0.25500000920E-02 0. -1.
</event>
<event>
 5   0  0.1017794E-07  0.3601096E+04  0.7818609E-02  0.8090241E-01
       -2   -1    0    0    0  501  0.00000000000E+00  0.00000000000E+00  0.15857956667E+04  0.15857956667E+04  0.25500000920E-02 0. -1.
        2   -1    0    0  501    0  0.00000000000E+00  0.00000000000E+00 -0.20443822070E+04  0.20443822070E+04  0.25500000920E-02 0.  1.
    10030    2    1    2    0    0  0.00000000000E+00  0.00000000000E+00 -0.45858654029E+03  0.36301778737E+04  0.36010956360E+04 0.  0.
        1    1    3    3  502    0  0.13940141665E+04  0.13757693400E+03  0.91111178559E+03  0.16710259109E+04  0.50400001928E-02 0. -1.
       -1    1    3    3    0  502 -0.13940141665E+04 -0.13757693400E+03 -0.13696983259E+04  0.19591519627E+04  0.50400001928E-02 0.  1.
</event>
<event>
 5   0  0.3215494E-08  0.3587340E+04  0.7818609E-02  0.8093398E-01
       -1   -1    0    0    0  501  0.00000000000E+00  0.00000000000E+00  0.13018533391E+04  0.13018533391E+04  0.50400001928E-02 0.  1.
        1   -1    0    0  501    0  0.00000000000E+00  0.00000000000E+00 -0.24712859249E+04  0.24712859249E+04  0.50400001928E-02 0. -1.
    10030    2    1    2    0    0  0.00000000000E+00  0.00000000000E+00 -0.11694325858E+04  0.37731392641E+04  0.35873398687E+04 0.  0.
        4    1    3    3  502    0  0.37011803689E+03 -0.82348797961E+03  0.10454375840E+04  0.13813258734E+04  0.12699999809E+01 0.  1.
       -4    1    3    3    0  502 -0.37011803689E+03  0.82348797961E+03 -0.22148701698E+04  0.23918133906E+04  0.12699999809E+01 0. -1.
</event>
<event>
 5   0  0.1017794E-07  0.3621707E+04  0.7818609E-02  0.8085537E-01
       -2   -1    0    0    0  501  0.00000000000E+00  0.00000000000E+00  0.15850980643E+04  0.15850980643E+04  0.25500000920E-02 0.  1.
        2   -1    0    0  501    0  0.00000000000E+00  0.00000000000E+00 -0.20687620660E+04  0.20687620660E+04  0.25500000920E-02 0. -1.
    10030    2    1    2    0    0  0.00000000000E+00  0.00000000000E+00 -0.48366400169E+03  0.36538601303E+04  0.36217071921E+04 0.  0.
        1    1    3    3  502    0  0.35667079238E+03  0.15852219100E+04  0.56466988438E+03  0.17201728508E+04  0.50400001928E-02 0.  1.
       -1    1    3    3    0  502 -0.35667079238E+03 -0.15852219100E+04 -0.10483338861E+04  0.19336872795E+04  0.50400001928E-02 0. -1.
</event>
<event>
 5   0  0.3202875E-08  0.3617952E+04  0.7818609E-02  0.8086392E-01
       -1   -1    0    0    0  501  0.00000000000E+00  0.00000000000E+00  0.23709432355E+04  0.23709432355E+04  0.50400001928E-02 0. -1.
        1   -1    0    0  501    0  0.00000000000E+00  0.00000000000E+00 -0.13802079832E+04  0.13802079832E+04  0.50400001928E-02 0.  1.
    10030    2    1    2    0    0  0.00000000000E+00  0.00000000000E+00  0.99073525233E+03  0.37511512187E+04  0.36179523387E+04 0.  0.
        1    1    3    3  502    0 -0.14994596115E+04  0.35278060621E+03  0.14787380912E+04  0.21352984861E+04  0.50400001928E-02 0. -1.
       -1    1    3    3    0  502  0.14994596115E+04 -0.35278060621E+03 -0.48800283887E+03  0.16158527326E+04  0.50400001928E-02 0.  1.
</event>
<event>
 5   0  0.1029908E-07  0.3593081E+04  0.7818609E-02  0.8092078E-01
       -2   -1    0    0    0  501  0.00000000000E+00  0.00000000000E+00  0.19450426445E+04  0.19450426445E+04  0.25500000920E-02 0. -1.
        2   -1    0    0  501    0  0.00000000000E+00  0.00000000000E+00 -0.16593760324E+04  0.16593760324E+04  0.25500000920E-02 0.  1.
    10030    2    1    2    0    0  0.00000000000E+00  0.00000000000E+00  0.28566661215E+03  0.36044186769E+04  0.35930806538E+04 0.  0.
        4    1    3    3  502    0 -0.23108732668E+03  0.97468594143E+03 -0.13532282803E+04  0.16836396374E+04  0.12699999809E+01 0.  1.
       -4    1    3    3    0  502  0.23108732668E+03 -0.97468594143E+03  0.16388948925E+04  0.19207790395E+04  0.12699999809E+01 0. -1.
</event>
<event>
 5   0  0.1021087E-07  0.3537115E+04  0.7818609E-02  0.8105050E-01
        2   -1    0    0  501    0  0.00000000000E+00  0.00000000000E+00  0.22271971660E+04  0.22271971660E+04  0.25500000920E-02 0.  1.
       -2   -1    0    0    0  501  0.00000000000E+00  0.00000000000E+00 -0.14043636839E+04  0.14043636839E+04  0.25500000920E-02 0. -1.
    10030    2    1    2    0    0  0.00000000000E+00  0.00000000000E+00  0.82283348209E+03  0.36315608499E+04  0.35371145398E+04 0.  0.
        3    1    3    3  502    0 -0.64563383852E+03  0.12370728026E+04 -0.70415133083E+03  0.15630167239E+04  0.10100000352E+00 0. -1.
       -3    1    3    3    0  502  0.64563383852E+03 -0.12370728026E+04  0.15269848129E+04  0.20685441260E+04  0.10100000352E+00 0.  1.
</event>
<event>
 5   0  0.1044678E-07  0.3587936E+04  0.7818609E-02  0.8093261E-01
        2   -1    0    0  501    0  0.00000000000E+00  0.00000000000E+00  0.20421707258E+04  0.20421707258E+04  0.25500000920E-02 0. -1.
       -2   -1    0    0    0  501  0.00000000000E+00  0.00000000000E+00 -0.15759313502E+04  0.15759313502E+04  0.25500000920E-02 0.  1.
    10030    2    1    2    0    0  0.00000000000E+00  0.00000000000E+00  0.46623937559E+03  0.36181020760E+04  0.35879358239E+04 0.  0.
        2    1    3    3  502    0 -0.15910532894E+04 -0.11385639231E+02 -0.60254592533E+03  0.17013646860E+04  0.25500000920E-02 0. -1.
       -2    1    3    3    0  502  0.15910532894E+04  0.11385639231E+02  0.10687853009E+04  0.19167373900E+04  0.25500000920E-02 0.  1.
</event>
<event>
 5   0  0.1017794E-07  0.3629131E+04  0.7818609E-02  0.8083851E-01
        2   -1    0    0  501    0  0.00000000000E+00  0.00000000000E+00  0.19537753799E+04  0.19537753799E+04  0.25500000920E-02 0.  1.
       -2   -1    0    0    0  501  0.00000000000E+00  0.00000000000E+00 -0.16852748003E+04  0.16852748003E+04  0.25500000920E-02 0. -1.
    10030    2    1    2    0    0  0.00000000000E+00  0.00000000000E+00  0.26850057956E+03  0.36390501802E+04  0.36291312532E+04 0.  0.
        1    1    3    3  502    0  0.28198854939E+03 -0.88949958998E+03  0.16947560883E+04  0.19346641211E+04  0.50400001928E-02 0.  1.
       -1    1    3    3    0  502 -0.28198854939E+03  0.88949958998E+03 -0.14262555087E+04  0.17043860592E+04  0.50400001928E-02 0. -1.
</event>
<event>
 5   0  0.3215494E-08  0.3602876E+04  0.7818609E-02  0.8089833E-01
       -1   -1    0    0    0  501  0.00000000000E+00  0.00000000000E+00  0.13639360378E+04  0.13639360378E+04  0.50400001928E-02 0. -1.
        1   -1    0    0  501    0  0.00000000000E+00  0.00000000000E+00 -0.23792753981E+04  0.23792753981E+04  0.50400001928E-02 0.  1.
    10030    2    1    2    0    0  0.00000000000E+00  0.00000000000E+00 -0.10153393603E+04  0.37432114359E+04  0.36028763284E+04 0.  0.
        4    1    3    3  502    0 -0.16146062949E+04 -0.73748877875E+03 -0.18856685519E+03  0.17850496514E+04  0.12699999809E+01 0.  1.
       -4    1    3    3    0  502  0.16146062949E+04  0.73748877875E+03 -0.82677250513E+03  0.19581617845E+04  0.12699999809E+01 0. -1.
</event>
<event>
 5   0  0.1044678E-07  0.3603424E+04  0.7818609E-02  0.8089708E-01
       -2   -1    0    0    0  501  0.00000000000E+00  0.00000000000E+00  0.14067519110E+04  0.14067519110E+04  0.25500000920E-02 0.  1.
        2   -1    0    0  501    0  0.00000000000E+00  0.00000000000E+00 -0.23075613581E+04  0.23075613581E+04  0.25500000920E-02 0. -1.
    10030    2    1    2    0    0  0.00000000000E+00  0.00000000000E+00 -0.90080944714E+03  0.37143132691E+04  0.36034241217E+04 0.  0.
        2    1    3    3  502    0  0.15950680535E+03  0.11183918296E+04 -0.18971359149E+04  0.22080234113E+04  0.25500000920E-02 0. -1.
       -2    1    3    3    0  502 -0.15950680535E+03 -0.11183918296E+04  0.99632646771E+03  0.15062898578E+04  0.25500000920E-02 0.  1.
</event>
<event>
 5   0  0.3279988E-08  0.3665333E+04  0.7818609E-02  0.8075688E-01
       -1   -1    0    0    0  501  0.00000000000E+00  0.00000000000E+00  0.17393236090E+04  0.17393236090E+04  0.50400001928E-02 0. -1.
        1   -1    0    0  501    0  0.00000000000E+00  0.00000000000E+00 -0.19310185942E+04  0.19310185942E+04  0.50400001928E-02 0.  1.
    10030    2    1    2    0    0  0.00000000000E+00  0.00000000000E+00 -0.19169498524E+03  0.36703422033E+04  0.36653328528E+04 0.  0.
        5    1    3    3  502    0 -0.16585734759E+04  0.75524554501E+03  0.97761860415E+02  0.18250592537E+04  0.46999998093E+01 0. -1.
       -5    1    3    3    0  502  0.16585734759E+04 -0.75524554501E+03 -0.28945684565E+03  0.18452829495E+04  0.46999998093E+01 0.  1.
</event>
<event>
 5   0  0.3215494E-08  0.3600831E+04  0.7818609E-02  0.8090301E-01
       -1   -1    0    0    0  501  0.00000000000E+00  0.00000000000E+00  0.13880533070E+04  0.13880533070E+04  0.50400001928E-02 0.  1.
        1   -1    0    0  501    0  0.00000000000E+00  0.00000000000E+00 -0.23352819426E+04  0.23352819426E+04  0.50400001928E-02 0. -1.
    10030    2    1    2    0    0  0.00000000000E+00  0.00000000000E+00 -0.94722863559E+03  0.37233352496E+04  0.36008309170E+04 0.  0.
        4    1    3    3  502    0 -0.37972826656E+02 -0.16023110578E+04  0.37444159465E+03  0.16459194337E+04  0.12699999809E+01 0.  1.
       -4    1    3    3    0  502  0.37972826656E+02  0.16023110578E+04 -0.13216702302E+04  0.20774158159E+04  0.12699999809E+01 0. -1.
</event>
<event>
 5   0  0.3202875E-08  0.3601617E+04  0.7818609E-02  0.8090121E-01
        1   -1    0    0  501    0  0.00000000000E+00  0.00000000000E+00  0.21031760656E+04  0.21031760657E+04  0.50400001928E-02 0. -1.
       -1   -1    0    0    0  501  0.00000000000E+00  0.00000000000E+00 -0.15419116367E+04  0.15419116367E+04  0.50400001928E-02 0.  1.
    10030    2    1    2    0    0  0.00000000000E+00  0.00000000000E+00  0.56126442897E+03  0.36450877023E+04  0.36016172199E+04 0.  0.
        2    1    3    3  502    0  0.33947477425E+03 -0.45816908868E+03  0.20093911509E+04  0.20887352234E+04  0.25500000920E-02 0. -1.
       -2    1    3    3    0  502 -0.33947477425E+03  0.45816908868E+03 -0.14481267219E+04  0.15563524790E+04  0.25500000920E-02 0.  1.
</event>
<event>
 5   0  0.3279988E-08  0.3601333E+04  0.7818609E-02  0.8090186E-01
       -1   -1    0    0    0  501  0.00000000000E+00  0.00000000000E+00  0.14594159717E+04  0.14594159717E+04  0.50400001928E-02 0. -1.
        1   -1    0    0  501    0  0.00000000000E+00  0.00000000000E+00 -0.22217108146E+04  0.22217108146E+04  0.50400001928E-02 0.  1.
    10030    2    1    2    0    0  0.00000000000E+00  0.00000000000E+00 -0.76229484286E+03  0.36811267863E+04  0.36013332239E+04 0.  0.
        5    1    3    3  502    0  0.77935713181E+03 -0.11255976883E+04 -0.15766820987E+04  0.20881370226E+04  0.46999998093E+01 0.  1.
       -5    1    3    3    0  502 -0.77935713181E+03  0.11255976883E+04  0.81438725587E+03  0.15929897637E+04  0.46999998093E+01 0. -1.
</event>
<event>
 5   0  0.1021087E-07  0.3604413E+04  0.7818609E-02  0.8089482E-01
        2   -1    0    0  501    0  0.00000000000E+00  0.00000000000E+00  0.12639427810E+04  0.12639427810E+04  0.25500000920E-02 0.  1.
       -2   -1    0    0    0  501  0.00000000000E+00  0.00000000000E+00 -0.25696951336E+04  0.25696951336E+04  0.25500000920E-02 0. -1.
    10030    2    1    2    0    0  0.00000000000E+00  0.00000000000E+00 -0.13057523526E+04  0.38336379146E+04  0.36044126365E+04 0.  0.
        3    1    3    3  502    0 -0.62374979271E+03  0.70401696695E+03  0.98217315984E+03  0.13599146369E+04  0.10100000352E+00 0.  1.
       -3    1    3    3    0  502  0.62374979271E+03 -0.70401696695E+03 -0.22879255125E+04  0.24737232777E+04  0.10100000352E+00 0. -1.
</event>
<event>
 5   0  0.1029908E-07  0.3522523E+04  0.7818609E-02  0.8108473E-01
        2   -1    0    0  501    0  0.00000000000E+00  0.00000000000E+00  0.18368890954E+04  0.18368890954E+04  0.25500000920E-02 0.  1.
       -2   -1    0    0    0  501  0.00000000000E+00  0.00000000000E+00 -0.16887476564E+04  0.16887476564E+04  0.25500000920E-02 0. -1.
    10030    2    1    2    0    0  0.00000000000E+00  0.00000000000E+00  0.14814143901E+03  0.35256367518E+04  0.35225230474E+04 0.  0.
        4    1    3    3  502    0 -0.54021903012E+03  0.16255787762E+04  0.48394165586E+03  0.17800404764E+04  0.12699999809E+01 0.  1.
       -4    1    3    3    0  502  0.54021903012E+03 -0.16255787762E+04 -0.33580021684E+03  0.17455962754E+04  0.12699999809E+01 0. -1.
</event>
<event>
 5   0  0.9905335E-08  0.3603502E+04  0.7818609E-02  0.8089690E-01
       -2   -1    0    0    0  501  0.00000000000E+00  0.00000000000E+00  0.13842968026E+04  0.13842968026E+04  0.25500000920E-02 0.  1.
        2   -1    0    0  501    0  0.00000000000E+00  0.00000000000E+00 -0.23450941653E+04  0.23450941653E+04  0.25500000920E-02 0. -1.
    10030    2    1    2    0    0  0.00000000000E+00  0.00000000000E+00 -0.96079736272E+03  0.37293909678E+04  0.36035018272E+04 0.  0.
        5    1    3    3  502    0  0.12596160642E+04  0.94600298355E+03 -0.13854375459E+04  0.20978592797E+04  0.46999998093E+01 0. -1.
       -5    1    3    3    0  502 -0.12596160642E+04 -0.94600298355E+03  0.42464018314E+03  0.16315316881E+04  0.46999998093E+01 0.  1.
</event>
<event>
 5   0  0.3202875E-08  0.3602188E+04  0.7818609E-02  0.8089991E-01
        1   -1    0    0  501    0  0.00000000000E+00  0.00000000000E+00  0.23924331901E+04  0.23924331901E+04  0.50400001928E-02 0.  1.
       -1   -1    0    0    0  501  0.00000000000E+00  0.00000000000E+00 -0.13559165514E+04  0.13559165514E+04  0.50400001928E-02 0. -1.
    10030    2    1    2    0    0  0.00000000000E+00  0.00000000000E+00  0.10365166387E+04  0.37483497415E+04  0.36021880909E+04 0.  0.
        2    1    3    3  502    0  0.57982817329E+03  0.10681349353E+04  0.19014128715E+04  0.22566532428E+04  0.25500000920E-02 0.  1.
       -2    1    3    3    0  502 -0.57982817329E+03 -0.10681349353E+04 -0.86489623277E+03  0.14916964987E+04  0.25500000920E-02 0. -1.
</event>
<event>
 5   0  0.3202875E-08  0.3583723E+04  0.7818609E-02  0.8094230E-01
       -1   -1    0    0    0  501  0.00000000000E+00  0.00000000000E+00  0.11089787845E+04  0.11089787845E+04  0.50400001928E-02 0.  1.
        1   -1    0    0  501    0  0.00000000000E+00  0.00000000000E+00 -0.28952473376E+04  0.28952473376E+04  0.50400001928E-02 0. -1.
    10030    2    1    2    0    0  0.00000000000E+00  0.00000000000E+00 -0.17862685532E+04  0.40042261221E+04  0.35837231328E+04 0.  0.
        2    1    3    3  502    0 -0.62365569507E+03  0.47087533332E+03 -0.26948198124E+04  0.28058374555E+04  0.25500000920E-02 0. -1.
       -2    1    3    3    0  502  0.62365569507E+03 -0.47087533332E+03  0.90855125922E+03  0.11983886666E+04  0.25500000920E-02 0.  1.
</event>
<event>
 5   0  0.3215494E-08  0.3609735E+04  0.7818609E-02  0.8088265E-01
        1   -1    0    0  501    0  0.00000000000E+00  0.00000000000E+00  0.20832766279E+04  0.20832766279E+04  0.50400001928E-02 0.  1.
       -1   -1    0    0    0  501  0.00000000000E+00  0.00000000000E+00 -0.15636651733E+04  0.15636651733E+04  0.50400001928E-02 0. -1.
    10030    2    1    2    0    0  0.00000000000E+00  0.00000000000E+00  0.51961145455E+03  0.36469418012E+04  0.36097352310E+04 0.  0.
        4    1    3    3  502    0 -0.12374145120E+04  0.61202758448E+03 -0.91483587380E+03  0.16561095156E+04  0.12699999809E+01 0. -1.
       -4    1    3    3    0  502  0.12374145120E+04 -0.61202758448E+03  0.14344473283E+04  0.19908322856E+04  0.12699999809E+01 0.  1.
</event>
<event>
 5   0  0.3212523E-08  0.3609929E+04  0.7818609E-02  0.8088221E-01
        1   -1    0    0  501    0  0.00000000000E+00  0.00000000000E+00  0.15667373840E+04  0.15667373840E+04  0.50400001928E-02 0. -1.
       -1   -1    0    0    0  501  0.00000000000E+00  0.00000000000E+00 -0.20794146368E+04  0.20794146368E+04  0.50400001928E-02 0.  1.
    10030    2    1    2    0    0  0.00000000000E+00  0.00000000000E+00 -0.51267725274E+03  0.36461520208E+04  0.36099288904E+04 0.  0.
        3    1    3    3  502    0 -0.11826897730E+04 -0.34856610020E+03  0.10750855203E+04  0.16358674492E+04  0.10100000352E+00 0. -1.
       -3    1    3    3    0  502  0.11826897730E+04  0.34856610020E+03 -0.15877627730E+04  0.20102845716E+04  0.10100000352E+00 0.  1.
</event>
<event>
 5   0  0.1029908E-07  0.3560532E+04  0.7818609E-02  0.8099593E-01
        2   -1    0    0  501    0  0.00000000000E+00  0.00000000000E+00  0.27724782376E+04  0.27724782376E+04  0.25500000920E-02 0. -1.
       -2   -1    0    0    0  501  0.00000000000E+00  0.00000000000E+00 -0.11431461340E+04  0.11431461340E+04  0.25500000920E-02 0.  1.
    10030    2    1    2    0    0  0.00000000000E+00  0.00000000000E+00  0.16293321036E+04  0.39156243717E+04  0.35605324203E+04 0.  0.
        4    1    3    3  502    0 -0.24145890115E+03  0.66870182611E+03  0.26095796185E+04  0.27046944247E+04  0.12699999809E+01 0. -1.
       -4    1    3    3    0  502  0.24145890115E+03 -0.66870182611E+03 -0.98024751481E+03  0.12109299469E+04  0.12699999809E+01 0.  1.
</event>
<event>
 5   0  0.9905335E-08  0.3599547E+04  0.7818609E-02  0.8090595E-01
        2   -1    0    0  501    0  0.00000000000E+00  0.00000000000E+00  0.14964408467E+04  0.14964408467E+04  0.25500000920E-02 0. -1.
       -2   -1    0    0    0  501  0.00000000000E+00  0.00000000000E+00 -0.21645929117E+04  0.21645929117E+04  0.25500000920E-02 0.  1.
    10030    2    1    2    0    0  0.00000000000E+00  0.00000000000E+00 -0.66815206499E+03  0.36610337584E+04  0.35995473324E+04 0.  0.
        5    1    3    3  502    0 -0.14456932875E+04 -0.72421806276E+03 -0.11379195831E+04  0.19772212703E+04  0.46999998093E+01 0. -1.
       -5    1    3    3    0  502  0.14456932875E+04  0.72421806276E+03  0.46976751814E+03  0.16838124881E+04  0.46999998093E+01 0.  1.
</event>
<event>
 5   0  0.3279988E-08  0.3581222E+04  0.7818609E-02  0.8094807E-01
        1   -1    0    0  501    0  0.00000000000E+00  0.00000000000E+00  0.23171642622E+04  0.23171642622E+04  0.50400001928E-02 0.  1.
       -1   -1    0    0    0  501  0.00000000000E+00  0.00000000000E+00 -0.13837118309E+04  0.13837118309E+04  0.50400001928E-02 0. -1.
    10030    2    1    2    0    0  0.00000000000E+00  0.00000000000E+00  0.93345243124E+03  0.37008760931E+04  0.35812219165E+04 0.  0.
        5    1    3    3  502    0  0.17576023938E+04  0.12150710951E+03  0.13613890819E+03  0.17670557560E+04  0.46999998093E+01 0. -1.
       -5    1    3    3    0  502 -0.17576023938E+04 -0.12150710951E+03  0.79731352306E+03  0.19338203372E+04  0.46999998093E+01 0.  1.
</event>
<event>
 5   0  0.1017794E-07  0.3604376E+04  0.7818609E-02  0.8089490E-01
       -2   -1    0    0    0  501  0.00000000000E+00  0.00000000000E+00  0.18776926549E+04  0.18776926549E+04  0.25500000920E-02 0.  1.
        2   -1    0    0  501    0  0.00000000000E+00  0.00000000000E+00 -0.17297197281E+04  0.17297197281E+04  0.25500000920E-02 0. -1.
    10030    2    1    2    0    0  0.00000000000E+00  0.00000000000E+00  0.14797292683E+03  0.36074123831E+04  0.36043762448E+04 0.  0.
        1    1    3    3  502    0  0.10114084121E+04 -0.56669310288E+03 -0.13069562014E+04  0.17470611213E+04  0.50400001928E-02 0. -1.
       -1    1    3    3    0  502 -0.10114084121E+04  0.56669310288E+03  0.14549291283E+04  0.18603512618E+04  0.50400001928E-02 0.  1.
</event>
<event>
 5   0  0.1044678E-07  0.3600952E+04  0.7818609E-02  0.8090274E-01
        2   -1    0    0  501    0  0.00000000000E+00  0.00000000000E+00  0.17747816709E+04  0.17747816709E+04  0.25500000920E-02 0. -1.
       -2   -1    0    0    0  501  0.00000000000E+00  0.00000000000E+00 -0.18265422424E+04  0.18265422424E+04  0.25500000920E-02 0.  1.
    10030    2    1    2    0    0  0.00000000000E+00  0.00000000000E+00 -0.51760571480E+02  0.36013239134E+04  0.36009519258E+04 0.  0.
        2    1    3    3  502    0  0.17887161800E+04 -0.49341899968E+02 -0.22533382711E+03  0.18035286328E+04  0.25500000920E-02 0.  1.
       -2    1    3    3    0  502 -0.17887161800E+04  0.49341899968E+02  0.17357325563E+03  0.17977952806E+04  0.25500000920E-02 0. -1.
</event>
<event>
 5   0  0.1044678E-07  0.3595901E+04  0.7818609E-02  0.8091431E-01
        2   -1    0    0  501    0  0.00000000000E+00  0.00000000000E+00  0.20112328090E+04  0.20112328090E+04  0.25500000920E-02 0. -1.
       -2   -1    0    0    0  501  0.00000000000E+00  0.00000000000E+00 -0.16072861350E+04  0.16072861350E+04  0.25500000920E-02 0.  1.
    10030    2    1    2    0    0  0.00000000000E+00  0.00000000000E+00  0.40394667400E+03  0.36185189440E+04  0.35959013380E+04 0.  0.
        2    1    3    3  502    0 -0.15907937058E+04 -0.32994268022E+03 -0.57302652362E+03  0.17227437950E+04  0.25500000920E-02 0.  1.
       -2    1    3    3    0  502  0.15907937058E+04  0.32994268022E+03  0.97697319761E+03  0.18957751490E+04  0.25500000920E-02 0. -1.
</event>
<event>
 5   0  0.3215494E-08  0.3600251E+04  0.7818609E-02  0.8090434E-01
       -1   -1    0    0    0  501  0.00000000000E+00  0.00000000000E+00  0.25810019453E+04  0.25810019453E+04  0.50400001928E-02 0.  1.
        1   -1    0    0  501    0  0.00000000000E+00  0.00000000000E+00 -0.12555015768E+04  0.12555015768E+04  0.50400001928E-02 0. -1.
    10030    2    1    2    0    0  0.00000000000E+00  0.00000000000E+00  0.13255003685E+04  0.38365035222E+04  0.36002511091E+04 0.  0.
        4    1    3    3  502    0 -0.12592482614E+04  0.10065565798E+04 -0.19080370850E+03  0.16233514716E+04  0.12699999809E+01 0.  1.
       -4    1    3    3    0  502  0.12592482614E+04 -0.10065565798E+04  0.15163040770E+04  0.22131520506E+04  0.12699999809E+01 0. -1.
</event>
<event>
 5   0  0.3202875E-08  0.3605225E+04  0.7818609E-02  0.8089296E-01
        1   -1    0    0  501    0  0.00000000000E+00  0.00000000000E+00  0.28711631422E+04  0.28711631422E+04  0.50400001928E-02 0. -1.
       -1   -1    0    0    0  501  0.00000000000E+00  0.00000000000E+00 -0.11317408275E+04  0.11317408275E+04  0.50400001928E-02 0.  1.
    10030    2    1    2    0    0  0.00000000000E+00  0.00000000000E+00  0.17394223147E+04  0.40029039697E+04  0.36052254023E+04 0.  0.
        1    1    3    3  502    0  0.36820566719E+03  0.14160368809E+04 -0.29937147051E+03  0.14934386960E+04  0.50400001928E-02 0.  1.
       -1    1    3    3    0  502 -0.36820566719E+03 -0.14160368809E+04  0.20387937852E+04  0.25094652737E+04  0.50400001928E-02 0. -1.
</event>
<event>
 5   0  0.9905335E-08  0.3606437E+04  0.7818609E-02  0.8089019E-01
        2   -1    0    0  501    0  0.00000000000E+00  0.00000000000E+00  0.24100231556E+04  0.24100231556E+04  0.25500000920E-02 0. -1.
       -2   -1    0    0    0  501  0.00000000000E+00  0.00000000000E+00 -0.13491974681E+04  0.13491974681E+04  0.25500000920E-02 0.  1.
    10030    2    1    2    0    0  0.00000000000E+00  0.00000000000E+00  0.10608256875E+04  0.37592206237E+04  0.36064371004E+04 0.  0.
        5    1    3    3  502    0  0.12057679899E+04  0.16725471855E+03 -0.85625447359E+03  0.14883025230E+04  0.46999998093E+01 0.  1.
       -5    1    3    3    0  502 -0.12057679899E+04 -0.16725471855E+03  0.19170801611E+04  0.22709181008E+04  0.46999998093E+01 0. -1.
</event>
<event>
 5   0  0.3279988E-08  0.3601083E+04  0.7818609E-02  0.8090244E-01
       -1   -1    0    0    0  501  0.00000000000E+00  0.00000000000E+00  0.31108334041E+04  0.31108334041E+04  0.50400001928E-02 0. -1.
        1   -1    0    0  501    0  0.00000000000E+00  0.00000000000E+00 -0.10421482831E+04  0.10421482831E+04  0.50400001928E-02 0.  1.
    10030    2    1    2    0    0  0.00000000000E+00  0.00000000000E+00  0.20686851210E+04  0.41529816872E+04  0.36010829988E+04 0.  0.
        5    1    3    3  502    0  0.53093149221E+03  0.88375272561E+03  0.27367266043E+04  0.29244831553E+04  0.46999998093E+01 0. -1.
       -5    1    3    3    0  502 -0.53093149221E+03 -0.88375272561E+03 -0.66804148327E+03  0.12284985319E+04  0.46999998093E+01 0.  1.
</event>
<event>
 5   0  0.1044678E-07  0.3598177E+04  0.7818609E-02  0.8090909E-01
        2   -1    0    0  501    0  0.00000000000E+00  0.00000000000E+00  0.16371415831E+04  0.16371415831E+04  0.25500000920E-02 0.  1.
       -2   -1    0    0    0  501  0.00000000000E+00  0.00000000000E+00 -0.19770554944E+04  0.19770554944E+04  0.25500000920E-02 0. -1.
    10030    2    1    2    0    0  0.00000000000E+00  0.00000000000E+00 -0.33991391134E+03  0.36141970775E+04  0.35981771841E+04 0.  0.
        2    1    3    3  502    0 -0.41349051531E+03  0.16107845180E+04 -0.85939366961E+03  0.18719398092E+04  0.25500000920E-02 0. -1.
       -2    1    3    3    0  502  0.41349051531E+03 -0.16107845180E+04  0.51947975826E+03  0.17422572683E+04  0.25500000920E-02 0.  1.
</event>
<event>
 5   0  0.1029908E-07  0.3604731E+04  0.7818609E-02  0.8089409E-01
       -2   -1    0    0    0  501  0.00000000000E+00  0.00000000000E+00  0.13952463005E+04  0.13952463005E+04  0.25500000920E-02 0. -1.
        2   -1    0    0  501    0  0.00000000000E+00  0.00000000000E+00 -0.23282786460E+04  0.23282786460E+04  0.25500000920E-02 0.  1.
    10030    2    1    2    0    0  0.00000000000E+00  0.00000000000E+00 -0.93303234550E+03  0.37235249466E+04  0.36047314283E+04 0.  0.
        4    1    3    3  502    0  0.87911907440E+03  0.14077010389E+04 -0.11925651607E+04  0.20436941643E+04  0.12699999809E+01 0. -1.
       -4    1    3    3    0  502 -0.87911907440E+03 -0.14077010389E+04  0.25953281520E+03  0.16798307822E+04  0.12699999809E+01 0.  1.
</event>
<event>
 5   0  0.3215494E-08  0.3600509E+04  0.7818609E-02  0.8090375E-01
       -1   -1    0    0    0  501  0.00000000000E+00  0.00000000000E+00  0.12378888373E+04  0.12378888373E+04  0.50400001928E-02 0.  1.
        1   -1    0    0  501    0  0.00000000000E+00  0.00000000000E+00 -0.26180989926E+04  0.26180989926E+04  0.50400001928E-02 0. -1.
    10030    2    1    2    0    0  0.00000000000E+00  0.00000000000E+00 -0.13802101553E+04  0.38559878299E+04  0.36005085851E+04 0.  0.
        4    1    3    3  502    0  0.76811501764E+03 -0.39403316694E+03 -0.23819624081E+04  0.25335763939E+04  0.12699999809E+01 0. -1.
       -4    1    3    3    0  502 -0.76811501764E+03  0.39403316694E+03  0.10017522529E+04  0.13224114360E+04  0.12699999809E+01 0.  1.
</event>
<event>
 5   0  0.9905335E-08  0.3600745E+04  0.7818609E-02  0.8090321E-01
       -2   -1    0    0    0  501  0.00000000000E+00  0.00000000000E+00  0.11268966076E+04  0.11268966076E+04  0.25500000920E-02 0. -1.
        2   -1    0    0  501    0  0.00000000000E+00  0.00000000000E+00 -0.28763427751E+04  0.28763427751E+04  0.25500000920E-02 0.  1.
    10030    2    1    2    0    0  0.00000000000E+00  0.00000000000E+00 -0.17494461675E+04  0.40032393827E+04  0.36007448760E+04 0.  0.
        5    1    3    3  502    0  0.13094632766E+04 -0.60996402760E+02  0.49728130367E+03  0.14020433013E+04  0.46999998093E+01 0. -1.
       -5    1    3    3    0  502 -0.13094632766E+04  0.60996402760E+02 -0.22467274712E+04  0.26011960813E+04  0.46999998093E+01 0.  1.
</event>
<event>
 5   0  0.1021087E-07  0.3619581E+04  0.7818609E-02  0.8086021E-01
        2   -1    0    0  501    0  0.00000000000E+00  0.00000000000E+00  0.12159926901E+04  0.12159926901E+04  0.25500000920E-02 0. -1.
       -2   -1    0    0    0  501  0.00000000000E+00  0.00000000000E+00 -0.26935543576E+04  0.26935543576E+04  0.25500000920E-02 0.  1.
    10030    2    1    2    0    0  0.00000000000E+00  0.00000000000E+00 -0.14775616675E+04  0.39095470477E+04  0.36195814173E+04 0.  0.
        3    1    3    3  502    0 -0.41240893299E+03 -0.88742612970E+03 -0.23831528970E+04  0.25762422255E+04  0.10100000352E+00 0.  1.
       -3    1    3    3    0  502  0.41240893299E+03  0.88742612970E+03  0.90559122950E+03  0.13333048222E+04  0.10100000352E+00 0. -1.
</event>
<event>
 5   0  0.1029908E-07  0.3598947E+04  0.7818609E-02  0.8090733E-01
       -2   -1    0    0    0  501  0.00000000000E+00  0.00000000000E+00  0.13194124696E+04  0.13194124696E+04  0.25500000920E-02 0.  1.
        2   -1    0    0  501    0  0.00000000000E+00  0.00000000000E+00 -0.24542019527E+04  0.24542019527E+04  0.25500000920E-02 0. -1.
    10030    2    1    2    0    0  0.00000000000E+00  0.00000000000E+00 -0.11347894831E+04  0.37736144223E+04  0.35989468789E+04 0.  0.
        4    1    3    3  502    0 -0.15711426638E+04  0.15988595927E+03 -0.14718419485E+04  0.21587897360E+04  0.12699999809E+01 0. -1.
       -4    1    3    3    0  502  0.15711426638E+04 -0.15988595927E+03  0.33705246540E+03  0.16148246863E+04  0.12699999809E+01 0.  1.
</event>
<event>
 5   0  0.3202875E-08  0.3606002E+04  0.7818609E-02  0.8089118E-01
       -1   -1    0    0    0  501  0.00000000000E+00  0.00000000000E+00  0.13981197605E+04  0.13981197605E+04  0.50400001928E-02 0. -1.
        1   -1    0    0  501    0  0.00000000000E+00  0.00000000000E+00 -0.23251314815E+04  0.23251314815E+04  0.50400001928E-02 0.  1.
    10030    2    1    2    0    0  0.00000000000E+00  0.00000000000E+00 -0.92701172098E+03  0.37232512420E+04  0.36060018137E+04 0.  0.
        2    1    3    3  502    0  0.72134765183E+03 -0.13537696985E+04 -0.14418254412E+04  0.21052067438E+04  0.25500000920E-02 0.  1.
       -2    1    3    3    0  502 -0.72134765183E+03  0.13537696985E+04  0.51481372021E+03  0.16180444981E+04  0.25500000920E-02 0. -1.
</event>
<event>
 5   0  0.9905335E-08  0.3582665E+04  0.7818609E-02  0.8094474E-01
        2   -1    0    0  501    0  0.00000000000E+00  0.00000000000E+00  0.21354779514E+04  0.21354779514E+04  0.25500000920E-02 0.  1.
       -2   -1    0    0    0  501  0.00000000000E+00  0.00000000000E+00 -0.15026479610E+04  0.15026479610E+04  0.25500000920E-02 0. -1.
    10030    2    1    2    0    0  0.00000000000E+00  0.00000000000E+00  0.63282999037E+03  0.36381259124E+04  0.35826647007E+04 0.  0.
        5    1    3    3  502    0  0.47101403354E+02 -0.17319119731E+04  0.77855552813E+03  0.18994495058E+04  0.46999998093E+01 0.  1.
       -5    1    3    3    0  502 -0.47101403354E+02  0.17319119731E+04 -0.14572553775E+03  0.17386764066E+04  0.46999998093E+01 0. -1.
</event>
<event>
 5   0  0.3279988E-08  0.3605020E+04  0.7818609E-02  0.8089343E-01
        1   -1    0    0  501    0  0.00000000000E+00  0.00000000000E+00  0.29962123438E+04  0.29962123438E+04  0.50400001928E-02 0. -1.
       -1   -1    0    0    0  501  0.00000000000E+00  0.00000000000E+00 -0.10843831780E+04  0.10843831780E+04  0.50400001928E-02 0.  1.
    10030    2    1    2    0    0  0.00000000000E+00  0.00000000000E+00  0.19118291658E+04  0.40805955218E+04  0.36050199796E+04 0.  0.
        5    1    3    3  502    0 -0.86470650629E+03  0.15184346748E+04  0.45522823027E+03  0.18057175956E+04  0.46999998093E+01 0.  1.
       -5    1    3    3    0  502  0.86470650629E+03 -0.15184346748E+04  0.14566009355E+04  0.22748779262E+04  0.46999998093E+01 0. -1.
</event>
<event>
 5   0  0.1029908E-07  0.3607836E+04  0.7818609E-02  0.8088699E-01
        2   -1    0    0  501    0  0.00000000000E+00  0.00000000000E+00  0.19302980474E+04  0.19302980474E+04  0.25500000920E-02 0. -1.
       -2   -1    0    0    0  501  0.00000000000E+00  0.00000000000E+00 -0.16858127141E+04  0.16858127141E+04  0.25500000920E-02 0.  1.
    10030    2    1    2    0    0  0.00000000000E+00  0.00000000000E+00  0.24448533331E+03  0.36161107615E+04  0.36078364654E+04 0.  0.
        4    1    3    3  502    0  0.10565005275E+04 -0.42413889353E+03  0.15247488891E+04  0.19028788593E+04  0.12699999809E+01 0. -1.
       -4    1    3    3    0  502 -0.10565005275E+04  0.42413889353E+03 -0.12802635558E+04  0.17132319022E+04  0.12699999809E+01 0.  1.
</event>
<event>
 5   0  0.3202875E-08  0.3597528E+04  0.7818609E-02  0.8091058E-01
        1   -1    0    0  501    0  0.00000000000E+00  0.00000000000E+00  0.18843991503E+04  0.18843991503E+04  0.50400001928E-02 0. -1.
       -1   -1    0    0    0  501  0.00000000000E+00  0.00000000000E+00 -0.17170207584E+04  0.17170207584E+04  0.50400001928E-02 0.  1.
    10030    2    1    2    0    0  0.00000000000E+00  0.00000000000E+00  0.16737839187E+03  0.36014199087E+04  0.35975282950E+04 0.  0.
        1    1    3    3  502    0 -0.56866736180E+03  0.14703295613E+04 -0.78344690625E+03  0.17604092258E+04  0.50400001928E-02 0. -1.
       -1    1    3    3    0  502  0.56866736180E+03 -0.14703295613E+04  0.95082529812E+03  0.18410106830E+04  0.50400001928E-02 0.  1.
</event>
<event>
 5   0  0.9905335E-08  0.3602898E+04  0.7818609E-02  0.8089828E-01
       -2   -1    0    0    0  501  0.00000000000E+00  0.00000000000E+00  0.22531666004E+04  0.22531666004E+04  0.25500000920E-02 0. -1.
        2   -1    0    0  501    0  0.00000000000E+00  0.00000000000E+00 -0.14402923112E+04  0.14402923112E+04  0.25500000920E-02 0.  1.
    10030    2    1    2    0    0  0.00000000000E+00  0.00000000000E+00  0.81287428929E+03  0.36934589116E+04  0.36028980171E+04 0.  0.
        5    1    3    3  502    0  0.24575984971E+03 -0.10870305855E+04  0.18573437315E+04  0.21660519903E+04  0.46999998093E+01 0. -1.
       -5    1    3    3    0  502 -0.24575984971E+03  0.10870305855E+04 -0.10444694422E+04  0.15274069213E+04  0.46999998093E+01 0.  1.
</event>
<event>
 5   0  0.3279988E-08  0.3599537E+04  0.7818609E-02  0.8090598E-01
       -1   -1    0    0    0  501  0.00000000000E+00  0.00000000000E+00  0.23758214334E+04  0.23758214334E+04  0.50400001928E-02 0.  1.
        1   -1    0    0  501    0  0.00000000000E+00  0.00000000000E+00 -0.13633882882E+04  0.13633882883E+04  0.50400001928E-02 0. -1.
    10030    2    1    2    0    0  0.00000000000E+00  0.00000000000E+00  0.10124331452E+04  0.37392097217E+04  0.35995372577E+04 0.  0.
        5    1    3    3  502    0 -0.16939482034E+04 -0.21225359819E+03  0.10980908023E+04  0.20298614745E+04  0.46999998093E+01 0.  1.
       -5    1    3    3    0  502  0.16939482034E+04  0.21225359819E+03 -0.85657657096E+02  0.17093482471E+04  0.46999998093E+01 0. -1.
</event>
<event>
 5   0  0.3279988E-08  0.3555098E+04  0.7818609E-02  0.8100855E-01
       -1   -1    0    0    0  501  0.00000000000E+00  0.00000000000E+00  0.16698906549E+04  0.16698906549E+04  0.50400001928E-02 0. -1.
        1   -1    0    0  501    0  0.00000000000E+00  0.00000000000E+00 -0.18921486407E+04  0.18921486407E+04  0.50400001928E-02 0.  1.
    10030    2    1    2    0    0  0.00000000000E+00  0.00000000000E+00 -0.22225798577E+03  0.35620392956E+04  0.35550984981E+04 0.  0.
        5    1    3    3  502    0 -0.81229079004E+02 -0.58860318155E+03  0.15674349866E+04  0.16762835070E+04  0.46999998093E+01 0. -1.
       -5    1    3    3    0  502  0.81229079004E+02  0.58860318155E+03 -0.17896929724E+04  0.18857557886E+04  0.46999998093E+01 0.  1.
</event>
<event>
 5   0  0.9905335E-08  0.3590366E+04  0.7818609E-02  0.8092702E-01
       -2   -1    0    0    0  501  0.00000000000E+00  0.00000000000E+00  0.14487617355E+04  0.14487617355E+04  0.25500000920E-02 0. -1.
        2   -1    0    0  501    0  0.00000000000E+00  0.00000000000E+00 -0.22244386889E+04  0.22244386889E+04  0.25500000920E-02 0.  1.
    10030    2    1    2    0    0  0.00000000000E+00  0.00000000000E+00 -0.77567695347E+03  0.36732004244E+04  0.35903658061E+04 0.  0.
        5    1    3    3  502    0  0.17105907019E+04 -0.18051944529E+03  0.13777706241E+03  0.17256049457E+04  0.46999998093E+01 0. -1.
       -5    1    3    3    0  502 -0.17105907019E+04  0.18051944529E+03 -0.91345401588E+03  0.19475954787E+04  0.46999998093E+01 0.  1.
</event>
<event>
 5   0  0.3202875E-08  0.3599330E+04  0.7818609E-02  0.8090645E-01
        1   -1    0    0  501    0  0.00000000000E+00  0.00000000000E+00  0.19303338243E+04  0.19303338243E+04  0.50400001928E-02 0. -1.
       -1   -1    0    0    0  501  0.00000000000E+00  0.00000000000E+00 -0.16778414703E+04  0.16778414703E+04  0.50400001928E-02 0.  1.
    10030    2    1    2    0    0  0.00000000000E+00  0.00000000000E+00  0.25249235397E+03  0.36081752947E+04  0.35993300166E+04 0.  0.
        1    1    3    3  502    0  0.10649500585E+04 -0.57784160881E+03  0.14602209020E+04  0.18974363322E+04  0.50400001928E-02 0.  1.
       -1    1    3    3    0  502 -0.10649500585E+04  0.57784160881E+03 -0.12077285480E+04  0.17107389625E+04  0.50400001928E-02 0. -1.
</event>
<event>
 5   0  0.3215494E-08  0.3600594E+04  0.7818609E-02  0.8090356E-01
       -1   -1    0    0    0  501  0.00000000000E+00  0.00000000000E+00  0.20371951349E+04  0.20371951349E+04  0.50400001928E-02 0.  1.
        1   -1    0    0  501    0  0.00000000000E+00  0.00000000000E+00 -0.15909470061E+04  0.15909470061E+04  0.50400001928E-02 0. -1.
    10030    2    1    2    0    0  0.00000000000E+00  0.00000000000E+00  0.44624812874E+03  0.36281421410E+04  0.36005941180E+04 0.  0.
        4    1    3    3  502    0 -0.20073883267E+03 -0.17559911016E+04  0.56818686604E+03  0.18565125250E+04  0.12699999809E+01 0. -1.
       -4    1    3    3    0  502  0.20073883267E+03  0.17559911016E+04 -0.12193873730E+03  0.17716296160E+04  0.12699999809E+01 0.  1.
</event>
<event>
 5   0  0.3279988E-08  0.3599983E+04  0.7818609E-02  0.8090496E-01
        1   -1    0    0  501    0  0.00000000000E+00  0.00000000000E+00  0.20459472922E+04  0.20459472922E+04  0.50400001928E-02 0. -1.
       -1   -1    0    0    0  501  0.00000000000E+00  0.00000000000E+00 -0.15836036444E+04  0.15836036444E+04  0.50400001928E-02 0.  1.
    10030    2    1    2    0    0  0.00000000000E+00  0.00000000000E+00  0.46234364772E+03  0.36295509366E+04  0.35999831045E+04 0.  0.
        5    1    3    3  502    0 -0.66745652958E+03  0.16710896503E+04  0.27521886079E+03  0.18203863188E+04  0.46999998093E+01 0.  1.
       -5    1    3    3    0  502  0.66745652958E+03 -0.16710896503E+04  0.18712478693E+03  0.18091646178E+04  0.46999998093E+01 0. -1.
</event>
<event>
 5   0  0.3215494E-08  0.3600362E+04  0.7818609E-02  0.8090409E-01
        1   -1    0    0  501    0  0.00000000000E+00  0.00000000000E+00  0.21241262395E+04  0.21241262395E+04  0.50400001928E-02 0. -1.
       -1   -1    0    0    0  501  0.00000000000E+00  0.00000000000E+00 -0.15256397097E+04  0.15256397098E+04  0.50400001928E-02 0.  1.
    10030    2    1    2    0    0  0.00000000000E+00  0.00000000000E+00  0.59848652976E+03  0.36497659493E+04  0.36003618371E+04 0.  0.
        4    1    3    3  502    0 -0.70162308647E+03  0.15146183875E+04  0.98251437644E+03  0.19369253801E+04  0.12699999809E+01 0. -1.
       -4    1    3    3    0  502  0.70162308647E+03 -0.15146183875E+04 -0.38402784668E+03  0.17128405691E+04  0.12699999809E+01 0.  1.
</event>
<event>
 5   0  0.3215494E-08  0.3596012E+04  0.7818609E-02  0.8091406E-01
       -1   -1    0    0    0  501  0.00000000000E+00  0.00000000000E+00  0.17546029892E+04  0.17546029892E+04  0.50400001928E-02 0.  1.
        1   -1    0    0  501    0  0.00000000000E+00  0.00000000000E+00 -0.18424829266E+04  0.18424829266E+04  0.50400001928E-02 0. -1.
    10030    2    1    2    0    0  0.00000000000E+00  0.00000000000E+00 -0.87879937356E+02  0.35970859158E+04  0.35960122639E+04 0.  0.
        4    1    3    3  502    0 -0.89417724551E+03 -0.25257544828E+03 -0.15837101601E+04  0.18361608828E+04  0.12699999809E+01 0. -1.
       -4    1    3    3    0  502  0.89417724551E+03  0.25257544828E+03  0.14958302228E+04  0.17609250329E+04  0.12699999809E+01 0.  1.
</event>
<event>
 5   0  0.3215494E-08  0.3603300E+04  0.7818609E-02  0.8089736E-01
       -1   -1    0    0    0  501  0.00000000000E+00  0.00000000000E+00  0.18797156339E+04  0.18797156339E+04  0.50400001928E-02 0.  1.
        1   -1    0    0  501    0  0.00000000000E+00  0.00000000000E+00 -0.17268263103E+04  0.17268263103E+04  0.50400001928E-02 0. -1.
    10030    2    1    2    0    0  0.00000000000E+00  0.00000000000E+00  0.15288932361E+03  0.36065419442E+04  0.36032998279E+04 0.  0.
        4    1    3    3  502    0 -0.45550764699E+03  0.97990907476E+03 -0.13664598061E+04  0.17421030468E+04  0.12699999809E+01 0. -1.
       -4    1    3    3    0  502  0.45550764699E+03 -0.97990907476E+03  0.15193491297E+04  0.18644388974E+04  0.12699999809E+01 0.  1.
</event>
<event>
 5   0  0.3212523E-08  0.3603903E+04  0.7818609E-02  0.8089598E-01
       -1   -1    0    0    0  501  0.00000000000E+00  0.00000000000E+00  0.21646044268E+04  0.21646044268E+04  0.50400001928E-02 0. -1.
        1   -1    0    0  501    0  0.00000000000E+00  0.00000000000E+00 -0.15000566724E+04  0.15000566724E+04  0.50400001928E-02 0.  1.
    10030    2    1    2    0    0  0.00000000000E+00  0.00000000000E+00  0.66454775443E+03  0.36646610992E+04  0.36039030583E+04 0.  0.
        3    1    3    3  502    0 -0.10660369557E+04  0.13585208206E+04  0.85574956113E+03  0.19272573602E+04  0.10100000352E+00 0.  1.
       -3    1    3    3    0  502  0.10660369557E+04 -0.13585208206E+04 -0.19120180669E+03  0.17374037389E+04  0.10100000352E+00 0. -1.
</event>
<event>
 5   0  0.1044678E-07  0.3600256E+04  0.7818609E-02  0.8090433E-01
       -2   -1    0    0    0  501  0.00000000000E+00  0.00000000000E+00  0.18549538122E+04  0.18549538122E+04  0.25500000920E-02 0.  1.
        2   -1    0    0  501    0  0.00000000000E+00  0.00000000000E+00 -0.17469229790E+04  0.17469229790E+04  0.25500000920E-02 0. -1.
    10030    2    1    2    0    0  0.00000000000E+00  0.00000000000E+00  0.10803083320E+03  0.36018767912E+04  0.36002563462E+04 0.  0.
        2    1    3    3  502    0  0.50619156898E+03 -0.90296772086E+03  0.15273903382E+04  0.18451292243E+04  0.25500000920E-02 0.  1.
       -2    1    3    3    0  502 -0.50619156898E+03  0.90296772086E+03 -0.14193595050E+04  0.17567475669E+04  0.25500000920E-02 0. -1.
</event>
<event>
 5   0  0.3212523E-08  0.3598010E+04  0.7818609E-02  0.8090948E-01
        1   -1    0    0  501    0  0.00000000000E+00  0.00000000000E+00  0.12558093442E+04  0.12558093442E+04  0.50400001928E-02 0.  1.
       -1   -1    0    0    0  501  0.00000000000E+00  0.00000000000E+00 -0.25771575621E+04  0.25771575621E+04  0.50400001928E-02 0. -1.
    10030    2    1    2    0    0  0.00000000000E+00  0.00000000000E+00 -0.13213482179E+04  0.38329669064E+04  0.35980097543E+04 0.  0.
        3    1    3    3  502    0  0.70433455749E+03  0.31139447324E+03 -0.23926876723E+04  0.25135647980E+04  0.10100000352E+00 0. -1.
       -3    1    3    3    0  502 -0.70433455749E+03 -0.31139447324E+03  0.10713394543E+04  0.13194021083E+04  0.10100000352E+00 0.  1.
</event>
<event>
 5   0  0.3202875E-08  0.3602931E+04  0.7818609E-02  0.8089821E-01
       -1   -1    0    0    0  501  0.00000000000E+00  0.00000000000E+00  0.23428473495E+04  0.23428473495E+04  0.50400001928E-02 0. -1.
        1   -1    0    0  501    0  0.00000000000E+00  0.00000000000E+00 -0.13851852834E+04  0.13851852834E+04  0.50400001928E-02 0.  1.
    10030    2    1    2    0    0  0.00000000000E+00  0.00000000000E+00  0.95766206605E+03  0.37280326329E+04  0.36029308458E+04 0.  0.
        1    1    3    3  502    0 -0.90332570151E+03  0.95031783583E+03  0.17571114616E+04  0.21923827222E+04  0.50400001928E-02 0. -1.
       -1    1    3    3    0  502  0.90332570151E+03 -0.95031783583E+03 -0.79944939560E+03  0.15356499107E+04  0.50400001928E-02 0.  1.
</event>
<event>
 5   0  0.9905335E-08  0.3607246E+04  0.7818609E-02  0.8088834E-01
        2   -1    0    0  501    0  0.00000000000E+00  0.00000000000E+00  0.14089393956E+04  0.14089393956E+04  0.25500000920E-02 0.  1.
       -2   -1    0    0    0  501  0.00000000000E+00  0.00000000000E+00 -0.23088683764E+04  0.23088683764E+04  0.25500000920E-02 0. -1.
    10030    2    1    2    0    0  0.00000000000E+00  0.00000000000E+00 -0.89992898078E+03  0.37178077720E+04  0.36072458274E+04 0.  0.
        5    1    3    3  502    0 -0.62534276231E+03  0.98476525241E+03 -0.18677048460E+04  0.22020807557E+04  0.46999998093E+01 0. -1.
       -5    1    3    3    0  502  0.62534276231E+03 -0.98476525241E+03  0.96777586523E+03  0.15157270163E+04  0.46999998093E+01 0.  1.
</event>
<event>
 5   0  0.3202875E-08  0.3629327E+04  0.7818609E-02  0.8083807E-01
       -1   -1    0    0    0  501  0.00000000000E+00  0.00000000000E+00  0.14027217327E+04  0.14027217327E+04  0.50400001928E-02 0.  1.
        1   -1    0    0  501    0  0.00000000000E+00  0.00000000000E+00 -0.23475821057E+04  0.23475821057E+04  0.50400001928E-02 0. -1.
    10030    2    1    2    0    0  0.00000000000E+00  0.00000000000E+00 -0.94486037294E+03  0.37503038384E+04  0.36293274523E+04 0.  0.
        2    1    3    3  502    0 -0.99676051041E+02  0.17202134509E+04 -0.10605544659E+04  0.20233253339E+04  0.25500000920E-02 0. -1.
       -2    1    3    3    0  502  0.99676051041E+02 -0.17202134509E+04  0.11569409297E+03  0.17269785045E+04  0.25500000920E-02 0.  1.
</event>
<event>
 5   0  0.3279988E-08  0.3603188E+04  0.7818609E-02  0.8089762E-01
       -1   -1    0    0    0  501  0.00000000000E+00  0.00000000000E+00  0.14832547242E+04  0.14832547242E+04  0.50400001928E-02 0.  1.
        1   -1    0    0  501    0  0.00000000000E+00  0.00000000000E+00 -0.21882564034E+04  0.21882564034E+04  0.50400001928E-02 0. -1.
    10030    2    1    2    0    0  0.00000000000E+00  0.00000000000E+00 -0.70500167921E+03  0.36715111276E+04  0.36031883925E+04 0.  0.
        5    1    3    3  502    0 -0.11469610214E+04 -0.11013419291E+03  0.10587043159E+04  0.15647766753E+04  0.46999998093E+01 0.  1.
       -5    1    3    3    0  502  0.11469610214E+04  0.11013419291E+03 -0.17637059951E+04  0.21067344522E+04  0.46999998093E+01 0. -1.
</event>
<event>
 5   0  0.3215494E-08  0.3597328E+04  0.7818609E-02  0.8091104E-01
       -1   -1    0    0    0  501  0.00000000000E+00  0.00000000000E+00  0.12157079593E+04  0.12157079593E+04  0.50400001928E-02 0.  1.
        1   -1    0    0  501    0  0.00000000000E+00  0.00000000000E+00 -0.26611591918E+04  0.26611591918E+04  0.50400001928E-02 0. -1.
    10030    2    1    2    0    0  0.00000000000E+00  0.00000000000E+00 -0.14454512326E+04  0.38768671511E+04  0.35973281254E+04 0.  0.
        4    1    3    3  502    0  0.31136695187E+03  0.20456282267E+03  0.11736705897E+04  0.12313811730E+04  0.12699999809E+01 0.  1.
       -4    1    3    3    0  502 -0.31136695187E+03 -0.20456282267E+03 -0.26191218223E+04  0.26454859781E+04  0.12699999809E+01 0. -1.
</event>
<event>
 5   0  0.3215494E-08  0.3602685E+04  0.7818609E-02  0.8089877E-01
        1   -1    0    0  501    0  0.00000000000E+00  0.00000000000E+00  0.26187390657E+04  0.26187390657E+04  0.50400001928E-02 0.  1.
       -1   -1    0    0    0  501  0.00000000000E+00  0.00000000000E+00 -0.12390828383E+04  0.12390828383E+04  0.50400001928E-02 0. -1.
    10030    2    1    2    0    0  0.00000000000E+00  0.00000000000E+00  0.13796562274E+04  0.38578219041E+04  0.36026849068E+04 0.  0.
        4    1    3    3  502    0 -0.27786787467E+03 -0.81170610461E+03  0.23859032109E+04  0.25354709821E+04  0.12699999809E+01 0.  1.
       -4    1    3    3    0  502  0.27786787467E+03  0.81170610461E+03 -0.10062469836E+04  0.13223509220E+04  0.12699999809E+01 0. -1.
</event>
<event>
 5   0  0.1029908E-07  0.3602717E+04  0.7818609E-02  0.8089870E-01
        2   -1    0    0  501    0  0.00000000000E+00  0.00000000000E+00  0.22020585501E+04  0.22020585501E+04  0.25500000920E-02 0.  1.
       -2   -1    0    0    0  501  0.00000000000E+00  0.00000000000E+00 -0.14735721023E+04  0.14735721023E+04  0.25500000920E-02 0. -1.
    10030    2    1    2    0    0  0.00000000000E+00  0.00000000000E+00  0.72848644778E+03  0.36756306524E+04  0.36027167788E+04 0.  0.
        4    1    3    3  502    0 -0.29921527031E+03  0.14416260403E+04  0.14230695199E+04  0.20476679148E+04  0.12699999809E+01 0.  1.
       -4    1    3    3    0  502  0.29921527031E+03 -0.14416260403E+04 -0.69458307215E+03  0.16279627376E+04  0.12699999809E+01 0. -1.
</event>
<event>
 5   0  0.3212523E-08  0.3596549E+04  0.7818609E-02  0.8091283E-01
        1   -1    0    0  501    0  0.00000000000E+00  0.00000000000E+00  0.26198906876E+04  0.26198906876E+04  0.50400001928E-02 0.  1.
       -1   -1    0    0    0  501  0.00000000000E+00  0.00000000000E+00 -0.12343231774E+04  0.12343231774E+04  0.50400001928E-02 0. -1.
    10030    2    1    2    0    0  0.00000000000E+00  0.00000000000E+00  0.13855675102E+04  0.38542138650E+04  0.35965493451E+04 0.  0.
        3    1    3    3  502    0 -0.92322628837E+03  0.10783404000E+04  0.18757849476E+04  0.23523889937E+04  0.10100000352E+00 0.  1.
       -3    1    3    3    0  502  0.92322628837E+03 -0.10783404000E+04 -0.49021743735E+03  0.15018248713E+04  0.10100000352E+00 0. -1.
</event>
<event>
 5   0  0.1044678E-07  0.3624358E+04  0.7818609E-02  0.8084935E-01
        2   -1    0    0  501    0  0.00000000000E+00  0.00000000000E+00  0.18250130264E+04  0.18250130264E+04  0.25500000920E-02 0.  1.
       -2   -1    0    0    0  501  0.00000000000E+00  0.00000000000E+00 -0.17994357048E+04  0.17994357048E+04  0.25500000920E-02 0. -1.
    10030    2    1    2    0    0  0.00000000000E+00  0.00000000000E+00  0.25577321574E+02  0.36244487312E+04  0.36243584820E+04 0.  0.
        2    1    3    3  502    0 -0.14637738092E+04 -0.10678463868E+04  0.45407430842E+02  0.18124545526E+04  0.25500000920E-02 0.  1.
       -2    1    3    3    0  502  0.14637738092E+04  0.10678463868E+04 -0.19830109268E+02  0.18119941787E+04  0.25500000920E-02 0. -1.
</event>
<event>
 5   0  0.9905335E-08  0.3610859E+04  0.7818609E-02  0.8088009E-01
       -2   -1    0    0    0  501  0.00000000000E+00  0.00000000000E+00  0.12793639856E+04  0.12793639856E+04  0.25500000920E-02 0.  1.
        2   -1    0    0  501    0  0.00000000000E+00  0.00000000000E+00 -0.25478097665E+04  0.25478097665E+04  0.25500000920E-02 0. -1.
    10030    2    1    2    0    0  0.00000000000E+00  0.00000000000E+00 -0.12684457809E+04  0.38271737522E+04  0.36108592094E+04 0.  0.
        5    1    3    3  502    0  0.77575634640E+03  0.51278112185E+03  0.10060016258E+04  0.13699648714E+04  0.46999998093E+01 0.  1.
       -5    1    3    3    0  502 -0.77575634640E+03 -0.51278112185E+03 -0.22744474066E+04  0.24572088807E+04  0.46999998093E+01 0. -1.
</event>
<event>
 5   0  0.1021087E-07  0.3597358E+04  0.7818609E-02  0.8091097E-01
        2   -1    0    0  501    0  0.00000000000E+00  0.00000000000E+00  0.20329730233E+04  0.20329730233E+04  0.25500000920E-02 0.  1.
       -2   -1    0    0    0  501  0.00000000000E+00  0.00000000000E+00 -0.15913864491E+04  0.15913864491E+04  0.25500000920E-02 0. -1.
    10030    2    1    2    0    0  0.00000000000E+00  0.00000000000E+00  0.44158657425E+03  0.36243594724E+04  0.35973577641E+04 0.  0.
        3    1    3    3  502    0  0.48555174108E+03  0.14343971320E+04 -0.75705347011E+03  0.16930403399E+04  0.10100000352E+00 0. -1.
       -3    1    3    3    0  502 -0.48555174108E+03 -0.14343971320E+04  0.11986400444E+04  0.19313191326E+04  0.10100000352E+00 0.  1.
</event>
<event>
 5   0  0.3202875E-08  0.3602773E+04  0.7818609E-02  0.8089857E-01
       -1   -1    0    0    0  501  0.00000000000E+00  0.00000000000E+00  0.14898277536E+04  0.14898277536E+04  0.50400001928E-02 0. -1.
        1   -1    0    0  501    0  0.00000000000E+00  0.00000000000E+00 -0.21781001128E+04  0.21781001128E+04  0.50400001928E-02 0.  1.
    10030    2    1    2    0    0  0.00000000000E+00  0.00000000000E+00 -0.68827235914E+03  0.36679278664E+04  0.36027733752E+04 0.  0.
        2    1    3    3  502    0  0.12241694861E+04  0.13208915400E+04 -0.38547351145E+03  0.18417207223E+04  0.25500000920E-02 0.  1.
       -2    1    3    3    0  502 -0.12241694861E+04 -0.13208915400E+04 -0.30279884769E+03  0.18262071441E+04  0.25500000920E-02 0. -1.
</event>
<event>
 5   0  0.1021087E-07  0.3600668E+04  0.7818609E-02  0.8090339E-01
        2   -1    0    0  501    0  0.00000000000E+00  0.00000000000E+00  0.22215016195E+04  0.22215016195E+04  0.25500000920E-02 0.  1.
       -2   -1    0    0    0  501  0.00000000000E+00  0.00000000000E+00 -0.14590141515E+04  0.14590141516E+04  0.25500000920E-02 0. -1.
    10030    2    1    2    0    0  0.00000000000E+00  0.00000000000E+00  0.76248746798E+03  0.36805157711E+04  0.36006678828E+04 0.  0.
        3    1    3    3  502    0  0.13805765403E+04  0.48968645049E+03  0.14510756063E+04  0.20618935057E+04  0.10100000352E+00 0. -1.
       -3    1    3    3    0  502 -0.13805765403E+04 -0.48968645049E+03 -0.68858813832E+03  0.16186222654E+04  0.10100000352E+00 0.  1.
</event>
<event>
 5   0  0.3279988E-08  0.3595735E+04  0.7818609E-02  0.8091469E-01
       -1   -1    0    0    0  501  0.00000000000E+00  0.00000000000E+00  0.28592766332E+04  0.28592766332E+04  0.50400001928E-02 0. -1.
        1   -1    0    0  501    0  0.00000000000E+00  0.00000000000E+00 -0.11304700993E+04  0.11304700993E+04  0.50400001928E-02 0.  1.
    10030    2    1    2    0    0  0.00000000000E+00  0.00000000000E+00  0.17288065339E+04  0.39897467325E+04  0.35957345506E+04 0.  0.
        5    1    3    3  502    0  0.11435012303E+04 -0.48666905266E+03 -0.57713533929E+03  0.13702368847E+04  0.46999998093E+01 0.  1.
       -5    1    3    3    0  502 -0.11435012303E+04  0.48666905266E+03  0.23059418731E+04  0.26195098478E+04  0.46999998093E+01 0. -1.
</event>
<event>
 5   0  0.3212523E-08  0.3587194E+04  0.7818609E-02  0.8093431E-01
       -1   -1    0    0    0  501  0.00000000000E+00  0.00000000000E+00  0.14121056869E+04  0.14121056869E+04  0.50400001928E-02 0. -1.
        1   -1    0    0  501    0  0.00000000000E+00  0.00000000000E+00 -0.22781510294E+04  0.22781510295E+04  0.50400001928E-02 0.  1.
    10030    2    1    2    0    0  0.00000000000E+00  0.00000000000E+00 -0.86604534253E+03  0.36902567164E+04  0.35871939030E+04 0.  0.
        3    1    3    3  502    0  0.15010142995E+04  0.85262449042E+03  0.67766977112E+02  0.17276008863E+04  0.10100000352E+00 0.  1.
       -3    1    3    3    0  502 -0.15010142995E+04 -0.85262449042E+03 -0.93381231964E+03  0.19626558301E+04  0.10100000352E+00 0. -1.
</event>
<event>
 5   0  0.3202875E-08  0.3594340E+04  0.7818609E-02  0.8091789E-01
       -1   -1    0    0    0  501  0.00000000000E+00  0.00000000000E+00  0.19548017458E+04  0.19548017458E+04  0.50400001928E-02 0.  1.
        1   -1    0    0  501    0  0.00000000000E+00  0.00000000000E+00 -0.16522497361E+04  0.16522497361E+04  0.50400001928E-02 0. -1.
    10030    2    1    2    0    0  0.00000000000E+00  0.00000000000E+00  0.30255200975E+03  0.36070514819E+04  0.35943403671E+04 0.  0.
        1    1    3    3  502    0 -0.88610796030E+03  0.13097416488E+04  0.10082339260E+04  0.18754055970E+04  0.50400001928E-02 0.  1.
       -1    1    3    3    0  502  0.88610796030E+03 -0.13097416488E+04 -0.70568191620E+03  0.17316458849E+04  0.50400001928E-02 0. -1.
</event>
<event>
 5   0  0.1029908E-07  0.3586589E+04  0.7818609E-02  0.8093571E-01
       -2   -1    0    0    0  501  0.00000000000E+00  0.00000000000E+00  0.17204462549E+04  0.17204462549E+04  0.25500000920E-02 0. -1.
        2   -1    0    0  501    0  0.00000000000E+00  0.00000000000E+00 -0.18692270826E+04  0.18692270826E+04  0.25500000920E-02 0.  1.
    10030    2    1    2    0    0  0.00000000000E+00  0.00000000000E+00 -0.14878082775E+03  0.35896733375E+04  0.35865887603E+04 0.  0.
        4    1    3    3  502    0  0.13115058849E+04  0.12108953608E+04  0.97768741414E+02  0.17877012057E+04  0.12699999809E+01 0. -1.
       -4    1    3    3    0  502 -0.13115058849E+04 -0.12108953608E+04 -0.24654956916E+03  0.18019721319E+04  0.12699999809E+01 0.  1.
</event>
<event>
 5   0  0.3215494E-08  0.3622101E+04  0.7818609E-02  0.8085448E-01
       -1   -1    0    0    0  501  0.00000000000E+00  0.00000000000E+00  0.20964624820E+04  0.20964624820E+04  0.50400001928E-02 0. -1.
        1   -1    0    0  501    0  0.00000000000E+00  0.00000000000E+00 -0.15644948106E+04  0.15644948106E+04  0.50400001928E-02 0.  1.
    10030    2    1    2    0    0  0.00000000000E+00  0.00000000000E+00  0.53196767141E+03  0.36609572925E+04  0.36221014197E+04 0.  0.
        4    1    3    3  502    0 -0.17758291465E+04 -0.21318922797E+03 -0.21468640538E+02  0.17887094006E+04  0.12699999809E+01 0. -1.
       -4    1    3    3    0  502  0.17758291465E+04  0.21318922797E+03  0.55343631195E+03  0.18722478919E+04  0.12699999809E+01 0.  1.
</event>
<event>
 5   0  0.3202875E-08  0.3596663E+04  0.7818609E-02  0.8091257E-01
       -4   -1    0    0    0  501  0.00000000000E+00  0.00000000000E+00  0.15753837902E+04  0.15753843021E+04  0.12699999809E+01 0. -1.
        4   -1    0    0  501    0  0.00000000000E+00  0.00000000000E+00 -0.20528291341E+04  0.20528295270E+04  0.12699999809E+01 0.  1.
    10030    2    1    2    0    0  0.00000000000E+00  0.00000000000E+00 -0.47744534399E+03  0.36282138290E+04  0.35966625548E+04 0.  0.
        3    1    3    3  502    0  0.47014242059E+03  0.20843782281E+03  0.14996222514E+04  0.15853539443E+04  0.10100000352E+00 0. -1.
       -3    1    3    3    0  502 -0.47014242059E+03 -0.20843782281E+03 -0.19770675954E+04  0.20428598847E+04  0.10100000352E+00 0.  1.
</event>
<event>
 5   0  0.3279988E-08  0.3597962E+04  0.7818609E-02  0.8090959E-01
       -1   -1    0    0    0  501  0.00000000000E+00  0.00000000000E+00  0.30920674798E+04  0.30920674798E+04  0.50400001928E-02 0. -1.
        1   -1    0    0  501    0  0.00000000000E+00  0.00000000000E+00 -0.10466566155E+04  0.10466566155E+04  0.50400001928E-02 0.  1.
    10030    2    1    2    0    0  0.00000000000E+00  0.00000000000E+00  0.20454108643E+04  0.41387240952E+04  0.35979621361E+04 0.  0.
        5    1    3    3  502    0 -0.37053756501E+03 -0.28913603198E+03  0.30201893557E+04  0.30565443831E+04  0.46999998093E+01 0. -1.
       -5    1    3    3    0  502  0.37053756501E+03  0.28913603198E+03 -0.97477849135E+03  0.10821797121E+04  0.46999998093E+01 0.  1.
</event>
<event>
 5   0  0.1044678E-07  0.3551010E+04  0.7818609E-02  0.8101807E-01
       -2   -1    0    0    0  501  0.00000000000E+00  0.00000000000E+00  0.14282157064E+04  0.14282157064E+04  0.25500000920E-02 0. -1.
        2   -1    0    0  501    0  0.00000000000E+00  0.00000000000E+00 -0.22072420766E+04  0.22072420766E+04  0.25500000920E-02 0.  1.
    10030    2    1    2    0    0  0.00000000000E+00  0.00000000000E+00 -0.77902637013E+03  0.36354577830E+04  0.35510098854E+04 0.  0.
        2    1    3    3  502    0 -0.10333159190E+04 -0.14412008311E+04 -0.47885931641E+03  0.18368744838E+04  0.25500000920E-02 0.  1.
       -2    1    3    3    0  502  0.10333159190E+04  0.14412008311E+04 -0.30016705371E+03  0.17985832992E+04  0.25500000920E-02 0. -1.
</event>
<event>
 5   0  0.1029908E-07  0.3609364E+04  0.7818609E-02  0.8088350E-01
        2   -1    0    0  501    0  0.00000000000E+00  0.00000000000E+00  0.16742724714E+04  0.16742724714E+04  0.25500000920E-02 0.  1.
       -2   -1    0    0    0  501  0.00000000000E+00  0.00000000000E+00 -0.19452493976E+04  0.19452493976E+04  0.25500000920E-02 0. -1.
    10030    2    1    2    0    0  0.00000000000E+00  0.00000000000E+00 -0.27097692625E+03  0.36195218690E+04  0.36093642190E+04 0.  0.
        4    1    3    3  502    0 -0.19098713204E+03 -0.65411861045E+03  0.15403004620E+04  0.16843023385E+04  0.12699999809E+01 0.  1.
       -4    1    3    3    0  502  0.19098713204E+03  0.65411861045E+03 -0.18112773883E+04  0.19352195305E+04  0.12699999809E+01 0. -1.
</event>
<event>
 5   0  0.1044678E-07  0.3601454E+04  0.7818609E-02  0.8090159E-01
       -2   -1    0    0    0  501  0.00000000000E+00  0.00000000000E+00  0.30052279394E+04  0.30052279394E+04  0.25500000920E-02 0.  1.
        2   -1    0    0  501    0  0.00000000000E+00  0.00000000000E+00 -0.10789922152E+04  0.10789922152E+04  0.25500000920E-02 0. -1.
    10030    2    1    2    0    0  0.00000000000E+00  0.00000000000E+00  0.19262357242E+04  0.40842201546E+04  0.36014539016E+04 0.  0.
        2    1    3    3  502    0  0.11679914538E+04  0.11490942199E+04  0.11599418096E+03  0.16425821783E+04  0.25500000920E-02 0. -1.
       -2    1    3    3    0  502 -0.11679914538E+04 -0.11490942199E+04  0.18102415433E+04  0.24416379763E+04  0.25500000920E-02 0.  1.
</event>
<event>
 5   0  0.3215494E-08  0.3544170E+04  0.7818609E-02  0.8103401E-01
        1   -1    0    0  501    0  0.00000000000E+00  0.00000000000E+00  0.29787830123E+04  0.29787830123E+04  0.50400001928E-02 0.  1.
       -1   -1    0    0    0  501  0.00000000000E+00  0.00000000000E+00 -0.10542175452E+04  0.10542175452E+04  0.50400001928E-02 0. -1.
    10030    2    1    2    0    0  0.00000000000E+00  0.00000000000E+00  0.19245654671E+04  0.40330005575E+04  0.35441700382E+04 0.  0.
        4    1    3    3  502    0 -0.31027353042E+03 -0.59195590493E+03  0.28298681111E+04  0.29077201715E+04  0.12699999809E+01 0.  1.
       -4    1    3    3    0  502  0.31027353042E+03  0.59195590493E+03 -0.90530264394E+03  0.11252803860E+04  0.12699999809E+01 0. -1.
</event>
<event>
 5   0  0.9905335E-08  0.3594309E+04  0.7818609E-02  0.8091797E-01
       -2   -1    0    0    0  501  0.00000000000E+00  0.00000000000E+00  0.27014631536E+04  0.27014631536E+04  0.25500000920E-02 0. -1.
        2   -1    0    0  501    0  0.00000000000E+00  0.00000000000E+00 -0.11955609986E+04  0.11955609986E+04  0.25500000920E-02 0.  1.
    10030    2    1    2    0    0  0.00000000000E+00  0.00000000000E+00  0.15059021549E+04  0.38970241522E+04  0.35943088268E+04 0.  0.
        5    1    3    3  502    0 -0.11101938746E+04  0.61487902517E+03  0.21325704074E+04  0.24816295629E+04  0.46999998093E+01 0. -1.
       -5    1    3    3    0  502  0.11101938746E+04 -0.61487902517E+03 -0.62666825244E+03  0.14153945893E+04  0.46999998093E+01 0.  1.
</event>
<event>
 5   0  0.3202875E-08  0.3600937E+04  0.7818609E-02  0.8090277E-01
        1   -1    0    0  501    0  0.00000000000E+00  0.00000000000E+00  0.21021065548E+04  0.21021065548E+04  0.50400001928E-02 0.  1.
       -1   -1    0    0    0  501  0.00000000000E+00  0.00000000000E+00 -0.15421132675E+04  0.15421132675E+04  0.50400001928E-02 0. -1.
    10030    2    1    2    0    0  0.00000000000E+00  0.00000000000E+00  0.55999328732E+03  0.36442198223E+04  0.36009367714E+04 0.  0.
        2    1    3    3  502    0  0.20833903835E+02  0.17465311112E+04 -0.16215466485E+03  0.17541662149E+04  0.25500000920E-02 0.  1.
       -2    1    3    3    0  502 -0.20833903835E+02 -0.17465311112E+04  0.72214795217E+03  0.18900536074E+04  0.25500000920E-02 0. -1.
</event>
<event>
 5   0  0.3202875E-08  0.3598117E+04  0.7818609E-02  0.8090923E-01
       -1   -1    0    0    0  501  0.00000000000E+00  0.00000000000E+00  0.16768129662E+04  0.16768129662E+04  0.50400001928E-02 0. -1.
        1   -1    0    0  501    0  0.00000000000E+00  0.00000000000E+00 -0.19302158393E+04  0.19302158394E+04  0.50400001928E-02 0.  1.
    10030    2    1    2    0    0  0.00000000000E+00  0.00000000000E+00 -0.25340287314E+03  0.36070288056E+04  0.35981167002E+04 0.  0.
        1    1    3    3  502    0  0.60614308448E+02 -0.80807455485E+03  0.14834999987E+04  0.16903936899E+04  0.50400001928E-02 0. -1.
       -1    1    3    3    0  502 -0.60614308448E+02  0.80807455485E+03 -0.17369028718E+04  0.19166351157E+04  0.50400001928E-02 0.  1.
</event>
<event>
 5   0  0.3279988E-08  0.3597253E+04  0.7818609E-02  0.8091121E-01
       -1   -1    0    0    0  501  0.00000000000E+00  0.00000000000E+00  0.12996758252E+04  0.12996758252E+04  0.50400001928E-02 0.  1.
        1   -1    0    0  501    0  0.00000000000E+00  0.00000000000E+00 -0.24891266507E+04  0.24891266507E+04  0.50400001928E-02 0. -1.
    10030    2    1    2    0    0  0.00000000000E+00  0.00000000000E+00 -0.11894508255E+04  0.37888024759E+04  0.35972532487E+04 0.  0.
        5    1    3    3  502    0  0.14318652201E+04 -0.75720941504E+03  0.22885283723E+03  0.16358483481E+04  0.46999998093E+01 0.  1.
       -5    1    3    3    0  502 -0.14318652201E+04  0.75720941504E+03 -0.14183036628E+04  0.21529541278E+04  0.46999998093E+01 0. -1.
</event>
<event>
 5   0  0.3215494E-08  0.3599042E+04  0.7818609E-02  0.8090711E-01
        1   -1    0    0  501    0  0.00000000000E+00  0.00000000000E+00  0.14856362272E+04  0.14856362273E+04  0.50400001928E-02 0.  1.
       -1   -1    0    0    0  501  0.00000000000E+00  0.00000000000E+00 -0.21797230183E+04  0.21797230183E+04  0.50400001928E-02 0. -1.
    10030    2    1    2    0    0  0.00000000000E+00  0.00000000000E+00 -0.69408679104E+03  0.36653592455E+04  0.35990418066E+04 0.  0.
        4    1    3    3  502    0 -0.10854636542E+04 -0.36074306794E+03 -0.17618524865E+04  0.21005934168E+04  0.12699999809E+01 0. -1.
       -4    1    3    3    0  502  0.10854636542E+04  0.36074306794E+03  0.10677656954E+04  0.15647658288E+04  0.12699999809E+01 0.  1.
</event>
<event>
 5   0  0.1017794E-07  0.3600546E+04  0.7818609E-02  0.8090367E-01
        2   -1    0    0  501    0  0.00000000000E+00  0.00000000000E+00  0.25521301387E+04  0.25521301387E+04  0.25500000920E-02 0. -1.
       -2   -1    0    0    0  501  0.00000000000E+00  0.00000000000E+00 -0.12699125845E+04  0.12699125845E+04  0.25500000920E-02 0.  1.
    10030    2    1    2    0    0  0.00000000000E+00  0.00000000000E+00  0.12822175543E+04  0.38220427232E+04  0.36005456144E+04 0.  0.
        1    1    3    3  502    0  0.34890286166E+03 -0.13200994613E+04  0.18865664001E+04  0.23288470488E+04  0.50400001928E-02 0. -1.
       -1    1    3    3    0  502 -0.34890286166E+03  0.13200994613E+04 -0.60434884586E+03  0.14931956744E+04  0.50400001928E-02 0.  1.
</event>
<event>
 5   0  0.3202875E-08  0.3587392E+04  0.7818609E-02  0.8093386E-01
        1   -1    0    0  501    0  0.00000000000E+00  0.00000000000E+00  0.17277821612E+04  0.17277821612E+04  0.50400001928E-02 0. -1.
       -1   -1    0    0    0  501  0.00000000000E+00  0.00000000000E+00 -0.18621249016E+04  0.18621249016E+04  0.50400001928E-02 0.  1.
    10030    2    1    2    0    0  0.00000000000E+00  0.00000000000E+00 -0.13434274042E+03  0.35899070629E+04  0.35873924720E+04 0.  0.
        1    1    3    3  502    0  0.13306214486E+04  0.58650487374E+03  0.98370985499E+03  0.17556270917E+04  0.50400001928E-02 0. -1.
       -1    1    3    3    0  502 -0.13306214486E+04 -0.58650487374E+03 -0.11180525954E+04  0.18342799711E+04  0.50400001928E-02 0.  1.
</event>
<event>
 5   0  0.1021087E-07  0.3598580E+04  0.7818609E-02  0.8090817E-01
       -2   -1    0    0    0  501  0.00000000000E+00  0.00000000000E+00  0.19929840291E+04  0.19929840291E+04  0.25500000920E-02 0. -1.
        2   -1    0    0  501    0  0.00000000000E+00  0.00000000000E+00 -0.16244209675E+04  0.16244209675E+04  0.25500000920E-02 0.  1.
    10030    2    1    2    0    0  0.00000000000E+00  0.00000000000E+00  0.36856306157E+03  0.36174049966E+04  0.35985803005E+04 0.  0.
        3    1    3    3  502    0  0.41261266567E+03 -0.16349073811E+04  0.81547838820E+03  0.18730126450E+04  0.10100000352E+00 0. -1.
       -3    1    3    3    0  502 -0.41261266567E+03  0.16349073811E+04 -0.44691532663E+03  0.17443923515E+04  0.10100000352E+00 0.  1.
</event>
<event>
 5   0  0.1017794E-07  0.3606278E+04  0.7818609E-02  0.8089055E-01
       -2   -1    0    0    0  501  0.00000000000E+00  0.00000000000E+00  0.12169335539E+04  0.12169335539E+04  0.25500000920E-02 0.  1.
        2   -1    0    0  501    0  0.00000000000E+00  0.00000000000E+00 -0.26717234577E+04  0.26717234577E+04  0.25500000920E-02 0. -1.
    10030    2    1    2    0    0  0.00000000000E+00  0.00000000000E+00 -0.14547899038E+04  0.38886570116E+04  0.36062778165E+04 0.  0.
        1    1    3    3  502    0  0.59203248444E+03  0.80193496509E+03  0.89282629358E+03  0.13381856902E+04  0.50400001928E-02 0.  1.
       -1    1    3    3    0  502 -0.59203248444E+03 -0.80193496509E+03 -0.23476161974E+04  0.25504713214E+04  0.50400001928E-02 0. -1.
</event>
<event>
 5   0  0.1017794E-07  0.3609681E+04  0.7818609E-02  0.8088278E-01
        2   -1    0    0  501    0  0.00000000000E+00  0.00000000000E+00  0.14053287500E+04  0.14053287500E+04  0.25500000920E-02 0.  1.
       -2   -1    0    0    0  501  0.00000000000E+00  0.00000000000E+00 -0.23179268657E+04  0.23179268657E+04  0.25500000920E-02 0. -1.
    10030    2    1    2    0    0  0.00000000000E+00  0.00000000000E+00 -0.91259811566E+03  0.37232556157E+04  0.36096810190E+04 0.  0.
        1    1    3    3  502    0 -0.32600066642E+03 -0.82872526416E+03  0.11629308078E+04  0.14647423193E+04  0.50400001928E-02 0.  1.
       -1    1    3    3    0  502  0.32600066642E+03  0.82872526416E+03 -0.20755289235E+04  0.22585132965E+04  0.50400001928E-02 0. -1.
</event>
<event>
 5   0  0.9905335E-08  0.3600180E+04  0.7818609E-02  0.8090451E-01
        2   -1    0    0  501    0  0.00000000000E+00  0.00000000000E+00  0.19159695029E+04  0.19159695029E+04  0.25500000920E-02 0.  1.
       -2   -1    0    0    0  501  0.00000000000E+00  0.00000000000E+00 -0.16912185277E+04  0.16912185277E+04  0.25500000920E-02 0. -1.
    10030    2    1    2    0    0  0.00000000000E+00  0.00000000000E+00  0.22475097521E+03  0.36071880305E+04  0.36001795076E+04 0.  0.
        5    1    3    3  502    0  0.10320055303E+03  0.14194763868E+04 -0.99192137619E+03  0.17347892302E+04  0.46999998093E+01 0.  1.
       -5    1    3    3    0  502 -0.10320055303E+03 -0.14194763868E+04  0.12166723514E+04  0.18723988003E+04  0.46999998093E+01 0. -1.
</event>
<event>
 5   0  0.3279988E-08  0.3600910E+04  0.7818609E-02  0.8090283E-01
        1   -1    0    0  501    0  0.00000000000E+00  0.00000000000E+00  0.11737360187E+04  0.11737360187E+04  0.50400001928E-02 0.  1.
       -1   -1    0    0    0  501  0.00000000000E+00  0.00000000000E+00 -0.27618125301E+04  0.27618125301E+04  0.50400001928E-02 0. -1.
    10030    2    1    2    0    0  0.00000000000E+00  0.00000000000E+00 -0.15880765114E+04  0.39355485488E+04  0.36009103535E+04 0.  0.
        5    1    3    3  502    0  0.13393501219E+04 -0.36147984495E+02 -0.21084906957E+04  0.24981834459E+04  0.46999998093E+01 0. -1.
       -5    1    3    3    0  502 -0.13393501219E+04  0.36147984495E+02  0.52041418426E+03  0.14373651029E+04  0.46999998093E+01 0.  1.
</event>
<event>
 5   0  0.1021087E-07  0.3591505E+04  0.7818609E-02  0.8092440E-01
       -2   -1    0    0    0  501  0.00000000000E+00  0.00000000000E+00  0.13909323582E+04  0.13909323582E+04  0.25500000920E-02 0. -1.
        2   -1    0    0  501    0  0.00000000000E+00  0.00000000000E+00 -0.23183918020E+04  0.23183918020E+04  0.25500000920E-02 0.  1.
    10030    2    1    2    0    0  0.00000000000E+00  0.00000000000E+00 -0.92745944377E+03  0.37093241601E+04  0.35915045183E+04 0.  0.
        3    1    3    3  502    0 -0.98659851559E+03  0.96801179902E+03  0.72030944819E+03  0.15586113003E+04  0.10100000352E+00 0. -1.
       -3    1    3    3    0  502  0.98659851559E+03 -0.96801179902E+03 -0.16477688920E+04  0.21507128599E+04  0.10100000352E+00 0.  1.
</event>
<event>
 5   0  0.3215494E-08  0.3596474E+04  0.7818609E-02  0.8091300E-01
       -1   -1    0    0    0  501  0.00000000000E+00  0.00000000000E+00  0.12622277138E+04  0.12622277138E+04  0.50400001928E-02 0.  1.
        1   -1    0    0  501    0  0.00000000000E+00  0.00000000000E+00 -0.25618645859E+04  0.25618645859E+04  0.50400001928E-02 0. -1.
    10030    2    1    2    0    0  0.00000000000E+00  0.00000000000E+00 -0.12996368721E+04  0.38240922997E+04  0.35964740952E+04 0.  0.
        4    1    3    3  502    0 -0.15735555558E+04  0.51613543424E+03 -0.13950180957E+04  0.21653059770E+04  0.12699999809E+01 0.  1.
       -4    1    3    3    0  502  0.15735555558E+04 -0.51613543424E+03  0.95381223592E+02  0.16587863227E+04  0.12699999809E+01 0. -1.
</event>
<event>
 5   0  0.3202875E-08  0.3599195E+04  0.7818609E-02  0.8090676E-01
       -1   -1    0    0    0  501  0.00000000000E+00  0.00000000000E+00  0.10609555936E+04  0.10609555936E+04  0.50400001928E-02 0. -1.
        1   -1    0    0  501    0  0.00000000000E+00  0.00000000000E+00 -0.30524853515E+04  0.30524853515E+04  0.50400001928E-02 0.  1.
    10030    2    1    2    0    0  0.00000000000E+00  0.00000000000E+00 -0.19915297579E+04  0.41134409451E+04  0.35991951367E+04 0.  0.
        1    1    3    3  502    0  0.48469483084E+03 -0.17284257509E+04 -0.11410801543E+04  0.21270751219E+04  0.50400001928E-02 0. -1.
       -1    1    3    3    0  502 -0.48469483084E+03  0.17284257509E+04 -0.85044960362E+03  0.19863658233E+04  0.50400001928E-02 0.  1.
</event>
<event>
 5   0  0.3212523E-08  0.3596912E+04  0.7818609E-02  0.8091199E-01
       -1   -1    0    0    0  501  0.00000000000E+00  0.00000000000E+00  0.19693821002E+04  0.19693821002E+04  0.50400001928E-02 0.  1.
        1   -1    0    0  501    0  0.00000000000E+00  0.00000000000E+00 -0.16423647790E+04  0.16423647790E+04  0.50400001928E-02 0. -1.
    10030    2    1    2    0    0  0.00000000000E+00  0.00000000000E+00  0.32701732116E+03  0.36117468792E+04  0.35969118965E+04 0.  0.
        3    1    3    3  502    0 -0.15026120783E+04 -0.13501984052E+03 -0.81949287341E+03  0.17168698247E+04  0.10100000352E+00 0. -1.
       -3    1    3    3    0  502  0.15026120783E+04  0.13501984052E+03  0.11465101946E+04  0.18948770545E+04  0.10100000352E+00 0.  1.
</event>
<event>
 5   0  0.3212523E-08  0.3602078E+04  0.7818609E-02  0.8090016E-01
       -1   -1    0    0    0  501  0.00000000000E+00  0.00000000000E+00  0.19536304307E+04  0.19536304307E+04  0.50400001928E-02 0.  1.
        1   -1    0    0  501    0  0.00000000000E+00  0.00000000000E+00 -0.16603660345E+04  0.16603660345E+04  0.50400001928E-02 0. -1.
    10030    2    1    2    0    0  0.00000000000E+00  0.00000000000E+00  0.29326439620E+03  0.36139964652E+04  0.36020780730E+04 0.  0.
        3    1    3    3  502    0 -0.16121145737E+03  0.80305528873E+03 -0.14626871383E+04  0.16764070524E+04  0.10100000352E+00 0. -1.
       -3    1    3    3    0  502  0.16121145737E+03 -0.80305528873E+03  0.17559515345E+04  0.19375894127E+04  0.10100000352E+00 0.  1.
</event>
<event>
 5   0  0.1044678E-07  0.3597231E+04  0.7818609E-02  0.8091126E-01
        2   -1    0    0  501    0  0.00000000000E+00  0.00000000000E+00  0.19088828842E+04  0.19088828843E+04  0.25500000920E-02 0. -1.
       -2   -1    0    0    0  501  0.00000000000E+00  0.00000000000E+00 -0.16947182001E+04  0.16947182001E+04  0.25500000920E-02 0.  1.
    10030    2    1    2    0    0  0.00000000000E+00  0.00000000000E+00  0.21416468413E+03  0.36036010844E+04  0.35972314720E+04 0.  0.
        2    1    3    3  502    0 -0.16649388893E+04 -0.32957339600E+03 -0.48926868143E+03  0.17663589587E+04  0.25500000920E-02 0.  1.
       -2    1    3    3    0  502  0.16649388893E+04  0.32957339600E+03  0.70343336556E+03  0.18372421256E+04  0.25500000920E-02 0. -1.
</event>
<event>
 5   0  0.3279988E-08  0.3600712E+04  0.7818609E-02  0.8090329E-01
        1   -1    0    0  501    0  0.00000000000E+00  0.00000000000E+00  0.19964308432E+04  0.19964308432E+04  0.50400001928E-02 0. -1.
       -1   -1    0    0    0  501  0.00000000000E+00  0.00000000000E+00 -0.16235385154E+04  0.16235385154E+04  0.50400001928E-02 0.  1.
    10030    2    1    2    0    0  0.00000000000E+00  0.00000000000E+00  0.37289232781E+03  0.36199693586E+04  0.36007123558E+04 0.  0.
        5    1    3    3  502    0  0.47563098526E+02 -0.17468552788E+04  0.62176847041E+03  0.18548271440E+04  0.46999998093E+01 0. -1.
       -5    1    3    3    0  502 -0.47563098526E+02  0.17468552788E+04 -0.24887614260E+03  0.17651422146E+04  0.46999998093E+01 0.  1.
</event>
<event>
 5   0  0.9905335E-08  0.3590747E+04  0.7818609E-02  0.8092614E-01
       -2   -1    0    0    0  501  0.00000000000E+00  0.00000000000E+00  0.25674405817E+04  0.25674405817E+04  0.25500000920E-02 0. -1.
        2   -1    0    0  501    0  0.00000000000E+00  0.00000000000E+00 -0.12554785232E+04  0.12554785232E+04  0.25500000920E-02 0.  1.
    10030    2    1    2    0    0  0.00000000000E+00  0.00000000000E+00  0.13119620585E+04  0.38229191050E+04  0.35907472816E+04 0.  0.
        5    1    3    3  502    0  0.28950836266E+03  0.17711217313E+04  0.71086146773E+03  0.19302936034E+04  0.46999998093E+01 0. -1.
       -5    1    3    3    0  502 -0.28950836266E+03 -0.17711217313E+04  0.60110059076E+03  0.18926255016E+04  0.46999998093E+01 0.  1.
</event>
<event>
 5   0  0.3202875E-08  0.3603853E+04  0.7818609E-02  0.8089610E-01
       -1   -1    0    0    0  501  0.00000000000E+00  0.00000000000E+00  0.17310291199E+04  0.17310291199E+04  0.50400001928E-02 0. -1.
        1   -1    0    0  501    0  0.00000000000E+00  0.00000000000E+00 -0.18757279190E+04  0.18757279190E+04  0.50400001928E-02 0.  1.
    10030    2    1    2    0    0  0.00000000000E+00  0.00000000000E+00 -0.14469879911E+03  0.36067570389E+04  0.36038532982E+04 0.  0.
        2    1    3    3  502    0  0.75727906469E+03 -0.12175177040E+04  0.10199138132E+04  0.17595582195E+04  0.25500000920E-02 0. -1.
       -2    1    3    3    0  502 -0.75727906469E+03  0.12175177040E+04 -0.11646126123E+04  0.18471988194E+04  0.25500000920E-02 0.  1.
</event>
<event>
 5   0  0.3202875E-08  0.3606262E+04  0.7818609E-02  0.8089059E-01
        1   -1    0    0  501    0  0.00000000000E+00  0.00000000000E+00  0.16687225771E+04  0.16687225772E+04  0.50400001928E-02 0.  1.
       -1   -1    0    0    0  501  0.00000000000E+00  0.00000000000E+00 -0.19483655419E+04  0.19483655419E+04  0.50400001928E-02 0. -1.
    10030    2    1    2    0    0  0.00000000000E+00  0.00000000000E+00 -0.27964296478E+03  0.36170881191E+04  0.36062620916E+04 0.  0.
        2    1    3    3  502    0 -0.35982739403E+03  0.43473907193E+02  0.16318093977E+04  0.16715763951E+04  0.25500000920E-02 0.  1.
       -2    1    3    3    0  502  0.35982739403E+03 -0.43473907193E+02 -0.19114523625E+04  0.19455117240E+04  0.25500000920E-02 0. -1.
</event>
<event>
 5   0  0.3202875E-08  0.3601614E+04  0.7818609E-02  0.8090122E-01
       -1   -1    0    0    0  501  0.00000000000E+00  0.00000000000E+00  0.22471032716E+04  0.22471032716E+04  0.50400001928E-02 0.  1.
        1   -1    0    0  501    0  0.00000000000E+00  0.00000000000E+00 -0.14431496802E+04  0.14431496802E+04  0.50400001928E-02 0. -1.
    10030    2    1    2    0    0  0.00000000000E+00  0.00000000000E+00  0.80395359141E+03  0.36902529518E+04  0.36016142869E+04 0.  0.
        1    1    3    3  502    0 -0.35821686410E+03 -0.23370147971E+03  0.21943051173E+04  0.22356007361E+04  0.50400001928E-02 0.  1.
       -1    1    3    3    0  502  0.35821686410E+03  0.23370147971E+03 -0.13903515259E+04  0.14546522158E+04  0.50400001928E-02 0. -1.
</event>
<event>
 5   0  0.3202875E-08  0.3586085E+04  0.7818609E-02  0.8093687E-01
        1   -1    0    0  501    0  0.00000000000E+00  0.00000000000E+00  0.20804819382E+04  0.20804819382E+04  0.50400001928E-02 0.  1.
       -1   -1    0    0    0  501  0.00000000000E+00  0.00000000000E+00 -0.15453157861E+04  0.15453157862E+04  0.50400001928E-02 0. -1.
    10030    2    1    2    0    0  0.00000000000E+00  0.00000000000E+00  0.53516615206E+03  0.36257977244E+04  0.35860850977E+04 0.  0.
        2    1    3    3  502    0  0.56306762327E+03 -0.86831472574E+03  0.17480337789E+04  0.20314127359E+04  0.25500000920E-02 0.  1.
       -2    1    3    3    0  502 -0.56306762327E+03  0.86831472574E+03 -0.12128676268E+04  0.15943849885E+04  0.25500000920E-02 0. -1.
</event>
<event>
 5   0  0.1017794E-07  0.3603129E+04  0.7818609E-02  0.8089775E-01
       -2   -1    0    0    0  501  0.00000000000E+00  0.00000000000E+00  0.16383576370E+04  0.16383576370E+04  0.25500000920E-02 0.  1.
        2   -1    0    0  501    0  0.00000000000E+00  0.00000000000E+00 -0.19810294562E+04  0.19810294562E+04  0.25500000920E-02 0. -1.
    10030    2    1    2    0    0  0.00000000000E+00  0.00000000000E+00 -0.34267181917E+03  0.36193870932E+04  0.36031290505E+04 0.  0.
        1    1    3    3  502    0 -0.45579482452E+03 -0.84711012275E+03 -0.17014590189E+04  0.19545606348E+04  0.50400001928E-02 0. -1.
       -1    1    3    3    0  502  0.45579482452E+03  0.84711012275E+03  0.13587871998E+04  0.16648264583E+04  0.50400001928E-02 0.  1.
</event>
<event>
 5   0  0.1017794E-07  0.3599190E+04  0.7818609E-02  0.8090677E-01
       -2   -1    0    0    0  501  0.00000000000E+00  0.00000000000E+00  0.21319748922E+04  0.21319748922E+04  0.25500000920E-02 0.  1.
        2   -1    0    0  501    0  0.00000000000E+00  0.00000000000E+00 -0.15190339035E+04  0.15190339035E+04  0.25500000920E-02 0. -1.
    10030    2    1    2    0    0  0.00000000000E+00  0.00000000000E+00  0.61294098863E+03  0.36510087957E+04  0.35991899881E+04 0.  0.
        1    1    3    3  502    0  0.16592556482E+04  0.22707350407E+03 -0.36168591437E+03  0.17133325372E+04  0.50400001928E-02 0. -1.
       -1    1    3    3    0  502 -0.16592556482E+04 -0.22707350407E+03  0.97462690300E+03  0.19376762585E+04  0.50400001928E-02 0.  1.
</event>
<event>
 5   0  0.3215494E-08  0.3600695E+04  0.7818609E-02  0.8090333E-01
       -1   -1    0    0    0  501  0.00000000000E+00  0.00000000000E+00  0.12141663070E+04  0.12141663070E+04  0.50400001928E-02 0.  1.
        1   -1    0    0  501    0  0.00000000000E+00  0.00000000000E+00 -0.26695280793E+04  0.26695280794E+04  0.50400001928E-02 0. -1.
    10030    2    1    2    0    0  0.00000000000E+00  0.00000000000E+00 -0.14553617724E+04  0.38836943863E+04  0.36006949604E+04 0.  0.
        4    1    3    3  502    0  0.48705630268E+03  0.12509357519E+04  0.56626787628E+03  0.14569574524E+04  0.12699999809E+01 0.  1.
       -4    1    3    3    0  502 -0.48705630268E+03 -0.12509357519E+04 -0.20216296487E+04  0.24267369340E+04  0.12699999809E+01 0. -1.
</event>
<event>
 5   0  0.9905335E-08  0.3598641E+04  0.7818609E-02  0.8090803E-01
       -2   -1    0    0    0  501  0.00000000000E+00  0.00000000000E+00  0.20867944870E+04  0.20867944870E+04  0.25500000920E-02 0. -1.
        2   -1    0    0  501    0  0.00000000000E+00  0.00000000000E+00 -0.15514483370E+04  0.15514483370E+04  0.25500000920E-02 0.  1.
    10030    2    1    2    0    0  0.00000000000E+00  0.00000000000E+00  0.53534614999E+03  0.36382428240E+04  0.35986407637E+04 0.  0.
        5    1    3    3  502    0  0.10454460857E+04 -0.99452108018E+03  0.13544453397E+04  0.19790335938E+04  0.46999998093E+01 0. -1.
       -5    1    3    3    0  502 -0.10454460857E+04  0.99452108018E+03 -0.81909918969E+03  0.16592092302E+04  0.46999998093E+01 0.  1.
</event>
<event>
 5   0  0.3279988E-08  0.3599231E+04  0.7818609E-02  0.8090668E-01
       -1   -1    0    0    0  501  0.00000000000E+00  0.00000000000E+00  0.17052859830E+04  0.17052859830E+04  0.50400001928E-02 0. -1.
        1   -1    0    0  501    0  0.00000000000E+00  0.00000000000E+00 -0.18991633674E+04  0.18991633674E+04  0.50400001928E-02 0.  1.
    10030    2    1    2    0    0  0.00000000000E+00  0.00000000000E+00 -0.19387738440E+03  0.36044493504E+04  0.35992314012E+04 0.  0.
        5    1    3    3  502    0  0.37486797149E+03 -0.16920243243E+04  0.38865835907E+03  0.17761052109E+04  0.46999998093E+01 0. -1.
       -5    1    3    3    0  502 -0.37486797149E+03  0.16920243243E+04 -0.58253574347E+03  0.18283441395E+04  0.46999998093E+01 0.  1.
</event>
<event>
 5   0  0.3202875E-08  0.3592577E+04  0.7818609E-02  0.8092194E-01
       -1   -1    0    0    0  501  0.00000000000E+00  0.00000000000E+00  0.21987944731E+04  0.21987944732E+04  0.50400001928E-02 0.  1.
        1   -1    0    0  501    0  0.00000000000E+00  0.00000000000E+00 -0.14674646429E+04  0.14674646429E+04  0.50400001928E-02 0. -1.
    10030    2    1    2    0    0  0.00000000000E+00  0.00000000000E+00  0.73132983023E+03  0.36662591161E+04  0.35925774293E+04 0.  0.
        2    1    3    3  502    0 -0.63398769687E+03 -0.41143132048E+03  0.20286372377E+04  0.21648522290E+04  0.25500000920E-02 0.  1.
       -2    1    3    3    0  502  0.63398769687E+03  0.41143132048E+03 -0.12973074074E+04  0.15014068871E+04  0.25500000920E-02 0. -1.
</event>
<event>
 5   0  0.9905335E-08  0.3600148E+04  0.7818609E-02  0.8090458E-01
        2   -1    0    0  501    0  0.00000000000E+00  0.00000000000E+00  0.22584252123E+04  0.22584252123E+04  0.25500000920E-02 0.  1.
       -2   -1    0    0    0  501  0.00000000000E+00  0.00000000000E+00 -0.14347461715E+04  0.14347461715E+04  0.25500000920E-02 0. -1.
    10030    2    1    2    0    0  0.00000000000E+00  0.00000000000E+00  0.82367904078E+03  0.36931713838E+04  0.36001482897E+04 0.  0.
        5    1    3    3  502    0  0.12504982581E+04  0.12496127584E+04  0.64010769209E+02  0.17690102906E+04  0.46999998093E+01 0.  1.
       -5    1    3    3    0  502 -0.12504982581E+04 -0.12496127584E+04  0.75966827157E+03  0.19241610932E+04  0.46999998093E+01 0. -1.
</event>
<event>
 5   0  0.1017794E-07  0.3609763E+04  0.7818609E-02  0.8088259E-01
        2   -1    0    0  501    0  0.00000000000E+00  0.00000000000E+00  0.16628807016E+04  0.16628807016E+04  0.25500000920E-02 0.  1.
       -2   -1    0    0    0  501  0.00000000000E+00  0.00000000000E+00 -0.19590084503E+04  0.19590084503E+04  0.25500000920E-02 0. -1.
    10030    2    1    2    0    0  0.00000000000E+00  0.00000000000E+00 -0.29612774871E+03  0.36218891519E+04  0.36097630649E+04 0.  0.
        1    1    3    3  502    0 -0.79087407080E+03  0.16016468529E+04 -0.40747233014E+03  0.18321539611E+04  0.50400001928E-02 0. -1.
       -1    1    3    3    0  502  0.79087407080E+03 -0.16016468529E+04  0.11134458143E+03  0.17897351908E+04  0.50400001928E-02 0.  1.
</event>
<event>
 5   0  0.3215494E-08  0.3609768E+04  0.7818609E-02  0.8088258E-01
       -1   -1    0    0    0  501  0.00000000000E+00  0.00000000000E+00  0.11673914339E+04  0.11673914339E+04  0.50400001928E-02 0. -1.
        1   -1    0    0  501    0  0.00000000000E+00  0.00000000000E+00 -0.27905004496E+04  0.27905004496E+04  0.50400001928E-02 0.  1.
    10030    2    1    2    0    0  0.00000000000E+00  0.00000000000E+00 -0.16231090157E+04  0.39578918835E+04  0.36097680375E+04 0.  0.
        4    1    3    3  502    0 -0.29388952797E+03  0.17961603335E+03 -0.27541319169E+04  0.27755859206E+04  0.12699999809E+01 0.  1.
       -4    1    3    3    0  502  0.29388952797E+03 -0.17961603335E+03  0.11310229011E+04  0.11823059629E+04  0.12699999809E+01 0. -1.
</event>
<event>
 5   0  0.3202875E-08  0.3606335E+04  0.7818609E-02  0.8089042E-01
       -3   -1    0    0    0  501  0.00000000000E+00  0.00000000000E+00  0.26379111699E+04  0.26379111718E+04  0.10100000352E+00 0. -1.
        3   -1    0    0  501    0  0.00000000000E+00  0.00000000000E+00 -0.12325710667E+04  0.12325710709E+04  0.10100000352E+00 0.  1.
    10030    2    1    2    0    0  0.00000000000E+00  0.00000000000E+00  0.14053401031E+04  0.38704822426E+04  0.36063349796E+04 0.  0.
        1    1    3    3  502    0 -0.70416221315E+03 -0.17281666956E+03  0.24745662602E+04  0.25786019855E+04  0.50400001928E-02 0. -1.
       -1    1    3    3    0  502  0.70416221315E+03  0.17281666956E+03 -0.10692261571E+04  0.12918802571E+04  0.50400001928E-02 0.  1.
</event>
<event>
 5   0  0.3279988E-08  0.3622967E+04  0.7818609E-02  0.8085251E-01
        1   -1    0    0  501    0  0.00000000000E+00  0.00000000000E+00  0.15336439173E+04  0.15336439174E+04  0.50400001928E-02 0. -1.
       -1   -1    0    0    0  501  0.00000000000E+00  0.00000000000E+00 -0.21396573721E+04  0.21396573721E+04  0.50400001928E-02 0.  1.
    10030    2    1    2    0    0  0.00000000000E+00  0.00000000000E+00 -0.60601345474E+03  0.36733012894E+04  0.36229670238E+04 0.  0.
        5    1    3    3  502    0  0.69281436961E+03 -0.54521077784E+03  0.13014463194E+04  0.15719513845E+04  0.46999998093E+01 0. -1.
       -5    1    3    3    0  502 -0.69281436961E+03  0.54521077784E+03 -0.19074597741E+04  0.21013499049E+04  0.46999998093E+01 0.  1.
</event>
<event>
 5   0  0.3212523E-08  0.3602229E+04  0.7818609E-02  0.8089981E-01
       -1   -1    0    0    0  501  0.00000000000E+00  0.00000000000E+00  0.12427562514E+04  0.12427562514E+04  0.50400001928E-02 0.  1.
        1   -1    0    0  501    0  0.00000000000E+00  0.00000000000E+00 -0.26103383721E+04  0.26103383721E+04  0.50400001928E-02 0. -1.
    10030    2    1    2    0    0  0.00000000000E+00  0.00000000000E+00 -0.13675821206E+04  0.38530946235E+04  0.36022294931E+04 0.  0.
        3    1    3    3  502    0  0.38608930213E+03 -0.16729291612E+04 -0.12659919902E+04  0.21331883782E+04  0.10100000352E+00 0. -1.
       -3    1    3    3    0  502 -0.38608930213E+03  0.16729291612E+04 -0.10159013043E+03  0.17199062453E+04  0.10100000352E+00 0.  1.
</event>
<event>
 5   0  0.3279988E-08  0.3601973E+04  0.7818609E-02  0.8090040E-01
        1   -1    0    0  501    0  0.00000000000E+00  0.00000000000E+00  0.32128221934E+04  0.32128221934E+04  0.50400001928E-02 0. -1.
       -1   -1    0    0    0  501  0.00000000000E+00  0.00000000000E+00 -0.10095646829E+04  0.10095646829E+04  0.50400001928E-02 0.  1.
    10030    2    1    2    0    0  0.00000000000E+00  0.00000000000E+00  0.22032575105E+04  0.42223868763E+04  0.36019726923E+04 0.  0.
        5    1    3    3  502    0  0.79406391026E+03 -0.76126052046E+03 -0.56998905234E+03  0.12389369166E+04  0.46999998093E+01 0.  1.
       -5    1    3    3    0  502 -0.79406391026E+03  0.76126052046E+03  0.27732465629E+04  0.29834499597E+04  0.46999998093E+01 0. -1.
</event>
<event>
 5   0  0.3215494E-08  0.3599624E+04  0.7818609E-02  0.8090578E-01
       -1   -1    0    0    0  501  0.00000000000E+00  0.00000000000E+00  0.20319695606E+04  0.20319695606E+04  0.50400001928E-02 0. -1.
        1   -1    0    0  501    0  0.00000000000E+00  0.00000000000E+00 -0.15941788291E+04  0.15941788291E+04  0.50400001928E-02 0.  1.
    10030    2    1    2    0    0  0.00000000000E+00  0.00000000000E+00  0.43779073151E+03  0.36261483898E+04  0.35996237887E+04 0.  0.
        4    1    3    3  502    0 -0.19695504863E+03 -0.85095763515E+03  0.18041496999E+04  0.20044645022E+04  0.12699999809E+01 0. -1.
       -4    1    3    3    0  502  0.19695504863E+03  0.85095763515E+03 -0.13663589684E+04  0.16216838876E+04  0.12699999809E+01 0.  1.
</event>
<event>
 5   0  0.3279988E-08  0.3590070E+04  0.7818609E-02  0.8092770E-01
        1   -1    0    0  501    0  0.00000000000E+00  0.00000000000E+00  0.19171087803E+04  0.19171087803E+04  0.50400001928E-02 0.  1.
       -1   -1    0    0    0  501  0.00000000000E+00  0.00000000000E+00 -0.16807339790E+04  0.16807339790E+04  0.50400001928E-02 0. -1.
    10030    2    1    2    0    0  0.00000000000E+00  0.00000000000E+00  0.23637480133E+03  0.35978427593E+04  0.35900695640E+04 0.  0.
        5    1    3    3  502    0  0.79590411288E+03 -0.94807961607E+03 -0.11845539068E+04  0.17133325315E+04  0.46999998093E+01 0. -1.
       -5    1    3    3    0  502 -0.79590411288E+03  0.94807961607E+03  0.14209287081E+04  0.18845102278E+04  0.46999998093E+01 0.  1.
</event>
<event>
 5   0  0.1029908E-07  0.3602711E+04  0.7818609E-02  0.8089871E-01
        2   -1    0    0  501    0  0.00000000000E+00  0.00000000000E+00  0.20288475487E+04  0.20288475487E+04  0.25500000920E-02 0.  1.
       -2   -1    0    0    0  501  0.00000000000E+00  0.00000000000E+00 -0.15993716946E+04  0.15993716946E+04  0.25500000920E-02 0. -1.
    10030    2    1    2    0    0  0.00000000000E+00  0.00000000000E+00  0.42947585411E+03  0.36282192434E+04  0.36027108361E+04 0.  0.
        4    1    3    3  502    0 -0.48308488791E+03  0.96305973277E+03  0.16685743486E+04  0.19862016583E+04  0.12699999809E+01 0.  1.
       -4    1    3    3    0  502  0.48308488791E+03 -0.96305973277E+03 -0.12390984945E+04  0.16420175851E+04  0.12699999809E+01 0. -1.
</event>
<event>
 5   0  0.3279988E-08  0.3592432E+04  0.7818609E-02  0.8092228E-01
        1   -1    0    0  501    0  0.00000000000E+00  0.00000000000E+00  0.22301530716E+04  0.22301530717E+04  0.50400001928E-02 0.  1.
       -1   -1    0    0    0  501  0.00000000000E+00  0.00000000000E+00 -0.14467128354E+04  0.14467128355E+04  0.50400001928E-02 0. -1.
    10030    2    1    2    0    0  0.00000000000E+00  0.00000000000E+00  0.78344023620E+03  0.36768659071E+04  0.35924315296E+04 0.  0.
        5    1    3    3  502    0  0.13898798967E+04  0.83350059062E+03 -0.40100267727E+03  0.16695252616E+04  0.46999998093E+01 0.  1.
       -5    1    3    3    0  502 -0.13898798967E+04 -0.83350059062E+03  0.11844429135E+04  0.20073406455E+04  0.46999998093E+01 0. -1.
</event>
<event>
 5   0  0.1021087E-07  0.3594067E+04  0.7818609E-02  0.8091852E-01
        2   -1    0    0  501    0  0.00000000000E+00  0.00000000000E+00  0.17728768686E+04  0.17728768686E+04  0.25500000920E-02 0.  1.
       -2   -1    0    0    0  501  0.00000000000E+00  0.00000000000E+00 -0.18215189428E+04  0.18215189428E+04  0.25500000920E-02 0. -1.
    10030    2    1    2    0    0  0.00000000000E+00  0.00000000000E+00 -0.48642074250E+02  0.35943958114E+04  0.35940666657E+04 0.  0.
        3    1    3    3  502    0 -0.23321285600E+03  0.70260857569E+03 -0.16619329784E+04  0.18193593052E+04  0.10100000352E+00 0. -1.
       -3    1    3    3    0  502  0.23321285600E+03 -0.70260857569E+03  0.16132909041E+04  0.17750365062E+04  0.10100000352E+00 0.  1.
</event>
<event>
 5   0  0.1021087E-07  0.3595944E+04  0.7818609E-02  0.8091421E-01
        2   -1    0    0  501    0  0.00000000000E+00  0.00000000000E+00  0.19797427423E+04  0.19797427423E+04  0.25500000920E-02 0. -1.
       -2   -1    0    0    0  501  0.00000000000E+00  0.00000000000E+00 -0.16328906488E+04  0.16328906488E+04  0.25500000920E-02 0.  1.
    10030    2    1    2    0    0  0.00000000000E+00  0.00000000000E+00  0.34685209349E+03  0.36126333910E+04  0.35959440545E+04 0.  0.
        3    1    3    3  502    0 -0.61906326306E+03  0.15520738333E+03 -0.15152603105E+04  0.16441844405E+04  0.10100000352E+00 0.  1.
       -3    1    3    3    0  502  0.61906326306E+03 -0.15520738333E+03  0.18621124040E+04  0.19684489505E+04  0.10100000352E+00 0. -1.
</event>
<event>
 5   0  0.3202875E-08  0.3602263E+04  0.7818609E-02  0.8089974E-01
        1   -1    0    0  501    0  0.00000000000E+00  0.00000000000E+00  0.15560875220E+04  0.15560875221E+04  0.50400001928E-02 0. -1.
       -1   -1    0    0    0  501  0.00000000000E+00  0.00000000000E+00 -0.20847634788E+04  0.20847634788E+04  0.50400001928E-02 0.  1.
    10030    2    1    2    0    0  0.00000000000E+00  0.00000000000E+00 -0.52867595678E+03  0.36408510009E+04  0.36022628643E+04 0.  0.
        2    1    3    3  502    0 -0.14280237265E+04 -0.10718514457E+04 -0.50342461440E+03  0.18551424817E+04  0.25500000920E-02 0.  1.
       -2    1    3    3    0  502  0.14280237265E+04  0.10718514457E+04 -0.25251342381E+02  0.17857085192E+04  0.25500000920E-02 0. -1.
</event>
<event>
 5   0  0.9905335E-08  0.3621124E+04  0.7818609E-02  0.8085670E-01
        2   -1    0    0  501    0  0.00000000000E+00  0.00000000000E+00  0.17450964366E+04  0.17450964366E+04  0.25500000920E-02 0.  1.
       -2   -1    0    0    0  501  0.00000000000E+00  0.00000000000E+00 -0.18784832349E+04  0.18784832349E+04  0.25500000920E-02 0. -1.
    10030    2    1    2    0    0  0.00000000000E+00  0.00000000000E+00 -0.13338679825E+03  0.36235796715E+04  0.36211238031E+04 0.  0.
        5    1    3    3  502    0 -0.11866842081E+04 -0.86733039571E+03  0.99120421714E+03  0.17728477981E+04  0.46999998093E+01 0.  1.
       -5    1    3    3    0  502  0.11866842081E+04  0.86733039571E+03 -0.11245910154E+04  0.18507318734E+04  0.46999998093E+01 0. -1.
</event>
<event>
 5   0  0.3279988E-08  0.3603606E+04  0.7818609E-02  0.8089666E-01
        1   -1    0    0  501    0  0.00000000000E+00  0.00000000000E+00  0.20231213327E+04  0.20231213327E+04  0.50400001928E-02 0. -1.
       -1   -1    0    0    0  501  0.00000000000E+00  0.00000000000E+00 -0.16046959524E+04  0.16046959525E+04  0.50400001928E-02 0.  1.
    10030    2    1    2    0    0  0.00000000000E+00  0.00000000000E+00  0.41842538026E+03  0.36278172852E+04  0.36036063125E+04 0.  0.
        5    1    3    3  502    0 -0.93309117509E+03 -0.12441275899E+04  0.11252490756E+04  0.19195624952E+04  0.46999998093E+01 0.  1.
       -5    1    3    3    0  502  0.93309117509E+03  0.12441275899E+04 -0.70682369539E+03  0.17082547899E+04  0.46999998093E+01 0. -1.
</event>
<event>
 5   0  0.3202875E-08  0.3604933E+04  0.7818609E-02  0.8089363E-01
        1   -1    0    0  501    0  0.00000000000E+00  0.00000000000E+00  0.27173525967E+04  0.27173525967E+04  0.50400001928E-02 0. -1.
       -1   -1    0    0    0  501  0.00000000000E+00  0.00000000000E+00 -0.11956071601E+04  0.11956071601E+04  0.50400001928E-02 0.  1.
    10030    2    1    2    0    0  0.00000000000E+00  0.00000000000E+00  0.15217454366E+04  0.39129597568E+04  0.36049334092E+04 0.  0.
        2    1    3    3  502    0 -0.97374754123E+03 -0.11858995259E+04 -0.26563092952E+03  0.15572738199E+04  0.25500000920E-02 0.  1.
       -2    1    3    3    0  502  0.97374754123E+03  0.11858995259E+04  0.17873763661E+04  0.23556859369E+04  0.25500000920E-02 0. -1.
</event>
<event>
 5   0  0.9905335E-08  0.3601457E+04  0.7818609E-02  0.8090158E-01
        2   -1    0    0  501    0  0.00000000000E+00  0.00000000000E+00  0.13726560245E+04  0.13726560245E+04  0.25500000920E-02 0.  1.
       -2   -1    0    0    0  501  0.00000000000E+00  0.00000000000E+00 -0.23622987327E+04  0.23622987327E+04  0.25500000920E-02 0. -1.
    10030    2    1    2    0    0  0.00000000000E+00  0.00000000000E+00 -0.98964270819E+03  0.37349547572E+04  0.36014572535E+04 0.  0.
        5    1    3    3  502    0  0.71869771673E+03  0.13592068777E+04  0.47727771688E+03  0.16099024360E+04  0.46999998093E+01 0.  1.
       -5    1    3    3    0  502 -0.71869771673E+03 -0.13592068777E+04 -0.14669204251E+04  0.21250523212E+04  0.46999998093E+01 0. -1.
</event>
<event>
 5   0  0.1017794E-07  0.3602351E+04  0.7818609E-02  0.8089953E-01
       -2   -1    0    0    0  501  0.00000000000E+00  0.00000000000E+00  0.29143088041E+04  0.29143088041E+04  0.25500000920E-02 0.  1.
        2   -1    0    0  501    0  0.00000000000E+00  0.00000000000E+00 -0.11132086988E+04  0.11132086988E+04  0.25500000920E-02 0. -1.
    10030    2    1    2    0    0  0.00000000000E+00  0.00000000000E+00  0.18011001053E+04  0.40275175030E+04  0.36023514053E+04 0.  0.
        1    1    3    3  502    0 -0.36424898698E+03 -0.15479335593E+04 -0.45128455201E+02  0.15908526663E+04  0.50400001928E-02 0. -1.
       -1    1    3    3    0  502  0.36424898698E+03  0.15479335593E+04  0.18462285605E+04  0.24366648366E+04  0.50400001928E-02 0.  1.
</event>
<event>
 5   0  0.3202875E-08  0.3598995E+04  0.7818609E-02  0.8090722E-01
       -1   -1    0    0    0  501  0.00000000000E+00  0.00000000000E+00  0.14254572690E+04  0.14254572690E+04  0.50400001928E-02 0.  1.
        1   -1    0    0  501    0  0.00000000000E+00  0.00000000000E+00 -0.22716862763E+04  0.22716862763E+04  0.50400001928E-02 0. -1.
    10030    2    1    2    0    0  0.00000000000E+00  0.00000000000E+00 -0.84622900729E+03  0.36971435454E+04  0.35989952573E+04 0.  0.
        2    1    3    3  502    0 -0.35011432235E+03  0.19233680733E+03  0.13793343781E+04  0.14360142105E+04  0.25500000920E-02 0.  1.
       -2    1    3    3    0  502  0.35011432235E+03 -0.19233680733E+03 -0.22255633854E+04  0.22611293348E+04  0.25500000920E-02 0. -1.
</event>
<event>
 5   0  0.1017794E-07  0.3601810E+04  0.7818609E-02  0.8090077E-01
        2   -1    0    0  501    0  0.00000000000E+00  0.00000000000E+00  0.17816605573E+04  0.17816605573E+04  0.25500000920E-02 0. -1.
       -2   -1    0    0    0  501  0.00000000000E+00  0.00000000000E+00 -0.18203574865E+04  0.18203574865E+04  0.25500000920E-02 0.  1.
    10030    2    1    2    0    0  0.00000000000E+00  0.00000000000E+00 -0.38696929191E+02  0.36020180437E+04  0.36018101748E+04 0.  0.
        1    1    3    3  502    0 -0.46829422472E+03 -0.48316403217E+03 -0.16899274882E+04  0.18189562607E+04  0.50400001928E-02 0.  1.
       -1    1    3    3    0  502  0.46829422472E+03  0.48316403217E+03  0.16512305590E+04  0.17830617830E+04  0.50400001928E-02 0. -1.
</event>
<event>
 5   0  0.3215494E-08  0.3605232E+04  0.7818609E-02  0.8089294E-01
        1   -1    0    0  501    0  0.00000000000E+00  0.00000000000E+00  0.28036301254E+04  0.28036301254E+04  0.50400001928E-02 0. -1.
       -1   -1    0    0    0  501  0.00000000000E+00  0.00000000000E+00 -0.11590058198E+04  0.11590058198E+04  0.50400001928E-02 0.  1.
    10030    2    1    2    0    0  0.00000000000E+00  0.00000000000E+00  0.16446243057E+04  0.39626359452E+04  0.36052315498E+04 0.  0.
        4    1    3    3  502    0 -0.45284535985E+03  0.38953448830E+02  0.27396130047E+04  0.27770609139E+04  0.12699999809E+01 0. -1.
       -4    1    3    3    0  502  0.45284535985E+03 -0.38953448830E+02 -0.10949886990E+04  0.11855750313E+04  0.12699999809E+01 0.  1.
</event>
<event>
 5   0  0.1021087E-07  0.3608086E+04  0.7818609E-02  0.8088642E-01
        2   -1    0    0  501    0  0.00000000000E+00  0.00000000000E+00  0.32286575478E+04  0.32286575478E+04  0.25500000920E-02 0. -1.
       -2   -1    0    0    0  501  0.00000000000E+00  0.00000000000E+00 -0.10080262158E+04  0.10080262158E+04  0.25500000920E-02 0.  1.
    10030    2    1    2    0    0  0.00000000000E+00  0.00000000000E+00  0.22206313320E+04  0.42366837636E+04  0.36080861687E+04 0.  0.
        3    1    3    3  502    0 -0.98957277341E+03 -0.14708980523E+04  0.15028915311E+04  0.23241080694E+04  0.10100000352E+00 0. -1.
       -3    1    3    3    0  502  0.98957277341E+03  0.14708980523E+04  0.71773980090E+03  0.19125756942E+04  0.10100000352E+00 0.  1.
</event>
<event>
 5   0  0.3215494E-08  0.3598875E+04  0.7818609E-02  0.8090749E-01
       -1   -1    0    0    0  501  0.00000000000E+00  0.00000000000E+00  0.26250654868E+04  0.26250654868E+04  0.50400001928E-02 0.  1.
        1   -1    0    0  501    0  0.00000000000E+00  0.00000000000E+00 -0.12334838343E+04  0.12334838343E+04  0.50400001928E-02 0. -1.
    10030    2    1    2    0    0  0.00000000000E+00  0.00000000000E+00  0.13915816525E+04  0.38585493211E+04  0.35988752921E+04 0.  0.
        4    1    3    3  502    0 -0.75720988722E+03 -0.72462826619E+03 -0.87246014257E+03  0.13636866395E+04  0.12699999809E+01 0. -1.
       -4    1    3    3    0  502  0.75720988722E+03  0.72462826619E+03  0.22640417951E+04  0.24948626816E+04  0.12699999809E+01 0.  1.
</event>
<event>
 5   0  0.1021087E-07  0.3595864E+04  0.7818609E-02  0.8091440E-01
       -2   -1    0    0    0  501  0.00000000000E+00  0.00000000000E+00  0.14941408426E+04  0.14941408426E+04  0.25500000920E-02 0.  1.
        2   -1    0    0  501    0  0.00000000000E+00  0.00000000000E+00 -0.21634908243E+04  0.21634908243E+04  0.25500000920E-02 0. -1.
    10030    2    1    2    0    0  0.00000000000E+00  0.00000000000E+00 -0.66934998170E+03  0.36576316670E+04  0.35958642929E+04 0.  0.
        3    1    3    3  502    0  0.10865160117E+04  0.10481755334E+04 -0.13278542566E+04  0.20105685587E+04  0.10100000352E+00 0. -1.
       -3    1    3    3    0  502 -0.10865160117E+04 -0.10481755334E+04  0.65850427486E+03  0.16470631083E+04  0.10100000352E+00 0.  1.
</event>
<event>
 5   0  0.1029908E-07  0.3601978E+04  0.7818609E-02  0.8090039E-01
        2   -1    0    0  501    0  0.00000000000E+00  0.00000000000E+00  0.21896139731E+04  0.21896139731E+04  0.25500000920E-02 0. -1.
       -2   -1    0    0    0  501  0.00000000000E+00  0.00000000000E+00 -0.14813397521E+04  0.14813397521E+04  0.25500000920E-02 0.  1.
    10030    2    1    2    0    0  0.00000000000E+00  0.00000000000E+00  0.70827422097E+03  0.36709537252E+04  0.36019784676E+04 0.  0.
        4    1    3    3  502    0  0.16773345950E+04 -0.43212815930E+03 -0.14863982848E+03  0.17384710240E+04  0.12699999809E+01 0.  1.
       -4    1    3    3    0  502 -0.16773345950E+04  0.43212815930E+03  0.85691404945E+03  0.19324827013E+04  0.12699999809E+01 0. -1.
</event>
<event>
 5   0  0.1044678E-07  0.3596146E+04  0.7818609E-02  0.8091375E-01
        2   -1    0    0  501    0  0.00000000000E+00  0.00000000000E+00  0.21041345697E+04  0.21041345697E+04  0.25500000920E-02 0. -1.
       -2   -1    0    0    0  501  0.00000000000E+00  0.00000000000E+00 -0.15365306985E+04  0.15365306985E+04  0.25500000920E-02 0.  1.
    10030    2    1    2    0    0  0.00000000000E+00  0.00000000000E+00  0.56760387126E+03  0.36406652682E+04  0.35961464710E+04 0.  0.
        2    1    3    3  502    0 -0.14010282671E+04 -0.36267072079E+03  0.13640906978E+04  0.19887568199E+04  0.25500000920E-02 0. -1.
       -2    1    3    3    0  502  0.14010282671E+04  0.36267072079E+03 -0.79648682653E+03  0.16519084483E+04  0.25500000920E-02 0.  1.
</event>
<event>
 5   0  0.1044678E-07  0.3597417E+04  0.7818609E-02  0.8091084E-01
       -2   -1    0    0    0  501  0.00000000000E+00  0.00000000000E+00  0.12237555978E+04  0.12237555978E+04  0.25500000920E-02 0.  1.
        2   -1    0    0  501    0  0.00000000000E+00  0.00000000000E+00 -0.26437888597E+04  0.26437888597E+04  0.25500000920E-02 0. -1.
    10030    2    1    2    0    0  0.00000000000E+00  0.00000000000E+00 -0.14200332619E+04  0.38675444576E+04  0.35974165267E+04 0.  0.
        2    1    3    3  502    0 -0.16550549377E+02  0.64109982238E+03 -0.25167006520E+04  0.25971263109E+04  0.25500000920E-02 0. -1.
       -2    1    3    3    0  502  0.16550549377E+02 -0.64109982238E+03  0.10966673901E+04  0.12704181467E+04  0.25500000920E-02 0.  1.
</event>
<event>
 5   0  0.3215494E-08  0.3612423E+04  0.7818609E-02  0.8087652E-01
        1   -1    0    0  501    0  0.00000000000E+00  0.00000000000E+00  0.17232064371E+04  0.17232064371E+04  0.50400001928E-02 0.  1.
       -1   -1    0    0    0  501  0.00000000000E+00  0.00000000000E+00 -0.18932143623E+04  0.18932143623E+04  0.50400001928E-02 0. -1.
    10030    2    1    2    0    0  0.00000000000E+00  0.00000000000E+00 -0.17000792517E+03  0.36164207993E+04  0.36124225533E+04 0.  0.
        4    1    3    3  502    0 -0.76630780154E+03  0.11750074382E+04 -0.12240362712E+04  0.18617563033E+04  0.12699999809E+01 0. -1.
       -4    1    3    3    0  502  0.76630780154E+03 -0.11750074382E+04  0.10540283461E+04  0.17546644961E+04  0.12699999809E+01 0.  1.
</event>
<event>
 5   0  0.1044678E-07  0.3607251E+04  0.7818609E-02  0.8088833E-01
        2   -1    0    0  501    0  0.00000000000E+00  0.00000000000E+00  0.21821947535E+04  0.21821947535E+04  0.25500000920E-02 0. -1.
       -2   -1    0    0    0  501  0.00000000000E+00  0.00000000000E+00 -0.14907310183E+04  0.14907310183E+04  0.25500000920E-02 0.  1.
    10030    2    1    2    0    0  0.00000000000E+00  0.00000000000E+00  0.69146373515E+03  0.36729257718E+04  0.36072512565E+04 0.  0.
        2    1    3    3  502    0 -0.13585216341E+04 -0.34495806669E+03  0.15015140613E+04  0.20540500418E+04  0.25500000920E-02 0. -1.
       -2    1    3    3    0  502  0.13585216341E+04  0.34495806669E+03 -0.81005032619E+03  0.16188757299E+04  0.25500000920E-02 0.  1.
</event>
<event>
 5   0  0.9905335E-08  0.3596005E+04  0.7818609E-02  0.8091407E-01
        2   -1    0    0  501    0  0.00000000000E+00  0.00000000000E+00  0.17390470711E+04  0.17390470712E+04  0.25500000920E-02 0. -1.
       -2   -1    0    0    0  501  0.00000000000E+00  0.00000000000E+00 -0.18589564671E+04  0.18589564672E+04  0.25500000920E-02 0.  1.
    10030    2    1    2    0    0  0.00000000000E+00  0.00000000000E+00 -0.11990939600E+03  0.35980035383E+04  0.35960048941E+04 0.  0.
        5    1    3    3  502    0  0.11219629635E+04 -0.96363338466E+03  0.96306187051E+03  0.17649080565E+04  0.46999998093E+01 0. -1.
       -5    1    3    3    0  502 -0.11219629635E+04  0.96363338466E+03 -0.10829712665E+04  0.18330954818E+04  0.46999998093E+01 0.  1.
</event>
<event>
 5   0  0.9905335E-08  0.3605497E+04  0.7818609E-02  0.8089234E-01
        2   -1    0    0  501    0  0.00000000000E+00  0.00000000000E+00  0.28411710792E+04  0.28411710792E+04  0.25500000920E-02 0. -1.
       -2   -1    0    0    0  501  0.00000000000E+00  0.00000000000E+00 -0.11438603085E+04  0.11438603085E+04  0.25500000920E-02 0.  1.
    10030    2    1    2    0    0  0.00000000000E+00  0.00000000000E+00  0.16973107707E+04  0.39850313878E+04  0.36054973733E+04 0.  0.
        5    1    3    3  502    0  0.44985206205E+03 -0.20165667878E+03 -0.10679042278E+04  0.11762116406E+04  0.46999998093E+01 0.  1.
       -5    1    3    3    0  502 -0.44985206205E+03  0.20165667878E+03  0.27652149985E+04  0.28088197471E+04  0.46999998093E+01 0. -1.
</event>
<event>
 5   0  0.1021087E-07  0.3609967E+04  0.7818609E-02  0.8088212E-01
        2   -1    0    0  501    0  0.00000000000E+00  0.00000000000E+00  0.14864728285E+04  0.14864728285E+04  0.25500000920E-02 0.  1.
       -2   -1    0    0    0  501  0.00000000000E+00  0.00000000000E+00 -0.21917420883E+04  0.21917420883E+04  0.25500000920E-02 0. -1.
    10030    2    1    2    0    0  0.00000000000E+00  0.00000000000E+00 -0.70526925986E+03  0.36782149168E+04  0.36099667928E+04 0.  0.
        3    1    3    3  502    0 -0.22086299836E+03  0.89746629855E+03  0.12270759759E+04  0.15362101685E+04  0.10100000352E+00 0.  1.
       -3    1    3    3    0  502  0.22086299836E+03 -0.89746629855E+03 -0.19323452358E+04  0.21420047482E+04  0.10100000352E+00 0. -1.
</event>
<event>
 5   0  0.3279988E-08  0.3615422E+04  0.7818609E-02  0.8086968E-01
        1   -1    0    0  501    0  0.00000000000E+00  0.00000000000E+00  0.18202463366E+04  0.18202463366E+04  0.50400001928E-02 0. -1.
       -1   -1    0    0    0  501  0.00000000000E+00  0.00000000000E+00 -0.17952622910E+04  0.17952622910E+04  0.50400001928E-02 0.  1.
    10030    2    1    2    0    0  0.00000000000E+00  0.00000000000E+00  0.24984045565E+02  0.36155086276E+04  0.36154223036E+04 0.  0.
        5    1    3    3  502    0 -0.15879044316E+04  0.82599342256E+03  0.26566184939E+03  0.18095037790E+04  0.46999998093E+01 0.  1.
       -5    1    3    3    0  502  0.15879044316E+04 -0.82599342256E+03 -0.24067780383E+03  0.18060048486E+04  0.46999998093E+01 0. -1.
</event>
<event>
 5   0  0.3202875E-08  0.3598346E+04  0.7818609E-02  0.8090871E-01
       -1   -1    0    0    0  501  0.00000000000E+00  0.00000000000E+00  0.24254108820E+04  0.24254108820E+04  0.50400001928E-02 0. -1.
        1   -1    0    0  501    0  0.00000000000E+00  0.00000000000E+00 -0.13346289672E+04  0.13346289673E+04  0.50400001928E-02 0.  1.
    10030    2    1    2    0    0  0.00000000000E+00  0.00000000000E+00  0.10907819147E+04  0.37600398492E+04  0.35983460760E+04 0.  0.
        1    1    3    3  502    0 -0.12990806002E+04 -0.29917983604E+03  0.18079501906E+04  0.22462864625E+04  0.50400001928E-02 0. -1.
       -1    1    3    3    0  502  0.12990806002E+04  0.29917983604E+03 -0.71716827582E+03  0.15137533867E+04  0.50400001928E-02 0.  1.
</event>
<event>
 5   0  0.1021087E-07  0.3563052E+04  0.7818609E-02  0.8099008E-01
        2   -1    0    0  501    0  0.00000000000E+00  0.00000000000E+00  0.10894960104E+04  0.10894960104E+04  0.25500000920E-02 0. -1.
       -2   -1    0    0    0  501  0.00000000000E+00  0.00000000000E+00 -0.29131228054E+04  0.29131228054E+04  0.25500000920E-02 0.  1.
    10030    2    1    2    0    0  0.00000000000E+00  0.00000000000E+00 -0.18236267950E+04  0.40026188157E+04  0.35630524409E+04 0.  0.
        3    1    3    3  502    0  0.14050789327E+04 -0.10369669047E+04 -0.13078519671E+04  0.21817479109E+04  0.10100000352E+00 0. -1.
       -3    1    3    3    0  502 -0.14050789327E+04  0.10369669047E+04 -0.51577482790E+03  0.18208709048E+04  0.10100000352E+00 0.  1.
</event>
<event>
 5   0  0.3202875E-08  0.3602904E+04  0.7818609E-02  0.8089827E-01
       -1   -1    0    0    0  501  0.00000000000E+00  0.00000000000E+00  0.29865484725E+04  0.29865484725E+04  0.50400001928E-02 0. -1.
        1   -1    0    0  501    0  0.00000000000E+00  0.00000000000E+00 -0.10866152552E+04  0.10866152552E+04  0.50400001928E-02 0.  1.
    10030    2    1    2    0    0  0.00000000000E+00  0.00000000000E+00  0.18999332173E+04  0.40731637277E+04  0.36029039013E+04 0.  0.
        2    1    3    3  502    0  0.50414282733E+03 -0.16635249973E+04  0.14847332704E+04  0.22860245605E+04  0.25500000920E-02 0. -1.
       -2    1    3    3    0  502 -0.50414282733E+03  0.16635249973E+04  0.41519994695E+03  0.17871391672E+04  0.25500000920E-02 0.  1.
</event>
<event>
 5   0  0.1029908E-07  0.3600607E+04  0.7818609E-02  0.8090353E-01
        2   -1    0    0  501    0  0.00000000000E+00  0.00000000000E+00  0.18835672666E+04  0.18835672666E+04  0.25500000920E-02 0.  1.
       -2   -1    0    0    0  501  0.00000000000E+00  0.00000000000E+00 -0.17207207315E+04  0.17207207315E+04  0.25500000920E-02 0. -1.
    10030    2    1    2    0    0  0.00000000000E+00  0.00000000000E+00  0.16284653509E+03  0.36042879982E+04  0.36006073071E+04 0.  0.
        4    1    3    3  502    0  0.81164287606E+03  0.13493030514E+04  0.95507471188E+03  0.18416167356E+04  0.12699999809E+01 0.  1.
       -4    1    3    3    0  502 -0.81164287606E+03 -0.13493030514E+04 -0.79222817679E+03  0.17626712625E+04  0.12699999809E+01 0. -1.
</event>
<event>
 5   0  0.3215494E-08  0.3602565E+04  0.7818609E-02  0.8089904E-01
       -1   -1    0    0    0  501  0.00000000000E+00  0.00000000000E+00  0.15862280740E+04  0.15862280740E+04  0.50400001928E-02 0.  1.
        1   -1    0    0  501    0  0.00000000000E+00  0.00000000000E+00 -0.20454933418E+04  0.20454933418E+04  0.50400001928E-02 0. -1.
    10030    2    1    2    0    0  0.00000000000E+00  0.00000000000E+00 -0.45926526787E+03  0.36317214158E+04  0.36025651772E+04 0.  0.
        4    1    3    3  502    0  0.13991844907E+03  0.12280780983E+04 -0.15505287808E+04  0.19829004263E+04  0.12699999809E+01 0. -1.
       -4    1    3    3    0  502 -0.13991844907E+03 -0.12280780983E+04  0.10912635129E+04  0.16488209895E+04  0.12699999809E+01 0.  1.
</event>
<event>
 5   0  0.1029908E-07  0.3601917E+04  0.7818609E-02  0.8090053E-01
        2   -1    0    0  501    0  0.00000000000E+00  0.00000000000E+00  0.18432303636E+04  0.18432303636E+04  0.25500000920E-02 0. -1.
       -2   -1    0    0    0  501  0.00000000000E+00  0.00000000000E+00 -0.17596557372E+04  0.17596557372E+04  0.25500000920E-02 0.  1.
    10030    2    1    2    0    0  0.00000000000E+00  0.00000000000E+00  0.83574626445E+02  0.36028861008E+04  0.36019166477E+04 0.  0.
        4    1    3    3  502    0  0.83985913407E+03  0.12302766183E+04 -0.97066363009E+03  0.17779576537E+04  0.12699999809E+01 0.  1.
       -4    1    3    3    0  502 -0.83985913407E+03 -0.12302766183E+04  0.10542382565E+04  0.18249284471E+04  0.12699999809E+01 0. -1.
</event>
<event>
 5   0  0.1017794E-07  0.3583413E+04  0.7818609E-02  0.8094302E-01
       -2   -1    0    0    0  501  0.00000000000E+00  0.00000000000E+00  0.19972551584E+04  0.19972551584E+04  0.25500000920E-02 0. -1.
        2   -1    0    0  501    0  0.00000000000E+00  0.00000000000E+00 -0.16073116355E+04  0.16073116355E+04  0.25500000920E-02 0.  1.
    10030    2    1    2    0    0  0.00000000000E+00  0.00000000000E+00  0.38994352287E+03  0.36045667939E+04  0.35834125943E+04 0.  0.
        1    1    3    3  502    0 -0.16138696391E+04 -0.11695575843E+03  0.96890154459E+03  0.18860074402E+04  0.50400001928E-02 0.  1.
       -1    1    3    3    0  502  0.16138696391E+04  0.11695575843E+03 -0.57895802172E+03  0.17185593537E+04  0.50400001928E-02 0. -1.
</event>
<event>
 5   0  0.1044678E-07  0.3602106E+04  0.7818609E-02  0.8090010E-01
       -2   -1    0    0    0  501  0.00000000000E+00  0.00000000000E+00  0.16719437605E+04  0.16719437605E+04  0.25500000920E-02 0. -1.
        2   -1    0    0  501    0  0.00000000000E+00  0.00000000000E+00 -0.19401318222E+04  0.19401318222E+04  0.25500000920E-02 0.  1.
    10030    2    1    2    0    0  0.00000000000E+00  0.00000000000E+00 -0.26818806177E+03  0.36120755827E+04  0.36021056590E+04 0.  0.
        2    1    3    3  502    0  0.33856405931E+03  0.14170249784E+04  0.92770681170E+03  0.17272015922E+04  0.25500000920E-02 0. -1.
       -2    1    3    3    0  502 -0.33856405931E+03 -0.14170249784E+04 -0.11958948735E+04  0.18848739905E+04  0.25500000920E-02 0.  1.
</event>
<event>
 5   0  0.3212523E-08  0.3599355E+04  0.7818609E-02  0.8090640E-01
       -1   -1    0    0    0  501  0.00000000000E+00  0.00000000000E+00  0.21812283341E+04  0.21812283341E+04  0.50400001928E-02 0.  1.
        1   -1    0    0  501    0  0.00000000000E+00  0.00000000000E+00 -0.14848689598E+04  0.14848689598E+04  0.50400001928E-02 0. -1.
    10030    2    1    2    0    0  0.00000000000E+00  0.00000000000E+00  0.69635937434E+03  0.36660972939E+04  0.35993545241E+04 0.  0.
        3    1    3    3  502    0 -0.50550185750E+03 -0.10247940213E+04 -0.10679626114E+04  0.15640585231E+04  0.10100000352E+00 0. -1.
       -3    1    3    3    0  502  0.50550185750E+03  0.10247940213E+04  0.17643219858E+04  0.21020387708E+04  0.10100000352E+00 0.  1.
</event>
<event>
 5   0  0.3202875E-08  0.3633822E+04  0.7818609E-02  0.8082788E-01
       -1   -1    0    0    0  501  0.00000000000E+00  0.00000000000E+00  0.11434968573E+04  0.11434968574E+04  0.50400001928E-02 0. -1.
        1   -1    0    0  501    0  0.00000000000E+00  0.00000000000E+00 -0.28869042075E+04  0.28869042076E+04  0.50400001928E-02 0.  1.
    10030    2    1    2    0    0  0.00000000000E+00  0.00000000000E+00 -0.17434073502E+04  0.40304010649E+04  0.36338221689E+04 0.  0.
        1    1    3    3  502    0 -0.36962021967E+03 -0.16766662166E+04 -0.21240946134E+03  0.17300134358E+04  0.50400001928E-02 0. -1.
       -1    1    3    3    0  502  0.36962021967E+03  0.16766662166E+04 -0.15309978889E+04  0.23003876291E+04  0.50400001928E-02 0.  1.
</event>
<event>
 5   0  0.3202875E-08  0.3597916E+04  0.7818609E-02  0.8090969E-01
        1   -1    0    0  501    0  0.00000000000E+00  0.00000000000E+00  0.25731937512E+04  0.25731937512E+04  0.50400001928E-02 0.  1.
       -1   -1    0    0    0  501  0.00000000000E+00  0.00000000000E+00 -0.12576785039E+04  0.12576785039E+04  0.50400001928E-02 0. -1.
    10030    2    1    2    0    0  0.00000000000E+00  0.00000000000E+00  0.13155152473E+04  0.38308722551E+04  0.35979163232E+04 0.  0.
        2    1    3    3  502    0  0.52660280335E+03 -0.65864419886E+03  0.23497106081E+04  0.24964500065E+04  0.25500000920E-02 0.  1.
       -2    1    3    3    0  502 -0.52660280335E+03  0.65864419886E+03 -0.10341953608E+04  0.13344222486E+04  0.25500000920E-02 0. -1.
</event>
<event>
 5   0  0.1044678E-07  0.3593851E+04  0.7818609E-02  0.8091902E-01
        2   -1    0    0  501    0  0.00000000000E+00  0.00000000000E+00  0.33427350191E+04  0.33427350191E+04  0.25500000920E-02 0. -1.
       -2   -1    0    0    0  501  0.00000000000E+00  0.00000000000E+00 -0.96595811866E+03  0.96595811867E+03  0.25500000920E-02 0.  1.
    10030    2    1    2    0    0  0.00000000000E+00  0.00000000000E+00  0.23767769005E+04  0.43086931378E+04  0.35938514328E+04 0.  0.
        2    1    3    3  502    0 -0.54080689377E+03  0.55350851987E+03 -0.75594806150E+03  0.10818046264E+04  0.25500000920E-02 0.  1.
       -2    1    3    3    0  502  0.54080689377E+03 -0.55350851987E+03  0.31327249620E+04  0.32268885114E+04  0.25500000920E-02 0. -1.
</event>
<event>
 5   0  0.9905335E-08  0.3600026E+04  0.7818609E-02  0.8090486E-01
        2   -1    0    0  501    0  0.00000000000E+00  0.00000000000E+00  0.20544787360E+04  0.20544787360E+04  0.25500000920E-02 0.  1.
       -2   -1    0    0    0  501  0.00000000000E+00  0.00000000000E+00 -0.15770652899E+04  0.15770652899E+04  0.25500000920E-02 0. -1.
    10030    2    1    2    0    0  0.00000000000E+00  0.00000000000E+00  0.47741344618E+03  0.36315440259E+04  0.36000261684E+04 0.  0.
        5    1    3    3  502    0  0.39723381643E+03 -0.17436839154E+04  0.44493903600E+03  0.18428839187E+04  0.46999998093E+01 0. -1.
       -5    1    3    3    0  502 -0.39723381643E+03  0.17436839154E+04  0.32474410176E+02  0.17886601072E+04  0.46999998093E+01 0.  1.
</event>
<event>
 5   0  0.3202875E-08  0.3593672E+04  0.7818609E-02  0.8091943E-01
       -1   -1    0    0    0  501  0.00000000000E+00  0.00000000000E+00  0.17076580079E+04  0.17076580079E+04  0.50400001928E-02 0. -1.
        1   -1    0    0  501    0  0.00000000000E+00  0.00000000000E+00 -0.18906708626E+04  0.18906708626E+04  0.50400001928E-02 0.  1.
    10030    2    1    2    0    0  0.00000000000E+00  0.00000000000E+00 -0.18301285469E+03  0.35983288705E+04  0.35936717929E+04 0.  0.
        1    1    3    3  502    0  0.12738193863E+04 -0.12038206314E+04 -0.48802377674E+03  0.18193315113E+04  0.50400001928E-02 0.  1.
       -1    1    3    3    0  502 -0.12738193863E+04  0.12038206314E+04  0.30501092205E+03  0.17789973592E+04  0.50400001928E-02 0. -1.
</event>
<event>
 5   0  0.1017794E-07  0.3589406E+04  0.7818609E-02  0.8092923E-01
        2   -1    0    0  501    0  0.00000000000E+00  0.00000000000E+00  0.26105312011E+04  0.26105312011E+04  0.25500000920E-02 0.  1.
       -2   -1    0    0    0  501  0.00000000000E+00  0.00000000000E+00 -0.12338326363E+04  0.12338326363E+04  0.25500000920E-02 0. -1.
    10030    2    1    2    0    0  0.00000000000E+00  0.00000000000E+00  0.13766985648E+04  0.38443638375E+04  0.35894058528E+04 0.  0.
        1    1    3    3  502    0 -0.53170870660E+03  0.14761161607E+04 -0.24493922170E+03  0.15879635673E+04  0.50400001928E-02 0.  1.
       -1    1    3    3    0  502  0.53170870660E+03 -0.14761161607E+04  0.16216377865E+04  0.22564002702E+04  0.50400001928E-02 0. -1.
</event>
<event>
 5   0  0.3202875E-08  0.3613602E+04  0.7818609E-02  0.8087383E-01
       -1   -1    0    0    0  501  0.00000000000E+00  0.00000000000E+00  0.17197569608E+04  0.17197569609E+04  0.50400001928E-02 0.  1.
        1   -1    0    0  501    0  0.00000000000E+00  0.00000000000E+00 -0.18982502540E+04  0.18982502540E+04  0.50400001928E-02 0. -1.
    10030    2    1    2    0    0  0.00000000000E+00  0.00000000000E+00 -0.17849329319E+03  0.36180072149E+04  0.36136015762E+04 0.  0.
        1    1    3    3  502    0 -0.17714435180E+04 -0.26239415087E+03  0.15118412758E+03  0.17971420278E+04  0.50400001928E-02 0. -1.
       -1    1    3    3    0  502  0.17714435180E+04  0.26239415087E+03 -0.32967742077E+03  0.18208651871E+04  0.50400001928E-02 0.  1.
</event>
<event>
 5   0  0.9905335E-08  0.3599886E+04  0.7818609E-02  0.8090518E-01
       -2   -1    0    0    0  501  0.00000000000E+00  0.00000000000E+00  0.17001372267E+04  0.17001372267E+04  0.25500000920E-02 0. -1.
        2   -1    0    0  501    0  0.00000000000E+00  0.00000000000E+00 -0.19056080507E+04  0.19056080507E+04  0.25500000920E-02 0.  1.
    10030    2    1    2    0    0  0.00000000000E+00  0.00000000000E+00 -0.20547082396E+03  0.36057452775E+04  0.35998862130E+04 0.  0.
        5    1    3    3  502    0 -0.69948677437E+02 -0.69757323745E+03 -0.17632248410E+04  0.18974944450E+04  0.46999998093E+01 0.  1.
       -5    1    3    3    0  502  0.69948677437E+02  0.69757323745E+03  0.15577540170E+04  0.17082508324E+04  0.46999998093E+01 0. -1.
</event>
<event>
 5   0  0.1017794E-07  0.3591372E+04  0.7818609E-02  0.8092471E-01
        2   -1    0    0  501    0  0.00000000000E+00  0.00000000000E+00  0.24096427885E+04  0.24096427885E+04  0.25500000920E-02 0.  1.
       -2   -1    0    0    0  501  0.00000000000E+00  0.00000000000E+00 -0.13381605139E+04  0.13381605139E+04  0.25500000920E-02 0. -1.
    10030    2    1    2    0    0  0.00000000000E+00  0.00000000000E+00  0.10714822747E+04  0.37478033024E+04  0.35913723461E+04 0.  0.
        1    1    3    3  502    0 -0.13138682744E+04  0.11173180501E+04  0.14130080565E+02  0.17247750945E+04  0.50400001928E-02 0. -1.
       -1    1    3    3    0  502  0.13138682744E+04 -0.11173180501E+04  0.10573521941E+04  0.20230282079E+04  0.50400001928E-02 0.  1.
</event>
<event>
 5   0  0.9905335E-08  0.3598725E+04  0.7818609E-02  0.8090784E-01
        2   -1    0    0  501    0  0.00000000000E+00  0.00000000000E+00  0.29480448415E+04  0.29480448415E+04  0.25500000920E-02 0.  1.
       -2   -1    0    0    0  501  0.00000000000E+00  0.00000000000E+00 -0.10982552491E+04  0.10982552491E+04  0.25500000920E-02 0. -1.
    10030    2    1    2    0    0  0.00000000000E+00  0.00000000000E+00  0.18497895924E+04  0.40463000906E+04  0.35987251753E+04 0.  0.
        5    1    3    3  502    0 -0.64768358599E+03 -0.41048937757E+03  0.27551294847E+04  0.28598524655E+04  0.46999998093E+01 0.  1.
       -5    1    3    3    0  502  0.64768358599E+03  0.41048937757E+03 -0.90533989229E+03  0.11864476252E+04  0.46999998093E+01 0. -1.
</event>
<event>
 5   0  0.9905335E-08  0.3593274E+04  0.7818609E-02  0.8092034E-01
        2   -1    0    0  501    0  0.00000000000E+00  0.00000000000E+00  0.27787436287E+04  0.27787436287E+04  0.25500000920E-02 0.  1.
       -2   -1    0    0    0  501  0.00000000000E+00  0.00000000000E+00 -0.11616414546E+04  0.11616414546E+04  0.25500000920E-02 0. -1.
    10030    2    1    2    0    0  0.00000000000E+00  0.00000000000E+00  0.16171021741E+04  0.39403850833E+04  0.35932735999E+04 0.  0.
        5    1    3    3  502    0 -0.38027524406E+02  0.27562687148E+03 -0.11378652421E+04  0.11713990200E+04  0.46999998093E+01 0. -1.
       -5    1    3    3    0  502  0.38027524406E+02 -0.27562687148E+03  0.27549674162E+04  0.27689860633E+04  0.46999998093E+01 0.  1.
</event>
<event>
 5   0  0.3202875E-08  0.3620257E+04  0.7818609E-02  0.8085867E-01
        1   -1    0    0  501    0  0.00000000000E+00  0.00000000000E+00  0.21258682867E+04  0.21258682867E+04  0.50400001928E-02 0.  1.
       -1   -1    0    0    0  501  0.00000000000E+00  0.00000000000E+00 -0.15412832822E+04  0.15412832822E+04  0.50400001928E-02 0. -1.
    10030    2    1    2    0    0  0.00000000000E+00  0.00000000000E+00  0.58458500454E+03  0.36671515689E+04  0.36202570353E+04 0.  0.
        2    1    3    3  502    0 -0.51340692376E+03 -0.24289453970E+02 -0.14658130770E+04  0.15533140776E+04  0.25500000920E-02 0. -1.
       -2    1    3    3    0  502  0.51340692376E+03  0.24289453970E+02  0.20503980815E+04  0.21138374913E+04  0.25500000920E-02 0.  1.
</event>
<event>
 5   0  0.1021087E-07  0.3599407E+04  0.7818609E-02  0.8090627E-01
       -2   -1    0    0    0  501  0.00000000000E+00  0.00000000000E+00  0.18457985316E+04  0.18457985316E+04  0.25500000920E-02 0.  1.
        2   -1    0    0  501    0  0.00000000000E+00  0.00000000000E+00 -0.17547599491E+04  0.17547599491E+04  0.25500000920E-02 0. -1.
    10030    2    1    2    0    0  0.00000000000E+00  0.00000000000E+00  0.91038582517E+02  0.36005584807E+04  0.35994073609E+04 0.  0.
        3    1    3    3  502    0 -0.63563853736E+03  0.64151630152E+03  0.16027296420E+04  0.18396526386E+04  0.10100000352E+00 0.  1.
       -3    1    3    3    0  502  0.63563853736E+03 -0.64151630152E+03 -0.15116910595E+04  0.17609058421E+04  0.10100000352E+00 0. -1.
</event>
<event>
 5   0  0.3202875E-08  0.3609410E+04  0.7818609E-02  0.8088340E-01
       -1   -1    0    0    0  501  0.00000000000E+00  0.00000000000E+00  0.14674963313E+04  0.14674963313E+04  0.50400001928E-02 0.  1.
        1   -1    0    0  501    0  0.00000000000E+00  0.00000000000E+00 -0.22193993234E+04  0.22193993234E+04  0.50400001928E-02 0. -1.
    10030    2    1    2    0    0  0.00000000000E+00  0.00000000000E+00 -0.75190299210E+03  0.36868956547E+04  0.36094101262E+04 0.  0.
        2    1    3    3  502    0 -0.67921099760E+03  0.23045020612E+03  0.13156573607E+04  0.14984622677E+04  0.25500000920E-02 0.  1.
       -2    1    3    3    0  502  0.67921099760E+03 -0.23045020612E+03 -0.20675603528E+04  0.21884333870E+04  0.25500000920E-02 0. -1.
</event>
<event>
 5   0  0.1029908E-07  0.3594644E+04  0.7818609E-02  0.8091720E-01
       -2   -1    0    0    0  501  0.00000000000E+00  0.00000000000E+00  0.17761372715E+04  0.17761372715E+04  0.25500000920E-02 0. -1.
        2   -1    0    0  501    0  0.00000000000E+00  0.00000000000E+00 -0.18187591290E+04  0.18187591290E+04  0.25500000920E-02 0.  1.
    10030    2    1    2    0    0  0.00000000000E+00  0.00000000000E+00 -0.42621857514E+02  0.35948964005E+04  0.35946437247E+04 0.  0.
        4    1    3    3  502    0  0.10385545378E+04  0.56004608230E+03  0.13345561524E+04  0.17813727513E+04  0.12699999809E+01 0. -1.
       -4    1    3    3    0  502 -0.10385545378E+04 -0.56004608230E+03 -0.13771780099E+04  0.18135236492E+04  0.12699999809E+01 0.  1.
</event>
<event>
 5   0  0.3212523E-08  0.3587723E+04  0.7818609E-02  0.8093310E-01
       -1   -1    0    0    0  501  0.00000000000E+00  0.00000000000E+00  0.17828748863E+04  0.17828748863E+04  0.50400001928E-02 0.  1.
        1   -1    0    0  501    0  0.00000000000E+00  0.00000000000E+00 -0.18049156989E+04  0.18049156989E+04  0.50400001928E-02 0. -1.
    10030    2    1    2    0    0  0.00000000000E+00  0.00000000000E+00 -0.22040812562E+02  0.35877905852E+04  0.35877228831E+04 0.  0.
        3    1    3    3  502    0 -0.10739490348E+04  0.33120925290E+02  0.14254868908E+04  0.17850704219E+04  0.10100000352E+00 0.  1.
       -3    1    3    3    0  502  0.10739490348E+04 -0.33120925290E+02 -0.14475277034E+04  0.18027201633E+04  0.10100000352E+00 0. -1.
</event>
<event>
 5   0  0.1021087E-07  0.3602139E+04  0.7818609E-02  0.8090002E-01
        2   -1    0    0  501    0  0.00000000000E+00  0.00000000000E+00  0.22546415860E+04  0.22546415860E+04  0.25500000920E-02 0.  1.
       -2   -1    0    0    0  501  0.00000000000E+00  0.00000000000E+00 -0.14387433189E+04  0.14387433189E+04  0.25500000920E-02 0. -1.
    10030    2    1    2    0    0  0.00000000000E+00  0.00000000000E+00  0.81589826705E+03  0.36933849049E+04  0.36021385417E+04 0.  0.
        3    1    3    3  502    0 -0.78113794655E+03 -0.14955924175E+03 -0.12489384566E+04  0.14806727312E+04  0.10100000352E+00 0. -1.
       -3    1    3    3    0  502  0.78113794655E+03  0.14955924175E+03  0.20648367236E+04  0.22127121737E+04  0.10100000352E+00 0.  1.
</event>
<event>
 5   0  0.3215494E-08  0.3601085E+04  0.7818609E-02  0.8090243E-01
       -1   -1    0    0    0  501  0.00000000000E+00  0.00000000000E+00  0.15040655195E+04  0.15040655195E+04  0.50400001928E-02 0.  1.
        1   -1    0    0  501    0  0.00000000000E+00  0.00000000000E+00 -0.21554599006E+04  0.21554599006E+04  0.50400001928E-02 0. -1.
    10030    2    1    2    0    0  0.00000000000E+00  0.00000000000E+00 -0.65139438108E+03  0.36595254201E+04  0.36010847894E+04 0.  0.
        4    1    3    3  502    0  0.37698057938E+03 -0.77481608216E+03 -0.19323340620E+04  0.21157435710E+04  0.12699999809E+01 0. -1.
       -4    1    3    3    0  502 -0.37698057938E+03  0.77481608216E+03  0.12809396809E+04  0.15437818490E+04  0.12699999809E+01 0.  1.
</event>
<event>
 5   0  0.1017794E-07  0.3604061E+04  0.7818609E-02  0.8089562E-01
       -2   -1    0    0    0  501  0.00000000000E+00  0.00000000000E+00  0.21143332557E+04  0.21143332557E+04  0.25500000920E-02 0.  1.
        2   -1    0    0  501    0  0.00000000000E+00  0.00000000000E+00 -0.15358570639E+04  0.15358570639E+04  0.25500000920E-02 0. -1.
    10030    2    1    2    0    0  0.00000000000E+00  0.00000000000E+00  0.57847619178E+03  0.36501903196E+04  0.36040608575E+04 0.  0.
        1    1    3    3  502    0  0.59818486698E+03  0.10824041932E+04  0.16166968330E+04  0.20354686493E+04  0.50400001928E-02 0.  1.
       -1    1    3    3    0  502 -0.59818486698E+03 -0.10824041932E+04 -0.10382206412E+04  0.16147216702E+04  0.50400001928E-02 0. -1.
</event>
<event>
 5   0  0.3279988E-08  0.3581493E+04  0.7818609E-02  0.8094744E-01
       -1   -1    0    0    0  501  0.00000000000E+00  0.00000000000E+00  0.13743016070E+04  0.13743016070E+04  0.50400001928E-02 0.  1.
        1   -1    0    0  501    0  0.00000000000E+00  0.00000000000E+00 -0.23333833285E+04  0.23333833285E+04  0.50400001928E-02 0. -1.
    10030    2    1    2    0    0  0.00000000000E+00  0.00000000000E+00 -0.95908172153E+03  0.37076849355E+04  0.35814926822E+04 0.  0.
        5    1    3    3  502    0  0.61891871850E+03 -0.14198954321E+04 -0.14098630949E+04  0.20944926485E+04  0.46999998093E+01 0.  1.
       -5    1    3    3    0  502 -0.61891871850E+03  0.14198954321E+04  0.45078137342E+03  0.16131922870E+04  0.46999998093E+01 0. -1.
</event>
<event>
 5   0  0.3215494E-08  0.3604343E+04  0.7818609E-02  0.8089497E-01
       -1   -1    0    0    0  501  0.00000000000E+00  0.00000000000E+00  0.16576609555E+04  0.16576609555E+04  0.50400001928E-02 0. -1.
        1   -1    0    0  501    0  0.00000000000E+00  0.00000000000E+00 -0.19592806159E+04  0.19592806159E+04  0.50400001928E-02 0.  1.
    10030    2    1    2    0    0  0.00000000000E+00  0.00000000000E+00 -0.30161966041E+03  0.36169415715E+04  0.36043434786E+04 0.  0.
        4    1    3    3  502    0  0.53082043837E+03  0.67614029290E+03  0.14386725890E+04  0.16759225712E+04  0.12699999809E+01 0. -1.
       -4    1    3    3    0  502 -0.53082043837E+03 -0.67614029290E+03 -0.17402922494E+04  0.19410190003E+04  0.12699999809E+01 0.  1.
</event>
<event>
 5   0  0.1021087E-07  0.3598307E+04  0.7818609E-02  0.8090880E-01
       -2   -1    0    0    0  501  0.00000000000E+00  0.00000000000E+00  0.26782146815E+04  0.26782146815E+04  0.25500000920E-02 0. -1.
        2   -1    0    0  501    0  0.00000000000E+00  0.00000000000E+00 -0.12086233743E+04  0.12086233743E+04  0.25500000920E-02 0.  1.
    10030    2    1    2    0    0  0.00000000000E+00  0.00000000000E+00  0.14695913072E+04  0.38868380558E+04  0.35983067493E+04 0.  0.
        3    1    3    3  502    0  0.12521062202E+04  0.12213738498E+04  0.11897945104E+04  0.21154515014E+04  0.10100000352E+00 0. -1.
       -3    1    3    3    0  502 -0.12521062202E+04 -0.12213738498E+04  0.27979679683E+03  0.17713865544E+04  0.10100000352E+00 0.  1.
</event>
<event>
 5   0  0.3202875E-08  0.3596209E+04  0.7818609E-02  0.8091361E-01
        3   -1    0    0  501    0  0.00000000000E+00  0.00000000000E+00  0.13500956035E+04  0.13500956073E+04  0.10100000352E+00 0.  1.
       -3   -1    0    0    0  501  0.00000000000E+00  0.00000000000E+00 -0.23947782177E+04  0.23947782198E+04  0.10100000352E+00 0. -1.
    10030    2    1    2    0    0  0.00000000000E+00  0.00000000000E+00 -0.10446826141E+04  0.37448738271E+04  0.35962088672E+04 0.  0.
        2    1    3    3  502    0 -0.83398683176E+03  0.57085840906E+03  0.10263394084E+04  0.14404117258E+04  0.25500000920E-02 0.  1.
       -2    1    3    3    0  502  0.83398683176E+03 -0.57085840906E+03 -0.20710220225E+04  0.23044621013E+04  0.25500000920E-02 0. -1.
</event>
<event>
 5   0  0.3212523E-08  0.3600730E+04  0.7818609E-02  0.8090325E-01
       -1   -1    0    0    0  501  0.00000000000E+00  0.00000000000E+00  0.27495128549E+04  0.27495128549E+04  0.50400001928E-02 0.  1.
        1   -1    0    0  501    0  0.00000000000E+00  0.00000000000E+00 -0.11788684710E+04  0.11788684710E+04  0.50400001928E-02 0. -1.
    10030    2    1    2    0    0  0.00000000000E+00  0.00000000000E+00  0.15706443839E+04  0.39283813259E+04  0.36007299344E+04 0.  0.
        3    1    3    3  502    0  0.41293796516E+03 -0.17254906461E+04  0.45175876546E+03  0.18308254219E+04  0.10100000352E+00 0. -1.
       -3    1    3    3    0  502 -0.41293796516E+03  0.17254906461E+04  0.11188856185E+04  0.20975559040E+04  0.10100000352E+00 0.  1.
</event>
<event>
 5   0  0.3202875E-08  0.3597326E+04  0.7818609E-02  0.8091104E-01
       -1   -1    0    0    0  501  0.00000000000E+00  0.00000000000E+00  0.22688056860E+04  0.22688056860E+04  0.50400001928E-02 0.  1.
        1   -1    0    0  501    0  0.00000000000E+00  0.00000000000E+00 -0.14259437159E+04  0.14259437159E+04  0.50400001928E-02 0. -1.
    10030    2    1    2    0    0  0.00000000000E+00  0.00000000000E+00  0.84286197016E+03  0.36947494019E+04  0.35973263463E+04 0.  0.
        2    1    3    3  502    0  0.19744022496E+02  0.19615820148E+03 -0.14148129168E+04  0.14284829212E+04  0.25500000920E-02 0. -1.
       -2    1    3    3    0  502 -0.19744022496E+02 -0.19615820148E+03  0.22576748870E+04  0.22662664807E+04  0.25500000920E-02 0.  1.
</event>
<event>
 5   0  0.1044678E-07  0.3597081E+04  0.7818609E-02  0.8091161E-01
       -2   -1    0    0    0  501  0.00000000000E+00  0.00000000000E+00  0.18399108826E+04  0.18399108826E+04  0.25500000920E-02 0.  1.
        2   -1    0    0  501    0  0.00000000000E+00  0.00000000000E+00 -0.17581001496E+04  0.17581001496E+04  0.25500000920E-02 0. -1.
    10030    2    1    2    0    0  0.00000000000E+00  0.00000000000E+00  0.81810733071E+02  0.35980110322E+04  0.35970808153E+04 0.  0.
        2    1    3    3  502    0  0.11721919653E+04  0.67869494176E+03 -0.11426532497E+04  0.17720940372E+04  0.25500000920E-02 0. -1.
       -2    1    3    3    0  502 -0.11721919653E+04 -0.67869494176E+03  0.12244639828E+04  0.18259169950E+04  0.25500000920E-02 0.  1.
</event>
<event>
 5   0  0.3215494E-08  0.3604595E+04  0.7818609E-02  0.8089440E-01
       -1   -1    0    0    0  501  0.00000000000E+00  0.00000000000E+00  0.12645514644E+04  0.12645514644E+04  0.50400001928E-02 0.  1.
        1   -1    0    0  501    0  0.00000000000E+00  0.00000000000E+00 -0.25687186271E+04  0.25687186271E+04  0.50400001928E-02 0. -1.
    10030    2    1    2    0    0  0.00000000000E+00  0.00000000000E+00 -0.13041671627E+04  0.38332700915E+04  0.36045953457E+04 0.  0.
        4    1    3    3  502    0  0.29514310865E+03 -0.13912187646E+04 -0.18294205376E+04  0.23171923144E+04  0.12699999809E+01 0. -1.
       -4    1    3    3    0  502 -0.29514310865E+03  0.13912187646E+04  0.52525337494E+03  0.15160777771E+04  0.12699999809E+01 0.  1.
</event>
<event>
 5   0  0.3202875E-08  0.3604459E+04  0.7818609E-02  0.8089471E-01
        1   -1    0    0  501    0  0.00000000000E+00  0.00000000000E+00  0.27206970809E+04  0.27206970809E+04  0.50400001928E-02 0.  1.
       -1   -1    0    0    0  501  0.00000000000E+00  0.00000000000E+00 -0.11938230114E+04  0.11938230114E+04  0.50400001928E-02 0. -1.
    10030    2    1    2    0    0  0.00000000000E+00  0.00000000000E+00  0.15268740695E+04  0.39145200923E+04  0.36044587845E+04 0.  0.
        2    1    3    3  502    0  0.82207116808E+03 -0.13490105353E+04 -0.17858911331E+03  0.15898190152E+04  0.25500000920E-02 0. -1.
       -2    1    3    3    0  502 -0.82207116808E+03  0.13490105353E+04  0.17054631828E+04  0.23247010771E+04  0.25500000920E-02 0.  1.
</event>
<event>
 5   0  0.3212523E-08  0.3596258E+04  0.7818609E-02  0.8091349E-01
       -1   -1    0    0    0  501  0.00000000000E+00  0.00000000000E+00  0.11319869912E+04  0.11319869912E+04  0.50400001928E-02 0. -1.
        1   -1    0    0  501    0  0.00000000000E+00  0.00000000000E+00 -0.28562758893E+04  0.28562758893E+04  0.50400001928E-02 0.  1.
    10030    2    1    2    0    0  0.00000000000E+00  0.00000000000E+00 -0.17242888981E+04  0.39882628806E+04  0.35962575826E+04 0.  0.
        3    1    3    3  502    0  0.93883343040E+03  0.81362961519E+03  0.57950307868E+03  0.13708483465E+04  0.10100000352E+00 0. -1.
       -3    1    3    3    0  502 -0.93883343040E+03 -0.81362961519E+03 -0.23037919768E+04  0.26174145341E+04  0.10100000352E+00 0.  1.
</event>
<event>
 5   0  0.1017794E-07  0.3597264E+04  0.7818609E-02  0.8091119E-01
        2   -1    0    0  501    0  0.00000000000E+00  0.00000000000E+00  0.22431149269E+04  0.22431149269E+04  0.25500000920E-02 0. -1.
       -2   -1    0    0    0  501  0.00000000000E+00  0.00000000000E+00 -0.14422250786E+04  0.14422250786E+04  0.25500000920E-02 0.  1.
    10030    2    1    2    0    0  0.00000000000E+00  0.00000000000E+00  0.80088984838E+03  0.36853400055E+04  0.35972637388E+04 0.  0.
        1    1    3    3  502    0  0.10310234036E+04 -0.11158146692E+04 -0.58595038217E+03  0.16283087807E+04  0.50400001928E-02 0.  1.
       -1    1    3    3    0  502 -0.10310234036E+04  0.11158146692E+04  0.13868402305E+04  0.20570312248E+04  0.50400001928E-02 0. -1.
</event>
<event>
 5   0  0.1029908E-07  0.3605137E+04  0.7818609E-02  0.8089316E-01
        2   -1    0    0  501    0  0.00000000000E+00  0.00000000000E+00  0.21772838269E+04  0.21772838269E+04  0.25500000920E-02 0. -1.
       -2   -1    0    0    0  501  0.00000000000E+00  0.00000000000E+00 -0.14923428175E+04  0.14923428175E+04  0.25500000920E-02 0.  1.
    10030    2    1    2    0    0  0.00000000000E+00  0.00000000000E+00  0.68494100947E+03  0.36696266444E+04  0.36051373792E+04 0.  0.
        4    1    3    3  502    0  0.33247104075E+03  0.83761416196E+03 -0.12465822723E+04  0.15382143712E+04  0.12699999809E+01 0.  1.
       -4    1    3    3    0  502 -0.33247104075E+03 -0.83761416196E+03  0.19315232818E+04  0.21314122732E+04  0.12699999809E+01 0. -1.
</event>
<event>
 5   0  0.3202875E-08  0.3595997E+04  0.7818609E-02  0.8091409E-01
       -1   -1    0    0    0  501  0.00000000000E+00  0.00000000000E+00  0.11223374540E+04  0.11223374540E+04  0.50400001928E-02 0. -1.
        1   -1    0    0  501    0  0.00000000000E+00  0.00000000000E+00 -0.28804160511E+04  0.28804160511E+04  0.50400001928E-02 0.  1.
    10030    2    1    2    0    0  0.00000000000E+00  0.00000000000E+00 -0.17580785971E+04  0.40027535052E+04  0.35959971176E+04 0.  0.
        1    1    3    3  502    0  0.83379223597E+02  0.13737505932E+04 -0.21669151824E+04  0.25670341242E+04  0.50400001928E-02 0.  1.
       -1    1    3    3    0  502 -0.83379223597E+02 -0.13737505932E+04  0.40883658525E+03  0.14357193809E+04  0.50400001928E-02 0. -1.
</event>
<event>
 5   0  0.1017794E-07  0.3611346E+04  0.7818609E-02  0.8087898E-01
       -2   -1    0    0    0  501  0.00000000000E+00  0.00000000000E+00  0.14002174284E+04  0.14002174284E+04  0.25500000920E-02 0.  1.
        2   -1    0    0  501    0  0.00000000000E+00  0.00000000000E+00 -0.23285349442E+04  0.23285349443E+04  0.25500000920E-02 0. -1.
    10030    2    1    2    0    0  0.00000000000E+00  0.00000000000E+00 -0.92831751589E+03  0.37287523726E+04  0.36113461266E+04 0.  0.
        1    1    3    3  502    0 -0.10303062772E+04 -0.12277760024E+04 -0.13227520000E+04  0.20781332466E+04  0.50400001928E-02 0. -1.
       -1    1    3    3    0  502  0.10303062772E+04  0.12277760024E+04  0.39443448408E+03  0.16506191260E+04  0.50400001928E-02 0.  1.
</event>
<event>
 5   0  0.1029908E-07  0.3598480E+04  0.7818609E-02  0.8090840E-01
       -2   -1    0    0    0  501  0.00000000000E+00  0.00000000000E+00  0.27659397185E+04  0.27659397185E+04  0.25500000920E-02 0.  1.
        2   -1    0    0  501    0  0.00000000000E+00  0.00000000000E+00 -0.11704032039E+04  0.11704032039E+04  0.25500000920E-02 0. -1.
    10030    2    1    2    0    0  0.00000000000E+00  0.00000000000E+00  0.15955365146E+04  0.39363429223E+04  0.35984800726E+04 0.  0.
        4    1    3    3  502    0 -0.10046459059E+04  0.27383988873E+03 -0.80729423836E+03  0.13175838801E+04  0.12699999809E+01 0. -1.
       -4    1    3    3    0  502  0.10046459059E+04 -0.27383988873E+03  0.24028307530E+04  0.26187590422E+04  0.12699999809E+01 0.  1.
</event>
<event>
 5   0  0.9905335E-08  0.3601870E+04  0.7818609E-02  0.8090063E-01
       -2   -1    0    0    0  501  0.00000000000E+00  0.00000000000E+00  0.15818352007E+04  0.15818352007E+04  0.25500000920E-02 0. -1.
        2   -1    0    0  501    0  0.00000000000E+00  0.00000000000E+00 -0.20503826821E+04  0.20503826821E+04  0.25500000920E-02 0.  1.
    10030    2    1    2    0    0  0.00000000000E+00  0.00000000000E+00 -0.46854748145E+03  0.36322178828E+04  0.36018703483E+04 0.  0.
        5    1    3    3  502    0  0.45630177651E+03  0.27627630510E+03 -0.19688844573E+04  0.20398696047E+04  0.46999998093E+01 0.  1.
       -5    1    3    3    0  502 -0.45630177651E+03 -0.27627630510E+03  0.15003369758E+04  0.15923482782E+04  0.46999998093E+01 0. -1.
</event>
<event>
 5   0  0.1017794E-07  0.3598406E+04  0.7818609E-02  0.8090857E-01
        2   -1    0    0  501    0  0.00000000000E+00  0.00000000000E+00  0.19835619207E+04  0.19835619207E+04  0.25500000920E-02 0. -1.
       -2   -1    0    0    0  501  0.00000000000E+00  0.00000000000E+00 -0.16319791882E+04  0.16319791882E+04  0.25500000920E-02 0.  1.
    10030    2    1    2    0    0  0.00000000000E+00  0.00000000000E+00  0.35158273249E+03  0.36155411089E+04  0.35984061878E+04 0.  0.
        1    1    3    3  502    0  0.58543258218E+03 -0.57214266754E+03 -0.14340406349E+04  0.16512271446E+04  0.50400001928E-02 0.  1.
       -1    1    3    3    0  502 -0.58543258218E+03  0.57214266754E+03  0.17856233674E+04  0.19643139644E+04  0.50400001928E-02 0. -1.
</event>
<event>
 5   0  0.9905335E-08  0.3603894E+04  0.7818609E-02  0.8089600E-01
        2   -1    0    0  501    0  0.00000000000E+00  0.00000000000E+00  0.25708940688E+04  0.25708940688E+04  0.25500000920E-02 0.  1.
       -2   -1    0    0    0  501  0.00000000000E+00  0.00000000000E+00 -0.12629894552E+04  0.12629894552E+04  0.25500000920E-02 0. -1.
    10030    2    1    2    0    0  0.00000000000E+00  0.00000000000E+00  0.13079046136E+04  0.38338835240E+04  0.36038935052E+04 0.  0.
        5    1    3    3  502    0 -0.53440775204E+03  0.93978856754E+03 -0.87964097763E+03  0.13937663135E+04  0.46999998093E+01 0. -1.
       -5    1    3    3    0  502  0.53440775204E+03 -0.93978856754E+03  0.21875455912E+04  0.24401172105E+04  0.46999998093E+01 0.  1.
</event>
<event>
 5   0  0.1017794E-07  0.3601530E+04  0.7818609E-02  0.8090141E-01
       -2   -1    0    0    0  501  0.00000000000E+00  0.00000000000E+00  0.20198485867E+04  0.20198485867E+04  0.25500000920E-02 0.  1.
        2   -1    0    0  501    0  0.00000000000E+00  0.00000000000E+00 -0.16054445001E+04  0.16054445001E+04  0.25500000920E-02 0. -1.
    10030    2    1    2    0    0  0.00000000000E+00  0.00000000000E+00  0.41440408660E+03  0.36252930868E+04  0.36015301218E+04 0.  0.
        1    1    3    3  502    0  0.17123780677E+04  0.42755306013E+03 -0.15252761104E+03  0.17715261608E+04  0.50400001928E-02 0. -1.
       -1    1    3    3    0  502 -0.17123780677E+04 -0.42755306013E+03  0.56693169764E+03  0.18537669260E+04  0.50400001928E-02 0.  1.
</event>
<event>
 5   0  0.3215494E-08  0.3589472E+04  0.7818609E-02  0.8092907E-01
        1   -1    0    0  501    0  0.00000000000E+00  0.00000000000E+00  0.22652743520E+04  0.22652743520E+04  0.50400001928E-02 0. -1.
       -1   -1    0    0    0  501  0.00000000000E+00  0.00000000000E+00 -0.14219370533E+04  0.14219370533E+04  0.50400001928E-02 0.  1.
    10030    2    1    2    0    0  0.00000000000E+00  0.00000000000E+00  0.84333729871E+03  0.36872114054E+04  0.35894721267E+04 0.  0.
        4    1    3    3  502    0 -0.17799859505E+04 -0.71224493531E+02  0.64590841476E+03  0.18948937188E+04  0.12699999809E+01 0. -1.
       -4    1    3    3    0  502  0.17799859505E+04  0.71224493531E+02  0.19742888395E+03  0.17923176866E+04  0.12699999809E+01 0.  1.
</event>
<event>
 5   0  0.3212523E-08  0.3643508E+04  0.7818609E-02  0.8080598E-01
       -1   -1    0    0    0  501  0.00000000000E+00  0.00000000000E+00  0.13646739338E+04  0.13646739339E+04  0.50400001928E-02 0.  1.
        1   -1    0    0  501    0  0.00000000000E+00  0.00000000000E+00 -0.24319277558E+04  0.24319277558E+04  0.50400001928E-02 0. -1.
    10030    2    1    2    0    0  0.00000000000E+00  0.00000000000E+00 -0.10672538219E+04  0.37966016896E+04  0.36435084286E+04 0.  0.
        3    1    3    3  502    0  0.84462372326E+03 -0.13754638432E+04  0.34655361721E+03  0.16508753550E+04  0.10100000352E+00 0. -1.
       -3    1    3    3    0  502 -0.84462372326E+03  0.13754638432E+04 -0.14138074391E+04  0.21457263346E+04  0.10100000352E+00 0.  1.
</event>
<event>
 5   0  0.1017794E-07  0.3599696E+04  0.7818609E-02  0.8090561E-01
       -2   -1    0    0    0  501  0.00000000000E+00  0.00000000000E+00  0.12144268695E+04  0.12144268695E+04  0.25500000920E-02 0.  1.
        2   -1    0    0  501    0  0.00000000000E+00  0.00000000000E+00 -0.26674744398E+04  0.26674744399E+04  0.25500000920E-02 0. -1.
    10030    2    1    2    0    0  0.00000000000E+00  0.00000000000E+00 -0.14530475703E+04  0.38819013094E+04  0.35996958947E+04 0.  0.
        1    1    3    3  502    0 -0.14568004752E+04 -0.10030463604E+04 -0.10859439943E+04  0.20754864453E+04  0.50400001928E-02 0.  1.
       -1    1    3    3    0  502  0.14568004752E+04  0.10030463604E+04 -0.36710357601E+03  0.18064148641E+04  0.50400001928E-02 0. -1.
</event>
<event>
 5   0  0.3202875E-08  0.3599393E+04  0.7818609E-02  0.8090631E-01
        1   -1    0    0  501    0  0.00000000000E+00  0.00000000000E+00  0.17566578543E+04  0.17566578543E+04  0.50400001928E-02 0.  1.
       -1   -1    0    0    0  501  0.00000000000E+00  0.00000000000E+00 -0.18437899187E+04  0.18437899187E+04  0.50400001928E-02 0. -1.
    10030    2    1    2    0    0  0.00000000000E+00  0.00000000000E+00 -0.87132064409E+02  0.36004477730E+04  0.35993933057E+04 0.  0.
        2    1    3    3  502    0 -0.34818075575E+02 -0.69996677901E+03 -0.17016831657E+04  0.18403508868E+04  0.25500000920E-02 0. -1.
       -2    1    3    3    0  502  0.34818075575E+02  0.69996677901E+03  0.16145511013E+04  0.17600968862E+04  0.25500000920E-02 0.  1.
</event>
<event>
 5   0  0.1044678E-07  0.3601681E+04  0.7818609E-02  0.8090107E-01
        2   -1    0    0  501    0  0.00000000000E+00  0.00000000000E+00  0.25486062493E+04  0.25486062493E+04  0.25500000920E-02 0.  1.
       -2   -1    0    0    0  501  0.00000000000E+00  0.00000000000E+00 -0.12724705733E+04  0.12724705733E+04  0.25500000920E-02 0. -1.
    10030    2    1    2    0    0  0.00000000000E+00  0.00000000000E+00  0.12761356760E+04  0.38210768227E+04  0.36016809716E+04 0.  0.
        2    1    3    3  502    0 -0.15327476852E+04 -0.43793468339E+03 -0.25077634849E+03  0.16136886411E+04  0.25500000920E-02 0. -1.
       -2    1    3    3    0  502  0.15327476852E+04  0.43793468339E+03  0.15269120245E+04  0.22073881816E+04  0.25500000920E-02 0.  1.
</event>
<event>
 5   0  0.3215494E-08  0.3631562E+04  0.7818609E-02  0.8083300E-01
        1   -1    0    0  501    0  0.00000000000E+00  0.00000000000E+00  0.22414313952E+04  0.22414313952E+04  0.50400001928E-02 0. -1.
       -1   -1    0    0    0  501  0.00000000000E+00  0.00000000000E+00 -0.14709621636E+04  0.14709621636E+04  0.50400001928E-02 0.  1.
    10030    2    1    2    0    0  0.00000000000E+00  0.00000000000E+00  0.77046923158E+03  0.37123935589E+04  0.36315620742E+04 0.  0.
        4    1    3    3  502    0  0.16874159994E+04  0.12999756053E+03  0.10577429374E+04  0.19957689885E+04  0.12699999809E+01 0. -1.
       -4    1    3    3    0  502 -0.16874159994E+04 -0.12999756053E+03 -0.28727370581E+03  0.17166245704E+04  0.12699999809E+01 0.  1.
</event>
<event>
 5   0  0.9905335E-08  0.3588840E+04  0.7818609E-02  0.8093053E-01
        2   -1    0    0  501    0  0.00000000000E+00  0.00000000000E+00  0.16903548507E+04  0.16903548507E+04  0.25500000920E-02 0.  1.
       -2   -1    0    0    0  501  0.00000000000E+00  0.00000000000E+00 -0.19048913774E+04  0.19048913774E+04  0.25500000920E-02 0. -1.
    10030    2    1    2    0    0  0.00000000000E+00  0.00000000000E+00 -0.21453652676E+03  0.35952462281E+04  0.35888395784E+04 0.  0.
        5    1    3    3  502    0  0.14927540764E+04 -0.96874126622E+02 -0.11001080956E+04  0.18568681270E+04  0.46999998093E+01 0. -1.
       -5    1    3    3    0  502 -0.14927540764E+04  0.96874126622E+02  0.88557156886E+03  0.17383781011E+04  0.46999998093E+01 0.  1.
</event>
<event>
 5   0  0.3202875E-08  0.3593704E+04  0.7818609E-02  0.8091935E-01
       -1   -1    0    0    0  501  0.00000000000E+00  0.00000000000E+00  0.23815672118E+04  0.23815672118E+04  0.50400001928E-02 0. -1.
        1   -1    0    0  501    0  0.00000000000E+00  0.00000000000E+00 -0.13556943110E+04  0.13556943110E+04  0.50400001928E-02 0.  1.
    10030    2    1    2    0    0  0.00000000000E+00  0.00000000000E+00  0.10258729008E+04  0.37372615228E+04  0.35937040058E+04 0.  0.
        1    1    3    3  502    0  0.20280176057E+03  0.26400842284E+03  0.23492154334E+04  0.23726866953E+04  0.50400001928E-02 0. -1.
       -1    1    3    3    0  502 -0.20280176057E+03 -0.26400842284E+03 -0.13233425326E+04  0.13645748276E+04  0.50400001928E-02 0.  1.
</event>
<event>
 5   0  0.1017794E-07  0.3601745E+04  0.7818609E-02  0.8090092E-01
       -2   -1    0    0    0  501  0.00000000000E+00  0.00000000000E+00  0.18014753656E+04  0.18014753656E+04  0.25500000920E-02 0.  1.
        2   -1    0    0  501    0  0.00000000000E+00  0.00000000000E+00 -0.18002700966E+04  0.18002700966E+04  0.25500000920E-02 0. -1.
    10030    2    1    2    0    0  0.00000000000E+00  0.00000000000E+00  0.12052690050E+01  0.36017454623E+04  0.36017452606E+04 0.  0.
        1    1    3    3  502    0  0.72900906527E+03 -0.80527531348E+03  0.14369939161E+04  0.18013533975E+04  0.50400001928E-02 0.  1.
       -1    1    3    3    0  502 -0.72900906527E+03  0.80527531348E+03 -0.14357886471E+04  0.18003920648E+04  0.50400001928E-02 0. -1.
</event>
<event>
 5   0  0.3202875E-08  0.3602629E+04  0.7818609E-02  0.8089890E-01
       -1   -1    0    0    0  501  0.00000000000E+00  0.00000000000E+00  0.14292775442E+04  0.14292775442E+04  0.50400001928E-02 0.  1.
        1   -1    0    0  501    0  0.00000000000E+00  0.00000000000E+00 -0.22701918632E+04  0.22701918632E+04  0.50400001928E-02 0. -1.
    10030    2    1    2    0    0  0.00000000000E+00  0.00000000000E+00 -0.84091431901E+03  0.36994694073E+04  0.36026291794E+04 0.  0.
        2    1    3    3  502    0  0.12920667716E+04 -0.10817140625E+04 -0.10741150698E+04  0.19983155503E+04  0.25500000920E-02 0. -1.
       -2    1    3    3    0  502 -0.12920667716E+04  0.10817140625E+04  0.23320075077E+03  0.17011538571E+04  0.25500000920E-02 0.  1.
</event>
<event>
 5   0  0.3202875E-08  0.3597294E+04  0.7818609E-02  0.8091112E-01
       -1   -1    0    0    0  501  0.00000000000E+00  0.00000000000E+00  0.17942059602E+04  0.17942059602E+04  0.50400001928E-02 0. -1.
        1   -1    0    0  501    0  0.00000000000E+00  0.00000000000E+00 -0.18030992387E+04  0.18030992387E+04  0.50400001928E-02 0.  1.
    10030    2    1    2    0    0  0.00000000000E+00  0.00000000000E+00 -0.88932784324E+01  0.35973051989E+04  0.35972942059E+04 0.  0.
        2    1    3    3  502    0 -0.63236598717E+03  0.85980599587E+03 -0.14522004577E+04  0.18022317447E+04  0.25500000920E-02 0.  1.
       -2    1    3    3    0  502  0.63236598717E+03 -0.85980599587E+03  0.14433071793E+04  0.17950734542E+04  0.25500000920E-02 0. -1.
</event>
<event>
 5   0  0.3279988E-08  0.3612307E+04  0.7818609E-02  0.8087678E-01
        1   -1    0    0  501    0  0.00000000000E+00  0.00000000000E+00  0.15625608496E+04  0.15625608496E+04  0.50400001928E-02 0. -1.
       -1   -1    0    0    0  501  0.00000000000E+00  0.00000000000E+00 -0.20877203125E+04  0.20877203125E+04  0.50400001928E-02 0.  1.
    10030    2    1    2    0    0  0.00000000000E+00  0.00000000000E+00 -0.52515946293E+03  0.36502811621E+04  0.36123067562E+04 0.  0.
        5    1    3    3  502    0  0.67183922653E+03 -0.11619408684E+04 -0.14838765573E+04  0.20008463847E+04  0.46999998093E+01 0.  1.
       -5    1    3    3    0  502 -0.67183922653E+03  0.11619408684E+04  0.95871709437E+03  0.16494347774E+04  0.46999998093E+01 0. -1.
</event>
<event>
 5   0  0.3279988E-08  0.3601115E+04  0.7818609E-02  0.8090236E-01
       -1   -1    0    0    0  501  0.00000000000E+00  0.00000000000E+00  0.16238955357E+04  0.16238955357E+04  0.50400001928E-02 0. -1.
        1   -1    0    0  501    0  0.00000000000E+00  0.00000000000E+00 -0.19964385827E+04  0.19964385827E+04  0.50400001928E-02 0.  1.
    10030    2    1    2    0    0  0.00000000000E+00  0.00000000000E+00 -0.37254304699E+03  0.36203341184E+04  0.36011152171E+04 0.  0.
        5    1    3    3  502    0 -0.73971329746E+03  0.47685723334E+03 -0.17654561780E+04  0.19726698127E+04  0.46999998093E+01 0.  1.
       -5    1    3    3    0  502  0.73971329746E+03 -0.47685723334E+03  0.13929131311E+04  0.16476643056E+04  0.46999998093E+01 0. -1.
</event>
<event>
 5   0  0.3215494E-08  0.3599392E+04  0.7818609E-02  0.8090631E-01
       -1   -1    0    0    0  501  0.00000000000E+00  0.00000000000E+00  0.18297683355E+04  0.18297683355E+04  0.50400001928E-02 0.  1.
        1   -1    0    0  501    0  0.00000000000E+00  0.00000000000E+00 -0.17701175192E+04  0.17701175192E+04  0.50400001928E-02 0. -1.
    10030    2    1    2    0    0  0.00000000000E+00  0.00000000000E+00  0.59650816301E+02  0.35998858548E+04  0.35993916080E+04 0.  0.
        4    1    3    3  502    0  0.89261239940E+03  0.23444281104E+03 -0.15154378960E+04  0.17743376107E+04  0.12699999809E+01 0. -1.
       -4    1    3    3    0  502 -0.89261239940E+03 -0.23444281104E+03  0.15750887123E+04  0.18255482441E+04  0.12699999809E+01 0.  1.
</event>
<event>
 5   0  0.1029908E-07  0.3598831E+04  0.7818609E-02  0.8090760E-01
        2   -1    0    0  501    0  0.00000000000E+00  0.00000000000E+00  0.14335483490E+04  0.14335483490E+04  0.25500000920E-02 0.  1.
       -2   -1    0    0    0  501  0.00000000000E+00  0.00000000000E+00 -0.22586580835E+04  0.22586580835E+04  0.25500000920E-02 0. -1.
    10030    2    1    2    0    0  0.00000000000E+00  0.00000000000E+00 -0.82510973452E+03  0.36922064325E+04  0.35988306804E+04 0.  0.
        4    1    3    3  502    0 -0.31615974667E+03  0.15508359199E+04  0.46572029405E+03  0.16498321251E+04  0.12699999809E+01 0.  1.
       -4    1    3    3    0  502  0.31615974667E+03 -0.15508359199E+04 -0.12908300286E+04  0.20423743074E+04  0.12699999809E+01 0. -1.
</event>
<event>
 5   0  0.1017794E-07  0.3603190E+04  0.7818609E-02  0.8089761E-01
        2   -1    0    0  501    0  0.00000000000E+00  0.00000000000E+00  0.27583936752E+04  0.27583936752E+04  0.25500000920E-02 0. -1.
       -2   -1    0    0    0  501  0.00000000000E+00  0.00000000000E+00 -0.11766795197E+04  0.11766795197E+04  0.25500000920E-02 0.  1.
    10030    2    1    2    0    0  0.00000000000E+00  0.00000000000E+00  0.15817141555E+04  0.39350731949E+04  0.36031904445E+04 0.  0.
        1    1    3    3  502    0 -0.70918530453E+03 -0.10890698564E+04 -0.57175433334E+03  0.14198309639E+04  0.50400001928E-02 0.  1.
       -1    1    3    3    0  502  0.70918530453E+03  0.10890698564E+04  0.21534684888E+04  0.25152422310E+04  0.50400001928E-02 0. -1.
</event>
<event>
 5   0  0.9905335E-08  0.3597992E+04  0.7818609E-02  0.8090952E-01
       -2   -1    0    0    0  501  0.00000000000E+00  0.00000000000E+00  0.16463706573E+04  0.16463706573E+04  0.25500000920E-02 0.  1.
        2   -1    0    0  501    0  0.00000000000E+00  0.00000000000E+00 -0.19657706894E+04  0.19657706894E+04  0.25500000920E-02 0. -1.
    10030    2    1    2    0    0  0.00000000000E+00  0.00000000000E+00 -0.31940003208E+03  0.36121413467E+04  0.35979923191E+04 0.  0.
        5    1    3    3  502    0  0.14961106383E+04  0.62570833824E+03 -0.94154824758E+03  0.18752048313E+04  0.46999998093E+01 0. -1.
       -5    1    3    3    0  502 -0.14961106383E+04 -0.62570833824E+03  0.62214821550E+03  0.17369365155E+04  0.46999998093E+01 0.  1.
</event>
<event>
 5   0  0.1044678E-07  0.3599406E+04  0.7818609E-02  0.8090628E-01
        2   -1    0    0  501    0  0.00000000000E+00  0.00000000000E+00  0.21015229935E+04  0.21015229935E+04  0.25500000920E-02 0.  1.
       -2   -1    0    0    0  501  0.00000000000E+00  0.00000000000E+00 -0.15412302329E+04  0.15412302329E+04  0.25500000920E-02 0. -1.
    10030    2    1    2    0    0  0.00000000000E+00  0.00000000000E+00  0.56029276056E+03  0.36427532264E+04  0.35994059358E+04 0.  0.
        2    1    3    3  502    0  0.67161439489E+03  0.15026445495E+04 -0.45657930915E+03  0.17080606555E+04  0.25500000920E-02 0. -1.
       -2    1    3    3    0  502 -0.67161439489E+03 -0.15026445495E+04  0.10168720697E+04  0.19346925708E+04  0.25500000920E-02 0.  1.
</event>
<event>
 5   0  0.3202875E-08  0.3552651E+04  0.7818609E-02  0.8101425E-01
       -1   -1    0    0    0  501  0.00000000000E+00  0.00000000000E+00  0.13885958816E+04  0.13885958816E+04  0.50400001928E-02 0.  1.
        1   -1    0    0  501    0  0.00000000000E+00  0.00000000000E+00 -0.22723181380E+04  0.22723181380E+04  0.50400001928E-02 0. -1.
    10030    2    1    2    0    0  0.00000000000E+00  0.00000000000E+00 -0.88372225638E+03  0.36609140196E+04  0.35526506207E+04 0.  0.
        2    1    3    3  502    0 -0.75713445764E+03  0.71206406215E+03 -0.19262601615E+04  0.21887818588E+04  0.25500000920E-02 0. -1.
       -2    1    3    3    0  502  0.75713445764E+03 -0.71206406215E+03  0.10425379051E+04  0.14721321609E+04  0.25500000920E-02 0.  1.
</event>
<event>
 5   0  0.3202875E-08  0.3610844E+04  0.7818609E-02  0.8088012E-01
        1   -1    0    0  501    0  0.00000000000E+00  0.00000000000E+00  0.17523925870E+04  0.17523925871E+04  0.50400001928E-02 0.  1.
       -1   -1    0    0    0  501  0.00000000000E+00  0.00000000000E+00 -0.18600563373E+04  0.18600563373E+04  0.50400001928E-02 0. -1.
    10030    2    1    2    0    0  0.00000000000E+00  0.00000000000E+00 -0.10766375021E+03  0.36124489243E+04  0.36108441877E+04 0.  0.
        1    1    3    3  502    0  0.67017986938E+03 -0.92490267424E+03 -0.14526531517E+04  0.18479142819E+04  0.50400001928E-02 0. -1.
       -1    1    3    3    0  502 -0.67017986938E+03  0.92490267424E+03  0.13449894015E+04  0.17645346424E+04  0.50400001928E-02 0.  1.
</event>
<event>
 5   0  0.9905335E-08  0.3614174E+04  0.7818609E-02  0.8087253E-01
       -2   -1    0    0    0  501  0.00000000000E+00  0.00000000000E+00  0.12903024413E+04  0.12903024413E+04  0.25500000920E-02 0. -1.
        2   -1    0    0  501    0  0.00000000000E+00  0.00000000000E+00 -0.25308515305E+04  0.25308515305E+04  0.25500000920E-02 0.  1.
    10030    2    1    2    0    0  0.00000000000E+00  0.00000000000E+00 -0.12405490893E+04  0.38211539718E+04  0.36141742672E+04 0.  0.
        5    1    3    3  502    0 -0.98368057416E+03  0.96165664465E+03 -0.18591892552E+04  0.23127943598E+04  0.46999998093E+01 0. -1.
       -5    1    3    3    0  502  0.98368057416E+03 -0.96165664465E+03  0.61864016593E+03  0.15083596120E+04  0.46999998093E+01 0.  1.
</event>
<event>
 5   0  0.1017794E-07  0.3560393E+04  0.7818609E-02  0.8099625E-01
        2   -1    0    0  501    0  0.00000000000E+00  0.00000000000E+00  0.24659490956E+04  0.24659490956E+04  0.25500000920E-02 0.  1.
       -2   -1    0    0    0  501  0.00000000000E+00  0.00000000000E+00 -0.12851442744E+04  0.12851442744E+04  0.25500000920E-02 0. -1.
    10030    2    1    2    0    0  0.00000000000E+00  0.00000000000E+00  0.11808048212E+04  0.37510933700E+04  0.35603934396E+04 0.  0.
        1    1    3    3  502    0  0.12204929735E+04 -0.75842478480E+03  0.16975391858E+04  0.22240617213E+04  0.50400001928E-02 0.  1.
       -1    1    3    3    0  502 -0.12204929735E+04  0.75842478480E+03 -0.51673436458E+03  0.15270316487E+04  0.50400001928E-02 0. -1.
</event>
<event>
 5   0  0.3202875E-08  0.3596814E+04  0.7818609E-02  0.8091222E-01
        3   -1    0    0  501    0  0.00000000000E+00  0.00000000000E+00  0.15006380187E+04  0.15006380221E+04  0.10100000352E+00 0. -1.
       -3   -1    0    0    0  501  0.00000000000E+00  0.00000000000E+00 -0.21552611556E+04  0.21552611580E+04  0.10100000352E+00 0.  1.
    10030    2    1    2    0    0  0.00000000000E+00  0.00000000000E+00 -0.65462313692E+03  0.36558991801E+04  0.35968135014E+04 0.  0.
        4    1    3    3  502    0 -0.11158500475E+04 -0.13334402531E+04  0.13967119702E+03  0.17443319333E+04  0.12699999809E+01 0.  1.
       -4    1    3    3    0  502  0.11158500475E+04  0.13334402531E+04 -0.79429433394E+03  0.19115672468E+04  0.12699999809E+01 0. -1.
</event>
<event>
 5   0  0.3212523E-08  0.3598195E+04  0.7818609E-02  0.8090905E-01
        1   -1    0    0  501    0  0.00000000000E+00  0.00000000000E+00  0.24340752380E+04  0.24340752380E+04  0.50400001928E-02 0. -1.
       -1   -1    0    0    0  501  0.00000000000E+00  0.00000000000E+00 -0.13297664959E+04  0.13297664959E+04  0.50400001928E-02 0.  1.
    10030    2    1    2    0    0  0.00000000000E+00  0.00000000000E+00  0.11043087421E+04  0.37638417339E+04  0.35981949364E+04 0.  0.
        3    1    3    3  502    0 -0.68281953267E+03 -0.85742235879E+03 -0.94017515080E+03  0.14440723458E+04  0.10100000352E+00 0.  1.
       -3    1    3    3    0  502  0.68281953267E+03  0.85742235879E+03  0.20444838929E+04  0.23197693881E+04  0.10100000352E+00 0. -1.
</event>
<event>
 5   0  0.9905335E-08  0.3596181E+04  0.7818609E-02  0.8091367E-01
        2   -1    0    0  501    0  0.00000000000E+00  0.00000000000E+00  0.20581185785E+04  0.20581185785E+04  0.25500000920E-02 0.  1.
       -2   -1    0    0    0  501  0.00000000000E+00  0.00000000000E+00 -0.15709147230E+04  0.15709147230E+04  0.25500000920E-02 0. -1.
    10030    2    1    2    0    0  0.00000000000E+00  0.00000000000E+00  0.48720385556E+03  0.36290333015E+04  0.35961806276E+04 0.  0.
        5    1    3    3  502    0 -0.63844014216E+03  0.16495989484E+04 -0.82341289703E+02  0.17707582228E+04  0.46999998093E+01 0.  1.
       -5    1    3    3    0  502  0.63844014216E+03 -0.16495989484E+04  0.56954514527E+03  0.18582750787E+04  0.46999998093E+01 0. -1.
</event>
<event>
 5   0  0.3212523E-08  0.3600298E+04  0.7818609E-02  0.8090424E-01
        1   -1    0    0  501    0  0.00000000000E+00  0.00000000000E+00  0.18020238616E+04  0.18020238616E+04  0.50400001928E-02 0.  1.
       -1   -1    0    0    0  501  0.00000000000E+00  0.00000000000E+00 -0.17982757898E+04  0.17982757898E+04  0.50400001928E-02 0. -1.
    10030    2    1    2    0    0  0.00000000000E+00  0.00000000000E+00  0.37480718230E+01  0.36002996514E+04  0.36002977004E+04 0.  0.
        3    1    3    3  502    0  0.11873902314E+04 -0.37079248946E+03 -0.12993388889E+04  0.17987952052E+04  0.10100000352E+00 0. -1.
       -3    1    3    3    0  502 -0.11873902314E+04  0.37079248946E+03  0.13030869608E+04  0.18015044461E+04  0.10100000352E+00 0.  1.
</event>
<event>
 5   0  0.9905335E-08  0.3601799E+04  0.7818609E-02  0.8090080E-01
       -2   -1    0    0    0  501  0.00000000000E+00  0.00000000000E+00  0.17987340959E+04  0.17987340959E+04  0.25500000920E-02 0. -1.
        2   -1    0    0  501    0  0.00000000000E+00  0.00000000000E+00 -0.18030676224E+04  0.18030676224E+04  0.25500000920E-02 0.  1.
    10030    2    1    2    0    0  0.00000000000E+00  0.00000000000E+00 -0.43335264199E+01  0.36018017183E+04  0.36017991114E+04 0.  0.
        5    1    3    3  502    0  0.50642586893E+03  0.12043489533E+03  0.17218546106E+04  0.17988265939E+04  0.46999998093E+01 0. -1.
       -5    1    3    3    0  502 -0.50642586893E+03 -0.12043489533E+03 -0.17261881371E+04  0.18029751244E+04  0.46999998093E+01 0.  1.
</event>
<event>
 5   0  0.3202875E-08  0.3596707E+04  0.7818609E-02  0.8091246E-01
       -1   -1    0    0    0  501  0.00000000000E+00  0.00000000000E+00  0.15780601071E+04  0.15780601072E+04  0.50400001928E-02 0. -1.
        1   -1    0    0  501    0  0.00000000000E+00  0.00000000000E+00 -0.20493992389E+04  0.20493992389E+04  0.50400001928E-02 0.  1.
    10030    2    1    2    0    0  0.00000000000E+00  0.00000000000E+00 -0.47133913172E+03  0.36274593460E+04  0.35967069286E+04 0.  0.
        2    1    3    3  502    0 -0.10357848691E+04  0.96195432964E+03 -0.13568710880E+04  0.19594146005E+04  0.25500000920E-02 0.  1.
       -2    1    3    3    0  502  0.10357848691E+04 -0.96195432964E+03  0.88553195630E+03  0.16680447455E+04  0.25500000920E-02 0. -1.
</event>
<event>
 5   0  0.1017794E-07  0.3597460E+04  0.7818609E-02  0.8091074E-01
       -2   -1    0    0    0  501  0.00000000000E+00  0.00000000000E+00  0.15373567203E+04  0.15373567203E+04  0.25500000920E-02 0.  1.
        2   -1    0    0  501    0  0.00000000000E+00  0.00000000000E+00 -0.21045407475E+04  0.21045407475E+04  0.25500000920E-02 0. -1.
    10030    2    1    2    0    0  0.00000000000E+00  0.00000000000E+00 -0.56718402723E+03  0.36418974678E+04  0.35974601381E+04 0.  0.
        1    1    3    3  502    0  0.83653392090E+02  0.12477398687E+04 -0.15924572790E+04  0.20247895830E+04  0.50400001928E-02 0. -1.
       -1    1    3    3    0  502 -0.83653392090E+02 -0.12477398687E+04  0.10252732518E+04  0.16171078847E+04  0.50400001928E-02 0.  1.
</event>
<event>
 5   0  0.3202875E-08  0.3601838E+04  0.7818609E-02  0.8090071E-01
        1   -1    0    0  501    0  0.00000000000E+00  0.00000000000E+00  0.19690122749E+04  0.19690122750E+04  0.50400001928E-02 0. -1.
       -1   -1    0    0    0  501  0.00000000000E+00  0.00000000000E+00 -0.16471755408E+04  0.16471755409E+04  0.50400001928E-02 0.  1.
    10030    2    1    2    0    0  0.00000000000E+00  0.00000000000E+00  0.32183673410E+03  0.36161878158E+04  0.36018377859E+04 0.  0.
        2    1    3    3  502    0  0.14327812580E+04  0.53223015692E+03 -0.79533512085E+03  0.17229884003E+04  0.25500000920E-02 0. -1.
       -2    1    3    3    0  502 -0.14327812580E+04 -0.53223015692E+03  0.11171718550E+04  0.18931994155E+04  0.25500000920E-02 0.  1.
</event>
<event>
 5   0  0.1029908E-07  0.3628326E+04  0.7818609E-02  0.8084034E-01
        2   -1    0    0  501    0  0.00000000000E+00  0.00000000000E+00  0.18346526661E+04  0.18346526661E+04  0.25500000920E-02 0.  1.
       -2   -1    0    0    0  501  0.00000000000E+00  0.00000000000E+00 -0.17939025369E+04  0.17939025370E+04  0.25500000920E-02 0. -1.
    10030    2    1    2    0    0  0.00000000000E+00  0.00000000000E+00  0.40750129149E+02  0.36285552031E+04  0.36283263757E+04 0.  0.
        4    1    3    3  502    0  0.63294811786E+03  0.14170422879E+04 -0.91912779183E+03  0.18037266079E+04  0.12699999809E+01 0. -1.
       -4    1    3    3    0  502 -0.63294811786E+03 -0.14170422879E+04  0.95987792098E+03  0.18248285951E+04  0.12699999809E+01 0.  1.
</event>
<event>
 5   0  0.3215494E-08  0.3603261E+04  0.7818609E-02  0.8089745E-01
       -1   -1    0    0    0  501  0.00000000000E+00  0.00000000000E+00  0.11595251784E+04  0.11595251784E+04  0.50400001928E-02 0.  1.
        1   -1    0    0  501    0  0.00000000000E+00  0.00000000000E+00 -0.27993122233E+04  0.27993122233E+04  0.50400001928E-02 0. -1.
    10030    2    1    2    0    0  0.00000000000E+00  0.00000000000E+00 -0.16397870449E+04  0.39588374017E+04  0.36032613034E+04 0.  0.
        4    1    3    3  502    0 -0.10561423847E+04  0.67543329074E+03  0.60171087020E+03  0.13905770210E+04  0.12699999809E+01 0.  1.
       -4    1    3    3    0  502  0.10561423847E+04 -0.67543329074E+03 -0.22414979151E+04  0.25682603807E+04  0.12699999809E+01 0. -1.
</event>
<event>
 5   0  0.3202875E-08  0.3600057E+04  0.7818609E-02  0.8090479E-01
       -1   -1    0    0    0  501  0.00000000000E+00  0.00000000000E+00  0.16148570623E+04  0.16148570623E+04  0.50400001928E-02 0. -1.
        1   -1    0    0  501    0  0.00000000000E+00  0.00000000000E+00 -0.20064328016E+04  0.20064328016E+04  0.50400001928E-02 0.  1.
    10030    2    1    2    0    0  0.00000000000E+00  0.00000000000E+00 -0.39157573925E+03  0.36212898640E+04  0.36000567661E+04 0.  0.
        2    1    3    3  502    0 -0.59191776039E+02  0.10160413637E+04 -0.16892189950E+04  0.19721319763E+04  0.25500000920E-02 0.  1.
       -2    1    3    3    0  502  0.59191776039E+02 -0.10160413637E+04  0.12976432557E+04  0.16491578876E+04  0.25500000920E-02 0. -1.
</event>
<event>
 5   0  0.3279988E-08  0.3612582E+04  0.7818609E-02  0.8087616E-01
        1   -1    0    0  501    0  0.00000000000E+00  0.00000000000E+00  0.16077939362E+04  0.16077939362E+04  0.50400001928E-02 0.  1.
       -1   -1    0    0    0  501  0.00000000000E+00  0.00000000000E+00 -0.20292945416E+04  0.20292945416E+04  0.50400001928E-02 0. -1.
    10030    2    1    2    0    0  0.00000000000E+00  0.00000000000E+00 -0.42150060538E+03  0.36370884778E+04  0.36125821562E+04 0.  0.
        5    1    3    3  502    0 -0.11215179554E+04 -0.14140181156E+04 -0.13666024074E+03  0.18099579738E+04  0.46999998093E+01 0. -1.
       -5    1    3    3    0  502  0.11215179554E+04  0.14140181156E+04 -0.28484036463E+03  0.18271305040E+04  0.46999998093E+01 0.  1.
</event>
<event>
 5   0  0.3202875E-08  0.3601893E+04  0.7818609E-02  0.8090058E-01
        1   -1    0    0  501    0  0.00000000000E+00  0.00000000000E+00  0.30821426942E+04  0.30821426942E+04  0.50400001928E-02 0.  1.
       -1   -1    0    0    0  501  0.00000000000E+00  0.00000000000E+00 -0.10523227933E+04  0.10523227933E+04  0.50400001928E-02 0. -1.
    10030    2    1    2    0    0  0.00000000000E+00  0.00000000000E+00  0.20298199009E+04  0.41344654875E+04  0.36018933962E+04 0.  0.
        2    1    3    3  502    0  0.20468881437E+03 -0.13400103318E+04 -0.34610604939E+03  0.13990405989E+04  0.25500000920E-02 0. -1.
       -2    1    3    3    0  502 -0.20468881437E+03  0.13400103318E+04  0.23759259503E+04  0.27354248886E+04  0.25500000920E-02 0.  1.
</event>
<event>
 5   0  0.3212523E-08  0.3601392E+04  0.7818609E-02  0.8090173E-01
       -1   -1    0    0    0  501  0.00000000000E+00  0.00000000000E+00  0.14232967884E+04  0.14232967884E+04  0.50400001928E-02 0.  1.
        1   -1    0    0  501    0  0.00000000000E+00  0.00000000000E+00 -0.22781662874E+04  0.22781662874E+04  0.50400001928E-02 0. -1.
    10030    2    1    2    0    0  0.00000000000E+00  0.00000000000E+00 -0.85486949901E+03  0.37014630759E+04  0.36013923754E+04 0.  0.
        3    1    3    3  502    0 -0.32280499469E+03  0.28359886912E+03 -0.22247028695E+04  0.22658186713E+04  0.10100000352E+00 0. -1.
       -3    1    3    3    0  502  0.32280499469E+03 -0.28359886912E+03  0.13698333705E+04  0.14356444046E+04  0.10100000352E+00 0.  1.
</event>
<event>
 5   0  0.3279988E-08  0.3593870E+04  0.7818609E-02  0.8091897E-01
       -1   -1    0    0    0  501  0.00000000000E+00  0.00000000000E+00  0.26641648727E+04  0.26641648727E+04  0.50400001928E-02 0.  1.
        1   -1    0    0  501    0  0.00000000000E+00  0.00000000000E+00 -0.12120026368E+04  0.12120026368E+04  0.50400001928E-02 0. -1.
    10030    2    1    2    0    0  0.00000000000E+00  0.00000000000E+00  0.14521622359E+04  0.38761675095E+04  0.35938696975E+04 0.  0.
        5    1    3    3  502    0  0.55776681547E+03 -0.14443805490E+04  0.17096415429E+04  0.23065635231E+04  0.46999998093E+01 0.  1.
       -5    1    3    3    0  502 -0.55776681547E+03  0.14443805490E+04 -0.25747930695E+03  0.15696039865E+04  0.46999998093E+01 0. -1.
</event>
<event>
 5   0  0.3279988E-08  0.3601364E+04  0.7818609E-02  0.8090179E-01
        1   -1    0    0  501    0  0.00000000000E+00  0.00000000000E+00  0.26401659879E+04  0.26401659879E+04  0.50400001928E-02 0.  1.
       -1   -1    0    0    0  501  0.00000000000E+00  0.00000000000E+00 -0.12281254809E+04  0.12281254809E+04  0.50400001928E-02 0. -1.
    10030    2    1    2    0    0  0.00000000000E+00  0.00000000000E+00  0.14120405070E+04  0.38682914689E+04  0.36013636993E+04 0.  0.
        5    1    3    3  502    0 -0.46249447418E+03  0.42329282289E+03  0.25191358512E+04  0.25959864175E+04  0.46999998093E+01 0.  1.
       -5    1    3    3    0  502  0.46249447418E+03 -0.42329282289E+03 -0.11070953443E+04  0.12723050514E+04  0.46999998093E+01 0. -1.
</event>
<event>
 5   0  0.3279988E-08  0.3600819E+04  0.7818609E-02  0.8090304E-01
       -1   -1    0    0    0  501  0.00000000000E+00  0.00000000000E+00  0.18029255432E+04  0.18029255432E+04  0.50400001928E-02 0. -1.
        1   -1    0    0  501    0  0.00000000000E+00  0.00000000000E+00 -0.17978970579E+04  0.17978970580E+04  0.50400001928E-02 0.  1.
    10030    2    1    2    0    0  0.00000000000E+00  0.00000000000E+00  0.50284852045E+01  0.36008226011E+04  0.36008190900E+04 0.  0.
        5    1    3    3  502    0  0.15257848879E+03  0.17043809748E+04  0.56220911304E+03  0.18011929046E+04  0.46999998093E+01 0. -1.
       -5    1    3    3    0  502 -0.15257848879E+03 -0.17043809748E+04 -0.55718062784E+03  0.17996296965E+04  0.46999998093E+01 0.  1.
</event>
<event>
 5   0  0.1029908E-07  0.3598773E+04  0.7818609E-02  0.8090773E-01
       -2   -1    0    0    0  501  0.00000000000E+00  0.00000000000E+00  0.14900250248E+04  0.14900250248E+04  0.25500000920E-02 0.  1.
        2   -1    0    0  501    0  0.00000000000E+00  0.00000000000E+00 -0.21729781907E+04  0.21729781907E+04  0.25500000920E-02 0. -1.
    10030    2    1    2    0    0  0.00000000000E+00  0.00000000000E+00 -0.68295316594E+03  0.36630032155E+04  0.35987730590E+04 0.  0.
        4    1    3    3  502    0  0.10577650118E+04  0.25703040032E+03 -0.17998286483E+04  0.21034058627E+04  0.12699999809E+01 0. -1.
       -4    1    3    3    0  502 -0.10577650118E+04 -0.25703040032E+03  0.11168754824E+04  0.15595973528E+04  0.12699999809E+01 0.  1.
</event>
<event>
 5   0  0.3215494E-08  0.3603722E+04  0.7818609E-02  0.8089640E-01
       -1   -1    0    0    0  501  0.00000000000E+00  0.00000000000E+00  0.24983307503E+04  0.24983307503E+04  0.50400001928E-02 0. -1.
        1   -1    0    0  501    0  0.00000000000E+00  0.00000000000E+00 -0.12995492794E+04  0.12995492795E+04  0.50400001928E-02 0.  1.
    10030    2    1    2    0    0  0.00000000000E+00  0.00000000000E+00  0.11987814708E+04  0.37978800297E+04  0.36037224790E+04 0.  0.
        4    1    3    3  502    0  0.81594052587E+03 -0.13614474467E+04  0.14982212576E+04  0.21826512872E+04  0.12699999809E+01 0. -1.
       -4    1    3    3    0  502 -0.81594052587E+03  0.13614474467E+04 -0.29943978676E+03  0.16152287425E+04  0.12699999809E+01 0.  1.
</event>
<event>
 5   0  0.1021087E-07  0.3577595E+04  0.7818609E-02  0.8095643E-01
        2   -1    0    0  501    0  0.00000000000E+00  0.00000000000E+00  0.17346049794E+04  0.17346049794E+04  0.25500000920E-02 0. -1.
       -2   -1    0    0    0  501  0.00000000000E+00  0.00000000000E+00 -0.18446836098E+04  0.18446836098E+04  0.25500000920E-02 0.  1.
    10030    2    1    2    0    0  0.00000000000E+00  0.00000000000E+00 -0.11007863041E+03  0.35792885893E+04  0.35775954914E+04 0.  0.
        3    1    3    3  502    0  0.15891261864E+04  0.41387576415E+02  0.76556979861E+03  0.17644070093E+04  0.10100000352E+00 0. -1.
       -3    1    3    3    0  502 -0.15891261864E+04 -0.41387576415E+02 -0.87564842902E+03  0.18148815799E+04  0.10100000352E+00 0.  1.
</event>
<event>
 5   0  0.1017794E-07  0.3601443E+04  0.7818609E-02  0.8090161E-01
        2   -1    0    0  501    0  0.00000000000E+00  0.00000000000E+00  0.27949190149E+04  0.27949190149E+04  0.25500000920E-02 0. -1.
       -2   -1    0    0    0  501  0.00000000000E+00  0.00000000000E+00 -0.11601758303E+04  0.11601758303E+04  0.25500000920E-02 0.  1.
    10030    2    1    2    0    0  0.00000000000E+00  0.00000000000E+00  0.16347431846E+04  0.39550948451E+04  0.36014427601E+04 0.  0.
        1    1    3    3  502    0  0.14673798052E+03 -0.75575725132E+03  0.26050723984E+04  0.27164504890E+04  0.50400001928E-02 0. -1.
       -1    1    3    3    0  502 -0.14673798052E+03  0.75575725132E+03 -0.97032921384E+03  0.12386443562E+04  0.50400001928E-02 0.  1.
</event>
<event>
 5   0  0.3215494E-08  0.3605535E+04  0.7818609E-02  0.8089225E-01
       -1   -1    0    0    0  501  0.00000000000E+00  0.00000000000E+00  0.17809959870E+04  0.17809959870E+04  0.50400001928E-02 0.  1.
        1   -1    0    0  501    0  0.00000000000E+00  0.00000000000E+00 -0.18248046629E+04  0.18248046630E+04  0.50400001928E-02 0. -1.
    10030    2    1    2    0    0  0.00000000000E+00  0.00000000000E+00 -0.43808675920E+02  0.36058006500E+04  0.36055345134E+04 0.  0.
        4    1    3    3  502    0  0.72192433079E+02  0.23352751588E+03 -0.18081552442E+04  0.18246023808E+04  0.12699999809E+01 0. -1.
       -4    1    3    3    0  502 -0.72192433079E+02 -0.23352751588E+03  0.17643465683E+04  0.17811982691E+04  0.12699999809E+01 0.  1.
</event>
<event>
 5   0  0.1017794E-07  0.3599781E+04  0.7818609E-02  0.8090542E-01
       -2   -1    0    0    0  501  0.00000000000E+00  0.00000000000E+00  0.11343412089E+04  0.11343412089E+04  0.25500000920E-02 0.  1.
        2   -1    0    0  501    0  0.00000000000E+00  0.00000000000E+00 -0.28559355918E+04  0.28559355918E+04  0.25500000920E-02 0. -1.
    10030    2    1    2    0    0  0.00000000000E+00  0.00000000000E+00 -0.17215943829E+04  0.39902768006E+04  0.35997807887E+04 0.  0.
        1    1    3    3  502    0 -0.27261158648E+02  0.11450311075E+04 -0.23998521526E+04  0.26591595970E+04  0.50400001928E-02 0. -1.
       -1    1    3    3    0  502  0.27261158648E+02 -0.11450311075E+04  0.67825776966E+03  0.13311172037E+04  0.50400001928E-02 0.  1.
</event>
<event>
 5   0  0.1021087E-07  0.3595007E+04  0.7818609E-02  0.8091636E-01
        2   -1    0    0  501    0  0.00000000000E+00  0.00000000000E+00  0.24725950737E+04  0.24725950737E+04  0.25500000920E-02 0. -1.
       -2   -1    0    0    0  501  0.00000000000E+00  0.00000000000E+00 -0.13067317919E+04  0.13067317919E+04  0.25500000920E-02 0.  1.
    10030    2    1    2    0    0  0.00000000000E+00  0.00000000000E+00  0.11658632818E+04  0.37793268656E+04  0.35950068659E+04 0.  0.
        3    1    3    3  502    0 -0.32897901592E+03 -0.41364018113E+03 -0.12232038935E+04  0.13324988434E+04  0.10100000352E+00 0.  1.
       -3    1    3    3    0  502  0.32897901592E+03  0.41364018113E+03  0.23890671753E+04  0.24468280223E+04  0.10100000352E+00 0. -1.
</event>
<event>
 5   0  0.3202875E-08  0.3606047E+04  0.7818609E-02  0.8089108E-01
       -1   -1    0    0    0  501  0.00000000000E+00  0.00000000000E+00  0.19006245161E+04  0.19006245161E+04  0.50400001928E-02 0.  1.
        1   -1    0    0  501    0  0.00000000000E+00  0.00000000000E+00 -0.17104341574E+04  0.17104341574E+04  0.50400001928E-02 0. -1.
    10030    2    1    2    0    0  0.00000000000E+00  0.00000000000E+00  0.19019035871E+03  0.36110586736E+04  0.36060466402E+04 0.  0.
        2    1    3    3  502    0 -0.92848453774E+03  0.13225625712E+04 -0.70579001724E+03  0.17633476232E+04  0.25500000920E-02 0. -1.
       -2    1    3    3    0  502  0.92848453774E+03 -0.13225625712E+04  0.89598037596E+03  0.18477110504E+04  0.25500000920E-02 0.  1.
</event>
<event>
 5   0  0.1021087E-07  0.3600595E+04  0.7818609E-02  0.8090355E-01
        2   -1    0    0  501    0  0.00000000000E+00  0.00000000000E+00  0.26057171803E+04  0.26057171803E+04  0.25500000920E-02 0. -1.
       -2   -1    0    0    0  501  0.00000000000E+00  0.00000000000E+00 -0.12438308890E+04  0.12438308890E+04  0.25500000920E-02 0.  1.
    10030    2    1    2    0    0  0.00000000000E+00  0.00000000000E+00  0.13618862912E+04  0.38495480693E+04  0.36005952380E+04 0.  0.
        3    1    3    3  502    0 -0.16037795022E+04 -0.80064452452E+03  0.50226150460E+03  0.18615603605E+04  0.10100000352E+00 0.  1.
       -3    1    3    3    0  502  0.16037795022E+04  0.80064452452E+03  0.85962478664E+03  0.19879877088E+04  0.10100000352E+00 0. -1.
</event>
<event>
 5   0  0.3202875E-08  0.3601027E+04  0.7818609E-02  0.8090256E-01
        1   -1    0    0  501    0  0.00000000000E+00  0.00000000000E+00  0.21341901902E+04  0.21341901902E+04  0.50400001928E-02 0.  1.
       -1   -1    0    0    0  501  0.00000000000E+00  0.00000000000E+00 -0.15190068816E+04  0.15190068816E+04  0.50400001928E-02 0. -1.
    10030    2    1    2    0    0  0.00000000000E+00  0.00000000000E+00  0.61518330860E+03  0.36531970718E+04  0.36010274009E+04 0.  0.
        1    1    3    3  502    0 -0.10108818617E+04 -0.71840832492E+03  0.16318210883E+04  0.20495933069E+04  0.50400001928E-02 0.  1.
       -1    1    3    3    0  502  0.10108818617E+04  0.71840832492E+03 -0.10166377797E+04  0.16036037648E+04  0.50400001928E-02 0. -1.
</event>
<event>
 5   0  0.3202875E-08  0.3601345E+04  0.7818609E-02  0.8090184E-01
       -1   -1    0    0    0  501  0.00000000000E+00  0.00000000000E+00  0.18010558828E+04  0.18010558828E+04  0.50400001928E-02 0. -1.
        1   -1    0    0  501    0  0.00000000000E+00  0.00000000000E+00 -0.18002887240E+04  0.18002887240E+04  0.50400001928E-02 0.  1.
    10030    2    1    2    0    0  0.00000000000E+00  0.00000000000E+00  0.76715874229E+00  0.36013446068E+04  0.36013445251E+04 0.  0.
        2    1    3    3  502    0 -0.63639803410E+03  0.11127773352E+04  0.12649565564E+04  0.18009416829E+04  0.25500000920E-02 0. -1.
       -2    1    3    3    0  502  0.63639803410E+03 -0.11127773352E+04 -0.12641893977E+04  0.18004029240E+04  0.25500000920E-02 0.  1.
</event>
<event>
 5   0  0.3202875E-08  0.3604958E+04  0.7818609E-02  0.8089357E-01
       -1   -1    0    0    0  501  0.00000000000E+00  0.00000000000E+00  0.13689616910E+04  0.13689616910E+04  0.50400001928E-02 0.  1.
        1   -1    0    0  501    0  0.00000000000E+00  0.00000000000E+00 -0.23732804728E+04  0.23732804729E+04  0.50400001928E-02 0. -1.
    10030    2    1    2    0    0  0.00000000000E+00  0.00000000000E+00 -0.10043187819E+04  0.37422421639E+04  0.36049577248E+04 0.  0.
        1    1    3    3  502    0  0.12563854144E+04  0.12240029599E+04 -0.93298535064E+03  0.19867433704E+04  0.50400001928E-02 0.  1.
       -1    1    3    3    0  502 -0.12563854144E+04 -0.12240029599E+04 -0.71333431217E+02  0.17554987934E+04  0.50400001928E-02 0. -1.
</event>
<event>
 5   0  0.1017794E-07  0.3610275E+04  0.7818609E-02  0.8088142E-01
        2   -1    0    0  501    0  0.00000000000E+00  0.00000000000E+00  0.11327776588E+04  0.11327776588E+04  0.25500000920E-02 0.  1.
       -2   -1    0    0    0  501  0.00000000000E+00  0.00000000000E+00 -0.28765770472E+04  0.28765770472E+04  0.25500000920E-02 0. -1.
    10030    2    1    2    0    0  0.00000000000E+00  0.00000000000E+00 -0.17437993883E+04  0.40093547060E+04  0.36102754537E+04 0.  0.
        1    1    3    3  502    0  0.12575118383E+04 -0.77852778897E+03  0.27743160098E+03  0.15047956123E+04  0.50400001928E-02 0.  1.
       -1    1    3    3    0  502 -0.12575118383E+04  0.77852778897E+03 -0.20212309893E+04  0.25045590937E+04  0.50400001928E-02 0. -1.
</event>
<event>
 5   0  0.3202875E-08  0.3599408E+04  0.7818609E-02  0.8090627E-01
       -1   -1    0    0    0  501  0.00000000000E+00  0.00000000000E+00  0.12889150296E+04  0.12889150297E+04  0.50400001928E-02 0.  1.
        1   -1    0    0  501    0  0.00000000000E+00  0.00000000000E+00 -0.25129157819E+04  0.25129157819E+04  0.50400001928E-02 0. -1.
    10030    2    1    2    0    0  0.00000000000E+00  0.00000000000E+00 -0.12240007522E+04  0.38018308115E+04  0.35994082400E+04 0.  0.
        1    1    3    3  502    0 -0.21958441470E+03 -0.36248028005E+03  0.12354574520E+04  0.13061257154E+04  0.50400001928E-02 0.  1.
       -1    1    3    3    0  502  0.21958441470E+03  0.36248028005E+03 -0.24594582042E+04  0.24957050962E+04  0.50400001928E-02 0. -1.
</event>
<event>
 5   0  0.3215494E-08  0.3596119E+04  0.7818609E-02  0.8091381E-01
       -1   -1    0    0    0  501  0.00000000000E+00  0.00000000000E+00  0.11273187774E+04  0.11273187774E+04  0.50400001928E-02 0.  1.
        1   -1    0    0  501    0  0.00000000000E+00  0.00000000000E+00 -0.28678822530E+04  0.28678822531E+04  0.50400001928E-02 0. -1.
    10030    2    1    2    0    0  0.00000000000E+00  0.00000000000E+00 -0.17405634757E+04  0.39952010304E+04  0.35961187495E+04 0.  0.
        4    1    3    3  502    0 -0.10522912474E+04  0.66457058404E+03 -0.23120035037E+04  0.26257061421E+04  0.12699999809E+01 0. -1.
       -4    1    3    3    0  502  0.10522912474E+04 -0.66457058404E+03  0.57144002804E+03  0.13694948883E+04  0.12699999809E+01 0.  1.
</event>
<event>
 5   0  0.1044678E-07  0.3606385E+04  0.7818609E-02  0.8089031E-01
        2   -1    0    0  501    0  0.00000000000E+00  0.00000000000E+00  0.21436723878E+04  0.21436723878E+04  0.25500000920E-02 0. -1.
       -2   -1    0    0    0  501  0.00000000000E+00  0.00000000000E+00 -0.15167910749E+04  0.15167910749E+04  0.25500000920E-02 0.  1.
    10030    2    1    2    0    0  0.00000000000E+00  0.00000000000E+00  0.62688131292E+03  0.36604634627E+04  0.36063849741E+04 0.  0.
        2    1    3    3  502    0 -0.41487505994E+03 -0.12943638490E+04 -0.88923403689E+03  0.16242648372E+04  0.25500000920E-02 0.  1.
       -2    1    3    3    0  502  0.41487505994E+03  0.12943638490E+04  0.15161153498E+04  0.20361986256E+04  0.25500000920E-02 0. -1.
</event>
<event>
 5   0  0.1044678E-07  0.3600827E+04  0.7818609E-02  0.8090302E-01
       -2   -1    0    0    0  501  0.00000000000E+00  0.00000000000E+00  0.13676252522E+04  0.13676252522E+04  0.25500000920E-02 0.  1.
        2   -1    0    0  501    0  0.00000000000E+00  0.00000000000E+00 -0.23701588713E+04  0.23701588713E+04  0.25500000920E-02 0. -1.
    10030    2    1    2    0    0  0.00000000000E+00  0.00000000000E+00 -0.10025336191E+04  0.37377841235E+04  0.36008271962E+04 0.  0.
        2    1    3    3  502    0 -0.85203376397E+02 -0.39436154252E+03 -0.23226285900E+04  0.23574104879E+04  0.25500000920E-02 0. -1.
       -2    1    3    3    0  502  0.85203376397E+02  0.39436154252E+03  0.13200949709E+04  0.13803736356E+04  0.25500000920E-02 0.  1.
</event>
<event>
 5   0  0.3202875E-08  0.3592481E+04  0.7818609E-02  0.8092216E-01
        1   -1    0    0  501    0  0.00000000000E+00  0.00000000000E+00  0.27086274661E+04  0.27086274661E+04  0.50400001928E-02 0. -1.
       -1   -1    0    0    0  501  0.00000000000E+00  0.00000000000E+00 -0.11911864584E+04  0.11911864584E+04  0.50400001928E-02 0.  1.
    10030    2    1    2    0    0  0.00000000000E+00  0.00000000000E+00  0.15174410077E+04  0.38998139244E+04  0.35924812363E+04 0.  0.
        2    1    3    3  502    0 -0.89945920065E+03  0.15254077177E+04  0.43199951073E+03  0.18227778626E+04  0.25500000920E-02 0. -1.
       -2    1    3    3    0  502  0.89945920065E+03 -0.15254077177E+04  0.10854414970E+04  0.20770360619E+04  0.25500000920E-02 0.  1.
</event>
<event>
 5   0  0.1017794E-07  0.3600147E+04  0.7818609E-02  0.8090458E-01
        2   -1    0    0  501    0  0.00000000000E+00  0.00000000000E+00  0.22378034556E+04  0.22378034556E+04  0.25500000920E-02 0.  1.
       -2   -1    0    0    0  501  0.00000000000E+00  0.00000000000E+00 -0.14479663200E+04  0.14479663200E+04  0.25500000920E-02 0. -1.
    10030    2    1    2    0    0  0.00000000000E+00  0.00000000000E+00  0.78983713555E+03  0.36857697756E+04  0.36001466829E+04 0.  0.
        1    1    3    3  502    0  0.34417912166E+03  0.15285316402E+04  0.13022214562E+04  0.20373141545E+04  0.50400001928E-02 0.  1.
       -1    1    3    3    0  502 -0.34417912166E+03 -0.15285316402E+04 -0.51238432065E+03  0.16484556212E+04  0.50400001928E-02 0. -1.
</event>
<event>
 5   0  0.3212523E-08  0.3589892E+04  0.7818609E-02  0.8092811E-01
       -1   -1    0    0    0  501  0.00000000000E+00  0.00000000000E+00  0.19099246473E+04  0.19099246473E+04  0.50400001928E-02 0.  1.
        1   -1    0    0  501    0  0.00000000000E+00  0.00000000000E+00 -0.16868895918E+04  0.16868895918E+04  0.50400001928E-02 0. -1.
    10030    2    1    2    0    0  0.00000000000E+00  0.00000000000E+00  0.22303505545E+03  0.35968142391E+04  0.35898924823E+04 0.  0.
        3    1    3    3  502    0  0.85394909770E+03 -0.22062382531E+03  0.16778385490E+04  0.18955332074E+04  0.10100000352E+00 0.  1.
       -3    1    3    3    0  502 -0.85394909770E+03  0.22062382531E+03 -0.14548034935E+04  0.17012810317E+04  0.10100000352E+00 0. -1.
</event>
<event>
 5   0  0.1029908E-07  0.3602196E+04  0.7818609E-02  0.8089989E-01
        2   -1    0    0  501    0  0.00000000000E+00  0.00000000000E+00  0.16616791303E+04  0.16616791303E+04  0.25500000920E-02 0.  1.
       -2   -1    0    0    0  501  0.00000000000E+00  0.00000000000E+00 -0.19522146533E+04  0.19522146533E+04  0.25500000920E-02 0. -1.
    10030    2    1    2    0    0  0.00000000000E+00  0.00000000000E+00 -0.29053552303E+03  0.36138937837E+04  0.36021961897E+04 0.  0.
        4    1    3    3  502    0 -0.68035391245E+03  0.60428436534E+03  0.14140999934E+04  0.16815830175E+04  0.12699999809E+01 0.  1.
       -4    1    3    3    0  502  0.68035391245E+03 -0.60428436534E+03 -0.17046355164E+04  0.19323107662E+04  0.12699999809E+01 0. -1.
</event>
<event>
 5   0  0.9905335E-08  0.3598419E+04  0.7818609E-02  0.8090854E-01
        2   -1    0    0  501    0  0.00000000000E+00  0.00000000000E+00  0.22463368251E+04  0.22463368251E+04  0.25500000920E-02 0. -1.
       -2   -1    0    0    0  501  0.00000000000E+00  0.00000000000E+00 -0.14410813753E+04  0.14410813753E+04  0.25500000920E-02 0.  1.
    10030    2    1    2    0    0  0.00000000000E+00  0.00000000000E+00  0.80525544984E+03  0.36874182005E+04  0.35984186312E+04 0.  0.
        5    1    3    3  502    0 -0.10589571572E+04  0.11700349122E+04 -0.48289816917E+03  0.16503286607E+04  0.46999998093E+01 0.  1.
       -5    1    3    3    0  502  0.10589571572E+04 -0.11700349122E+04  0.12881536190E+04  0.20370895397E+04  0.46999998093E+01 0. -1.
</event>
<event>
 5   0  0.1021087E-07  0.3606137E+04  0.7818609E-02  0.8089087E-01
       -2   -1    0    0    0  501  0.00000000000E+00  0.00000000000E+00  0.24645181943E+04  0.24645181943E+04  0.25500000920E-02 0.  1.
        2   -1    0    0  501    0  0.00000000000E+00  0.00000000000E+00 -0.13191446095E+04  0.13191446095E+04  0.25500000920E-02 0. -1.
    10030    2    1    2    0    0  0.00000000000E+00  0.00000000000E+00  0.11453735848E+04  0.37836628039E+04  0.36061369309E+04 0.  0.
        3    1    3    3  502    0  0.98365806700E+02  0.15988716728E+04  0.14410714558E+04  0.21547049471E+04  0.10100000352E+00 0.  1.
       -3    1    3    3    0  502 -0.98365806700E+02 -0.15988716728E+04 -0.29569787099E+03  0.16289578568E+04  0.10100000352E+00 0. -1.
</event>
<event>
 5   0  0.3202875E-08  0.3597487E+04  0.7818609E-02  0.8091068E-01
       -1   -1    0    0    0  501  0.00000000000E+00  0.00000000000E+00  0.12925298367E+04  0.12925298367E+04  0.50400001928E-02 0. -1.
        1   -1    0    0  501    0  0.00000000000E+00  0.00000000000E+00 -0.25032131027E+04  0.25032131027E+04  0.50400001928E-02 0.  1.
    10030    2    1    2    0    0  0.00000000000E+00  0.00000000000E+00 -0.12106832660E+04  0.37957429394E+04  0.35974866909E+04 0.  0.
        1    1    3    3  502    0  0.39355260253E+03 -0.16028584965E+04 -0.13599026308E+04  0.21385448735E+04  0.50400001928E-02 0.  1.
       -1    1    3    3    0  502 -0.39355260253E+03  0.16028584965E+04  0.14921936485E+03  0.16571980659E+04  0.50400001928E-02 0. -1.
</event>
<event>
 5   0  0.3202875E-08  0.3640057E+04  0.7818609E-02  0.8081377E-01
        1   -1    0    0  501    0  0.00000000000E+00  0.00000000000E+00  0.25398520545E+04  0.25398520545E+04  0.50400001928E-02 0. -1.
       -1   -1    0    0    0  501  0.00000000000E+00  0.00000000000E+00 -0.13042111107E+04  0.13042111107E+04  0.50400001928E-02 0.  1.
    10030    2    1    2    0    0  0.00000000000E+00  0.00000000000E+00  0.12356409438E+04  0.38440631652E+04  0.36400567408E+04 0.  0.
        2    1    3    3  502    0  0.10150476417E+04  0.14608456729E+04  0.21139893470E+03  0.17913908855E+04  0.25500000920E-02 0. -1.
       -2    1    3    3    0  502 -0.10150476417E+04 -0.14608456729E+04  0.10242420091E+04  0.20526722798E+04  0.25500000920E-02 0.  1.
</event>
<event>
 5   0  0.3202875E-08  0.3599708E+04  0.7818609E-02  0.8090559E-01
        1   -1    0    0  501    0  0.00000000000E+00  0.00000000000E+00  0.18438219343E+04  0.18438219343E+04  0.50400001928E-02 0. -1.
       -1   -1    0    0    0  501  0.00000000000E+00  0.00000000000E+00 -0.17569343877E+04  0.17569343877E+04  0.50400001928E-02 0.  1.
    10030    2    1    2    0    0  0.00000000000E+00  0.00000000000E+00  0.86887546625E+02  0.36007563220E+04  0.35997078554E+04 0.  0.
        2    1    3    3  502    0  0.16263050569E+04  0.65113115018E+03 -0.36975552754E+03  0.17904075131E+04  0.25500000920E-02 0.  1.
       -2    1    3    3    0  502 -0.16263050569E+04 -0.65113115018E+03  0.45664307417E+03  0.18103488089E+04  0.25500000920E-02 0. -1.
</event>
<event>
 5   0  0.1044678E-07  0.3605373E+04  0.7818609E-02  0.8089262E-01
       -2   -1    0    0    0  501  0.00000000000E+00  0.00000000000E+00  0.13238397787E+04  0.13238397787E+04  0.25500000920E-02 0.  1.
        2   -1    0    0  501    0  0.00000000000E+00  0.00000000000E+00 -0.24547364600E+04  0.24547364600E+04  0.25500000920E-02 0. -1.
    10030    2    1    2    0    0  0.00000000000E+00  0.00000000000E+00 -0.11308966813E+04  0.37785762388E+04  0.36053725311E+04 0.  0.
        2    1    3    3  502    0 -0.99959501749E+03 -0.12923881294E+04  0.23286718711E+03  0.16503588709E+04  0.25500000920E-02 0.  1.
       -2    1    3    3    0  502  0.99959501749E+03  0.12923881294E+04 -0.13637638684E+04  0.21282173679E+04  0.25500000920E-02 0. -1.
</event>
<event>
 5   0  0.1029908E-07  0.3598862E+04  0.7818609E-02  0.8090752E-01
        2   -1    0    0  501    0  0.00000000000E+00  0.00000000000E+00  0.15539936235E+04  0.15539936235E+04  0.25500000920E-02 0.  1.
       -2   -1    0    0    0  501  0.00000000000E+00  0.00000000000E+00 -0.20836324326E+04  0.20836324326E+04  0.25500000920E-02 0. -1.
    10030    2    1    2    0    0  0.00000000000E+00  0.00000000000E+00 -0.52963880917E+03  0.36376260561E+04  0.35988617722E+04 0.  0.
        4    1    3    3  502    0 -0.16883355108E+04 -0.13761751912E+03  0.34878995317E+03  0.17294714287E+04  0.12699999809E+01 0. -1.
       -4    1    3    3    0  502  0.16883355108E+04  0.13761751912E+03 -0.87842876234E+03  0.19081546274E+04  0.12699999809E+01 0.  1.
</event>
<event>
 5   0  0.9905335E-08  0.3600584E+04  0.7818609E-02  0.8090358E-01
       -2   -1    0    0    0  501  0.00000000000E+00  0.00000000000E+00  0.23992537092E+04  0.23992537092E+04  0.25500000920E-02 0. -1.
        2   -1    0    0  501    0  0.00000000000E+00  0.00000000000E+00 -0.13508583072E+04  0.13508583072E+04  0.25500000920E-02 0.  1.
    10030    2    1    2    0    0  0.00000000000E+00  0.00000000000E+00  0.10483954021E+04  0.37501120164E+04  0.36005842882E+04 0.  0.
        5    1    3    3  502    0  0.79349070396E+03 -0.15679780507E+04  0.11700518427E+03  0.17612197387E+04  0.46999998093E+01 0. -1.
       -5    1    3    3    0  502 -0.79349070396E+03  0.15679780507E+04  0.93139021780E+03  0.19888922777E+04  0.46999998093E+01 0.  1.
</event>
<event>
 5   0  0.3202875E-08  0.3597661E+04  0.7818609E-02  0.8091028E-01
       -1   -1    0    0    0  501  0.00000000000E+00  0.00000000000E+00  0.17359530544E+04  0.17359530544E+04  0.50400001928E-02 0. -1.
        1   -1    0    0  501    0  0.00000000000E+00  0.00000000000E+00 -0.18639850917E+04  0.18639850917E+04  0.50400001928E-02 0.  1.
    10030    2    1    2    0    0  0.00000000000E+00  0.00000000000E+00 -0.12803203731E+03  0.35999381461E+04  0.35976606917E+04 0.  0.
        1    1    3    3  502    0  0.13930441710E+04 -0.15303419240E+03 -0.11924706210E+04  0.18401026353E+04  0.50400001928E-02 0.  1.
       -1    1    3    3    0  502 -0.13930441710E+04  0.15303419240E+03  0.10644385837E+04  0.17598355108E+04  0.50400001928E-02 0. -1.
</event>
<event>
 5   0  0.3215494E-08  0.3597659E+04  0.7818609E-02  0.8091028E-01
        1   -1    0    0  501    0  0.00000000000E+00  0.00000000000E+00  0.14952988566E+04  0.14952988566E+04  0.50400001928E-02 0.  1.
       -1   -1    0    0    0  501  0.00000000000E+00  0.00000000000E+00 -0.21639744131E+04  0.21639744131E+04  0.50400001928E-02 0. -1.
    10030    2    1    2    0    0  0.00000000000E+00  0.00000000000E+00 -0.66867555654E+03  0.36592732697E+04  0.35976594979E+04 0.  0.
        4    1    3    3  502    0 -0.99668486807E+03 -0.45898222859E+03  0.11154652604E+04  0.15647075677E+04  0.12699999809E+01 0.  1.
       -4    1    3    3    0  502  0.99668486807E+03  0.45898222859E+03 -0.17841408170E+04  0.20945657020E+04  0.12699999809E+01 0. -1.
</event>
<event>
 5   0  0.1044678E-07  0.3596498E+04  0.7818609E-02  0.8091294E-01
        2   -1    0    0  501    0  0.00000000000E+00  0.00000000000E+00  0.23622168307E+04  0.23622168307E+04  0.25500000920E-02 0. -1.
       -2   -1    0    0    0  501  0.00000000000E+00  0.00000000000E+00 -0.13689254915E+04  0.13689254915E+04  0.25500000920E-02 0.  1.
    10030    2    1    2    0    0  0.00000000000E+00  0.00000000000E+00  0.99329133926E+03  0.37311423222E+04  0.35964976496E+04 0.  0.
        2    1    3    3  502    0 -0.13523862848E+04 -0.86097308208E+03 -0.34838892294E+03  0.16406090799E+04  0.25500000920E-02 0.  1.
       -2    1    3    3    0  502  0.13523862848E+04  0.86097308208E+03  0.13416802622E+04  0.20905332423E+04  0.25500000920E-02 0. -1.
</event>
<event>
 5   0  0.1017794E-07  0.3604678E+04  0.7818609E-02  0.8089421E-01
       -2   -1    0    0    0  501  0.00000000000E+00  0.00000000000E+00  0.13352123853E+04  0.13352123853E+04  0.25500000920E-02 0. -1.
        2   -1    0    0  501    0  0.00000000000E+00  0.00000000000E+00 -0.24328912795E+04  0.24328912795E+04  0.25500000920E-02 0.  1.
    10030    2    1    2    0    0  0.00000000000E+00  0.00000000000E+00 -0.10976788941E+04  0.37681036648E+04  0.36046783871E+04 0.  0.
        1    1    3    3  502    0  0.79790997254E+03  0.85751344902E+03  0.88309555590E+03  0.14669176529E+04  0.50400001928E-02 0. -1.
       -1    1    3    3    0  502 -0.79790997254E+03 -0.85751344902E+03 -0.19807744500E+04  0.23011860119E+04  0.50400001928E-02 0.  1.
</event>
<event>
 5   0  0.1017794E-07  0.3596444E+04  0.7818609E-02  0.8091307E-01
       -2   -1    0    0    0  501  0.00000000000E+00  0.00000000000E+00  0.18337074417E+04  0.18337074417E+04  0.25500000920E-02 0.  1.
        2   -1    0    0  501    0  0.00000000000E+00  0.00000000000E+00 -0.17634229631E+04  0.17634229631E+04  0.25500000920E-02 0. -1.
    10030    2    1    2    0    0  0.00000000000E+00  0.00000000000E+00  0.70284478604E+02  0.35971304047E+04  0.35964436935E+04 0.  0.
        1    1    3    3  502    0  0.17054897643E+03 -0.15148958234E+04 -0.91877227331E+03  0.17799266275E+04  0.50400001928E-02 0. -1.
       -1    1    3    3    0  502 -0.17054897643E+03  0.15148958234E+04  0.98905675191E+03  0.18172037772E+04  0.50400001928E-02 0.  1.
</event>
<event>
 5   0  0.3202875E-08  0.3605250E+04  0.7818609E-02  0.8089290E-01
       -1   -1    0    0    0  501  0.00000000000E+00  0.00000000000E+00  0.18669692735E+04  0.18669692735E+04  0.50400001928E-02 0. -1.
        1   -1    0    0  501    0  0.00000000000E+00  0.00000000000E+00 -0.17404983930E+04  0.17404983930E+04  0.50400001928E-02 0.  1.
    10030    2    1    2    0    0  0.00000000000E+00  0.00000000000E+00  0.12647088044E+03  0.36074676665E+04  0.36052500719E+04 0.  0.
        2    1    3    3  502    0 -0.34558635675E+03  0.15874311982E+04 -0.71832712644E+03  0.17763337523E+04  0.25500000920E-02 0.  1.
       -2    1    3    3    0  502  0.34558635675E+03 -0.15874311982E+04  0.84479800688E+03  0.18311339141E+04  0.25500000920E-02 0. -1.
</event>
<event>
 5   0  0.9905335E-08  0.3540739E+04  0.7818609E-02  0.8104203E-01
        2   -1    0    0  501    0  0.00000000000E+00  0.00000000000E+00  0.22203913361E+04  0.22203913361E+04  0.25500000920E-02 0. -1.
       -2   -1    0    0    0  501  0.00000000000E+00  0.00000000000E+00 -0.14115563092E+04  0.14115563092E+04  0.25500000920E-02 0.  1.
    10030    2    1    2    0    0  0.00000000000E+00  0.00000000000E+00  0.80883502690E+03  0.36319476452E+04  0.35407385666E+04 0.  0.
        5    1    3    3  502    0 -0.21758023755E+03 -0.15149479586E+04  0.13171575755E+04  0.20192411064E+04  0.46999998093E+01 0. -1.
       -5    1    3    3    0  502  0.21758023755E+03  0.15149479586E+04 -0.50832254861E+03  0.16127065388E+04  0.46999998093E+01 0.  1.
</event>
<event>
 5   0  0.3215494E-08  0.3599579E+04  0.7818609E-02  0.8090588E-01
       -1   -1    0    0    0  501  0.00000000000E+00  0.00000000000E+00  0.16604884461E+04  0.16604884461E+04  0.50400001928E-02 0.  1.
        1   -1    0    0  501    0  0.00000000000E+00  0.00000000000E+00 -0.19507772657E+04  0.19507772657E+04  0.50400001928E-02 0. -1.
    10030    2    1    2    0    0  0.00000000000E+00  0.00000000000E+00 -0.29028881956E+03  0.36112657118E+04  0.35995794814E+04 0.  0.
        4    1    3    3  502    0 -0.17557653419E+04  0.92008206043E+01 -0.54195969389E+03  0.18375305476E+04  0.12699999809E+01 0. -1.
       -4    1    3    3    0  502  0.17557653419E+04 -0.92008206043E+01  0.25167087432E+03  0.17737351642E+04  0.12699999809E+01 0.  1.
</event>
<event>
 5   0  0.3202875E-08  0.3600474E+04  0.7818609E-02  0.8090383E-01
        1   -1    0    0  501    0  0.00000000000E+00  0.00000000000E+00  0.21504290850E+04  0.21504290850E+04  0.50400001928E-02 0. -1.
       -1   -1    0    0    0  501  0.00000000000E+00  0.00000000000E+00 -0.15070729383E+04  0.15070729383E+04  0.50400001928E-02 0.  1.
    10030    2    1    2    0    0  0.00000000000E+00  0.00000000000E+00  0.64335614673E+03  0.36575020233E+04  0.36004741242E+04 0.  0.
        1    1    3    3  502    0 -0.12525572014E+04 -0.12854743131E+04  0.46356764589E+03  0.18537094472E+04  0.50400001928E-02 0. -1.
       -1    1    3    3    0  502  0.12525572014E+04  0.12854743131E+04  0.17978850084E+03  0.18037925761E+04  0.50400001928E-02 0.  1.
</event>
<event>
 5   0  0.3202875E-08  0.3603582E+04  0.7818609E-02  0.8089672E-01
        1   -1    0    0  501    0  0.00000000000E+00  0.00000000000E+00  0.22030025054E+04  0.22030025054E+04  0.50400001928E-02 0. -1.
       -1   -1    0    0    0  501  0.00000000000E+00  0.00000000000E+00 -0.14736479893E+04  0.14736479893E+04  0.50400001928E-02 0.  1.
    10030    2    1    2    0    0  0.00000000000E+00  0.00000000000E+00  0.72935451610E+03  0.36766504947E+04  0.36035816697E+04 0.  0.
        1    1    3    3  502    0 -0.13913472195E+04 -0.42132483093E+02  0.15319148444E+04  0.20698756779E+04  0.50400001928E-02 0. -1.
       -1    1    3    3    0  502  0.13913472195E+04  0.42132483093E+02 -0.80256032828E+03  0.16067748168E+04  0.50400001928E-02 0.  1.
</event>
<event>
 5   0  0.3202875E-08  0.3615888E+04  0.7818609E-02  0.8086862E-01
       -1   -1    0    0    0  501  0.00000000000E+00  0.00000000000E+00  0.27742399984E+04  0.27742399984E+04  0.50400001928E-02 0.  1.
        1   -1    0    0  501    0  0.00000000000E+00  0.00000000000E+00 -0.11782190096E+04  0.11782190096E+04  0.50400001928E-02 0. -1.
    10030    2    1    2    0    0  0.00000000000E+00  0.00000000000E+00  0.15960209888E+04  0.39524590081E+04  0.36158884404E+04 0.  0.
        2    1    3    3  502    0  0.12970319791E+03  0.17644408093E+04  0.39108473037E+03  0.18119110231E+04  0.25500000920E-02 0.  1.
       -2    1    3    3    0  502 -0.12970319791E+03 -0.17644408093E+04  0.12049362584E+04  0.21405479850E+04  0.25500000920E-02 0. -1.
</event>
<event>
 5   0  0.3212523E-08  0.3604065E+04  0.7818609E-02  0.8089561E-01
       -1   -1    0    0    0  501  0.00000000000E+00  0.00000000000E+00  0.13420281796E+04  0.13420281796E+04  0.50400001928E-02 0.  1.
        1   -1    0    0  501    0  0.00000000000E+00  0.00000000000E+00 -0.24197110119E+04  0.24197110119E+04  0.50400001928E-02 0. -1.
    10030    2    1    2    0    0  0.00000000000E+00  0.00000000000E+00 -0.10776828322E+04  0.37617391915E+04  0.36040645746E+04 0.  0.
        3    1    3    3  502    0  0.12590849294E+04  0.12850149430E+04 -0.64712046983E+03  0.19118899487E+04  0.10100000352E+00 0. -1.
       -3    1    3    3    0  502 -0.12590849294E+04 -0.12850149430E+04 -0.43056236242E+03  0.18498492428E+04  0.10100000352E+00 0.  1.
</event>
<event>
 5   0  0.1021087E-07  0.3669098E+04  0.7818609E-02  0.8074845E-01
        2   -1    0    0  501    0  0.00000000000E+00  0.00000000000E+00  0.28661629999E+04  0.28661629999E+04  0.25500000920E-02 0. -1.
       -2   -1    0    0    0  501  0.00000000000E+00  0.00000000000E+00 -0.11742423895E+04  0.11742423895E+04  0.25500000920E-02 0.  1.
    10030    2    1    2    0    0  0.00000000000E+00  0.00000000000E+00  0.16919206104E+04  0.40404053894E+04  0.36690980306E+04 0.  0.
        3    1    3    3  502    0  0.16206145690E+04 -0.75798985458E+03  0.39915331907E+03  0.18331021748E+04  0.10100000352E+00 0.  1.
       -3    1    3    3    0  502 -0.16206145690E+04  0.75798985458E+03  0.12927672914E+04  0.22073032145E+04  0.10100000352E+00 0. -1.
</event>
<event>
 5   0  0.3212523E-08  0.3601490E+04  0.7818609E-02  0.8090150E-01
        1   -1    0    0  501    0  0.00000000000E+00  0.00000000000E+00  0.16747041831E+04  0.16747041831E+04  0.50400001928E-02 0. -1.
       -1   -1    0    0    0  501  0.00000000000E+00  0.00000000000E+00 -0.19362721196E+04  0.19362721196E+04  0.50400001928E-02 0.  1.
    10030    2    1    2    0    0  0.00000000000E+00  0.00000000000E+00 -0.26156793648E+03  0.36109763027E+04  0.36014902572E+04 0.  0.
        3    1    3    3  502    0  0.51244729188E+03  0.70603644892E+03 -0.17102405767E+04  0.19198990949E+04  0.10100000352E+00 0.  1.
       -3    1    3    3    0  502 -0.51244729188E+03 -0.70603644892E+03  0.14486726402E+04  0.16910772078E+04  0.10100000352E+00 0. -1.
</event>
<event>
 5   0  0.1029908E-07  0.3603990E+04  0.7818609E-02  0.8089578E-01
       -2   -1    0    0    0  501  0.00000000000E+00  0.00000000000E+00  0.25038613460E+04  0.25038613460E+04  0.25500000920E-02 0.  1.
        2   -1    0    0  501    0  0.00000000000E+00  0.00000000000E+00 -0.12968712388E+04  0.12968712388E+04  0.25500000920E-02 0. -1.
    10030    2    1    2    0    0  0.00000000000E+00  0.00000000000E+00  0.12069901072E+04  0.38007325848E+04  0.36039898810E+04 0.  0.
        4    1    3    3  502    0  0.66401514969E+03 -0.85469754319E+03 -0.91590569375E+03  0.14178536110E+04  0.12699999809E+01 0. -1.
       -4    1    3    3    0  502 -0.66401514969E+03  0.85469754319E+03  0.21228958009E+04  0.23828789738E+04  0.12699999809E+01 0.  1.
</event>
<event>
 5   0  0.1021087E-07  0.3599123E+04  0.7818609E-02  0.8090693E-01
        2   -1    0    0  501    0  0.00000000000E+00  0.00000000000E+00  0.23752233151E+04  0.23752233151E+04  0.25500000920E-02 0. -1.
       -2   -1    0    0    0  501  0.00000000000E+00  0.00000000000E+00 -0.13634178934E+04  0.13634178935E+04  0.25500000920E-02 0.  1.
    10030    2    1    2    0    0  0.00000000000E+00  0.00000000000E+00  0.10118054216E+04  0.37386412085E+04  0.35991232092E+04 0.  0.
        3    1    3    3  502    0  0.83768159955E+03 -0.49227208856E+03  0.20793410166E+04  0.22951473471E+04  0.10100000352E+00 0. -1.
       -3    1    3    3    0  502 -0.83768159955E+03  0.49227208856E+03 -0.10675355949E+04  0.14434938615E+04  0.10100000352E+00 0.  1.
</event>
<event>
 5   0  0.1044678E-07  0.3599866E+04  0.7818609E-02  0.8090522E-01
        2   -1    0    0  501    0  0.00000000000E+00  0.00000000000E+00  0.24759786906E+04  0.24759786906E+04  0.25500000920E-02 0. -1.
       -2   -1    0    0    0  501  0.00000000000E+00  0.00000000000E+00 -0.13084762837E+04  0.13084762837E+04  0.25500000920E-02 0.  1.
    10030    2    1    2    0    0  0.00000000000E+00  0.00000000000E+00  0.11675024069E+04  0.37844549742E+04  0.35998663283E+04 0.  0.
        2    1    3    3  502    0  0.16015463083E+04  0.76973418648E+03  0.28212807740E+03  0.17991769084E+04  0.25500000920E-02 0.  1.
       -2    1    3    3    0  502 -0.16015463083E+04 -0.76973418648E+03  0.88537432950E+03  0.19852780659E+04  0.25500000920E-02 0. -1.
</event>
<event>
 5   0  0.3279988E-08  0.3600786E+04  0.7818609E-02  0.8090312E-01
       -1   -1    0    0    0  501  0.00000000000E+00  0.00000000000E+00  0.11296162678E+04  0.11296162678E+04  0.50400001928E-02 0.  1.
        1   -1    0    0  501    0  0.00000000000E+00  0.00000000000E+00 -0.28694828276E+04  0.28694828276E+04  0.50400001928E-02 0. -1.
    10030    2    1    2    0    0  0.00000000000E+00  0.00000000000E+00 -0.17398665599E+04  0.39990990954E+04  0.36007857377E+04 0.  0.
        5    1    3    3  502    0  0.72454686212E+03  0.13359722167E+04 -0.19418972845E+04  0.24659231685E+04  0.46999998093E+01 0. -1.
       -5    1    3    3    0  502 -0.72454686212E+03 -0.13359722167E+04  0.20203072468E+03  0.15331759269E+04  0.46999998093E+01 0.  1.
</event>
<event>
 5   0  0.3202875E-08  0.3504675E+04  0.7818609E-02  0.8112683E-01
       -1   -1    0    0    0  501  0.00000000000E+00  0.00000000000E+00  0.11366237601E+04  0.11366237602E+04  0.50400001928E-02 0. -1.
        1   -1    0    0  501    0  0.00000000000E+00  0.00000000000E+00 -0.27015865391E+04  0.27015865391E+04  0.50400001928E-02 0.  1.
    10030    2    1    2    0    0  0.00000000000E+00  0.00000000000E+00 -0.15649627790E+04  0.38382102993E+04  0.35046754203E+04 0.  0.
        1    1    3    3  502    0  0.41059868468E+03 -0.14270627332E+04  0.23643045052E+03  0.15036617580E+04  0.50400001928E-02 0. -1.
       -1    1    3    3    0  502 -0.41059868468E+03  0.14270627332E+04 -0.18013932295E+04  0.23345485413E+04  0.50400001928E-02 0.  1.
</event>
<event>
 5   0  0.1017794E-07  0.3584535E+04  0.7818609E-02  0.8094043E-01
       -2   -1    0    0    0  501  0.00000000000E+00  0.00000000000E+00  0.12994299901E+04  0.12994299901E+04  0.25500000920E-02 0. -1.
        2   -1    0    0  501    0  0.00000000000E+00  0.00000000000E+00 -0.24720247588E+04  0.24720247588E+04  0.25500000920E-02 0.  1.
    10030    2    1    2    0    0  0.00000000000E+00  0.00000000000E+00 -0.11725947687E+04  0.37714547489E+04  0.35845351765E+04 0.  0.
        1    1    3    3  502    0  0.12807367477E+04 -0.95694158882E+03  0.26600544773E+03  0.16207352404E+04  0.50400001928E-02 0. -1.
       -1    1    3    3    0  502 -0.12807367477E+04  0.95694158882E+03 -0.14386002164E+04  0.21507195084E+04  0.50400001928E-02 0.  1.
</event>
<event>
 5   0  0.1029908E-07  0.3598001E+04  0.7818609E-02  0.8090950E-01
       -2   -1    0    0    0  501  0.00000000000E+00  0.00000000000E+00  0.14636895799E+04  0.14636895799E+04  0.25500000920E-02 0. -1.
        2   -1    0    0  501    0  0.00000000000E+00  0.00000000000E+00 -0.22111260362E+04  0.22111260362E+04  0.25500000920E-02 0.  1.
    10030    2    1    2    0    0  0.00000000000E+00  0.00000000000E+00 -0.74743645634E+03  0.36748156161E+04  0.35980006331E+04 0.  0.
        4    1    3    3  502    0  0.13187727432E+04 -0.88427303161E+03  0.49009228622E+03  0.16617136951E+04  0.12699999809E+01 0. -1.
       -4    1    3    3    0  502 -0.13187727432E+04  0.88427303161E+03 -0.12375287426E+04  0.20131019210E+04  0.12699999809E+01 0.  1.
</event>
<event>
 5   0  0.9905335E-08  0.3597888E+04  0.7818609E-02  0.8090976E-01
        2   -1    0    0  501    0  0.00000000000E+00  0.00000000000E+00  0.18327747658E+04  0.18327747658E+04  0.25500000920E-02 0. -1.
       -2   -1    0    0    0  501  0.00000000000E+00  0.00000000000E+00 -0.17657375386E+04  0.17657375386E+04  0.25500000920E-02 0.  1.
    10030    2    1    2    0    0  0.00000000000E+00  0.00000000000E+00  0.67037227258E+02  0.35985123044E+04  0.35978878269E+04 0.  0.
        5    1    3    3  502    0  0.43903480839E+03 -0.24809149000E+03 -0.16935920859E+04  0.17670815471E+04  0.46999998093E+01 0.  1.
       -5    1    3    3    0  502 -0.43903480839E+03  0.24809149000E+03  0.17606293132E+04  0.18314307573E+04  0.46999998093E+01 0. -1.
</event>
<event>
 5   0  0.1021087E-07  0.3595536E+04  0.7818609E-02  0.8091515E-01
       -2   -1    0    0    0  501  0.00000000000E+00  0.00000000000E+00  0.16287687734E+04  0.16287687735E+04  0.25500000920E-02 0. -1.
        2   -1    0    0  501    0  0.00000000000E+00  0.00000000000E+00 -0.19843020838E+04  0.19843020838E+04  0.25500000920E-02 0.  1.
    10030    2    1    2    0    0  0.00000000000E+00  0.00000000000E+00 -0.35553331035E+03  0.36130708573E+04  0.35955357160E+04 0.  0.
        3    1    3    3  502    0 -0.15098132621E+04  0.50499396306E+03 -0.10169527651E+04  0.18891129997E+04  0.10100000352E+00 0.  1.
       -3    1    3    3    0  502  0.15098132621E+04 -0.50499396306E+03  0.66141945475E+03  0.17239578575E+04  0.10100000352E+00 0. -1.
</event>
<event>
 5   0  0.1029908E-07  0.3601556E+04  0.7818609E-02  0.8090135E-01
        2   -1    0    0  501    0  0.00000000000E+00  0.00000000000E+00  0.19616391747E+04  0.19616391747E+04  0.25500000920E-02 0.  1.
       -2   -1    0    0    0  501  0.00000000000E+00  0.00000000000E+00 -0.16531082607E+04  0.16531082607E+04  0.25500000920E-02 0. -1.
    10030    2    1    2    0    0  0.00000000000E+00  0.00000000000E+00  0.30853091400E+03  0.36147474355E+04  0.36015562882E+04 0.  0.
        4    1    3    3  502    0  0.75273994156E+02  0.17603630267E+04 -0.21892453051E+03  0.17755206907E+04  0.12699999809E+01 0.  1.
       -4    1    3    3    0  502 -0.75273994156E+02 -0.17603630267E+04  0.52745544451E+03  0.18392267448E+04  0.12699999809E+01 0. -1.
</event>
<event>
 5   0  0.3279988E-08  0.3593875E+04  0.7818609E-02  0.8091896E-01
        1   -1    0    0  501    0  0.00000000000E+00  0.00000000000E+00  0.21363785539E+04  0.21363785539E+04  0.50400001928E-02 0. -1.
       -1   -1    0    0    0  501  0.00000000000E+00  0.00000000000E+00 -0.15114289549E+04  0.15114289549E+04  0.50400001928E-02 0.  1.
    10030    2    1    2    0    0  0.00000000000E+00  0.00000000000E+00  0.62494959904E+03  0.36478075089E+04  0.35938750146E+04 0.  0.
        5    1    3    3  502    0  0.84180627454E+03 -0.90692532978E+03  0.16350293972E+04  0.20504864246E+04  0.46999998093E+01 0.  1.
       -5    1    3    3    0  502 -0.84180627454E+03  0.90692532978E+03 -0.10100797982E+04  0.15973210843E+04  0.46999998093E+01 0. -1.
</event>
<event>
 5   0  0.3202875E-08  0.3608200E+04  0.7818609E-02  0.8088616E-01
        1   -1    0    0  501    0  0.00000000000E+00  0.00000000000E+00  0.23463651496E+04  0.23463651496E+04  0.50400001928E-02 0.  1.
       -1   -1    0    0    0  501  0.00000000000E+00  0.00000000000E+00 -0.13871566848E+04  0.13871566849E+04  0.50400001928E-02 0. -1.
    10030    2    1    2    0    0  0.00000000000E+00  0.00000000000E+00  0.95920846478E+03  0.37335218345E+04  0.36081996078E+04 0.  0.
        2    1    3    3  502    0  0.49490028619E+03  0.14291625285E+04  0.14973016529E+04  0.21282255674E+04  0.25500000920E-02 0.  1.
       -2    1    3    3    0  502 -0.49490028619E+03 -0.14291625285E+04 -0.53809318810E+03  0.16052962671E+04  0.25500000920E-02 0. -1.
</event>
<event>
 5   0  0.1029908E-07  0.3621233E+04  0.7818609E-02  0.8085645E-01
       -2   -1    0    0    0  501  0.00000000000E+00  0.00000000000E+00  0.14746647749E+04  0.14746647749E+04  0.25500000920E-02 0.  1.
        2   -1    0    0  501    0  0.00000000000E+00  0.00000000000E+00 -0.22231033014E+04  0.22231033014E+04  0.25500000920E-02 0. -1.
    10030    2    1    2    0    0  0.00000000000E+00  0.00000000000E+00 -0.74843852647E+03  0.36977680763E+04  0.36212330107E+04 0.  0.
        4    1    3    3  502    0 -0.37719605833E+03  0.15833083912E+04 -0.11841977399E+04  0.20128259309E+04  0.12699999809E+01 0.  1.
       -4    1    3    3    0  502  0.37719605833E+03 -0.15833083912E+04  0.43575921339E+03  0.16849421453E+04  0.12699999809E+01 0. -1.
</event>
<event>
 5   0  0.1021087E-07  0.3597575E+04  0.7818609E-02  0.8091047E-01
       -2   -1    0    0    0  501  0.00000000000E+00  0.00000000000E+00  0.14272075460E+04  0.14272075460E+04  0.25500000920E-02 0.  1.
        2   -1    0    0  501    0  0.00000000000E+00  0.00000000000E+00 -0.22671102551E+04  0.22671102551E+04  0.25500000920E-02 0. -1.
    10030    2    1    2    0    0  0.00000000000E+00  0.00000000000E+00 -0.83990270904E+03  0.36943178011E+04  0.35975752188E+04 0.  0.
        3    1    3    3  502    0 -0.26173892429E+02  0.18563948463E+03 -0.22570504814E+04  0.22648231667E+04  0.10100000352E+00 0. -1.
       -3    1    3    3    0  502  0.26173892429E+02 -0.18563948463E+03  0.14171477723E+04  0.14294946344E+04  0.10100000352E+00 0.  1.
</event>
<event>
 5   0  0.1044678E-07  0.3598411E+04  0.7818609E-02  0.8090856E-01
        2   -1    0    0  501    0  0.00000000000E+00  0.00000000000E+00  0.20004283925E+04  0.20004283925E+04  0.25500000920E-02 0.  1.
       -2   -1    0    0    0  501  0.00000000000E+00  0.00000000000E+00 -0.16182234260E+04  0.16182234260E+04  0.25500000920E-02 0. -1.
    10030    2    1    2    0    0  0.00000000000E+00  0.00000000000E+00  0.38220496646E+03  0.36186518185E+04  0.35984108086E+04 0.  0.
        2    1    3    3  502    0  0.28289677058E+03 -0.26127322618E+02 -0.15955246326E+04  0.16206208912E+04  0.25500000920E-02 0. -1.
       -2    1    3    3    0  502 -0.28289677058E+03  0.26127322618E+02  0.19777295990E+04  0.19980309274E+04  0.25500000920E-02 0.  1.
</event>
<event>
 5   0  0.1029908E-07  0.3595158E+04  0.7818609E-02  0.8091602E-01
       -2   -1    0    0    0  501  0.00000000000E+00  0.00000000000E+00  0.15900437998E+04  0.15900437998E+04  0.25500000920E-02 0. -1.
        2   -1    0    0  501    0  0.00000000000E+00  0.00000000000E+00 -0.20322017171E+04  0.20322017171E+04  0.25500000920E-02 0.  1.
    10030    2    1    2    0    0  0.00000000000E+00  0.00000000000E+00 -0.44215791725E+03  0.36222455169E+04  0.35951577102E+04 0.  0.
        4    1    3    3  502    0  0.13953175566E+04 -0.43504622185E+03  0.83328164978E+03  0.16824197513E+04  0.12699999809E+01 0. -1.
       -4    1    3    3    0  502 -0.13953175566E+04  0.43504622185E+03 -0.12754395670E+04  0.19398257656E+04  0.12699999809E+01 0.  1.
</event>
<event>
 5   0  0.3202875E-08  0.3601025E+04  0.7818609E-02  0.8090257E-01
       -1   -1    0    0    0  501  0.00000000000E+00  0.00000000000E+00  0.22439465478E+04  0.22439465478E+04  0.50400001928E-02 0.  1.
        1   -1    0    0  501    0  0.00000000000E+00  0.00000000000E+00 -0.14447069657E+04  0.14447069657E+04  0.50400001928E-02 0. -1.
    10030    2    1    2    0    0  0.00000000000E+00  0.00000000000E+00  0.79923958208E+03  0.36886535134E+04  0.36010249697E+04 0.  0.
        1    1    3    3  502    0  0.53342583529E+03  0.46118444635E+03  0.20966209111E+04  0.22120247422E+04  0.50400001928E-02 0.  1.
       -1    1    3    3    0  502 -0.53342583529E+03 -0.46118444635E+03 -0.12973813290E+04  0.14766287713E+04  0.50400001928E-02 0. -1.
</event>
<event>
 5   0  0.1044678E-07  0.3630363E+04  0.7818609E-02  0.8083572E-01
        2   -1    0    0  501    0  0.00000000000E+00  0.00000000000E+00  0.26615974980E+04  0.26615974980E+04  0.25500000920E-02 0. -1.
       -2   -1    0    0    0  501  0.00000000000E+00  0.00000000000E+00 -0.12379350026E+04  0.12379350026E+04  0.25500000920E-02 0.  1.
    10030    2    1    2    0    0  0.00000000000E+00  0.00000000000E+00  0.14236624955E+04  0.38995325006E+04  0.36303634560E+04 0.  0.
        2    1    3    3  502    0  0.96439080221E+03  0.88512584038E+03  0.20626017414E+04  0.24429128753E+04  0.25500000920E-02 0. -1.
       -2    1    3    3    0  502 -0.96439080221E+03 -0.88512584038E+03 -0.63893924597E+03  0.14566196253E+04  0.25500000920E-02 0.  1.
</event>
<event>
 5   0  0.3279988E-08  0.3597783E+04  0.7818609E-02  0.8091000E-01
       -1   -1    0    0    0  501  0.00000000000E+00  0.00000000000E+00  0.14728810584E+04  0.14728810584E+04  0.50400001928E-02 0.  1.
        1   -1    0    0  501    0  0.00000000000E+00  0.00000000000E+00 -0.21970620592E+04  0.21970620592E+04  0.50400001928E-02 0. -1.
    10030    2    1    2    0    0  0.00000000000E+00  0.00000000000E+00 -0.72418100076E+03  0.36699431176E+04  0.35977832571E+04 0.  0.
        5    1    3    3  502    0  0.19204332558E+03  0.76320102235E+03  0.12879541914E+04  0.15093722299E+04  0.46999998093E+01 0.  1.
       -5    1    3    3    0  502 -0.19204332558E+03 -0.76320102235E+03 -0.20121351921E+04  0.21605708877E+04  0.46999998093E+01 0. -1.
</event>
<event>
 5   0  0.3212523E-08  0.3599398E+04  0.7818609E-02  0.8090630E-01
        1   -1    0    0  501    0  0.00000000000E+00  0.00000000000E+00  0.16882428459E+04  0.16882428459E+04  0.50400001928E-02 0. -1.
       -1   -1    0    0    0  501  0.00000000000E+00  0.00000000000E+00 -0.19185130449E+04  0.19185130449E+04  0.50400001928E-02 0.  1.
    10030    2    1    2    0    0  0.00000000000E+00  0.00000000000E+00 -0.23027019900E+03  0.36067558908E+04  0.35993976845E+04 0.  0.
        3    1    3    3  502    0  0.10405310023E+04 -0.10907711750E+04  0.86994598799E+03  0.17404862985E+04  0.10100000352E+00 0. -1.
       -3    1    3    3    0  502 -0.10405310023E+04  0.10907711750E+04 -0.11002161870E+04  0.18662695923E+04  0.10100000352E+00 0.  1.
</event>
<event>
 5   0  0.9905335E-08  0.3582735E+04  0.7818609E-02  0.8094458E-01
        2   -1    0    0  501    0  0.00000000000E+00  0.00000000000E+00  0.20418498362E+04  0.20418498362E+04  0.25500000920E-02 0.  1.
       -2   -1    0    0    0  501  0.00000000000E+00  0.00000000000E+00 -0.15716129115E+04  0.15716129115E+04  0.25500000920E-02 0. -1.
    10030    2    1    2    0    0  0.00000000000E+00  0.00000000000E+00  0.47023692471E+03  0.36134627477E+04  0.35827350256E+04 0.  0.
        5    1    3    3  502    0  0.52890120215E+03  0.13722780160E+04 -0.79643998835E+03  0.16724898146E+04  0.46999998093E+01 0. -1.
       -5    1    3    3    0  502 -0.52890120215E+03 -0.13722780160E+04  0.12666769131E+04  0.19409729331E+04  0.46999998093E+01 0.  1.
</event>
<event>
 5   0  0.3279988E-08  0.3598225E+04  0.7818609E-02  0.8090898E-01
       -1   -1    0    0    0  501  0.00000000000E+00  0.00000000000E+00  0.16719208540E+04  0.16719208540E+04  0.50400001928E-02 0. -1.
        1   -1    0    0  501    0  0.00000000000E+00  0.00000000000E+00 -0.19359804085E+04  0.19359804085E+04  0.50400001928E-02 0.  1.
    10030    2    1    2    0    0  0.00000000000E+00  0.00000000000E+00 -0.26405955454E+03  0.36079012625E+04  0.35982251279E+04 0.  0.
        5    1    3    3  502    0 -0.47978935247E+03 -0.34199800705E+03  0.15724307163E+04  0.16792024616E+04  0.46999998093E+01 0. -1.
       -5    1    3    3    0  502  0.47978935247E+03  0.34199800705E+03 -0.18364902708E+04  0.19286988009E+04  0.46999998093E+01 0.  1.
</event>
<event>
 5   0  0.1021087E-07  0.3603053E+04  0.7818609E-02  0.8089793E-01
       -2   -1    0    0    0  501  0.00000000000E+00  0.00000000000E+00  0.23228073358E+04  0.23228073358E+04  0.25500000920E-02 0. -1.
        2   -1    0    0  501    0  0.00000000000E+00  0.00000000000E+00 -0.13972308445E+04  0.13972308445E+04  0.25500000920E-02 0.  1.
    10030    2    1    2    0    0  0.00000000000E+00  0.00000000000E+00  0.92557649126E+03  0.37200381803E+04  0.36030531806E+04 0.  0.
        3    1    3    3  502    0  0.74519509530E+03 -0.28081932567E+03 -0.12056379772E+04  0.14449007461E+04  0.10100000352E+00 0.  1.
       -3    1    3    3    0  502 -0.74519509530E+03  0.28081932567E+03  0.21312144685E+04  0.22751374342E+04  0.10100000352E+00 0. -1.
</event>
<event>
 5   0  0.3202875E-08  0.3598462E+04  0.7818609E-02  0.8090844E-01
       -1   -1    0    0    0  501  0.00000000000E+00  0.00000000000E+00  0.15343341860E+04  0.15343341860E+04  0.50400001928E-02 0. -1.
        1   -1    0    0  501    0  0.00000000000E+00  0.00000000000E+00 -0.21098606555E+04  0.21098606555E+04  0.50400001928E-02 0.  1.
    10030    2    1    2    0    0  0.00000000000E+00  0.00000000000E+00 -0.57552646952E+03  0.36441948415E+04  0.35984615221E+04 0.  0.
        1    1    3    3  502    0  0.81329725058E+03 -0.11695456733E+04 -0.14007954550E+04  0.19978782261E+04  0.50400001928E-02 0.  1.
       -1    1    3    3    0  502 -0.81329725058E+03  0.11695456733E+04  0.82526898550E+03  0.16463166154E+04  0.50400001928E-02 0. -1.
</event>
<event>
 5   0  0.3279988E-08  0.3596487E+04  0.7818609E-02  0.8091297E-01
       -1   -1    0    0    0  501  0.00000000000E+00  0.00000000000E+00  0.12701124928E+04  0.12701124928E+04  0.50400001928E-02 0. -1.
        1   -1    0    0  501    0  0.00000000000E+00  0.00000000000E+00 -0.25459791529E+04  0.25459791529E+04  0.50400001928E-02 0.  1.
    10030    2    1    2    0    0  0.00000000000E+00  0.00000000000E+00 -0.12758666601E+04  0.38160916457E+04  0.35964871353E+04 0.  0.
        5    1    3    3  502    0 -0.15060875304E+04  0.86296396589E+03 -0.13951545229E+03  0.17414054976E+04  0.46999998093E+01 0. -1.
       -5    1    3    3    0  502  0.15060875304E+04 -0.86296396589E+03 -0.11363512078E+04  0.20746861481E+04  0.46999998093E+01 0.  1.
</event>
<event>
 5   0  0.1021087E-07  0.3596745E+04  0.7818609E-02  0.8091238E-01
        2   -1    0    0  501    0  0.00000000000E+00  0.00000000000E+00  0.21563112875E+04  0.21563112875E+04  0.25500000920E-02 0. -1.
       -2   -1    0    0    0  501  0.00000000000E+00  0.00000000000E+00 -0.14998504878E+04  0.14998504878E+04  0.25500000920E-02 0.  1.
    10030    2    1    2    0    0  0.00000000000E+00  0.00000000000E+00  0.65646079972E+03  0.36561617753E+04  0.35967454936E+04 0.  0.
        3    1    3    3  502    0  0.14997053469E+04  0.87384350285E+03 -0.15010215063E+03  0.17421966769E+04  0.10100000352E+00 0.  1.
       -3    1    3    3    0  502 -0.14997053469E+04 -0.87384350285E+03  0.80656295035E+03  0.19139650985E+04  0.10100000352E+00 0. -1.
</event>
<event>
 5   0  0.9905335E-08  0.3590650E+04  0.7818609E-02  0.8092637E-01
        2   -1    0    0  501    0  0.00000000000E+00  0.00000000000E+00  0.12176766471E+04  0.12176766471E+04  0.25500000920E-02 0.  1.
       -2   -1    0    0    0  501  0.00000000000E+00  0.00000000000E+00 -0.26470007466E+04  0.26470007466E+04  0.25500000920E-02 0. -1.
    10030    2    1    2    0    0  0.00000000000E+00  0.00000000000E+00 -0.14293240995E+04  0.38646773937E+04  0.35906495201E+04 0.  0.
        5    1    3    3  502    0 -0.71312903640E+03 -0.15587965824E+04 -0.12890253194E+04  0.21447629640E+04  0.46999998093E+01 0.  1.
       -5    1    3    3    0  502  0.71312903640E+03  0.15587965824E+04 -0.14029878015E+03  0.17199144297E+04  0.46999998093E+01 0. -1.
</event>
<event>
 5   0  0.9905335E-08  0.3597136E+04  0.7818609E-02  0.8091148E-01
       -2   -1    0    0    0  501  0.00000000000E+00  0.00000000000E+00  0.17700649068E+04  0.17700649068E+04  0.25500000920E-02 0.  1.
        2   -1    0    0  501    0  0.00000000000E+00  0.00000000000E+00 -0.18275303460E+04  0.18275303460E+04  0.25500000920E-02 0. -1.
    10030    2    1    2    0    0  0.00000000000E+00  0.00000000000E+00 -0.57465439181E+02  0.35975952528E+04  0.35971362674E+04 0.  0.
        5    1    3    3  502    0 -0.47476943599E+03  0.16876151222E+04 -0.43049833290E+03  0.18052151458E+04  0.46999998093E+01 0. -1.
       -5    1    3    3    0  502  0.47476943599E+03 -0.16876151222E+04  0.37303289372E+03  0.17923801070E+04  0.46999998093E+01 0.  1.
</event>
<event>
 5   0  0.3215494E-08  0.3605127E+04  0.7818609E-02  0.8089318E-01
       -1   -1    0    0    0  501  0.00000000000E+00  0.00000000000E+00  0.19817735656E+04  0.19817735656E+04  0.50400001928E-02 0. -1.
        1   -1    0    0  501    0  0.00000000000E+00  0.00000000000E+00 -0.16395590103E+04  0.16395590103E+04  0.50400001928E-02 0.  1.
    10030    2    1    2    0    0  0.00000000000E+00  0.00000000000E+00  0.34221455532E+03  0.36213325758E+04  0.36051267416E+04 0.  0.
        4    1    3    3  502    0 -0.24436755504E+03  0.17294772412E+03 -0.16144113500E+04  0.16419354546E+04  0.12699999809E+01 0.  1.
       -4    1    3    3    0  502  0.24436755504E+03 -0.17294772412E+03  0.19566259053E+04  0.19793971212E+04  0.12699999809E+01 0. -1.
</event>
<event>
 5   0  0.3202875E-08  0.3604723E+04  0.7818609E-02  0.8089411E-01
        3   -1    0    0  501    0  0.00000000000E+00  0.00000000000E+00  0.13803683887E+04  0.13803683924E+04  0.10100000352E+00 0. -1.
       -3   -1    0    0    0  501  0.00000000000E+00  0.00000000000E+00 -0.23533618983E+04  0.23533619005E+04  0.10100000352E+00 0.  1.
    10030    2    1    2    0    0  0.00000000000E+00  0.00000000000E+00 -0.97299350956E+03  0.37337302929E+04  0.36047226704E+04 0.  0.
        5    1    3    3  502    0  0.15173148136E+03  0.96037393380E+02 -0.23440668898E+04  0.23509396626E+04  0.46999998093E+01 0.  1.
       -5    1    3    3    0  502 -0.15173148136E+03 -0.96037393380E+02  0.13710733802E+04  0.13827906303E+04  0.46999998093E+01 0. -1.
</event>
<event>
 5   0  0.3215494E-08  0.3607449E+04  0.7818609E-02  0.8088788E-01
       -1   -1    0    0    0  501  0.00000000000E+00  0.00000000000E+00  0.16497008252E+04  0.16497008252E+04  0.50400001928E-02 0. -1.
        1   -1    0    0  501    0  0.00000000000E+00  0.00000000000E+00 -0.19721282730E+04  0.19721282730E+04  0.50400001928E-02 0.  1.
    10030    2    1    2    0    0  0.00000000000E+00  0.00000000000E+00 -0.32242744780E+03  0.36218290981E+04  0.36074487601E+04 0.  0.
        4    1    3    3  502    0  0.11987612736E+04  0.78533845287E+03  0.93843085452E+03  0.17130204781E+04  0.12699999809E+01 0. -1.
       -4    1    3    3    0  502 -0.11987612736E+04 -0.78533845287E+03 -0.12608583023E+04  0.19088086201E+04  0.12699999809E+01 0.  1.
</event>
<event>
 5   0  0.3212523E-08  0.3596901E+04  0.7818609E-02  0.8091202E-01
        1   -1    0    0  501    0  0.00000000000E+00  0.00000000000E+00  0.98655739713E+03  0.98655739715E+03  0.50400001928E-02 0.  1.
       -1   -1    0    0    0  501  0.00000000000E+00  0.00000000000E+00 -0.32784959070E+04  0.32784959070E+04  0.50400001928E-02 0. -1.
    10030    2    1    2    0    0  0.00000000000E+00  0.00000000000E+00 -0.22919385099E+04  0.42650533041E+04  0.35969011043E+04 0.  0.
        3    1    3    3  502    0  0.16178877635E+04 -0.40501730690E+03 -0.34804632526E+03  0.17037417905E+04  0.10100000352E+00 0.  1.
       -3    1    3    3    0  502 -0.16178877635E+04  0.40501730690E+03 -0.19438921846E+04  0.25613115136E+04  0.10100000352E+00 0. -1.
</event>
<event>
 5   0  0.3202875E-08  0.3590490E+04  0.7818609E-02  0.8092674E-01
        1   -1    0    0  501    0  0.00000000000E+00  0.00000000000E+00  0.20216973912E+04  0.20216973912E+04  0.50400001928E-02 0. -1.
       -1   -1    0    0    0  501  0.00000000000E+00  0.00000000000E+00 -0.15941578175E+04  0.15941578175E+04  0.50400001928E-02 0.  1.
    10030    2    1    2    0    0  0.00000000000E+00  0.00000000000E+00  0.42753957363E+03  0.36158552087E+04  0.35904900506E+04 0.  0.
        1    1    3    3  502    0 -0.14053303819E+04  0.56449535999E+03 -0.75704053723E+03  0.16931387624E+04  0.50400001928E-02 0.  1.
       -1    1    3    3    0  502  0.14053303819E+04 -0.56449535999E+03  0.11845801109E+04  0.19227164463E+04  0.50400001928E-02 0. -1.
</event>
<event>
 5   0  0.9905335E-08  0.3603208E+04  0.7818609E-02  0.8089757E-01
       -2   -1    0    0    0  501  0.00000000000E+00  0.00000000000E+00  0.10336439787E+04  0.10336439787E+04  0.25500000920E-02 0.  1.
        2   -1    0    0  501    0  0.00000000000E+00  0.00000000000E+00 -0.31401309705E+04  0.31401309705E+04  0.25500000920E-02 0. -1.
    10030    2    1    2    0    0  0.00000000000E+00  0.00000000000E+00 -0.21064869918E+04  0.41737749491E+04  0.36032082759E+04 0.  0.
        5    1    3    3  502    0  0.56222791125E+03  0.42694490651E+03 -0.29732313914E+04  0.30558974417E+04  0.46999998093E+01 0. -1.
       -5    1    3    3    0  502 -0.56222791125E+03 -0.42694490651E+03  0.86674439959E+03  0.11178775074E+04  0.46999998093E+01 0.  1.
</event>
<event>
 5   0  0.9905335E-08  0.3600142E+04  0.7818609E-02  0.8090459E-01
       -2   -1    0    0    0  501  0.00000000000E+00  0.00000000000E+00  0.16474684241E+04  0.16474684241E+04  0.25500000920E-02 0. -1.
        2   -1    0    0  501    0  0.00000000000E+00  0.00000000000E+00 -0.19668091761E+04  0.19668091761E+04  0.25500000920E-02 0.  1.
    10030    2    1    2    0    0  0.00000000000E+00  0.00000000000E+00 -0.31934075208E+03  0.36142776002E+04  0.36001422271E+04 0.  0.
        5    1    3    3  502    0  0.80142738716E+02  0.15472111103E+04 -0.10797560457E+04  0.18884332889E+04  0.46999998093E+01 0.  1.
       -5    1    3    3    0  502 -0.80142738716E+02 -0.15472111103E+04  0.76041529361E+03  0.17258443114E+04  0.46999998093E+01 0. -1.
</event>
<event>
 5   0  0.9905335E-08  0.3597242E+04  0.7818609E-02  0.8091124E-01
        2   -1    0    0  501    0  0.00000000000E+00  0.00000000000E+00  0.23855609634E+04  0.23855609634E+04  0.25500000920E-02 0. -1.
       -2   -1    0    0    0  501  0.00000000000E+00  0.00000000000E+00 -0.13560912523E+04  0.13560912524E+04  0.25500000920E-02 0.  1.
    10030    2    1    2    0    0  0.00000000000E+00  0.00000000000E+00  0.10294697110E+04  0.37416522157E+04  0.35972424741E+04 0.  0.
        5    1    3    3  502    0  0.17203938279E+04  0.29227075106E+03  0.61538305950E+02  0.17461346363E+04  0.46999998093E+01 0. -1.
       -5    1    3    3    0  502 -0.17203938279E+04 -0.29227075106E+03  0.96793140506E+03  0.19955175794E+04  0.46999998093E+01 0.  1.
</event>
<event>
 5   0  0.3202875E-08  0.3595222E+04  0.7818609E-02  0.8091587E-01
       -1   -1    0    0    0  501  0.00000000000E+00  0.00000000000E+00  0.14592408626E+04  0.14592408626E+04  0.50400001928E-02 0.  1.
        1   -1    0    0  501    0  0.00000000000E+00  0.00000000000E+00 -0.22144424772E+04  0.22144424772E+04  0.50400001928E-02 0. -1.
    10030    2    1    2    0    0  0.00000000000E+00  0.00000000000E+00 -0.75520161462E+03  0.36736833398E+04  0.35952218016E+04 0.  0.
        1    1    3    3  502    0 -0.14703143666E+04 -0.98987941058E+03 -0.68366965536E+03  0.18997604538E+04  0.50400001928E-02 0. -1.
       -1    1    3    3    0  502  0.14703143666E+04  0.98987941058E+03 -0.71531959266E+02  0.17739228860E+04  0.50400001928E-02 0.  1.
</event>
<event>
 5   0  0.1017794E-07  0.3540886E+04  0.7818609E-02  0.8104168E-01
       -2   -1    0    0    0  501  0.00000000000E+00  0.00000000000E+00  0.19806775104E+04  0.19806775104E+04  0.25500000920E-02 0. -1.
        2   -1    0    0  501    0  0.00000000000E+00  0.00000000000E+00 -0.15825237000E+04  0.15825237000E+04  0.25500000920E-02 0.  1.
    10030    2    1    2    0    0  0.00000000000E+00  0.00000000000E+00  0.39815381044E+03  0.35632012104E+04  0.35408863875E+04 0.  0.
        1    1    3    3  502    0 -0.76449779086E+03  0.71108378879E+03  0.16379030643E+04  0.19423757296E+04  0.50400001928E-02 0. -1.
       -1    1    3    3    0  502  0.76449779086E+03 -0.71108378879E+03 -0.12397492538E+04  0.16208254808E+04  0.50400001928E-02 0.  1.
</event>
<event>
 5   0  0.1017794E-07  0.3596060E+04  0.7818609E-02  0.8091395E-01
        2   -1    0    0  501    0  0.00000000000E+00  0.00000000000E+00  0.26143803960E+04  0.26143803960E+04  0.25500000920E-02 0. -1.
       -2   -1    0    0    0  501  0.00000000000E+00  0.00000000000E+00 -0.12365878500E+04  0.12365878500E+04  0.25500000920E-02 0.  1.
    10030    2    1    2    0    0  0.00000000000E+00  0.00000000000E+00  0.13777925459E+04  0.38509682460E+04  0.35960595284E+04 0.  0.
        1    1    3    3  502    0  0.40586755436E+03 -0.73239027057E+03 -0.10150529646E+04  0.13158482059E+04  0.50400001928E-02 0.  1.
       -1    1    3    3    0  502 -0.40586755436E+03  0.73239027057E+03  0.23928455105E+04  0.25351200400E+04  0.50400001928E-02 0. -1.
</event>
<event>
 5   0  0.3212523E-08  0.3600366E+04  0.7818609E-02  0.8090408E-01
       -1   -1    0    0    0  501  0.00000000000E+00  0.00000000000E+00  0.21276891876E+04  0.21276891877E+04  0.50400001928E-02 0.  1.
        1   -1    0    0  501    0  0.00000000000E+00  0.00000000000E+00 -0.15230885513E+04  0.15230885513E+04  0.50400001928E-02 0. -1.
    10030    2    1    2    0    0  0.00000000000E+00  0.00000000000E+00  0.60460063634E+03  0.36507777390E+04  0.36003661161E+04 0.  0.
        3    1    3    3  502    0  0.16884683123E+04  0.64820661706E+02 -0.32730586490E+03  0.17211205940E+04  0.10100000352E+00 0. -1.
       -3    1    3    3    0  502 -0.16884683123E+04 -0.64820661706E+02  0.93190650123E+03  0.19296571449E+04  0.10100000352E+00 0.  1.
</event>
<event>
 5   0  0.1029908E-07  0.3597315E+04  0.7818609E-02  0.8091107E-01
        2   -1    0    0  501    0  0.00000000000E+00  0.00000000000E+00  0.15716656309E+04  0.15716656309E+04  0.25500000920E-02 0. -1.
       -2   -1    0    0    0  501  0.00000000000E+00  0.00000000000E+00 -0.20584329780E+04  0.20584329780E+04  0.25500000920E-02 0.  1.
    10030    2    1    2    0    0  0.00000000000E+00  0.00000000000E+00 -0.48676734712E+03  0.36300986089E+04  0.35973147569E+04 0.  0.
        4    1    3    3  502    0  0.11541443389E+04  0.81662833479E+03 -0.13653779313E+04  0.19654998093E+04  0.12699999809E+01 0. -1.
       -4    1    3    3    0  502 -0.11541443389E+04 -0.81662833479E+03  0.87861058415E+03  0.16645987996E+04  0.12699999809E+01 0.  1.
</event>
<event>
 5   0  0.3202875E-08  0.3598098E+04  0.7818609E-02  0.8090928E-01
        1   -1    0    0  501    0  0.00000000000E+00  0.00000000000E+00  0.20762373377E+04  0.20762373377E+04  0.50400001928E-02 0. -1.
       -1   -1    0    0    0  501  0.00000000000E+00  0.00000000000E+00 -0.15588665847E+04  0.15588665847E+04  0.50400001928E-02 0.  1.
    10030    2    1    2    0    0  0.00000000000E+00  0.00000000000E+00  0.51737075300E+03  0.36351039224E+04  0.35980978351E+04 0.  0.
        2    1    3    3  502    0  0.64624991255E+02 -0.16081564174E+04 -0.55346904998E+03  0.17019610576E+04  0.25500000920E-02 0. -1.
       -2    1    3    3    0  502 -0.64624991255E+02  0.16081564174E+04  0.10708398030E+04  0.19331428648E+04  0.25500000920E-02 0.  1.
</event>
<event>
 5   0  0.1044678E-07  0.3567819E+04  0.7818609E-02  0.8097903E-01
        2   -1    0    0  501    0  0.00000000000E+00  0.00000000000E+00  0.13842756017E+04  0.13842756017E+04  0.25500000920E-02 0.  1.
       -2   -1    0    0    0  501  0.00000000000E+00  0.00000000000E+00 -0.22989159775E+04  0.22989159775E+04  0.25500000920E-02 0. -1.
    10030    2    1    2    0    0  0.00000000000E+00  0.00000000000E+00 -0.91464037582E+03  0.36831915792E+04  0.35678191087E+04 0.  0.
        2    1    3    3  502    0 -0.13045095909E+04 -0.86975447575E+03 -0.13357868952E+04  0.20597438555E+04  0.25500000920E-02 0. -1.
       -2    1    3    3    0  502  0.13045095909E+04  0.86975447575E+03  0.42114651935E+03  0.16234477237E+04  0.25500000920E-02 0.  1.
</event>
<event>
 5   0  0.3202875E-08  0.3614620E+04  0.7818609E-02  0.8087151E-01
        1   -1    0    0  501    0  0.00000000000E+00  0.00000000000E+00  0.24893718029E+04  0.24893718029E+04  0.50400001928E-02 0.  1.
       -1   -1    0    0    0  501  0.00000000000E+00  0.00000000000E+00 -0.13121257599E+04  0.13121257599E+04  0.50400001928E-02 0. -1.
    10030    2    1    2    0    0  0.00000000000E+00  0.00000000000E+00  0.11772460430E+04  0.38014975628E+04  0.36146196860E+04 0.  0.
        1    1    3    3  502    0 -0.17725783023E+04  0.23441119747E+03  0.31159139554E+03  0.18149577530E+04  0.50400001928E-02 0. -1.
       -1    1    3    3    0  502  0.17725783023E+04 -0.23441119747E+03  0.86565464743E+03  0.19865398098E+04  0.50400001928E-02 0.  1.
</event>
<event>
 5   0  0.1044678E-07  0.3623370E+04  0.7818609E-02  0.8085159E-01
        2   -1    0    0  501    0  0.00000000000E+00  0.00000000000E+00  0.23939649031E+04  0.23939649031E+04  0.25500000920E-02 0.  1.
       -2   -1    0    0    0  501  0.00000000000E+00  0.00000000000E+00 -0.13710322648E+04  0.13710322648E+04  0.25500000920E-02 0. -1.
    10030    2    1    2    0    0  0.00000000000E+00  0.00000000000E+00  0.10229326383E+04  0.37649971679E+04  0.36233703221E+04 0.  0.
        2    1    3    3  502    0 -0.16240184784E+03 -0.37261968412E+03  0.23459724651E+04  0.23809255756E+04  0.25500000920E-02 0.  1.
       -2    1    3    3    0  502  0.16240184784E+03  0.37261968412E+03 -0.13230398268E+04  0.13840715923E+04  0.25500000920E-02 0. -1.
</event>
<event>
 5   0  0.9905335E-08  0.3581757E+04  0.7818609E-02  0.8094683E-01
        2   -1    0    0  501    0  0.00000000000E+00  0.00000000000E+00  0.20651344890E+04  0.20651344890E+04  0.25500000920E-02 0.  1.
       -2   -1    0    0    0  501  0.00000000000E+00  0.00000000000E+00 -0.15530448839E+04  0.15530448839E+04  0.25500000920E-02 0. -1.
    10030    2    1    2    0    0  0.00000000000E+00  0.00000000000E+00  0.51208960512E+03  0.36181793729E+04  0.35817574194E+04 0.  0.
        5    1    3    3  502    0  0.13459735480E+03  0.17269933548E+04  0.71520174019E+03  0.18740752692E+04  0.46999998093E+01 0.  1.
       -5    1    3    3    0  502 -0.13459735480E+03 -0.17269933548E+04 -0.20311213507E+03  0.17441041038E+04  0.46999998093E+01 0. -1.
</event>
<event>
 5   0  0.9905335E-08  0.3581249E+04  0.7818609E-02  0.8094800E-01
       -2   -1    0    0    0  501  0.00000000000E+00  0.00000000000E+00  0.18550001405E+04  0.18550001405E+04  0.25500000920E-02 0. -1.
        2   -1    0    0  501    0  0.00000000000E+00  0.00000000000E+00 -0.17284828964E+04  0.17284828964E+04  0.25500000920E-02 0.  1.
    10030    2    1    2    0    0  0.00000000000E+00  0.00000000000E+00  0.12651724414E+03  0.35834830369E+04  0.35812489529E+04 0.  0.
        5    1    3    3  502    0 -0.88873676402E+03  0.15091959388E+04 -0.30951707785E+03  0.17785804252E+04  0.46999998093E+01 0. -1.
       -5    1    3    3    0  502  0.88873676402E+03 -0.15091959388E+04  0.43603432199E+03  0.18049026116E+04  0.46999998093E+01 0.  1.
</event>
<event>
 5   0  0.3202875E-08  0.3600018E+04  0.7818609E-02  0.8090487E-01
        4   -1    0    0  501    0  0.00000000000E+00  0.00000000000E+00  0.17915376780E+04  0.17915381281E+04  0.12699999809E+01 0.  1.
       -4   -1    0    0    0  501  0.00000000000E+00  0.00000000000E+00 -0.18085197915E+04  0.18085202374E+04  0.12699999809E+01 0. -1.
    10030    2    1    2    0    0  0.00000000000E+00  0.00000000000E+00 -0.16982113501E+02  0.36000583655E+04  0.36000183114E+04 0.  0.
        5    1    3    3  502    0 -0.99687808836E+03  0.48594112621E+03  0.14093068480E+04  0.17933411787E+04  0.46999998093E+01 0.  1.
       -5    1    3    3    0  502  0.99687808836E+03 -0.48594112621E+03 -0.14262889615E+04  0.18067171868E+04  0.46999998093E+01 0. -1.
</event>
<event>
 5   0  0.3212523E-08  0.3598449E+04  0.7818609E-02  0.8090847E-01
       -1   -1    0    0    0  501  0.00000000000E+00  0.00000000000E+00  0.20726147210E+04  0.20726147210E+04  0.50400001928E-02 0. -1.
        1   -1    0    0  501    0  0.00000000000E+00  0.00000000000E+00 -0.15618957025E+04  0.15618957025E+04  0.50400001928E-02 0.  1.
    10030    2    1    2    0    0  0.00000000000E+00  0.00000000000E+00  0.51071901850E+03  0.36345104236E+04  0.35984485689E+04 0.  0.
        3    1    3    3  502    0  0.14398005826E+03 -0.96041590185E+03 -0.12744410264E+04  0.16022886449E+04  0.10100000352E+00 0.  1.
       -3    1    3    3    0  502 -0.14398005826E+03  0.96041590185E+03  0.17851600449E+04  0.20322217787E+04  0.10100000352E+00 0. -1.
</event>
<event>
 5   0  0.3212523E-08  0.3597955E+04  0.7818609E-02  0.8090960E-01
       -1   -1    0    0    0  501  0.00000000000E+00  0.00000000000E+00  0.11135157985E+04  0.11135157986E+04  0.50400001928E-02 0.  1.
        1   -1    0    0  501    0  0.00000000000E+00  0.00000000000E+00 -0.29063976171E+04  0.29063976171E+04  0.50400001928E-02 0. -1.
    10030    2    1    2    0    0  0.00000000000E+00  0.00000000000E+00 -0.17928818185E+04  0.40199134156E+04  0.35979547876E+04 0.  0.
        3    1    3    3  502    0  0.42004062745E+03  0.86115931161E+03 -0.25975998566E+04  0.27686737825E+04  0.10100000352E+00 0. -1.
       -3    1    3    3    0  502 -0.42004062745E+03 -0.86115931161E+03  0.80471803803E+03  0.12512396332E+04  0.10100000352E+00 0.  1.
</event>
<event>
 5   0  0.3279988E-08  0.3607740E+04  0.7818609E-02  0.8088721E-01
       -1   -1    0    0    0  501  0.00000000000E+00  0.00000000000E+00  0.29892241666E+04  0.29892241666E+04  0.50400001928E-02 0. -1.
        1   -1    0    0  501    0  0.00000000000E+00  0.00000000000E+00 -0.10885589023E+04  0.10885589023E+04  0.50400001928E-02 0.  1.
    10030    2    1    2    0    0  0.00000000000E+00  0.00000000000E+00  0.19006652643E+04  0.40777830689E+04  0.36077397786E+04 0.  0.
        5    1    3    3  502    0  0.30100259088E+03  0.63345181836E+03  0.28288080856E+04  0.29144538152E+04  0.46999998093E+01 0. -1.
       -5    1    3    3    0  502 -0.30100259088E+03 -0.63345181836E+03 -0.92814282125E+03  0.11633292537E+04  0.46999998093E+01 0.  1.
</event>
<event>
 5   0  0.1017794E-07  0.3598653E+04  0.7818609E-02  0.8090800E-01
       -2   -1    0    0    0  501  0.00000000000E+00  0.00000000000E+00  0.11374165418E+04  0.11374165418E+04  0.25500000920E-02 0.  1.
        2   -1    0    0  501    0  0.00000000000E+00  0.00000000000E+00 -0.28464285955E+04  0.28464285955E+04  0.25500000920E-02 0. -1.
    10030    2    1    2    0    0  0.00000000000E+00  0.00000000000E+00 -0.17090120537E+04  0.39838451374E+04  0.35986525087E+04 0.  0.
        1    1    3    3  502    0 -0.53927575164E+03 -0.84740812648E+03  0.79815606152E+03  0.12829543903E+04  0.50400001928E-02 0.  1.
       -1    1    3    3    0  502  0.53927575164E+03  0.84740812648E+03 -0.25071681153E+04  0.27008907470E+04  0.50400001928E-02 0. -1.
</event>
<event>
 5   0  0.3279988E-08  0.3596584E+04  0.7818609E-02  0.8091275E-01
       -1   -1    0    0    0  501  0.00000000000E+00  0.00000000000E+00  0.18157649027E+04  0.18157649027E+04  0.50400001928E-02 0. -1.
        1   -1    0    0  501    0  0.00000000000E+00  0.00000000000E+00 -0.17809875115E+04  0.17809875115E+04  0.50400001928E-02 0.  1.
    10030    2    1    2    0    0  0.00000000000E+00  0.00000000000E+00  0.34777391183E+02  0.35967524142E+04  0.35965842771E+04 0.  0.
        5    1    3    3  502    0 -0.58716363470E+03  0.13434371794E+04 -0.10239322512E+04  0.17883075613E+04  0.46999998093E+01 0.  1.
       -5    1    3    3    0  502  0.58716363470E+03 -0.13434371794E+04  0.10587096424E+04  0.18084448528E+04  0.46999998093E+01 0. -1.
</event>
<event>
 5   0  0.1017794E-07  0.3593907E+04  0.7818609E-02  0.8091889E-01
        2   -1    0    0  501    0  0.00000000000E+00  0.00000000000E+00  0.24288085387E+04  0.24288085387E+04  0.25500000920E-02 0.  1.
       -2   -1    0    0    0  501  0.00000000000E+00  0.00000000000E+00 -0.13294759720E+04  0.13294759720E+04  0.25500000920E-02 0. -1.
    10030    2    1    2    0    0  0.00000000000E+00  0.00000000000E+00  0.10993325667E+04  0.37582845107E+04  0.35939073961E+04 0.  0.
        1    1    3    3  502    0  0.14970267211E+04 -0.98582735214E+03  0.68234736851E+03  0.19179526854E+04  0.50400001928E-02 0.  1.
       -1    1    3    3    0  502 -0.14970267211E+04  0.98582735214E+03  0.41698519823E+03  0.18403318254E+04  0.50400001928E-02 0. -1.
</event>
<event>
 5   0  0.1021087E-07  0.3606984E+04  0.7818609E-02  0.8088894E-01
        2   -1    0    0  501    0  0.00000000000E+00  0.00000000000E+00  0.16238991047E+04  0.16238991047E+04  0.25500000920E-02 0.  1.
       -2   -1    0    0    0  501  0.00000000000E+00  0.00000000000E+00 -0.20029467459E+04  0.20029467459E+04  0.25500000920E-02 0. -1.
    10030    2    1    2    0    0  0.00000000000E+00  0.00000000000E+00 -0.37904764123E+03  0.36268458506E+04  0.36069840185E+04 0.  0.
        3    1    3    3  502    0 -0.25885013103E+03  0.16010392653E+04  0.60365020330E+03  0.17305270000E+04  0.10100000352E+00 0.  1.
       -3    1    3    3    0  502  0.25885013103E+03 -0.16010392653E+04 -0.98269784453E+03  0.18963188506E+04  0.10100000352E+00 0. -1.
</event>
<event>
 5   0  0.1044678E-07  0.3598255E+04  0.7818609E-02  0.8090892E-01
        2   -1    0    0  501    0  0.00000000000E+00  0.00000000000E+00  0.16524966218E+04  0.16524966218E+04  0.25500000920E-02 0.  1.
       -2   -1    0    0    0  501  0.00000000000E+00  0.00000000000E+00 -0.19587692155E+04  0.19587692155E+04  0.25500000920E-02 0. -1.
    10030    2    1    2    0    0  0.00000000000E+00  0.00000000000E+00 -0.30627259370E+03  0.36112658373E+04  0.35982548612E+04 0.  0.
        2    1    3    3  502    0  0.34111200906E+03  0.11790765913E+04  0.11670213494E+04  0.16936699327E+04  0.25500000920E-02 0.  1.
       -2    1    3    3    0  502 -0.34111200906E+03 -0.11790765913E+04 -0.14732939431E+04  0.19175959047E+04  0.25500000920E-02 0. -1.
</event>
<event>
 5   0  0.3215494E-08  0.3601100E+04  0.7818609E-02  0.8090240E-01
        1   -1    0    0  501    0  0.00000000000E+00  0.00000000000E+00  0.13123661865E+04  0.13123661865E+04  0.50400001928E-02 0.  1.
       -1   -1    0    0    0  501  0.00000000000E+00  0.00000000000E+00 -0.24703323726E+04  0.24703323726E+04  0.50400001928E-02 0. -1.
    10030    2    1    2    0    0  0.00000000000E+00  0.00000000000E+00 -0.11579661860E+04  0.37826985591E+04  0.36011002070E+04 0.  0.
        4    1    3    3  502    0  0.10566818003E+04  0.67290134052E+03 -0.19374948689E+04  0.23072192399E+04  0.12699999809E+01 0. -1.
       -4    1    3    3    0  502 -0.10566818003E+04 -0.67290134052E+03  0.77952868285E+03  0.14754793192E+04  0.12699999809E+01 0.  1.
</event>
<event>
 5   0  0.9905335E-08  0.3596195E+04  0.7818609E-02  0.8091364E-01
       -2   -1    0    0    0  501  0.00000000000E+00  0.00000000000E+00  0.13432544267E+04  0.13432544267E+04  0.25500000920E-02 0. -1.
        2   -1    0    0  501    0  0.00000000000E+00  0.00000000000E+00 -0.24069557998E+04  0.24069557998E+04  0.25500000920E-02 0.  1.
    10030    2    1    2    0    0  0.00000000000E+00  0.00000000000E+00 -0.10637013731E+04  0.37502102265E+04  0.35961946738E+04 0.  0.
        5    1    3    3  502    0  0.61762861064E+03  0.16672705171E+04 -0.81142931044E+03  0.19544041787E+04  0.46999998093E+01 0. -1.
       -5    1    3    3    0  502 -0.61762861064E+03 -0.16672705171E+04 -0.25227206270E+03  0.17958060478E+04  0.46999998093E+01 0.  1.
</event>
<event>
 5   0  0.9905335E-08  0.3601354E+04  0.7818609E-02  0.8090182E-01
        2   -1    0    0  501    0  0.00000000000E+00  0.00000000000E+00  0.13766400140E+04  0.13766400140E+04  0.25500000920E-02 0.  1.
       -2   -1    0    0    0  501  0.00000000000E+00  0.00000000000E+00 -0.23553276941E+04  0.23553276941E+04  0.25500000920E-02 0. -1.
    10030    2    1    2    0    0  0.00000000000E+00  0.00000000000E+00 -0.97868768011E+03  0.37319677081E+04  0.36013543840E+04 0.  0.
        5    1    3    3  502    0  0.14554555253E+04  0.27345743635E+03 -0.15508415497E+04  0.21443556976E+04  0.46999998093E+01 0. -1.
       -5    1    3    3    0  502 -0.14554555253E+04 -0.27345743635E+03  0.57215386957E+03  0.15876120105E+04  0.46999998093E+01 0.  1.
</event>
<event>
 5   0  0.1017794E-07  0.3594188E+04  0.7818609E-02  0.8091824E-01
       -2   -1    0    0    0  501  0.00000000000E+00  0.00000000000E+00  0.17485949075E+04  0.17485949075E+04  0.25500000920E-02 0. -1.
        2   -1    0    0  501    0  0.00000000000E+00  0.00000000000E+00 -0.18469381808E+04  0.18469381808E+04  0.25500000920E-02 0.  1.
    10030    2    1    2    0    0  0.00000000000E+00  0.00000000000E+00 -0.98343273296E+02  0.35955330882E+04  0.35941879179E+04 0.  0.
        1    1    3    3  502    0 -0.92779976367E+02  0.10451570963E+04  0.14103415751E+04  0.17578466482E+04  0.50400001928E-02 0. -1.
       -1    1    3    3    0  502  0.92779976367E+02 -0.10451570963E+04 -0.15086848484E+04  0.18376864400E+04  0.50400001928E-02 0.  1.
</event>
<event>
 5   0  0.1029908E-07  0.3594893E+04  0.7818609E-02  0.8091662E-01
       -2   -1    0    0    0  501  0.00000000000E+00  0.00000000000E+00  0.11399899290E+04  0.11399899290E+04  0.25500000920E-02 0.  1.
        2   -1    0    0  501    0  0.00000000000E+00  0.00000000000E+00 -0.28340728412E+04  0.28340728412E+04  0.25500000920E-02 0. -1.
    10030    2    1    2    0    0  0.00000000000E+00  0.00000000000E+00 -0.16940829122E+04  0.39740627703E+04  0.35948933209E+04 0.  0.
        4    1    3    3  502    0  0.27133636403E+03  0.58568407836E+03 -0.27015267244E+04  0.27775704344E+04  0.12699999809E+01 0. -1.
       -4    1    3    3    0  502 -0.27133636403E+03 -0.58568407836E+03  0.10074438123E+04  0.11964923359E+04  0.12699999809E+01 0.  1.
</event>
<event>
 5   0  0.3202875E-08  0.3602248E+04  0.7818609E-02  0.8089977E-01
       -1   -1    0    0    0  501  0.00000000000E+00  0.00000000000E+00  0.16539863205E+04  0.16539863205E+04  0.50400001928E-02 0. -1.
        1   -1    0    0  501    0  0.00000000000E+00  0.00000000000E+00 -0.19613511399E+04  0.19613511399E+04  0.50400001928E-02 0.  1.
    10030    2    1    2    0    0  0.00000000000E+00  0.00000000000E+00 -0.30736481947E+03  0.36153374604E+04  0.36022481620E+04 0.  0.
        2    1    3    3  502    0  0.35912979424E+03  0.30591665993E+03  0.15908767565E+04  0.16593517006E+04  0.25500000920E-02 0. -1.
       -2    1    3    3    0  502 -0.35912979424E+03 -0.30591665993E+03 -0.18982415760E+04  0.19559857598E+04  0.25500000920E-02 0.  1.
</event>
<event>
 5   0  0.3202875E-08  0.3605842E+04  0.7818609E-02  0.8089155E-01
       -1   -1    0    0    0  501  0.00000000000E+00  0.00000000000E+00  0.11487381582E+04  0.11487381582E+04  0.50400001928E-02 0. -1.
        1   -1    0    0  501    0  0.00000000000E+00  0.00000000000E+00 -0.28296470593E+04  0.28296470593E+04  0.50400001928E-02 0.  1.
    10030    2    1    2    0    0  0.00000000000E+00  0.00000000000E+00 -0.16809089011E+04  0.39783852175E+04  0.36058416777E+04 0.  0.
        2    1    3    3  502    0  0.14675850693E+04 -0.28694611360E+03  0.27076649670E+03  0.15196902656E+04  0.25500000920E-02 0. -1.
       -2    1    3    3    0  502 -0.14675850693E+04  0.28694611360E+03 -0.19516753978E+04  0.24586949518E+04  0.25500000920E-02 0.  1.
</event>
<event>
 5   0  0.9905335E-08  0.3599014E+04  0.7818609E-02  0.8090718E-01
       -2   -1    0    0    0  501  0.00000000000E+00  0.00000000000E+00  0.14528905639E+04  0.14528905639E+04  0.25500000920E-02 0.  1.
        2   -1    0    0  501    0  0.00000000000E+00  0.00000000000E+00 -0.22288155604E+04  0.22288155604E+04  0.25500000920E-02 0. -1.
    10030    2    1    2    0    0  0.00000000000E+00  0.00000000000E+00 -0.77592499644E+03  0.36817061243E+04  0.35990138074E+04 0.  0.
        5    1    3    3  502    0  0.38583523062E+03  0.26968661556E+03  0.13887808934E+04  0.14664017716E+04  0.46999998093E+01 0.  1.
       -5    1    3    3    0  502 -0.38583523062E+03 -0.26968661556E+03 -0.21647058898E+04  0.22153043527E+04  0.46999998093E+01 0. -1.
</event>
<event>
 5   0  0.1021087E-07  0.3597333E+04  0.7818609E-02  0.8091103E-01
        2   -1    0    0  501    0  0.00000000000E+00  0.00000000000E+00  0.22157485080E+04  0.22157485080E+04  0.25500000920E-02 0. -1.
       -2   -1    0    0    0  501  0.00000000000E+00  0.00000000000E+00 -0.14600938725E+04  0.14600938725E+04  0.25500000920E-02 0.  1.
    10030    2    1    2    0    0  0.00000000000E+00  0.00000000000E+00  0.75565463546E+03  0.36758423805E+04  0.35973328006E+04 0.  0.
        3    1    3    3  502    0 -0.14090766105E+04 -0.10832996781E+04  0.95822812828E+02  0.17799486252E+04  0.10100000352E+00 0. -1.
       -3    1    3    3    0  502  0.14090766105E+04  0.10832996781E+04  0.65983182263E+03  0.18958937552E+04  0.10100000352E+00 0.  1.
</event>
<event>
 5   0  0.3202875E-08  0.3579223E+04  0.7818609E-02  0.8095267E-01
        1   -1    0    0  501    0  0.00000000000E+00  0.00000000000E+00  0.26242706691E+04  0.26242706691E+04  0.50400001928E-02 0.  1.
       -1   -1    0    0    0  501  0.00000000000E+00  0.00000000000E+00 -0.12204191133E+04  0.12204191133E+04  0.50400001928E-02 0. -1.
    10030    2    1    2    0    0  0.00000000000E+00  0.00000000000E+00  0.14038515558E+04  0.38446897825E+04  0.35792234259E+04 0.  0.
        2    1    3    3  502    0  0.63795793461E+02  0.89870480900E+03  0.23628871934E+04  0.25288290029E+04  0.25500000920E-02 0.  1.
       -2    1    3    3    0  502 -0.63795793461E+02 -0.89870480900E+03 -0.95903563762E+03  0.13158607796E+04  0.25500000920E-02 0. -1.
</event>
<event>
 5   0  0.1029908E-07  0.3591740E+04  0.7818609E-02  0.8092386E-01
       -2   -1    0    0    0  501  0.00000000000E+00  0.00000000000E+00  0.17239232425E+04  0.17239232425E+04  0.25500000920E-02 0.  1.
        2   -1    0    0  501    0  0.00000000000E+00  0.00000000000E+00 -0.18708191251E+04  0.18708191251E+04  0.25500000920E-02 0. -1.
    10030    2    1    2    0    0  0.00000000000E+00  0.00000000000E+00 -0.14689588254E+03  0.35947423676E+04  0.35917397301E+04 0.  0.
        4    1    3    3  502    0  0.67528928150E+03  0.49656354398E+03 -0.16630313423E+04  0.18623280660E+04  0.12699999809E+01 0. -1.
       -4    1    3    3    0  502 -0.67528928150E+03 -0.49656354398E+03  0.15161354598E+04  0.17324143016E+04  0.12699999809E+01 0.  1.
</event>
<event>
 5   0  0.3215494E-08  0.3584030E+04  0.7818609E-02  0.8094160E-01
       -1   -1    0    0    0  501  0.00000000000E+00  0.00000000000E+00  0.20787159450E+04  0.20787159450E+04  0.50400001928E-02 0. -1.
        1   -1    0    0  501    0  0.00000000000E+00  0.00000000000E+00 -0.15448562034E+04  0.15448562035E+04  0.50400001928E-02 0.  1.
    10030    2    1    2    0    0  0.00000000000E+00  0.00000000000E+00  0.53385974151E+03  0.36235721484E+04  0.35840297001E+04 0.  0.
        4    1    3    3  502    0 -0.59061568584E+03  0.60931547906E+03 -0.13288450946E+04  0.15766810520E+04  0.12699999809E+01 0.  1.
       -4    1    3    3    0  502  0.59061568584E+03 -0.60931547906E+03  0.18627048361E+04  0.20468910964E+04  0.12699999809E+01 0. -1.
</event>
<event>
 5   0  0.3212523E-08  0.3602284E+04  0.7818609E-02  0.8089969E-01
        1   -1    0    0  501    0  0.00000000000E+00  0.00000000000E+00  0.20840251572E+04  0.20840251572E+04  0.50400001928E-02 0. -1.
       -1   -1    0    0    0  501  0.00000000000E+00  0.00000000000E+00 -0.15566574465E+04  0.15566574465E+04  0.50400001928E-02 0.  1.
    10030    2    1    2    0    0  0.00000000000E+00  0.00000000000E+00  0.52736771068E+03  0.36406826038E+04  0.36022844306E+04 0.  0.
        3    1    3    3  502    0 -0.82109618564E+03  0.15471464591E+04  0.68798288506E+03  0.18818027453E+04  0.10100000352E+00 0.  1.
       -3    1    3    3    0  502  0.82109618564E+03 -0.15471464591E+04 -0.16061517439E+03  0.17588798584E+04  0.10100000352E+00 0. -1.
</event>
<event>
 5   0  0.1021087E-07  0.3599452E+04  0.7818609E-02  0.8090617E-01
       -2   -1    0    0    0  501  0.00000000000E+00  0.00000000000E+00  0.19233461114E+04  0.19233461114E+04  0.25500000920E-02 0.  1.
        2   -1    0    0  501    0  0.00000000000E+00  0.00000000000E+00 -0.16840514339E+04  0.16840514339E+04  0.25500000920E-02 0. -1.
    10030    2    1    2    0    0  0.00000000000E+00  0.00000000000E+00  0.23929467750E+03  0.36073975452E+04  0.35994520565E+04 0.  0.
        3    1    3    3  502    0 -0.57058982452E+03 -0.19149938817E+03 -0.15802007349E+04  0.16909403113E+04  0.10100000352E+00 0. -1.
       -3    1    3    3    0  502  0.57058982452E+03  0.19149938817E+03  0.18194954124E+04  0.19164572339E+04  0.10100000352E+00 0.  1.
</event>
<event>
 5   0  0.3202875E-08  0.3607919E+04  0.7818609E-02  0.8088680E-01
       -1   -1    0    0    0  501  0.00000000000E+00  0.00000000000E+00  0.13438152694E+04  0.13438152694E+04  0.50400001928E-02 0.  1.
        1   -1    0    0  501    0  0.00000000000E+00  0.00000000000E+00 -0.24216645586E+04  0.24216645586E+04  0.50400001928E-02 0. -1.
    10030    2    1    2    0    0  0.00000000000E+00  0.00000000000E+00 -0.10778492892E+04  0.37654798280E+04  0.36079189632E+04 0.  0.
        2    1    3    3  502    0 -0.14569436433E+04  0.13907854001E+03  0.56176082597E+03  0.15676743430E+04  0.25500000920E-02 0.  1.
       -2    1    3    3    0  502  0.14569436433E+04 -0.13907854001E+03 -0.16396101151E+04  0.21978054850E+04  0.25500000920E-02 0. -1.
</event>
<event>
 5   0  0.1017794E-07  0.3687388E+04  0.7818609E-02  0.8070762E-01
       -2   -1    0    0    0  501  0.00000000000E+00  0.00000000000E+00  0.13235074818E+04  0.13235074818E+04  0.25500000920E-02 0. -1.
        2   -1    0    0  501    0  0.00000000000E+00  0.00000000000E+00 -0.25683331220E+04  0.25683331220E+04  0.25500000920E-02 0.  1.
    10030    2    1    2    0    0  0.00000000000E+00  0.00000000000E+00 -0.12448256402E+04  0.38918406039E+04  0.36873882914E+04 0.  0.
        1    1    3    3  502    0 -0.12622598415E+04  0.51550382595E+03  0.68743142562E+03  0.15269597463E+04  0.50400001928E-02 0. -1.
       -1    1    3    3    0  502  0.12622598415E+04 -0.51550382595E+03 -0.19322570658E+04  0.23648808576E+04  0.50400001928E-02 0.  1.
</event>
<event>
 5   0  0.1021087E-07  0.3583871E+04  0.7818609E-02  0.8094196E-01
        2   -1    0    0  501    0  0.00000000000E+00  0.00000000000E+00  0.13560919134E+04  0.13560919134E+04  0.25500000920E-02 0. -1.
       -2   -1    0    0    0  501  0.00000000000E+00  0.00000000000E+00 -0.23678584485E+04  0.23678584485E+04  0.25500000920E-02 0.  1.
    10030    2    1    2    0    0  0.00000000000E+00  0.00000000000E+00 -0.10117665351E+04  0.37239503620E+04  0.35838714788E+04 0.  0.
        3    1    3    3  502    0 -0.11118985117E+04  0.53464147037E+03  0.84447829092E+03  0.14950931062E+04  0.10100000352E+00 0. -1.
       -3    1    3    3    0  502  0.11118985117E+04 -0.53464147037E+03 -0.18562448260E+04  0.22288572558E+04  0.10100000352E+00 0.  1.
</event>
<event>
 5   0  0.3212523E-08  0.3570656E+04  0.7818609E-02  0.8097247E-01
       -1   -1    0    0    0  501  0.00000000000E+00  0.00000000000E+00  0.22158480483E+04  0.22158480483E+04  0.50400001928E-02 0.  1.
        1   -1    0    0  501    0  0.00000000000E+00  0.00000000000E+00 -0.14384543853E+04  0.14384543853E+04  0.50400001928E-02 0. -1.
    10030    2    1    2    0    0  0.00000000000E+00  0.00000000000E+00  0.77739366300E+03  0.36543024336E+04  0.35706561538E+04 0.  0.
        3    1    3    3  502    0 -0.13422859499E+04 -0.95984514800E+03  0.10861014476E+04  0.19755127547E+04  0.10100000352E+00 0.  1.
       -3    1    3    3    0  502  0.13422859499E+04  0.95984514800E+03 -0.30870778464E+03  0.16787896789E+04  0.10100000352E+00 0. -1.
</event>
<event>
 5   0  0.3202875E-08  0.3602269E+04  0.7818609E-02  0.8089972E-01
        1   -1    0    0  501    0  0.00000000000E+00  0.00000000000E+00  0.18585950234E+04  0.18585950234E+04  0.50400001928E-02 0. -1.
       -1   -1    0    0    0  501  0.00000000000E+00  0.00000000000E+00 -0.17454506796E+04  0.17454506796E+04  0.50400001928E-02 0.  1.
    10030    2    1    2    0    0  0.00000000000E+00  0.00000000000E+00  0.11314434386E+03  0.36040457030E+04  0.36022692552E+04 0.  0.
        1    1    3    3  502    0  0.86429381758E+03  0.61123845511E+03 -0.14013594368E+04  0.17562529782E+04  0.50400001928E-02 0.  1.
       -1    1    3    3    0  502 -0.86429381758E+03 -0.61123845511E+03  0.15145037807E+04  0.18477927248E+04  0.50400001928E-02 0. -1.
</event>
<event>
 5   0  0.1017794E-07  0.3579161E+04  0.7818609E-02  0.8095282E-01
       -2   -1    0    0    0  501  0.00000000000E+00  0.00000000000E+00  0.16422187571E+04  0.16422187571E+04  0.25500000920E-02 0.  1.
        2   -1    0    0  501    0  0.00000000000E+00  0.00000000000E+00 -0.19501655713E+04  0.19501655713E+04  0.25500000920E-02 0. -1.
    10030    2    1    2    0    0  0.00000000000E+00  0.00000000000E+00 -0.30794681419E+03  0.35923843284E+04  0.35791610641E+04 0.  0.
        1    1    3    3  502    0 -0.10185465872E+04  0.14713994926E+04 -0.16605379110E+03  0.17972277204E+04  0.50400001928E-02 0. -1.
       -1    1    3    3    0  502  0.10185465872E+04 -0.14713994926E+04 -0.14189302308E+03  0.17951566080E+04  0.50400001928E-02 0.  1.
</event>
<event>
 5   0  0.3202875E-08  0.3602517E+04  0.7818609E-02  0.8089915E-01
       -1   -1    0    0    0  501  0.00000000000E+00  0.00000000000E+00  0.18474247900E+04  0.18474247900E+04  0.50400001928E-02 0.  1.
        1   -1    0    0  501    0  0.00000000000E+00  0.00000000000E+00 -0.17562461615E+04  0.17562461615E+04  0.50400001928E-02 0. -1.
    10030    2    1    2    0    0  0.00000000000E+00  0.00000000000E+00  0.91178628503E+02  0.36036709514E+04  0.36025172843E+04 0.  0.
        2    1    3    3  502    0  0.59059589851E+03 -0.10482090048E+04 -0.12953574328E+04  0.17679073821E+04  0.25500000920E-02 0. -1.
       -2    1    3    3    0  502 -0.59059589851E+03  0.10482090048E+04  0.13865360613E+04  0.18357635693E+04  0.25500000920E-02 0.  1.
</event>
<event>
 5   0  0.3202875E-08  0.3600324E+04  0.7818609E-02  0.8090417E-01
       -1   -1    0    0    0  501  0.00000000000E+00  0.00000000000E+00  0.18915555011E+04  0.18915555011E+04  0.50400001928E-02 0.  1.
        1   -1    0    0  501    0  0.00000000000E+00  0.00000000000E+00 -0.17131844281E+04  0.17131844281E+04  0.50400001928E-02 0. -1.
    10030    2    1    2    0    0  0.00000000000E+00  0.00000000000E+00  0.17837107300E+03  0.36047399292E+04  0.36003241128E+04 0.  0.
        1    1    3    3  502    0  0.89275047335E+03  0.15338795026E+04 -0.21250395247E+03  0.17874416538E+04  0.50400001928E-02 0.  1.
       -1    1    3    3    0  502 -0.89275047335E+03 -0.15338795026E+04  0.39087502546E+03  0.18172982753E+04  0.50400001928E-02 0. -1.
</event>
<event>
 5   0  0.1021087E-07  0.3650421E+04  0.7818609E-02  0.8079039E-01
        2   -1    0    0  501    0  0.00000000000E+00  0.00000000000E+00  0.24402447238E+04  0.24402447238E+04  0.25500000920E-02 0.  1.
       -2   -1    0    0    0  501  0.00000000000E+00  0.00000000000E+00 -0.13651880946E+04  0.13651880946E+04  0.25500000920E-02 0. -1.
    10030    2    1    2    0    0  0.00000000000E+00  0.00000000000E+00  0.10750566292E+04  0.38054328184E+04  0.36504208222E+04 0.  0.
        3    1    3    3  502    0 -0.12573696018E+04 -0.85161900179E+02 -0.83882528303E+03  0.15138886123E+04  0.10100000352E+00 0. -1.
       -3    1    3    3    0  502  0.12573696018E+04  0.85161900179E+02  0.19138819122E+04  0.22915442062E+04  0.10100000352E+00 0.  1.
</event>
<event>
 5   0  0.3215494E-08  0.3600558E+04  0.7818609E-02  0.8090364E-01
       -1   -1    0    0    0  501  0.00000000000E+00  0.00000000000E+00  0.13857059705E+04  0.13857059705E+04  0.50400001928E-02 0. -1.
        1   -1    0    0  501    0  0.00000000000E+00  0.00000000000E+00 -0.23388836268E+04  0.23388836268E+04  0.50400001928E-02 0.  1.
    10030    2    1    2    0    0  0.00000000000E+00  0.00000000000E+00 -0.95317765629E+03  0.37245895972E+04  0.36005582933E+04 0.  0.
        4    1    3    3  502    0 -0.85110192021E+03  0.15107378202E+04  0.24131087514E+02  0.17341531542E+04  0.12699999809E+01 0. -1.
       -4    1    3    3    0  502  0.85110192021E+03 -0.15107378202E+04 -0.97730874381E+03  0.19904364430E+04  0.12699999809E+01 0.  1.
</event>
<event>
 5   0  0.3202875E-08  0.3602176E+04  0.7818609E-02  0.8089993E-01
        1   -1    0    0  501    0  0.00000000000E+00  0.00000000000E+00  0.19112198027E+04  0.19112198027E+04  0.50400001928E-02 0.  1.
       -1   -1    0    0    0  501  0.00000000000E+00  0.00000000000E+00 -0.16973027998E+04  0.16973027999E+04  0.50400001928E-02 0. -1.
    10030    2    1    2    0    0  0.00000000000E+00  0.00000000000E+00  0.21391700285E+03  0.36085226026E+04  0.36021764100E+04 0.  0.
        1    1    3    3  502    0 -0.12676694237E+04  0.62640464253E+03 -0.10106010065E+04  0.17380112021E+04  0.50400001928E-02 0. -1.
       -1    1    3    3    0  502  0.12676694237E+04 -0.62640464253E+03  0.12245180094E+04  0.18705114005E+04  0.50400001928E-02 0.  1.
</event>
<event>
 5   0  0.3202875E-08  0.3596602E+04  0.7818609E-02  0.8091270E-01
        1   -1    0    0  501    0  0.00000000000E+00  0.00000000000E+00  0.14661709293E+04  0.14661709293E+04  0.50400001928E-02 0. -1.
       -1   -1    0    0    0  501  0.00000000000E+00  0.00000000000E+00 -0.22056682865E+04  0.22056682865E+04  0.50400001928E-02 0.  1.
    10030    2    1    2    0    0  0.00000000000E+00  0.00000000000E+00 -0.73949735718E+03  0.36718392157E+04  0.35966021305E+04 0.  0.
        1    1    3    3  502    0  0.13937284782E+04  0.80612352625E+03 -0.11874865896E+04  0.20006095598E+04  0.50400001928E-02 0.  1.
       -1    1    3    3    0  502 -0.13937284782E+04 -0.80612352625E+03  0.44798923240E+03  0.16712296559E+04  0.50400001928E-02 0. -1.
</event>
<event>
 5   0  0.1044678E-07  0.3597248E+04  0.7818609E-02  0.8091122E-01
        2   -1    0    0  501    0  0.00000000000E+00  0.00000000000E+00  0.22773223344E+04  0.22773223344E+04  0.25500000920E-02 0.  1.
       -2   -1    0    0    0  501  0.00000000000E+00  0.00000000000E+00 -0.14205494365E+04  0.14205494365E+04  0.25500000920E-02 0. -1.
    10030    2    1    2    0    0  0.00000000000E+00  0.00000000000E+00  0.85677289788E+03  0.36978717709E+04  0.35972483700E+04 0.  0.
        2    1    3    3  502    0  0.11742788559E+04  0.37037967217E+03  0.17761428589E+04  0.21612023015E+04  0.25500000920E-02 0.  1.
       -2    1    3    3    0  502 -0.11742788559E+04 -0.37037967217E+03 -0.91936996101E+03  0.15366694694E+04  0.25500000920E-02 0. -1.
</event>
<event>
 5   0  0.1029908E-07  0.3606308E+04  0.7818609E-02  0.8089048E-01
       -2   -1    0    0    0  501  0.00000000000E+00  0.00000000000E+00  0.12435770662E+04  0.12435770662E+04  0.25500000920E-02 0.  1.
        2   -1    0    0  501    0  0.00000000000E+00  0.00000000000E+00 -0.26145264632E+04  0.26145264632E+04  0.25500000920E-02 0. -1.
    10030    2    1    2    0    0  0.00000000000E+00  0.00000000000E+00 -0.13709493970E+04  0.38581035293E+04  0.36063084441E+04 0.  0.
        4    1    3    3  502    0  0.11256485410E+04  0.69394937965E+03  0.62596719524E+03  0.14630403008E+04  0.12699999809E+01 0.  1.
       -4    1    3    3    0  502 -0.11256485410E+04 -0.69394937965E+03 -0.19969165923E+04  0.23950632286E+04  0.12699999809E+01 0. -1.
</event>
<event>
 5   0  0.1021087E-07  0.3605269E+04  0.7818609E-02  0.8089286E-01
       -2   -1    0    0    0  501  0.00000000000E+00  0.00000000000E+00  0.15978306737E+04  0.15978306737E+04  0.25500000920E-02 0. -1.
        2   -1    0    0  501    0  0.00000000000E+00  0.00000000000E+00 -0.20336891987E+04  0.20336891987E+04  0.25500000920E-02 0.  1.
    10030    2    1    2    0    0  0.00000000000E+00  0.00000000000E+00 -0.43585852496E+03  0.36315198724E+04  0.36052689123E+04 0.  0.
        3    1    3    3  502    0  0.38922675091E+03 -0.17543959770E+04 -0.36069433504E+03  0.18328947382E+04  0.10100000352E+00 0.  1.
       -3    1    3    3    0  502 -0.38922675091E+03  0.17543959770E+04 -0.75164189917E+02  0.17986251342E+04  0.10100000352E+00 0. -1.
</event>
<event>
 5   0  0.3212523E-08  0.3601671E+04  0.7818609E-02  0.8090109E-01
        1   -1    0    0  501    0  0.00000000000E+00  0.00000000000E+00  0.12187065536E+04  0.12187065537E+04  0.50400001928E-02 0.  1.
       -1   -1    0    0    0  501  0.00000000000E+00  0.00000000000E+00 -0.26610243753E+04  0.26610243753E+04  0.50400001928E-02 0. -1.
    10030    2    1    2    0    0  0.00000000000E+00  0.00000000000E+00 -0.14423178217E+04  0.38797309290E+04  0.36016706377E+04 0.  0.
        3    1    3    3  502    0  0.84616541985E+03  0.98172155684E+03 -0.20679793712E+04  0.24405556382E+04  0.10100000352E+00 0. -1.
       -3    1    3    3    0  502 -0.84616541985E+03 -0.98172155684E+03  0.62566154955E+03  0.14391752908E+04  0.10100000352E+00 0.  1.
</event>
<event>
 5   0  0.9905335E-08  0.3598206E+04  0.7818609E-02  0.8090903E-01
       -2   -1    0    0    0  501  0.00000000000E+00  0.00000000000E+00  0.11637133419E+04  0.11637133419E+04  0.25500000920E-02 0.  1.
        2   -1    0    0  501    0  0.00000000000E+00  0.00000000000E+00 -0.27814170651E+04  0.27814170651E+04  0.25500000920E-02 0. -1.
    10030    2    1    2    0    0  0.00000000000E+00  0.00000000000E+00 -0.16177037231E+04  0.39451304070E+04  0.35982063021E+04 0.  0.
        5    1    3    3  502    0  0.56998140096E+03  0.15494405609E+04 -0.25006383692E+02  0.16511487693E+04  0.46999998093E+01 0.  1.
       -5    1    3    3    0  502 -0.56998140096E+03 -0.15494405609E+04 -0.15926973395E+04  0.22939816377E+04  0.46999998093E+01 0. -1.
</event>
<event>
 5   0  0.1044678E-07  0.3603883E+04  0.7818609E-02  0.8089603E-01
        2   -1    0    0  501    0  0.00000000000E+00  0.00000000000E+00  0.16504665088E+04  0.16504665088E+04  0.25500000920E-02 0. -1.
       -2   -1    0    0    0  501  0.00000000000E+00  0.00000000000E+00 -0.19673183292E+04  0.19673183292E+04  0.25500000920E-02 0.  1.
    10030    2    1    2    0    0  0.00000000000E+00  0.00000000000E+00 -0.31685182036E+03  0.36177848380E+04  0.36038829141E+04 0.  0.
        2    1    3    3  502    0  0.10317846345E+04 -0.10867233916E+04 -0.11630087979E+04  0.18968755167E+04  0.25500000920E-02 0.  1.
       -2    1    3    3    0  502 -0.10317846345E+04  0.10867233916E+04  0.84615697750E+03  0.17209093214E+04  0.25500000920E-02 0. -1.
</event>
<event>
 5   0  0.3212523E-08  0.3598610E+04  0.7818609E-02  0.8090810E-01
       -1   -1    0    0    0  501  0.00000000000E+00  0.00000000000E+00  0.15362658236E+04  0.15362658236E+04  0.50400001928E-02 0. -1.
        1   -1    0    0  501    0  0.00000000000E+00  0.00000000000E+00 -0.21073811173E+04  0.21073811173E+04  0.50400001928E-02 0.  1.
    10030    2    1    2    0    0  0.00000000000E+00  0.00000000000E+00 -0.57111529372E+03  0.36436469409E+04  0.35986095025E+04 0.  0.
        3    1    3    3  502    0 -0.66948588575E+03  0.12211719698E+03 -0.19720486896E+04  0.20861687385E+04  0.10100000352E+00 0.  1.
       -3    1    3    3    0  502  0.66948588575E+03 -0.12211719698E+03  0.14009333959E+04  0.15574782024E+04  0.10100000352E+00 0. -1.
</event>
<event>
 5   0  0.9905335E-08  0.3599043E+04  0.7818609E-02  0.8090711E-01
        2   -1    0    0  501    0  0.00000000000E+00  0.00000000000E+00  0.18455980994E+04  0.18455980994E+04  0.25500000920E-02 0.  1.
       -2   -1    0    0    0  501  0.00000000000E+00  0.00000000000E+00 -0.17545948400E+04  0.17545948400E+04  0.25500000920E-02 0. -1.
    10030    2    1    2    0    0  0.00000000000E+00  0.00000000000E+00  0.91003259383E+02  0.36001929394E+04  0.35990425959E+04 0.  0.
        5    1    3    3  502    0  0.81939088589E+03 -0.15518302777E+04  0.44397073385E+03  0.18101687041E+04  0.46999998093E+01 0.  1.
       -5    1    3    3    0  502 -0.81939088589E+03  0.15518302777E+04 -0.35296747447E+03  0.17900242353E+04  0.46999998093E+01 0. -1.
</event>
<event>
 5   0  0.3202875E-08  0.3601599E+04  0.7818609E-02  0.8090126E-01
        3   -1    0    0  501    0  0.00000000000E+00  0.00000000000E+00  0.20826086316E+04  0.20826086340E+04  0.10100000352E+00 0. -1.
       -3   -1    0    0    0  501  0.00000000000E+00  0.00000000000E+00 -0.15571234920E+04  0.15571234953E+04  0.10100000352E+00 0.  1.
    10030    2    1    2    0    0  0.00000000000E+00  0.00000000000E+00  0.52548513952E+03  0.36397321293E+04  0.36015989979E+04 0.  0.
        5    1    3    3  502    0 -0.12354312958E+04  0.20983533514E+03 -0.10442157077E+04  0.16311743895E+04  0.46999998093E+01 0.  1.
       -5    1    3    3    0  502  0.12354312958E+04 -0.20983533514E+03  0.15697008472E+04  0.20085577399E+04  0.46999998093E+01 0. -1.
</event>
<event>
 5   0  0.9905335E-08  0.3601016E+04  0.7818609E-02  0.8090259E-01
        2   -1    0    0  501    0  0.00000000000E+00  0.00000000000E+00  0.18929708183E+04  0.18929708183E+04  0.25500000920E-02 0. -1.
       -2   -1    0    0    0  501  0.00000000000E+00  0.00000000000E+00 -0.17125614120E+04  0.17125614121E+04  0.25500000920E-02 0.  1.
    10030    2    1    2    0    0  0.00000000000E+00  0.00000000000E+00  0.18040940627E+03  0.36055322304E+04  0.36010158442E+04 0.  0.
        5    1    3    3  502    0  0.10530816174E+04 -0.13351471059E+04 -0.50232125513E+03  0.17731179940E+04  0.46999998093E+01 0.  1.
       -5    1    3    3    0  502 -0.10530816174E+04  0.13351471059E+04  0.68273066140E+03  0.18324142363E+04  0.46999998093E+01 0. -1.
</event>
<event>
 5   0  0.1017794E-07  0.3596374E+04  0.7818609E-02  0.8091323E-01
       -2   -1    0    0    0  501  0.00000000000E+00  0.00000000000E+00  0.13563492866E+04  0.13563492866E+04  0.25500000920E-02 0. -1.
        2   -1    0    0  501    0  0.00000000000E+00  0.00000000000E+00 -0.23839557076E+04  0.23839557076E+04  0.25500000920E-02 0.  1.
    10030    2    1    2    0    0  0.00000000000E+00  0.00000000000E+00 -0.10276064210E+04  0.37403049942E+04  0.35963740758E+04 0.  0.
        1    1    3    3  502    0  0.73379735545E+03 -0.15139595351E+03 -0.22138790491E+04  0.23372290726E+04  0.50400001928E-02 0.  1.
       -1    1    3    3    0  502 -0.73379735545E+03  0.15139595351E+03  0.11862726281E+04  0.14030759216E+04  0.50400001928E-02 0. -1.
</event>
<event>
 5   0  0.1029908E-07  0.3593808E+04  0.7818609E-02  0.8091912E-01
        2   -1    0    0  501    0  0.00000000000E+00  0.00000000000E+00  0.17309985748E+04  0.17309985748E+04  0.25500000920E-02 0.  1.
       -2   -1    0    0    0  501  0.00000000000E+00  0.00000000000E+00 -0.18653182117E+04  0.18653182117E+04  0.25500000920E-02 0. -1.
    10030    2    1    2    0    0  0.00000000000E+00  0.00000000000E+00 -0.13431963691E+03  0.35963167864E+04  0.35938075440E+04 0.  0.
        4    1    3    3  502    0 -0.16802148315E+04 -0.62375108323E+03 -0.19637882472E+03  0.18029846227E+04  0.12699999809E+01 0. -1.
       -4    1    3    3    0  502  0.16802148315E+04  0.62375108323E+03  0.62059187814E+02  0.17933321638E+04  0.12699999809E+01 0.  1.
</event>
<event>
 5   0  0.3212523E-08  0.3597816E+04  0.7818609E-02  0.8090992E-01
        1   -1    0    0  501    0  0.00000000000E+00  0.00000000000E+00  0.15209806424E+04  0.15209806424E+04  0.50400001928E-02 0. -1.
       -1   -1    0    0    0  501  0.00000000000E+00  0.00000000000E+00 -0.21276206163E+04  0.21276206163E+04  0.50400001928E-02 0.  1.
    10030    2    1    2    0    0  0.00000000000E+00  0.00000000000E+00 -0.60663997390E+03  0.36486012588E+04  0.35978158774E+04 0.  0.
        3    1    3    3  502    0 -0.85795124327E+03  0.13491240257E+04 -0.11394912364E+04  0.19633278535E+04  0.10100000352E+00 0.  1.
       -3    1    3    3    0  502  0.85795124327E+03 -0.13491240257E+04  0.53285126246E+03  0.16852734053E+04  0.10100000352E+00 0. -1.
</event>
<event>
 5   0  0.3215494E-08  0.3609104E+04  0.7818609E-02  0.8088409E-01
        1   -1    0    0  501    0  0.00000000000E+00  0.00000000000E+00  0.15585742383E+04  0.15585742383E+04  0.50400001928E-02 0. -1.
       -1   -1    0    0    0  501  0.00000000000E+00  0.00000000000E+00 -0.20893505913E+04  0.20893505913E+04  0.50400001928E-02 0.  1.
    10030    2    1    2    0    0  0.00000000000E+00  0.00000000000E+00 -0.53077635293E+03  0.36479248296E+04  0.36091040475E+04 0.  0.
        4    1    3    3  502    0 -0.25563992373E+03  0.13746839378E+04 -0.14184032234E+04  0.19917271441E+04  0.12699999809E+01 0.  1.
       -4    1    3    3    0  502  0.25563992373E+03 -0.13746839378E+04  0.88762687045E+03  0.16561976855E+04  0.12699999809E+01 0. -1.
</event>
<event>
 5   0  0.1017794E-07  0.3600961E+04  0.7818609E-02  0.8090272E-01
        2   -1    0    0  501    0  0.00000000000E+00  0.00000000000E+00  0.16948518080E+04  0.16948518081E+04  0.25500000920E-02 0. -1.
       -2   -1    0    0    0  501  0.00000000000E+00  0.00000000000E+00 -0.19126923224E+04  0.19126923224E+04  0.25500000920E-02 0.  1.
    10030    2    1    2    0    0  0.00000000000E+00  0.00000000000E+00 -0.21784051433E+03  0.36075441304E+04  0.36009610055E+04 0.  0.
        1    1    3    3  502    0 -0.16644597745E+03 -0.10688611847E+04  0.13330030249E+04  0.17167019427E+04  0.50400001928E-02 0. -1.
       -1    1    3    3    0  502  0.16644597745E+03  0.10688611847E+04 -0.15508435393E+04  0.18908421877E+04  0.50400001928E-02 0.  1.
</event>
<event>
 5   0  0.3202875E-08  0.3594794E+04  0.7818609E-02  0.8091685E-01
        1   -1    0    0  501    0  0.00000000000E+00  0.00000000000E+00  0.18871186801E+04  0.18871186801E+04  0.50400001928E-02 0. -1.
       -1   -1    0    0    0  501  0.00000000000E+00  0.00000000000E+00 -0.17119415235E+04  0.17119415235E+04  0.50400001928E-02 0.  1.
    10030    2    1    2    0    0  0.00000000000E+00  0.00000000000E+00  0.17517715661E+03  0.35990602036E+04  0.35947944744E+04 0.  0.
        1    1    3    3  502    0  0.52135364706E+03 -0.99294025319E+03 -0.13186766434E+04  0.17310829159E+04  0.50400001928E-02 0.  1.
       -1    1    3    3    0  502 -0.52135364706E+03  0.99294025319E+03  0.14938538000E+04  0.18679772878E+04  0.50400001928E-02 0. -1.
</event>
<event>
 5   0  0.1029908E-07  0.3606424E+04  0.7818609E-02  0.8089022E-01
       -2   -1    0    0    0  501  0.00000000000E+00  0.00000000000E+00  0.18986970832E+04  0.18986970832E+04  0.25500000920E-02 0. -1.
        2   -1    0    0  501    0  0.00000000000E+00  0.00000000000E+00 -0.17125293123E+04  0.17125293123E+04  0.25500000920E-02 0.  1.
    10030    2    1    2    0    0  0.00000000000E+00  0.00000000000E+00  0.18616777093E+03  0.36112263955E+04  0.36064244954E+04 0.  0.
        4    1    3    3  502    0  0.11821840085E+04 -0.13341165345E+04  0.36574562092E+03  0.18196695936E+04  0.12699999809E+01 0.  1.
       -4    1    3    3    0  502 -0.11821840085E+04  0.13341165345E+04 -0.17957784999E+03  0.17915568020E+04  0.12699999809E+01 0. -1.
</event>
<event>
 5   0  0.9905335E-08  0.3608024E+04  0.7818609E-02  0.8088656E-01
       -2   -1    0    0    0  501  0.00000000000E+00  0.00000000000E+00  0.18536701973E+04  0.18536701973E+04  0.25500000920E-02 0. -1.
        2   -1    0    0  501    0  0.00000000000E+00  0.00000000000E+00 -0.17556837786E+04  0.17556837786E+04  0.25500000920E-02 0.  1.
    10030    2    1    2    0    0  0.00000000000E+00  0.00000000000E+00  0.97986418712E+02  0.36093539759E+04  0.36080236675E+04 0.  0.
        5    1    3    3  502    0 -0.56079298717E+03 -0.14349279296E+04 -0.88993138857E+03  0.17791871470E+04  0.46999998093E+01 0.  1.
       -5    1    3    3    0  502  0.56079298717E+03  0.14349279296E+04  0.98791780728E+03  0.18301668289E+04  0.46999998093E+01 0. -1.
</event>
<event>
 5   0  0.9905335E-08  0.3602858E+04  0.7818609E-02  0.8089837E-01
       -2   -1    0    0    0  501  0.00000000000E+00  0.00000000000E+00  0.13898870562E+04  0.13898870562E+04  0.25500000920E-02 0. -1.
        2   -1    0    0  501    0  0.00000000000E+00  0.00000000000E+00 -0.23348268254E+04  0.23348268254E+04  0.25500000920E-02 0.  1.
    10030    2    1    2    0    0  0.00000000000E+00  0.00000000000E+00 -0.94493976918E+03  0.37247138816E+04  0.36028575232E+04 0.  0.
        5    1    3    3  502    0  0.15860986521E+04  0.62995600717E+03  0.12372378016E+03  0.17111058322E+04  0.46999998093E+01 0. -1.
       -5    1    3    3    0  502 -0.15860986521E+04 -0.62995600717E+03 -0.10686635493E+04  0.20136080494E+04  0.46999998093E+01 0.  1.
</event>
<event>
 5   0  0.3215494E-08  0.3603853E+04  0.7818609E-02  0.8089610E-01
        1   -1    0    0  501    0  0.00000000000E+00  0.00000000000E+00  0.20212596061E+04  0.20212596061E+04  0.50400001928E-02 0. -1.
       -1   -1    0    0    0  501  0.00000000000E+00  0.00000000000E+00 -0.16063938303E+04  0.16063938303E+04  0.50400001928E-02 0.  1.
    10030    2    1    2    0    0  0.00000000000E+00  0.00000000000E+00  0.41486577578E+03  0.36276534363E+04  0.36038529163E+04 0.  0.
        4    1    3    3  502    0 -0.74301965421E+03 -0.15715922854E+04 -0.26999559399E+03  0.17592270324E+04  0.12699999809E+01 0.  1.
       -4    1    3    3    0  502  0.74301965421E+03  0.15715922854E+04  0.68486136977E+03  0.18684264039E+04  0.12699999809E+01 0. -1.
</event>
<event>
 5   0  0.3215494E-08  0.3596391E+04  0.7818609E-02  0.8091319E-01
       -1   -1    0    0    0  501  0.00000000000E+00  0.00000000000E+00  0.20169504712E+04  0.20169504712E+04  0.50400001928E-02 0. -1.
        1   -1    0    0  501    0  0.00000000000E+00  0.00000000000E+00 -0.16031659255E+04  0.16031659255E+04  0.50400001928E-02 0.  1.
    10030    2    1    2    0    0  0.00000000000E+00  0.00000000000E+00  0.41378454574E+03  0.36201163967E+04  0.35963905622E+04 0.  0.
        4    1    3    3  502    0 -0.16989074741E+04 -0.11469244220E+02  0.79991938713E+03  0.18778420562E+04  0.12699999809E+01 0. -1.
       -4    1    3    3    0  502  0.16989074741E+04  0.11469244220E+02 -0.38613484139E+03  0.17422743406E+04  0.12699999809E+01 0.  1.
</event>
<event>
 5   0  0.3202875E-08  0.3600133E+04  0.7818609E-02  0.8090461E-01
        1   -1    0    0  501    0  0.00000000000E+00  0.00000000000E+00  0.24531796491E+04  0.24531796491E+04  0.50400001928E-02 0.  1.
       -1   -1    0    0    0  501  0.00000000000E+00  0.00000000000E+00 -0.13208326503E+04  0.13208326503E+04  0.50400001928E-02 0. -1.
    10030    2    1    2    0    0  0.00000000000E+00  0.00000000000E+00  0.11323469988E+04  0.37740122994E+04  0.36001332073E+04 0.  0.
        1    1    3    3  502    0  0.16709526620E+04 -0.55621948244E+03  0.95669349829E+03  0.20041769784E+04  0.50400001928E-02 0. -1.
       -1    1    3    3    0  502 -0.16709526620E+04  0.55621948244E+03  0.17565350051E+03  0.17698353210E+04  0.50400001928E-02 0.  1.
</event>
<event>
 5   0  0.9905335E-08  0.3588725E+04  0.7818609E-02  0.8093079E-01
       -2   -1    0    0    0  501  0.00000000000E+00  0.00000000000E+00  0.18484282355E+04  0.18484282355E+04  0.25500000920E-02 0.  1.
        2   -1    0    0  501    0  0.00000000000E+00  0.00000000000E+00 -0.17418781518E+04  0.17418781518E+04  0.25500000920E-02 0. -1.
    10030    2    1    2    0    0  0.00000000000E+00  0.00000000000E+00  0.10655008376E+03  0.35903063873E+04  0.35887249873E+04 0.  0.
        5    1    3    3  502    0 -0.16755794526E+04  0.57651671788E+03  0.33584709376E+03  0.18035391286E+04  0.46999998093E+01 0.  1.
       -5    1    3    3    0  502  0.16755794526E+04 -0.57651671788E+03 -0.22929701000E+03  0.17867672587E+04  0.46999998093E+01 0. -1.
</event>
<event>
 5   0  0.1017794E-07  0.3596563E+04  0.7818609E-02  0.8091279E-01
        2   -1    0    0  501    0  0.00000000000E+00  0.00000000000E+00  0.15594890305E+04  0.15594890305E+04  0.25500000920E-02 0.  1.
       -2   -1    0    0    0  501  0.00000000000E+00  0.00000000000E+00 -0.20736388254E+04  0.20736388254E+04  0.25500000920E-02 0. -1.
    10030    2    1    2    0    0  0.00000000000E+00  0.00000000000E+00 -0.51414979484E+03  0.36331278559E+04  0.35965633605E+04 0.  0.
        1    1    3    3  502    0  0.89896405666E+03 -0.15289098962E+04 -0.55693471480E+03  0.18589992261E+04  0.50400001928E-02 0. -1.
       -1    1    3    3    0  502 -0.89896405666E+03  0.15289098962E+04  0.42784919958E+02  0.17741286299E+04  0.50400001928E-02 0.  1.
</event>
<event>
 5   0  0.1017794E-07  0.3585456E+04  0.7818609E-02  0.8093831E-01
       -2   -1    0    0    0  501  0.00000000000E+00  0.00000000000E+00  0.12264746353E+04  0.12264746353E+04  0.25500000920E-02 0. -1.
        2   -1    0    0  501    0  0.00000000000E+00  0.00000000000E+00 -0.26204158980E+04  0.26204158980E+04  0.25500000920E-02 0.  1.
    10030    2    1    2    0    0  0.00000000000E+00  0.00000000000E+00 -0.13939412627E+04  0.38468905334E+04  0.35854559726E+04 0.  0.
        1    1    3    3  502    0 -0.56909528820E+03 -0.88543739549E+03 -0.22539939367E+04  0.24876409498E+04  0.50400001928E-02 0.  1.
       -1    1    3    3    0  502  0.56909528820E+03  0.88543739549E+03  0.86005267398E+03  0.13592495836E+04  0.50400001928E-02 0. -1.
</event>
<event>
 5   0  0.1017794E-07  0.3569461E+04  0.7818609E-02  0.8097523E-01
       -2   -1    0    0    0  501  0.00000000000E+00  0.00000000000E+00  0.15808476488E+04  0.15808476489E+04  0.25500000920E-02 0.  1.
        2   -1    0    0  501    0  0.00000000000E+00  0.00000000000E+00 -0.20149085964E+04  0.20149085964E+04  0.25500000920E-02 0. -1.
    10030    2    1    2    0    0  0.00000000000E+00  0.00000000000E+00 -0.43406094753E+03  0.35957562452E+04  0.35694613136E+04 0.  0.
        1    1    3    3  502    0 -0.70429574569E+03  0.93854769528E+03  0.11376283160E+04  0.16343507760E+04  0.50400001928E-02 0.  1.
       -1    1    3    3    0  502  0.70429574569E+03 -0.93854769528E+03 -0.15716892635E+04  0.19614054692E+04  0.50400001928E-02 0. -1.
</event>
<event>
 5   0  0.3202875E-08  0.3600639E+04  0.7818609E-02  0.8090345E-01
       -1   -1    0    0    0  501  0.00000000000E+00  0.00000000000E+00  0.11706421641E+04  0.11706421641E+04  0.50400001928E-02 0. -1.
        1   -1    0    0  501    0  0.00000000000E+00  0.00000000000E+00 -0.27686942092E+04  0.27686942092E+04  0.50400001928E-02 0.  1.
    10030    2    1    2    0    0  0.00000000000E+00  0.00000000000E+00 -0.15980520451E+04  0.39393363733E+04  0.36006389326E+04 0.  0.
        2    1    3    3  502    0  0.14115784086E+04  0.34628352987E+03  0.36330474475E+03  0.14981509350E+04  0.25500000920E-02 0. -1.
       -2    1    3    3    0  502 -0.14115784086E+04 -0.34628352987E+03 -0.19613567899E+04  0.24411854382E+04  0.25500000920E-02 0.  1.
</event>
<event>
 5   0  0.3279988E-08  0.3614178E+04  0.7818609E-02  0.8087252E-01
       -1   -1    0    0    0  501  0.00000000000E+00  0.00000000000E+00  0.13897312753E+04  0.13897312753E+04  0.50400001928E-02 0. -1.
        1   -1    0    0  501    0  0.00000000000E+00  0.00000000000E+00 -0.23497852241E+04  0.23497852241E+04  0.50400001928E-02 0.  1.
    10030    2    1    2    0    0  0.00000000000E+00  0.00000000000E+00 -0.96005394886E+03  0.37395164994E+04  0.36141776470E+04 0.  0.
        5    1    3    3  502    0 -0.37208592291E+03 -0.51850727840E+03 -0.22292938770E+04  0.23188512267E+04  0.46999998093E+01 0.  1.
       -5    1    3    3    0  502  0.37208592291E+03  0.51850727840E+03  0.12692399281E+04  0.14206652726E+04  0.46999998093E+01 0. -1.
</event>
<event>
 5   0  0.9905335E-08  0.3601106E+04  0.7818609E-02  0.8090238E-01
       -2   -1    0    0    0  501  0.00000000000E+00  0.00000000000E+00  0.10563403480E+04  0.10563403480E+04  0.25500000920E-02 0.  1.
        2   -1    0    0  501    0  0.00000000000E+00  0.00000000000E+00 -0.30690776853E+04  0.30690776853E+04  0.25500000920E-02 0. -1.
    10030    2    1    2    0    0  0.00000000000E+00  0.00000000000E+00 -0.20127373373E+04  0.41254180332E+04  0.36011057135E+04 0.  0.
        5    1    3    3  502    0  0.13858642952E+04  0.86780154819E+03 -0.14277564835E+03  0.16413733114E+04  0.46999998093E+01 0.  1.
       -5    1    3    3    0  502 -0.13858642952E+04 -0.86780154819E+03 -0.18699616890E+04  0.24840447218E+04  0.46999998093E+01 0. -1.
</event>
<event>
 5   0  0.3215494E-08  0.3584790E+04  0.7818609E-02  0.8093985E-01
       -1   -1    0    0    0  501  0.00000000000E+00  0.00000000000E+00  0.20095825018E+04  0.20095825018E+04  0.50400001928E-02 0.  1.
        1   -1    0    0  501    0  0.00000000000E+00  0.00000000000E+00 -0.15986797981E+04  0.15986797981E+04  0.50400001928E-02 0. -1.
    10030    2    1    2    0    0  0.00000000000E+00  0.00000000000E+00  0.41090270365E+03  0.36082622999E+04  0.35847895047E+04 0.  0.
        4    1    3    3  502    0  0.14843723584E+03  0.17044100249E+04 -0.33249193865E+03  0.17428710934E+04  0.12699999809E+01 0.  1.
       -4    1    3    3    0  502 -0.14843723584E+03 -0.17044100249E+04  0.74339464230E+03  0.18653912065E+04  0.12699999809E+01 0. -1.
</event>
<event>
 5   0  0.1044678E-07  0.3598843E+04  0.7818609E-02  0.8090757E-01
        2   -1    0    0  501    0  0.00000000000E+00  0.00000000000E+00  0.25397406737E+04  0.25397406737E+04  0.25500000920E-02 0. -1.
       -2   -1    0    0    0  501  0.00000000000E+00  0.00000000000E+00 -0.12749006027E+04  0.12749006027E+04  0.25500000920E-02 0.  1.
    10030    2    1    2    0    0  0.00000000000E+00  0.00000000000E+00  0.12648400710E+04  0.38146412763E+04  0.35988425447E+04 0.  0.
        2    1    3    3  502    0 -0.46002515945E+02  0.55653944620E+03 -0.11807260951E+04  0.13061265246E+04  0.25500000920E-02 0.  1.
       -2    1    3    3    0  502  0.46002515945E+02 -0.55653944620E+03  0.24455661661E+04  0.25085147517E+04  0.25500000920E-02 0. -1.
</event>
<event>
 5   0  0.3202875E-08  0.3602218E+04  0.7818609E-02  0.8089984E-01
       -1   -1    0    0    0  501  0.00000000000E+00  0.00000000000E+00  0.14580845320E+04  0.14580845320E+04  0.50400001928E-02 0.  1.
        1   -1    0    0  501    0  0.00000000000E+00  0.00000000000E+00 -0.22248322458E+04  0.22248322458E+04  0.50400001928E-02 0. -1.
    10030    2    1    2    0    0  0.00000000000E+00  0.00000000000E+00 -0.76674771379E+03  0.36829167778E+04  0.36022179189E+04 0.  0.
        1    1    3    3  502    0  0.15434861251E+04  0.17076382996E+03 -0.13162195554E+04  0.20356678565E+04  0.50400001928E-02 0. -1.
       -1    1    3    3    0  502 -0.15434861251E+04 -0.17076382996E+03  0.54947184158E+03  0.16472489213E+04  0.50400001928E-02 0.  1.
</event>
<event>
 5   0  0.1021087E-07  0.3603953E+04  0.7818609E-02  0.8089587E-01
       -2   -1    0    0    0  501  0.00000000000E+00  0.00000000000E+00  0.17190781701E+04  0.17190781701E+04  0.25500000920E-02 0. -1.
        2   -1    0    0  501    0  0.00000000000E+00  0.00000000000E+00 -0.18888723912E+04  0.18888723912E+04  0.25500000920E-02 0.  1.
    10030    2    1    2    0    0  0.00000000000E+00  0.00000000000E+00 -0.16979422110E+03  0.36079505613E+04  0.36039529929E+04 0.  0.
        3    1    3    3  502    0  0.15845111092E+04  0.55181653547E+03 -0.74284931799E+03  0.18349392533E+04  0.10100000352E+00 0. -1.
       -3    1    3    3    0  502 -0.15845111092E+04 -0.55181653547E+03  0.57305509689E+03  0.17730113080E+04  0.10100000352E+00 0.  1.
</event>
<event>
 5   0  0.9905335E-08  0.3598219E+04  0.7818609E-02  0.8090900E-01
        2   -1    0    0  501    0  0.00000000000E+00  0.00000000000E+00  0.20814462443E+04  0.20814462443E+04  0.25500000920E-02 0.  1.
       -2   -1    0    0    0  501  0.00000000000E+00  0.00000000000E+00 -0.15550703620E+04  0.15550703620E+04  0.25500000920E-02 0. -1.
    10030    2    1    2    0    0  0.00000000000E+00  0.00000000000E+00  0.52637588228E+03  0.36365166064E+04  0.35982192066E+04 0.  0.
        5    1    3    3  502    0 -0.20952544258E+03 -0.17593020905E+04  0.57913085147E+03  0.18639901796E+04  0.46999998093E+01 0. -1.
       -5    1    3    3    0  502  0.20952544258E+03  0.17593020905E+04 -0.52754969189E+02  0.17725264267E+04  0.46999998093E+01 0.  1.
</event>
<event>
 5   0  0.3202875E-08  0.3579611E+04  0.7818609E-02  0.8095178E-01
       -1   -1    0    0    0  501  0.00000000000E+00  0.00000000000E+00  0.13634143007E+04  0.13634143007E+04  0.50400001928E-02 0. -1.
        1   -1    0    0  501    0  0.00000000000E+00  0.00000000000E+00 -0.23495449477E+04  0.23495449477E+04  0.50400001928E-02 0.  1.
    10030    2    1    2    0    0  0.00000000000E+00  0.00000000000E+00 -0.98613064704E+03  0.37129592484E+04  0.35796106950E+04 0.  0.
        1    1    3    3  502    0 -0.11371653157E+04  0.34812361380E+03  0.89432234793E+03  0.14880011652E+04  0.50400001928E-02 0. -1.
       -1    1    3    3    0  502  0.11371653157E+04 -0.34812361380E+03 -0.18804529950E+04  0.22249580832E+04  0.50400001928E-02 0.  1.
</event>
<event>
 5   0  0.3215494E-08  0.3576164E+04  0.7818609E-02  0.8095974E-01
       -1   -1    0    0    0  501  0.00000000000E+00  0.00000000000E+00  0.13885927230E+04  0.13885927230E+04  0.50400001928E-02 0. -1.
        1   -1    0    0  501    0  0.00000000000E+00  0.00000000000E+00 -0.23025013952E+04  0.23025013952E+04  0.50400001928E-02 0.  1.
    10030    2    1    2    0    0  0.00000000000E+00  0.00000000000E+00 -0.91390867216E+03  0.36910941182E+04  0.35761636887E+04 0.  0.
        4    1    3    3  502    0  0.20510777114E+03  0.16018507650E+04  0.33533505359E+03  0.16493775438E+04  0.12699999809E+01 0. -1.
       -4    1    3    3    0  502 -0.20510777114E+03 -0.16018507650E+04 -0.12492437258E+04  0.20417165744E+04  0.12699999809E+01 0.  1.
</event>
<event>
 5   0  0.3202875E-08  0.3602818E+04  0.7818609E-02  0.8089847E-01
        3   -1    0    0  501    0  0.00000000000E+00  0.00000000000E+00  0.22168789258E+04  0.22168789281E+04  0.10100000352E+00 0. -1.
       -3   -1    0    0    0  501  0.00000000000E+00  0.00000000000E+00 -0.14638028998E+04  0.14638029033E+04  0.10100000352E+00 0.  1.
    10030    2    1    2    0    0  0.00000000000E+00  0.00000000000E+00  0.75307602597E+03  0.36806818313E+04  0.36028176810E+04 0.  0.
        5    1    3    3  502    0  0.67961245775E+03  0.12660734225E+03 -0.13228880748E+04  0.14926344028E+04  0.46999998093E+01 0.  1.
       -5    1    3    3    0  502 -0.67961245775E+03 -0.12660734225E+03  0.20759641008E+04  0.21880474286E+04  0.46999998093E+01 0. -1.
</event>
<event>
 5   0  0.3279988E-08  0.3596726E+04  0.7818609E-02  0.8091242E-01
       -1   -1    0    0    0  501  0.00000000000E+00  0.00000000000E+00  0.24175370782E+04  0.24175370782E+04  0.50400001928E-02 0.  1.
        1   -1    0    0  501    0  0.00000000000E+00  0.00000000000E+00 -0.13377706177E+04  0.13377706177E+04  0.50400001928E-02 0. -1.
    10030    2    1    2    0    0  0.00000000000E+00  0.00000000000E+00  0.10797664605E+04  0.37553076959E+04  0.35967263284E+04 0.  0.
        5    1    3    3  502    0  0.36162743696E+03  0.17583704168E+04  0.42817504157E+03  0.18455343080E+04  0.46999998093E+01 0.  1.
       -5    1    3    3    0  502 -0.36162743696E+03 -0.17583704168E+04  0.65159141892E+03  0.19097733879E+04  0.46999998093E+01 0. -1.
</event>
<event>
 5   0  0.9905335E-08  0.3598153E+04  0.7818609E-02  0.8090915E-01
       -2   -1    0    0    0  501  0.00000000000E+00  0.00000000000E+00  0.17290441931E+04  0.17290441931E+04  0.25500000920E-02 0.  1.
        2   -1    0    0  501    0  0.00000000000E+00  0.00000000000E+00 -0.18719457005E+04  0.18719457005E+04  0.25500000920E-02 0. -1.
    10030    2    1    2    0    0  0.00000000000E+00  0.00000000000E+00 -0.14290150739E+03  0.36009898935E+04  0.35981533281E+04 0.  0.
        5    1    3    3  502    0  0.26562212420E+03  0.75711618122E+02  0.17076929275E+04  0.17298914957E+04  0.46999998093E+01 0.  1.
       -5    1    3    3    0  502 -0.26562212420E+03 -0.75711618122E+02 -0.18505944349E+04  0.18710983979E+04  0.46999998093E+01 0. -1.
</event>
<event>
 5   0  0.9905335E-08  0.3596291E+04  0.7818609E-02  0.8091342E-01
       -2   -1    0    0    0  501  0.00000000000E+00  0.00000000000E+00  0.17498574334E+04  0.17498574334E+04  0.25500000920E-02 0. -1.
        2   -1    0    0  501    0  0.00000000000E+00  0.00000000000E+00 -0.18477661759E+04  0.18477661759E+04  0.25500000920E-02 0.  1.
    10030    2    1    2    0    0  0.00000000000E+00  0.00000000000E+00 -0.97908742536E+02  0.35976236093E+04  0.35962910772E+04 0.  0.
        5    1    3    3  502    0 -0.17270111868E+04 -0.30948772397E+03  0.34483472133E+03  0.17880948984E+04  0.46999998093E+01 0. -1.
       -5    1    3    3    0  502  0.17270111868E+04  0.30948772397E+03 -0.44274346387E+03  0.18095287109E+04  0.46999998093E+01 0.  1.
</event>
<event>
 5   0  0.1021087E-07  0.3595674E+04  0.7818609E-02  0.8091483E-01
        2   -1    0    0  501    0  0.00000000000E+00  0.00000000000E+00  0.23006266008E+04  0.23006266008E+04  0.25500000920E-02 0. -1.
       -2   -1    0    0    0  501  0.00000000000E+00  0.00000000000E+00 -0.14049296715E+04  0.14049296715E+04  0.25500000920E-02 0.  1.
    10030    2    1    2    0    0  0.00000000000E+00  0.00000000000E+00  0.89569692923E+03  0.37055562723E+04  0.35956743871E+04 0.  0.
        3    1    3    3  502    0 -0.16739996823E+03 -0.15621159643E+04 -0.45292743786E+03  0.16350450482E+04  0.10100000352E+00 0.  1.
       -3    1    3    3    0  502  0.16739996823E+03  0.15621159643E+04  0.13486243671E+04  0.20705112241E+04  0.10100000352E+00 0. -1.
</event>
<event>
 5   0  0.9905335E-08  0.3604582E+04  0.7818609E-02  0.8089443E-01
       -2   -1    0    0    0  501  0.00000000000E+00  0.00000000000E+00  0.11175372183E+04  0.11175372183E+04  0.25500000920E-02 0. -1.
        2   -1    0    0  501    0  0.00000000000E+00  0.00000000000E+00 -0.29066177162E+04  0.29066177162E+04  0.25500000920E-02 0.  1.
    10030    2    1    2    0    0  0.00000000000E+00  0.00000000000E+00 -0.17890804979E+04  0.40241549345E+04  0.36045823487E+04 0.  0.
        5    1    3    3  502    0 -0.26661156120E+03 -0.16659161844E+04 -0.18681593226E+03  0.16974335747E+04  0.46999998093E+01 0. -1.
       -5    1    3    3    0  502  0.26661156120E+03  0.16659161844E+04 -0.16022645656E+04  0.23267213598E+04  0.46999998093E+01 0.  1.
</event>
<event>
 5   0  0.3202875E-08  0.3596206E+04  0.7818609E-02  0.8091361E-01
        1   -1    0    0  501    0  0.00000000000E+00  0.00000000000E+00  0.19774469662E+04  0.19774469662E+04  0.50400001928E-02 0.  1.
       -1   -1    0    0    0  501  0.00000000000E+00  0.00000000000E+00 -0.16350244626E+04  0.16350244626E+04  0.50400001928E-02 0. -1.
    10030    2    1    2    0    0  0.00000000000E+00  0.00000000000E+00  0.34242250367E+03  0.36124714288E+04  0.35962058691E+04 0.  0.
        2    1    3    3  502    0 -0.83577997447E+03 -0.15050069366E+04  0.69279003247E+03  0.18556756381E+04  0.25500000920E-02 0.  1.
       -2    1    3    3    0  502  0.83577997447E+03  0.15050069366E+04 -0.35036752880E+03  0.17567957907E+04  0.25500000920E-02 0. -1.
</event>
<event>
 5   0  0.1021087E-07  0.3605438E+04  0.7818609E-02  0.8089247E-01
        2   -1    0    0  501    0  0.00000000000E+00  0.00000000000E+00  0.22696180085E+04  0.22696180085E+04  0.25500000920E-02 0. -1.
       -2   -1    0    0    0  501  0.00000000000E+00  0.00000000000E+00 -0.14318687741E+04  0.14318687741E+04  0.25500000920E-02 0.  1.
    10030    2    1    2    0    0  0.00000000000E+00  0.00000000000E+00  0.83774923447E+03  0.37014867826E+04  0.36054376464E+04 0.  0.
        3    1    3    3  502    0  0.25181320222E+03  0.18185572679E+03  0.22419381597E+04  0.22633532902E+04  0.10100000352E+00 0. -1.
       -3    1    3    3    0  502 -0.25181320222E+03 -0.18185572679E+03 -0.14041889252E+04  0.14381334924E+04  0.10100000352E+00 0.  1.
</event>
<event>
 5   0  0.1029908E-07  0.3600361E+04  0.7818609E-02  0.8090409E-01
        2   -1    0    0  501    0  0.00000000000E+00  0.00000000000E+00  0.19477853352E+04  0.19477853352E+04  0.25500000920E-02 0. -1.
       -2   -1    0    0    0  501  0.00000000000E+00  0.00000000000E+00 -0.16637611816E+04  0.16637611816E+04  0.25500000920E-02 0.  1.
    10030    2    1    2    0    0  0.00000000000E+00  0.00000000000E+00  0.28402415354E+03  0.36115465168E+04  0.36003608879E+04 0.  0.
        4    1    3    3  502    0  0.41343411205E+03 -0.17219073531E+04  0.46667688966E+03  0.18313059902E+04  0.12699999809E+01 0. -1.
       -4    1    3    3    0  502 -0.41343411205E+03  0.17219073531E+04 -0.18265273611E+03  0.17802405266E+04  0.12699999809E+01 0.  1.
</event>
<event>
 5   0  0.1021087E-07  0.3606214E+04  0.7818609E-02  0.8089070E-01
       -2   -1    0    0    0  501  0.00000000000E+00  0.00000000000E+00  0.12072073883E+04  0.12072073883E+04  0.25500000920E-02 0.  1.
        2   -1    0    0  501    0  0.00000000000E+00  0.00000000000E+00 -0.26931536213E+04  0.26931536213E+04  0.25500000920E-02 0. -1.
    10030    2    1    2    0    0  0.00000000000E+00  0.00000000000E+00 -0.14859462330E+04  0.39003610096E+04  0.36062140533E+04 0.  0.
        3    1    3    3  502    0 -0.90932987482E+03  0.28684820621E+03  0.91222406456E+03  0.13195891288E+04  0.10100000352E+00 0.  1.
       -3    1    3    3    0  502  0.90932987482E+03 -0.28684820621E+03 -0.23981702976E+04  0.25807718809E+04  0.10100000352E+00 0. -1.
</event>
<event>
 5   0  0.3202875E-08  0.3592407E+04  0.7818609E-02  0.8092233E-01
       -1   -1    0    0    0  501  0.00000000000E+00  0.00000000000E+00  0.13444116826E+04  0.13444116826E+04  0.50400001928E-02 0. -1.
        1   -1    0    0  501    0  0.00000000000E+00  0.00000000000E+00 -0.23998211893E+04  0.23998211893E+04  0.50400001928E-02 0.  1.
    10030    2    1    2    0    0  0.00000000000E+00  0.00000000000E+00 -0.10554095066E+04  0.37442328719E+04  0.35924073505E+04 0.  0.
        2    1    3    3  502    0 -0.58337252042E+03  0.63020425245E+03  0.11165840441E+04  0.14086308335E+04  0.25500000920E-02 0. -1.
       -2    1    3    3    0  502  0.58337252042E+03 -0.63020425245E+03 -0.21719935508E+04  0.23356020384E+04  0.25500000920E-02 0.  1.
</event>
<event>
 5   0  0.1044678E-07  0.3601421E+04  0.7818609E-02  0.8090166E-01
        2   -1    0    0  501    0  0.00000000000E+00  0.00000000000E+00  0.18615475163E+04  0.18615475163E+04  0.25500000920E-02 0.  1.
       -2   -1    0    0    0  501  0.00000000000E+00  0.00000000000E+00 -0.17418617641E+04  0.17418617641E+04  0.25500000920E-02 0. -1.
    10030    2    1    2    0    0  0.00000000000E+00  0.00000000000E+00  0.11968575220E+03  0.36034092805E+04  0.36014210755E+04 0.  0.
        2    1    3    3  502    0  0.17103677119E+04  0.55905852148E+03 -0.84172207191E+01  0.17994374093E+04  0.25500000920E-02 0.  1.
       -2    1    3    3    0  502 -0.17103677119E+04 -0.55905852148E+03  0.12810297292E+03  0.18039718712E+04  0.25500000920E-02 0. -1.
</event>
<event>
 5   0  0.3215494E-08  0.3605228E+04  0.7818609E-02  0.8089295E-01
        1   -1    0    0  501    0  0.00000000000E+00  0.00000000000E+00  0.20116426824E+04  0.20116426824E+04  0.50400001928E-02 0. -1.
       -1   -1    0    0    0  501  0.00000000000E+00  0.00000000000E+00 -0.16153051043E+04  0.16153051043E+04  0.50400001928E-02 0.  1.
    10030    2    1    2    0    0  0.00000000000E+00  0.00000000000E+00  0.39633757810E+03  0.36269477867E+04  0.36052277004E+04 0.  0.
        4    1    3    3  502    0  0.25755696364E+03 -0.51396133271E+03  0.19169474033E+04  0.20012947811E+04  0.12699999809E+01 0. -1.
       -4    1    3    3    0  502 -0.25755696364E+03  0.51396133271E+03 -0.15206098252E+04  0.16256530056E+04  0.12699999809E+01 0.  1.
</event>
<event>
 5   0  0.3215494E-08  0.3593177E+04  0.7818609E-02  0.8092056E-01
       -1   -1    0    0    0  501  0.00000000000E+00  0.00000000000E+00  0.18719229549E+04  0.18719229549E+04  0.50400001928E-02 0.  1.
        1   -1    0    0  501    0  0.00000000000E+00  0.00000000000E+00 -0.17242854438E+04  0.17242854438E+04  0.50400001928E-02 0. -1.
    10030    2    1    2    0    0  0.00000000000E+00  0.00000000000E+00  0.14763751106E+03  0.35962083987E+04  0.35931765907E+04 0.  0.
        4    1    3    3  502    0  0.16808334117E+04 -0.19926618543E+03  0.67667234442E+03  0.18228535446E+04  0.12699999809E+01 0.  1.
       -4    1    3    3    0  502 -0.16808334117E+04  0.19926618543E+03 -0.52903483336E+03  0.17733548540E+04  0.12699999809E+01 0. -1.
</event>
<event>
 5   0  0.1029908E-07  0.3598924E+04  0.7818609E-02  0.8090738E-01
       -2   -1    0    0    0  501  0.00000000000E+00  0.00000000000E+00  0.13357240663E+04  0.13357240663E+04  0.25500000920E-02 0.  1.
        2   -1    0    0  501    0  0.00000000000E+00  0.00000000000E+00 -0.24242009893E+04  0.24242009893E+04  0.25500000920E-02 0. -1.
    10030    2    1    2    0    0  0.00000000000E+00  0.00000000000E+00 -0.10884769231E+04  0.37599250556E+04  0.35989240631E+04 0.  0.
        4    1    3    3  502    0 -0.69164542846E+03 -0.74675326011E+03  0.10060764054E+04  0.14311551896E+04  0.12699999809E+01 0.  1.
       -4    1    3    3    0  502  0.69164542846E+03  0.74675326011E+03 -0.20945533285E+04  0.23287698660E+04  0.12699999809E+01 0. -1.
</event>
<event>
 5   0  0.3279988E-08  0.3613026E+04  0.7818609E-02  0.8087515E-01
        1   -1    0    0  501    0  0.00000000000E+00  0.00000000000E+00  0.27178850930E+04  0.27178850930E+04  0.50400001928E-02 0. -1.
       -1   -1    0    0    0  501  0.00000000000E+00  0.00000000000E+00 -0.12007456477E+04  0.12007456477E+04  0.50400001928E-02 0.  1.
    10030    2    1    2    0    0  0.00000000000E+00  0.00000000000E+00  0.15171394452E+04  0.39186307407E+04  0.36130257106E+04 0.  0.
        5    1    3    3  502    0 -0.12695843532E+04 -0.78139062283E+03 -0.34805218840E+03  0.15308749627E+04  0.46999998093E+01 0.  1.
       -5    1    3    3    0  502  0.12695843532E+04  0.78139062283E+03  0.18651916336E+04  0.23877557781E+04  0.46999998093E+01 0. -1.
</event>
<event>
 5   0  0.3202875E-08  0.3591494E+04  0.7818609E-02  0.8092443E-01
        1   -1    0    0  501    0  0.00000000000E+00  0.00000000000E+00  0.23710539956E+04  0.23710539956E+04  0.50400001928E-02 0.  1.
       -1   -1    0    0    0  501  0.00000000000E+00  0.00000000000E+00 -0.13600314583E+04  0.13600314583E+04  0.50400001928E-02 0. -1.
    10030    2    1    2    0    0  0.00000000000E+00  0.00000000000E+00  0.10110225372E+04  0.37310854539E+04  0.35914944095E+04 0.  0.
        2    1    3    3  502    0 -0.14430613655E+04 -0.39250880368E+03 -0.52721814782E+03  0.15857011828E+04  0.25500000920E-02 0. -1.
       -2    1    3    3    0  502  0.14430613655E+04  0.39250880368E+03  0.15382406851E+04  0.21453842711E+04  0.25500000920E-02 0.  1.
</event>
<event>
 5   0  0.1021087E-07  0.3590007E+04  0.7818609E-02  0.8092785E-01
       -2   -1    0    0    0  501  0.00000000000E+00  0.00000000000E+00  0.12660026193E+04  0.12660026193E+04  0.25500000920E-02 0. -1.
        2   -1    0    0  501    0  0.00000000000E+00  0.00000000000E+00 -0.25450480328E+04  0.25450480328E+04  0.25500000920E-02 0.  1.
    10030    2    1    2    0    0  0.00000000000E+00  0.00000000000E+00 -0.12790454135E+04  0.38110506520E+04  0.35900069502E+04 0.  0.
        3    1    3    3  502    0 -0.72529323286E+03 -0.11842855063E+04  0.56780480973E+03  0.15003282128E+04  0.10100000352E+00 0. -1.
       -3    1    3    3    0  502  0.72529323286E+03  0.11842855063E+04 -0.18468502232E+04  0.23107224392E+04  0.10100000352E+00 0.  1.
</event>
<event>
 5   0  0.1021087E-07  0.3592054E+04  0.7818609E-02  0.8092314E-01
        2   -1    0    0  501    0  0.00000000000E+00  0.00000000000E+00  0.13199012256E+04  0.13199012256E+04  0.25500000920E-02 0. -1.
       -2   -1    0    0    0  501  0.00000000000E+00  0.00000000000E+00 -0.24439041654E+04  0.24439041654E+04  0.25500000920E-02 0.  1.
    10030    2    1    2    0    0  0.00000000000E+00  0.00000000000E+00 -0.11240029398E+04  0.37638053910E+04  0.35920535091E+04 0.  0.
        3    1    3    3  502    0  0.10770058089E+04 -0.56791239479E+03  0.82144931037E+03  0.14687562699E+04  0.10100000352E+00 0. -1.
       -3    1    3    3    0  502 -0.10770058089E+04  0.56791239479E+03 -0.19454522501E+04  0.22950491211E+04  0.10100000352E+00 0.  1.
</event>
<event>
 5   0  0.1029908E-07  0.3599289E+04  0.7818609E-02  0.8090655E-01
        2   -1    0    0  501    0  0.00000000000E+00  0.00000000000E+00  0.22706036259E+04  0.22706036259E+04  0.25500000920E-02 0.  1.
       -2   -1    0    0    0  501  0.00000000000E+00  0.00000000000E+00 -0.14263695356E+04  0.14263695356E+04  0.25500000920E-02 0. -1.
    10030    2    1    2    0    0  0.00000000000E+00  0.00000000000E+00  0.84423409027E+03  0.36969731615E+04  0.35992887294E+04 0.  0.
        4    1    3    3  502    0  0.52630155371E+03  0.10239300970E+04  0.18428754884E+04  0.21729284037E+04  0.12699999809E+01 0.  1.
       -4    1    3    3    0  502 -0.52630155371E+03 -0.10239300970E+04 -0.99864139810E+03  0.15240447578E+04  0.12699999809E+01 0. -1.
</event>
<event>
 5   0  0.3202875E-08  0.3596742E+04  0.7818609E-02  0.8091238E-01
       -1   -1    0    0    0  501  0.00000000000E+00  0.00000000000E+00  0.23567877997E+04  0.23567877997E+04  0.50400001928E-02 0.  1.
        1   -1    0    0  501    0  0.00000000000E+00  0.00000000000E+00 -0.13722651830E+04  0.13722651831E+04  0.50400001928E-02 0. -1.
    10030    2    1    2    0    0  0.00000000000E+00  0.00000000000E+00  0.98452261668E+03  0.37290529828E+04  0.35967417708E+04 0.  0.
        1    1    3    3  502    0  0.39045363955E+03 -0.13910693936E+04  0.16024507901E+04  0.21576321830E+04  0.50400001928E-02 0.  1.
       -1    1    3    3    0  502 -0.39045363955E+03  0.13910693936E+04 -0.61792817343E+03  0.15714207998E+04  0.50400001928E-02 0. -1.
</event>
<event>
 5   0  0.1029908E-07  0.3599734E+04  0.7818609E-02  0.8090553E-01
       -2   -1    0    0    0  501  0.00000000000E+00  0.00000000000E+00  0.26753439537E+04  0.26753439537E+04  0.25500000920E-02 0. -1.
        2   -1    0    0  501    0  0.00000000000E+00  0.00000000000E+00 -0.12108803804E+04  0.12108803804E+04  0.25500000920E-02 0.  1.
    10030    2    1    2    0    0  0.00000000000E+00  0.00000000000E+00  0.14644635733E+04  0.38862243341E+04  0.35997341593E+04 0.  0.
        4    1    3    3  502    0  0.45901637034E+03  0.77605487887E+03 -0.94948630116E+03  0.13093826989E+04  0.12699999809E+01 0.  1.
       -4    1    3    3    0  502 -0.45901637034E+03 -0.77605487887E+03  0.24139498745E+04  0.25768416352E+04  0.12699999809E+01 0. -1.
</event>
<event>
 5   0  0.3212523E-08  0.3600607E+04  0.7818609E-02  0.8090353E-01
       -1   -1    0    0    0  501  0.00000000000E+00  0.00000000000E+00  0.16295169818E+04  0.16295169818E+04  0.50400001928E-02 0.  1.
        1   -1    0    0  501    0  0.00000000000E+00  0.00000000000E+00 -0.19889899445E+04  0.19889899445E+04  0.50400001928E-02 0. -1.
    10030    2    1    2    0    0  0.00000000000E+00  0.00000000000E+00 -0.35947296270E+03  0.36185069264E+04  0.36006071107E+04 0.  0.
        3    1    3    3  502    0  0.14579313549E+04 -0.59755798010E+03  0.69548537613E+03  0.17223063879E+04  0.10100000352E+00 0.  1.
       -3    1    3    3    0  502 -0.14579313549E+04  0.59755798010E+03 -0.10549583388E+04  0.18962005385E+04  0.10100000352E+00 0. -1.
</event>
<event>
 5   0  0.1021087E-07  0.3602445E+04  0.7818609E-02  0.8089932E-01
        2   -1    0    0  501    0  0.00000000000E+00  0.00000000000E+00  0.11145935612E+04  0.11145935612E+04  0.25500000920E-02 0. -1.
       -2   -1    0    0    0  501  0.00000000000E+00  0.00000000000E+00 -0.29108392461E+04  0.29108392461E+04  0.25500000920E-02 0.  1.
    10030    2    1    2    0    0  0.00000000000E+00  0.00000000000E+00 -0.17962456850E+04  0.40254328073E+04  0.36024451037E+04 0.  0.
        3    1    3    3  502    0  0.13283253423E+04 -0.12004534077E+04 -0.67782992374E+03  0.19144163640E+04  0.10100000352E+00 0.  1.
       -3    1    3    3    0  502 -0.13283253423E+04  0.12004534077E+04 -0.11184157612E+04  0.21110164433E+04  0.10100000352E+00 0. -1.
</event>
<event>
 5   0  0.9905335E-08  0.3601979E+04  0.7818609E-02  0.8090039E-01
        2   -1    0    0  501    0  0.00000000000E+00  0.00000000000E+00  0.16313114784E+04  0.16313114784E+04  0.25500000920E-02 0. -1.
       -2   -1    0    0    0  501  0.00000000000E+00  0.00000000000E+00 -0.19883160548E+04  0.19883160548E+04  0.25500000920E-02 0.  1.
    10030    2    1    2    0    0  0.00000000000E+00  0.00000000000E+00 -0.35700457635E+03  0.36196275332E+04  0.36019787911E+04 0.  0.
        5    1    3    3  502    0  0.16699363241E+04 -0.16797769558E+02 -0.85602475384E+03  0.18766379408E+04  0.46999998093E+01 0. -1.
       -5    1    3    3    0  502 -0.16699363241E+04  0.16797769558E+02  0.49902017749E+03  0.17429895924E+04  0.46999998093E+01 0.  1.
</event>
<event>
 5   0  0.3202875E-08  0.3597762E+04  0.7818609E-02  0.8091004E-01
       -1   -1    0    0    0  501  0.00000000000E+00  0.00000000000E+00  0.21011684176E+04  0.21011684176E+04  0.50400001928E-02 0. -1.
        1   -1    0    0  501    0  0.00000000000E+00  0.00000000000E+00 -0.15400828039E+04  0.15400828039E+04  0.50400001928E-02 0.  1.
    10030    2    1    2    0    0  0.00000000000E+00  0.00000000000E+00  0.56108561369E+03  0.36412512214E+04  0.35977622756E+04 0.  0.
        1    1    3    3  502    0  0.37317165889E+03 -0.13731715602E+04  0.13943527056E+04  0.19922541726E+04  0.50400001928E-02 0. -1.
       -1    1    3    3    0  502 -0.37317165889E+03  0.13731715602E+04 -0.83326709187E+03  0.16489970488E+04  0.50400001928E-02 0.  1.
</event>
<event>
 5   0  0.3202875E-08  0.3599627E+04  0.7818609E-02  0.8090577E-01
        1   -1    0    0  501    0  0.00000000000E+00  0.00000000000E+00  0.10100001091E+04  0.10100001091E+04  0.50400001928E-02 0.  1.
       -1   -1    0    0    0  501  0.00000000000E+00  0.00000000000E+00 -0.32072550915E+04  0.32072550915E+04  0.50400001928E-02 0. -1.
    10030    2    1    2    0    0  0.00000000000E+00  0.00000000000E+00 -0.21972549824E+04  0.42172552006E+04  0.35996266430E+04 0.  0.
        1    1    3    3  502    0  0.10401705450E+03 -0.16602493055E+04 -0.19035990612E+04  0.25280301996E+04  0.50400001928E-02 0. -1.
       -1    1    3    3    0  502 -0.10401705450E+03  0.16602493055E+04 -0.29365592120E+03  0.16892250010E+04  0.50400001928E-02 0.  1.
</event>
<event>
 5   0  0.1017794E-07  0.3625115E+04  0.7818609E-02  0.8084763E-01
       -2   -1    0    0    0  501  0.00000000000E+00  0.00000000000E+00  0.15633594735E+04  0.15633594735E+04  0.25500000920E-02 0. -1.
        2   -1    0    0  501    0  0.00000000000E+00  0.00000000000E+00 -0.21014777262E+04  0.21014777262E+04  0.25500000920E-02 0.  1.
    10030    2    1    2    0    0  0.00000000000E+00  0.00000000000E+00 -0.53811825270E+03  0.36648371997E+04  0.36251152321E+04 0.  0.
        1    1    3    3  502    0 -0.18045398617E+04 -0.48775887416E+02 -0.43400919105E+03  0.18566386772E+04  0.50400001928E-02 0.  1.
       -1    1    3    3    0  502  0.18045398617E+04  0.48775887416E+02 -0.10410906165E+03  0.18081985224E+04  0.50400001928E-02 0. -1.
</event>
<event>
 5   0  0.3215494E-08  0.3590993E+04  0.7818609E-02  0.8092558E-01
        1   -1    0    0  501    0  0.00000000000E+00  0.00000000000E+00  0.20474784154E+04  0.20474784154E+04  0.50400001928E-02 0.  1.
       -1   -1    0    0    0  501  0.00000000000E+00  0.00000000000E+00 -0.15745262350E+04  0.15745262350E+04  0.50400001928E-02 0. -1.
    10030    2    1    2    0    0  0.00000000000E+00  0.00000000000E+00  0.47295218045E+03  0.36220046504E+04  0.35909934451E+04 0.  0.
        4    1    3    3  502    0  0.57893976126E+03  0.98224724074E+03 -0.11625225221E+04  0.16283246348E+04  0.12699999809E+01 0. -1.
       -4    1    3    3    0  502 -0.57893976126E+03 -0.98224724074E+03  0.16354747025E+04  0.19936800156E+04  0.12699999809E+01 0.  1.
</event>
<event>
 5   0  0.9905335E-08  0.3597794E+04  0.7818609E-02  0.8090997E-01
        2   -1    0    0  501    0  0.00000000000E+00  0.00000000000E+00  0.31749880921E+04  0.31749880921E+04  0.25500000920E-02 0. -1.
       -2   -1    0    0    0  501  0.00000000000E+00  0.00000000000E+00 -0.10192258251E+04  0.10192258251E+04  0.25500000920E-02 0.  1.
    10030    2    1    2    0    0  0.00000000000E+00  0.00000000000E+00  0.21557622670E+04  0.41942139172E+04  0.35977936894E+04 0.  0.
        5    1    3    3  502    0 -0.64020713976E+03 -0.13564273864E+04  0.22356110126E+04  0.26921625371E+04  0.46999998093E+01 0. -1.
       -5    1    3    3    0  502  0.64020713976E+03  0.13564273864E+04 -0.79848745642E+02  0.15020513801E+04  0.46999998093E+01 0.  1.
</event>
<event>
 5   0  0.3202875E-08  0.3594242E+04  0.7818609E-02  0.8091812E-01
        1   -1    0    0  501    0  0.00000000000E+00  0.00000000000E+00  0.21602227042E+04  0.21602227042E+04  0.50400001928E-02 0. -1.
       -1   -1    0    0    0  501  0.00000000000E+00  0.00000000000E+00 -0.14950510827E+04  0.14950510827E+04  0.50400001928E-02 0.  1.
    10030    2    1    2    0    0  0.00000000000E+00  0.00000000000E+00  0.66517162153E+03  0.36552737869E+04  0.35942416684E+04 0.  0.
        2    1    3    3  502    0  0.66853509781E+03  0.15137609163E+04 -0.38019494225E+03  0.16979279969E+04  0.25500000920E-02 0.  1.
       -2    1    3    3    0  502 -0.66853509781E+03 -0.15137609163E+04  0.10453665638E+04  0.19573457899E+04  0.25500000920E-02 0. -1.
</event>
<event>
 5   0  0.3279988E-08  0.3597681E+04  0.7818609E-02  0.8091023E-01
        1   -1    0    0  501    0  0.00000000000E+00  0.00000000000E+00  0.14705448096E+04  0.14705448096E+04  0.50400001928E-02 0.  1.
       -1   -1    0    0    0  501  0.00000000000E+00  0.00000000000E+00 -0.22004278104E+04  0.22004278104E+04  0.50400001928E-02 0. -1.
    10030    2    1    2    0    0  0.00000000000E+00  0.00000000000E+00 -0.72988300085E+03  0.36709726200E+04  0.35976813063E+04 0.  0.
        5    1    3    3  502    0  0.54267903068E+03 -0.11772845333E+04  0.90758374723E+03  0.15824758295E+04  0.46999998093E+01 0.  1.
       -5    1    3    3    0  502 -0.54267903068E+03  0.11772845333E+04 -0.16374667481E+04  0.20884967905E+04  0.46999998093E+01 0. -1.
</event>
<event>
 5   0  0.3212523E-08  0.3603629E+04  0.7818609E-02  0.8089661E-01
       -1   -1    0    0    0  501  0.00000000000E+00  0.00000000000E+00  0.27036616964E+04  0.27036616964E+04  0.50400001928E-02 0.  1.
        1   -1    0    0  501    0  0.00000000000E+00  0.00000000000E+00 -0.12007921973E+04  0.12007921973E+04  0.50400001928E-02 0. -1.
    10030    2    1    2    0    0  0.00000000000E+00  0.00000000000E+00  0.15028694991E+04  0.39044538937E+04  0.36036292092E+04 0.  0.
        3    1    3    3  502    0 -0.39816008616E+03 -0.99858229557E+03 -0.81524551361E+03  0.13491935787E+04  0.10100000352E+00 0. -1.
       -3    1    3    3    0  502  0.39816008616E+03  0.99858229557E+03  0.23181150127E+04  0.25552603150E+04  0.10100000352E+00 0.  1.
</event>
<event>
 5   0  0.9905335E-08  0.3537987E+04  0.7818609E-02  0.8104846E-01
       -2   -1    0    0    0  501  0.00000000000E+00  0.00000000000E+00  0.20943620891E+04  0.20943620891E+04  0.25500000920E-02 0. -1.
        2   -1    0    0  501    0  0.00000000000E+00  0.00000000000E+00 -0.14941719988E+04  0.14941719989E+04  0.25500000920E-02 0.  1.
    10030    2    1    2    0    0  0.00000000000E+00  0.00000000000E+00  0.60019009020E+03  0.35885340879E+04  0.35379865398E+04 0.  0.
        5    1    3    3  502    0 -0.75776288876E+03  0.11040806486E+04 -0.87232450338E+03  0.15981773379E+04  0.46999998093E+01 0.  1.
       -5    1    3    3    0  502  0.75776288876E+03 -0.11040806486E+04  0.14725145936E+04  0.19903567500E+04  0.46999998093E+01 0. -1.
</event>
<event>
 5   0  0.3202875E-08  0.3604741E+04  0.7818609E-02  0.8089407E-01
       -1   -1    0    0    0  501  0.00000000000E+00  0.00000000000E+00  0.17466107305E+04  0.17466107305E+04  0.50400001928E-02 0.  1.
        1   -1    0    0  501    0  0.00000000000E+00  0.00000000000E+00 -0.18599105027E+04  0.18599105027E+04  0.50400001928E-02 0. -1.
    10030    2    1    2    0    0  0.00000000000E+00  0.00000000000E+00 -0.11329977215E+03  0.36065212332E+04  0.36047411234E+04 0.  0.
        2    1    3    3  502    0  0.11882850041E+04 -0.31895806528E+03 -0.13744123549E+04  0.18446584562E+04  0.25500000920E-02 0. -1.
       -2    1    3    3    0  502 -0.11882850041E+04  0.31895806528E+03  0.12611125828E+04  0.17618627770E+04  0.25500000920E-02 0.  1.
</event>
<event>
 5   0  0.3212523E-08  0.3597809E+04  0.7818609E-02  0.8090994E-01
        1   -1    0    0  501    0  0.00000000000E+00  0.00000000000E+00  0.21313344017E+04  0.21313344017E+04  0.50400001928E-02 0. -1.
       -1   -1    0    0    0  501  0.00000000000E+00  0.00000000000E+00 -0.15183243487E+04  0.15183243487E+04  0.50400001928E-02 0.  1.
    10030    2    1    2    0    0  0.00000000000E+00  0.00000000000E+00  0.61301005303E+03  0.36496587504E+04  0.35978087316E+04 0.  0.
        3    1    3    3  502    0 -0.13011886862E+04  0.54920853016E+03  0.14367137902E+04  0.20146633793E+04  0.10100000352E+00 0. -1.
       -3    1    3    3    0  502  0.13011886862E+04 -0.54920853016E+03 -0.82370373720E+03  0.16349953711E+04  0.10100000352E+00 0.  1.
</event>
<event>
 5   0  0.1021087E-07  0.3601454E+04  0.7818609E-02  0.8090159E-01
       -2   -1    0    0    0  501  0.00000000000E+00  0.00000000000E+00  0.28408467312E+04  0.28408467312E+04  0.25500000920E-02 0.  1.
        2   -1    0    0  501    0  0.00000000000E+00  0.00000000000E+00 -0.11414266568E+04  0.11414266568E+04  0.25500000920E-02 0. -1.
    10030    2    1    2    0    0  0.00000000000E+00  0.00000000000E+00  0.16994200744E+04  0.39822733880E+04  0.36014542545E+04 0.  0.
        3    1    3    3  502    0 -0.10466472388E+04  0.11611816892E+04 -0.13855517233E+03  0.15693982617E+04  0.10100000352E+00 0. -1.
       -3    1    3    3    0  502  0.10466472388E+04 -0.11611816892E+04  0.18379752467E+04  0.24128751263E+04  0.10100000352E+00 0.  1.
</event>
<event>
 5   0  0.9905335E-08  0.3597578E+04  0.7818609E-02  0.8091047E-01
       -2   -1    0    0    0  501  0.00000000000E+00  0.00000000000E+00  0.20823038772E+04  0.20823038772E+04  0.25500000920E-02 0.  1.
        2   -1    0    0  501    0  0.00000000000E+00  0.00000000000E+00 -0.15538763491E+04  0.15538763491E+04  0.25500000920E-02 0. -1.
    10030    2    1    2    0    0  0.00000000000E+00  0.00000000000E+00  0.52842752814E+03  0.36361802263E+04  0.35975784891E+04 0.  0.
        5    1    3    3  502    0 -0.78965527627E+03 -0.12545479849E+04  0.12940550845E+04  0.19677517002E+04  0.46999998093E+01 0.  1.
       -5    1    3    3    0  502  0.78965527627E+03  0.12545479849E+04 -0.76562755640E+03  0.16684285261E+04  0.46999998093E+01 0. -1.
</event>
<event>
 5   0  0.1017794E-07  0.3591852E+04  0.7818609E-02  0.8092361E-01
        2   -1    0    0  501    0  0.00000000000E+00  0.00000000000E+00  0.19447814912E+04  0.19447814912E+04  0.25500000920E-02 0.  1.
       -2   -1    0    0    0  501  0.00000000000E+00  0.00000000000E+00 -0.16584642314E+04  0.16584642314E+04  0.25500000920E-02 0. -1.
    10030    2    1    2    0    0  0.00000000000E+00  0.00000000000E+00  0.28631725986E+03  0.36032457226E+04  0.35918521913E+04 0.  0.
        1    1    3    3  502    0 -0.15046310653E+04 -0.62447355224E+03  0.90151203334E+03  0.18618823288E+04  0.50400001928E-02 0.  1.
       -1    1    3    3    0  502  0.15046310653E+04  0.62447355224E+03 -0.61519477348E+03  0.17413633938E+04  0.50400001928E-02 0. -1.
</event>
<event>
 5   0  0.3215494E-08  0.3601784E+04  0.7818609E-02  0.8090083E-01
       -1   -1    0    0    0  501  0.00000000000E+00  0.00000000000E+00  0.18335942496E+04  0.18335942496E+04  0.50400001928E-02 0.  1.
        1   -1    0    0  501    0  0.00000000000E+00  0.00000000000E+00 -0.17687733954E+04  0.17687733954E+04  0.50400001928E-02 0. -1.
    10030    2    1    2    0    0  0.00000000000E+00  0.00000000000E+00  0.64820854233E+02  0.36023676450E+04  0.36017844059E+04 0.  0.
        4    1    3    3  502    0  0.56654429381E+03  0.26152689981E+03 -0.16571950538E+04  0.17707811314E+04  0.12699999809E+01 0. -1.
       -4    1    3    3    0  502 -0.56654429381E+03 -0.26152689981E+03  0.17220159081E+04  0.18315865136E+04  0.12699999809E+01 0.  1.
</event>
<event>
 5   0  0.3279988E-08  0.3600479E+04  0.7818609E-02  0.8090382E-01
       -1   -1    0    0    0  501  0.00000000000E+00  0.00000000000E+00  0.14626057006E+04  0.14626057006E+04  0.50400001928E-02 0. -1.
        1   -1    0    0  501    0  0.00000000000E+00  0.00000000000E+00 -0.22158140462E+04  0.22158140462E+04  0.50400001928E-02 0.  1.
    10030    2    1    2    0    0  0.00000000000E+00  0.00000000000E+00 -0.75320834560E+03  0.36784197468E+04  0.36004789989E+04 0.  0.
        5    1    3    3  502    0 -0.12182147788E+04  0.34149345110E+03 -0.16850209852E+04  0.21071266775E+04  0.46999998093E+01 0.  1.
       -5    1    3    3    0  502  0.12182147788E+04 -0.34149345110E+03  0.93181263959E+03  0.15712930693E+04  0.46999998093E+01 0. -1.
</event>
<event>
 5   0  0.3212523E-08  0.3592857E+04  0.7818609E-02  0.8092130E-01
       -1   -1    0    0    0  501  0.00000000000E+00  0.00000000000E+00  0.13634665256E+04  0.13634665256E+04  0.50400001928E-02 0.  1.
        1   -1    0    0  501    0  0.00000000000E+00  0.00000000000E+00 -0.23668747312E+04  0.23668747312E+04  0.50400001928E-02 0. -1.
    10030    2    1    2    0    0  0.00000000000E+00  0.00000000000E+00 -0.10034082056E+04  0.37303412568E+04  0.35928565050E+04 0.  0.
        3    1    3    3  502    0 -0.11935012496E+04 -0.18068468807E+03  0.87964345211E+03  0.14936079815E+04  0.10100000352E+00 0.  1.
       -3    1    3    3    0  502  0.11935012496E+04  0.18068468807E+03 -0.18830516577E+04  0.22367332754E+04  0.10100000352E+00 0. -1.
</event>
<event>
 5   0  0.1044678E-07  0.3599052E+04  0.7818609E-02  0.8090709E-01
        2   -1    0    0  501    0  0.00000000000E+00  0.00000000000E+00  0.20004820076E+04  0.20004820076E+04  0.25500000920E-02 0. -1.
       -2   -1    0    0    0  501  0.00000000000E+00  0.00000000000E+00 -0.16187571430E+04  0.16187571430E+04  0.25500000920E-02 0.  1.
    10030    2    1    2    0    0  0.00000000000E+00  0.00000000000E+00  0.38172486451E+03  0.36192391506E+04  0.35990523971E+04 0.  0.
        2    1    3    3  502    0 -0.48069512873E+03 -0.10179802214E+04  0.16026395685E+04  0.19585211576E+04  0.25500000920E-02 0. -1.
       -2    1    3    3    0  502  0.48069512873E+03  0.10179802214E+04 -0.12209147040E+04  0.16607179931E+04  0.25500000920E-02 0.  1.
</event>
<event>
 5   0  0.3212523E-08  0.3574275E+04  0.7818609E-02  0.8096410E-01
        1   -1    0    0  501    0  0.00000000000E+00  0.00000000000E+00  0.15092883860E+04  0.15092883860E+04  0.50400001928E-02 0.  1.
       -1   -1    0    0    0  501  0.00000000000E+00  0.00000000000E+00 -0.21161363876E+04  0.21161363876E+04  0.50400001928E-02 0. -1.
    10030    2    1    2    0    0  0.00000000000E+00  0.00000000000E+00 -0.60684800161E+03  0.36254247736E+04  0.35742747925E+04 0.  0.
        3    1    3    3  502    0 -0.11713016612E+04 -0.47269035022E+03  0.97897763256E+03  0.15980553695E+04  0.10100000352E+00 0.  1.
       -3    1    3    3    0  502  0.11713016612E+04  0.47269035022E+03 -0.15858256342E+04  0.20273694042E+04  0.10100000352E+00 0. -1.
</event>
<event>
 5   0  0.3202875E-08  0.3602582E+04  0.7818609E-02  0.8089900E-01
        1   -1    0    0  501    0  0.00000000000E+00  0.00000000000E+00  0.23461509946E+04  0.23461509946E+04  0.50400001928E-02 0. -1.
       -1   -1    0    0    0  501  0.00000000000E+00  0.00000000000E+00 -0.13829670922E+04  0.13829670922E+04  0.50400001928E-02 0.  1.
    10030    2    1    2    0    0  0.00000000000E+00  0.00000000000E+00  0.96318390233E+03  0.37291180868E+04  0.36025821955E+04 0.  0.
        2    1    3    3  502    0  0.11707116880E+04  0.11716097746E+04  0.12145693691E+04  0.20538778135E+04  0.25500000920E-02 0. -1.
       -2    1    3    3    0  502 -0.11707116880E+04 -0.11716097746E+04 -0.25138546676E+03  0.16752402733E+04  0.25500000920E-02 0.  1.
</event>
<event>
 5   0  0.3215494E-08  0.3597404E+04  0.7818609E-02  0.8091087E-01
       -1   -1    0    0    0  501  0.00000000000E+00  0.00000000000E+00  0.20872877978E+04  0.20872877978E+04  0.50400001928E-02 0.  1.
        1   -1    0    0  501    0  0.00000000000E+00  0.00000000000E+00 -0.15500159909E+04  0.15500159909E+04  0.50400001928E-02 0. -1.
    10030    2    1    2    0    0  0.00000000000E+00  0.00000000000E+00  0.53727180685E+03  0.36373037887E+04  0.35974043221E+04 0.  0.
        4    1    3    3  502    0 -0.12894562312E+04  0.73389776189E+03  0.12967841725E+04  0.19705212763E+04  0.12699999809E+01 0.  1.
       -4    1    3    3    0  502  0.12894562312E+04 -0.73389776189E+03 -0.75951236568E+03  0.16667825124E+04  0.12699999809E+01 0. -1.
</event>
<event>
 5   0  0.1021087E-07  0.3599663E+04  0.7818609E-02  0.8090569E-01
       -2   -1    0    0    0  501  0.00000000000E+00  0.00000000000E+00  0.11411924964E+04  0.11411924964E+04  0.25500000920E-02 0.  1.
        2   -1    0    0  501    0  0.00000000000E+00  0.00000000000E+00 -0.28386031854E+04  0.28386031854E+04  0.25500000920E-02 0. -1.
    10030    2    1    2    0    0  0.00000000000E+00  0.00000000000E+00 -0.16974106890E+04  0.39797956818E+04  0.35996625705E+04 0.  0.
        3    1    3    3  502    0 -0.11689342302E+04  0.49934173738E+03  0.56007825969E+03  0.13890417821E+04  0.10100000352E+00 0.  1.
       -3    1    3    3    0  502  0.11689342302E+04 -0.49934173738E+03 -0.22574889487E+04  0.25907538997E+04  0.10100000352E+00 0. -1.
</event>
<event>
 5   0  0.1021087E-07  0.3607088E+04  0.7818609E-02  0.8088870E-01
        2   -1    0    0  501    0  0.00000000000E+00  0.00000000000E+00  0.19230987841E+04  0.19230987841E+04  0.25500000920E-02 0.  1.
       -2   -1    0    0    0  501  0.00000000000E+00  0.00000000000E+00 -0.16914214233E+04  0.16914214233E+04  0.25500000920E-02 0. -1.
    10030    2    1    2    0    0  0.00000000000E+00  0.00000000000E+00  0.23167736079E+03  0.36145202075E+04  0.36070877354E+04 0.  0.
        3    1    3    3  502    0 -0.17124512027E+02 -0.17178094201E+04 -0.43448144323E+03  0.17719866216E+04  0.10100000352E+00 0. -1.
       -3    1    3    3    0  502  0.17124512027E+02  0.17178094201E+04  0.66615880401E+03  0.18425335858E+04  0.10100000352E+00 0.  1.
</event>
<event>
 5   0  0.3202875E-08  0.3610796E+04  0.7818609E-02  0.8088023E-01
        1   -1    0    0  501    0  0.00000000000E+00  0.00000000000E+00  0.26394347609E+04  0.26394347609E+04  0.50400001928E-02 0.  1.
       -1   -1    0    0    0  501  0.00000000000E+00  0.00000000000E+00 -0.12349093119E+04  0.12349093119E+04  0.50400001928E-02 0. -1.
    10030    2    1    2    0    0  0.00000000000E+00  0.00000000000E+00  0.14045254490E+04  0.38743440728E+04  0.36107963468E+04 0.  0.
        2    1    3    3  502    0  0.87612003682E+03  0.11863463231E+04 -0.41511932586E+03  0.15320992043E+04  0.25500000920E-02 0. -1.
       -2    1    3    3    0  502 -0.87612003682E+03 -0.11863463231E+04  0.18196447749E+04  0.23422448685E+04  0.25500000920E-02 0.  1.
</event>
<event>
 5   0  0.3279988E-08  0.3603272E+04  0.7818609E-02  0.8089743E-01
       -1   -1    0    0    0  501  0.00000000000E+00  0.00000000000E+00  0.13236029169E+04  0.13236029169E+04  0.50400001928E-02 0.  1.
        1   -1    0    0  501    0  0.00000000000E+00  0.00000000000E+00 -0.24523161143E+04  0.24523161143E+04  0.50400001928E-02 0. -1.
    10030    2    1    2    0    0  0.00000000000E+00  0.00000000000E+00 -0.11287131974E+04  0.37759190312E+04  0.36032722695E+04 0.  0.
        5    1    3    3  502    0  0.26957174660E+02 -0.16756785538E+03 -0.24439136438E+04  0.24498044134E+04  0.46999998093E+01 0. -1.
       -5    1    3    3    0  502 -0.26957174660E+02  0.16756785538E+03  0.13152004464E+04  0.13261146178E+04  0.46999998093E+01 0.  1.
</event>
<event>
 5   0  0.9905335E-08  0.3584274E+04  0.7818609E-02  0.8094103E-01
       -2   -1    0    0    0  501  0.00000000000E+00  0.00000000000E+00  0.15372826294E+04  0.15372826294E+04  0.25500000920E-02 0. -1.
        2   -1    0    0  501    0  0.00000000000E+00  0.00000000000E+00 -0.20892416732E+04  0.20892416732E+04  0.25500000920E-02 0.  1.
    10030    2    1    2    0    0  0.00000000000E+00  0.00000000000E+00 -0.55195904378E+03  0.36265243026E+04  0.35842739476E+04 0.  0.
        5    1    3    3  502    0  0.19946921007E+03 -0.74793881516E+03  0.13594063428E+04  0.15643555005E+04  0.46999998093E+01 0. -1.
       -5    1    3    3    0  502 -0.19946921007E+03  0.74793881516E+03 -0.19113653866E+04  0.20621688021E+04  0.46999998093E+01 0.  1.
</event>
<event>
 5   0  0.1017794E-07  0.3603005E+04  0.7818609E-02  0.8089804E-01
        2   -1    0    0  501    0  0.00000000000E+00  0.00000000000E+00  0.24331271265E+04  0.24331271265E+04  0.25500000920E-02 0.  1.
       -2   -1    0    0    0  501  0.00000000000E+00  0.00000000000E+00 -0.13338435252E+04  0.13338435252E+04  0.25500000920E-02 0. -1.
    10030    2    1    2    0    0  0.00000000000E+00  0.00000000000E+00  0.10992836013E+04  0.37669706517E+04  0.36030047814E+04 0.  0.
        1    1    3    3  502    0 -0.23809873627E+03 -0.42700668503E+03 -0.12631574238E+04  0.13544712602E+04  0.50400001928E-02 0. -1.
       -1    1    3    3    0  502  0.23809873627E+03  0.42700668503E+03  0.23624410251E+04  0.24124993916E+04  0.50400001928E-02 0.  1.
</event>
<event>
 5   0  0.3202875E-08  0.3599714E+04  0.7818609E-02  0.8090557E-01
       -3   -1    0    0    0  501  0.00000000000E+00  0.00000000000E+00  0.24670301722E+04  0.24670301743E+04  0.10100000352E+00 0.  1.
        3   -1    0    0  501    0  0.00000000000E+00  0.00000000000E+00 -0.13131111127E+04  0.13131111166E+04  0.10100000352E+00 0. -1.
    10030    2    1    2    0    0  0.00000000000E+00  0.00000000000E+00  0.11539190596E+04  0.37801412909E+04  0.35997137362E+04 0.  0.
        5    1    3    3  502    0  0.13945124726E+04  0.63813893102E+03 -0.41237444181E+03  0.15880683555E+04  0.46999998093E+01 0. -1.
       -5    1    3    3    0  502 -0.13945124726E+04 -0.63813893102E+03  0.15662935014E+04  0.21920729354E+04  0.46999998093E+01 0.  1.
</event>
<event>
 5   0  0.3215494E-08  0.3599038E+04  0.7818609E-02  0.8090712E-01
       -1   -1    0    0    0  501  0.00000000000E+00  0.00000000000E+00  0.11978700526E+04  0.11978700526E+04  0.50400001928E-02 0. -1.
        1   -1    0    0  501    0  0.00000000000E+00  0.00000000000E+00 -0.27033561539E+04  0.27033561539E+04  0.50400001928E-02 0.  1.
    10030    2    1    2    0    0  0.00000000000E+00  0.00000000000E+00 -0.15054861013E+04  0.39012262065E+04  0.35990384151E+04 0.  0.
        4    1    3    3  502    0 -0.11532692080E+04 -0.13810773823E+04 -0.72089659600E+03  0.19383235327E+04  0.12699999809E+01 0. -1.
       -4    1    3    3    0  502  0.11532692080E+04  0.13810773823E+04 -0.78458950532E+03  0.19629026738E+04  0.12699999809E+01 0.  1.
</event>
<event>
 5   0  0.1029908E-07  0.3596985E+04  0.7818609E-02  0.8091183E-01
       -2   -1    0    0    0  501  0.00000000000E+00  0.00000000000E+00  0.13592107752E+04  0.13592107752E+04  0.25500000920E-02 0.  1.
        2   -1    0    0  501    0  0.00000000000E+00  0.00000000000E+00 -0.23797445715E+04  0.23797445715E+04  0.25500000920E-02 0. -1.
    10030    2    1    2    0    0  0.00000000000E+00  0.00000000000E+00 -0.10205337963E+04  0.37389553467E+04  0.35969845503E+04 0.  0.
        4    1    3    3  502    0 -0.19810044999E+03  0.81269559823E+03  0.11446959951E+04  0.14177617775E+04  0.12699999809E+01 0.  1.
       -4    1    3    3    0  502  0.19810044999E+03 -0.81269559823E+03 -0.21652297913E+04  0.23211935692E+04  0.12699999809E+01 0. -1.
</event>
<event>
 5   0  0.1021087E-07  0.3601338E+04  0.7818609E-02  0.8090185E-01
       -2   -1    0    0    0  501  0.00000000000E+00  0.00000000000E+00  0.19721456004E+04  0.19721456004E+04  0.25500000920E-02 0.  1.
        2   -1    0    0  501    0  0.00000000000E+00  0.00000000000E+00 -0.16441020849E+04  0.16441020849E+04  0.25500000920E-02 0. -1.
    10030    2    1    2    0    0  0.00000000000E+00  0.00000000000E+00  0.32804351547E+03  0.36162476852E+04  0.36013379143E+04 0.  0.
        3    1    3    3  502    0  0.29871261656E+03  0.78507093364E+03  0.17633628578E+04  0.19532061275E+04  0.10100000352E+00 0.  1.
       -3    1    3    3    0  502 -0.29871261656E+03 -0.78507093364E+03 -0.14353193423E+04  0.16630415577E+04  0.10100000352E+00 0. -1.
</event>
<event>
 5   0  0.9905335E-08  0.3599060E+04  0.7818609E-02  0.8090707E-01
        2   -1    0    0  501    0  0.00000000000E+00  0.00000000000E+00  0.19595586814E+04  0.19595586814E+04  0.25500000920E-02 0.  1.
       -2   -1    0    0    0  501  0.00000000000E+00  0.00000000000E+00 -0.16525701014E+04  0.16525701014E+04  0.25500000920E-02 0. -1.
    10030    2    1    2    0    0  0.00000000000E+00  0.00000000000E+00  0.30698858000E+03  0.36121287829E+04  0.35990599267E+04 0.  0.
        5    1    3    3  502    0 -0.10394351718E+04 -0.11993689790E+03  0.16228719283E+04  0.19309442564E+04  0.46999998093E+01 0.  1.
       -5    1    3    3    0  502  0.10394351718E+04  0.11993689790E+03 -0.13158833483E+04  0.16811845265E+04  0.46999998093E+01 0. -1.
</event>
<event>
 5   0  0.9905335E-08  0.3585144E+04  0.7818609E-02  0.8093903E-01
        2   -1    0    0  501    0  0.00000000000E+00  0.00000000000E+00  0.20520768478E+04  0.20520768478E+04  0.25500000920E-02 0. -1.
       -2   -1    0    0    0  501  0.00000000000E+00  0.00000000000E+00 -0.15658837084E+04  0.15658837084E+04  0.25500000920E-02 0.  1.
    10030    2    1    2    0    0  0.00000000000E+00  0.00000000000E+00  0.48619313940E+03  0.36179605562E+04  0.35851436258E+04 0.  0.
        5    1    3    3  502    0  0.30516181856E+03  0.12236408720E+04  0.15286770061E+04  0.19817406989E+04  0.46999998093E+01 0. -1.
       -5    1    3    3    0  502 -0.30516181856E+03 -0.12236408720E+04 -0.10424838667E+04  0.16362198572E+04  0.46999998093E+01 0.  1.
</event>
<event>
 5   0  0.9905335E-08  0.3600172E+04  0.7818609E-02  0.8090452E-01
       -2   -1    0    0    0  501  0.00000000000E+00  0.00000000000E+00  0.13893436774E+04  0.13893436774E+04  0.25500000920E-02 0.  1.
        2   -1    0    0  501    0  0.00000000000E+00  0.00000000000E+00 -0.23322589145E+04  0.23322589145E+04  0.25500000920E-02 0. -1.
    10030    2    1    2    0    0  0.00000000000E+00  0.00000000000E+00 -0.94291523707E+03  0.37216025920E+04  0.36001717609E+04 0.  0.
        5    1    3    3  502    0 -0.26114059308E+03 -0.59806563653E+03  0.12627475265E+04  0.14214184186E+04  0.46999998093E+01 0.  1.
       -5    1    3    3    0  502  0.26114059308E+03  0.59806563653E+03 -0.22056627636E+04  0.23001841734E+04  0.46999998093E+01 0. -1.
</event>
<event>
 5   0  0.3279988E-08  0.3595558E+04  0.7818609E-02  0.8091510E-01
        1   -1    0    0  501    0  0.00000000000E+00  0.00000000000E+00  0.10340455368E+04  0.10340455368E+04  0.50400001928E-02 0.  1.
       -1   -1    0    0    0  501  0.00000000000E+00  0.00000000000E+00 -0.31255967592E+04  0.31255967592E+04  0.50400001928E-02 0. -1.
    10030    2    1    2    0    0  0.00000000000E+00  0.00000000000E+00 -0.20915512224E+04  0.41596422960E+04  0.35955580255E+04 0.  0.
        5    1    3    3  502    0  0.10671418928E+04 -0.13934118581E+04 -0.14962163439E+04  0.23063117446E+04  0.46999998093E+01 0.  1.
       -5    1    3    3    0  502 -0.10671418928E+04  0.13934118581E+04 -0.59533487856E+03  0.18533305515E+04  0.46999998093E+01 0. -1.
</event>
<event>
 5   0  0.1017794E-07  0.3610963E+04  0.7818609E-02  0.8087985E-01
        2   -1    0    0  501    0  0.00000000000E+00  0.00000000000E+00  0.15631223061E+04  0.15631223061E+04  0.25500000920E-02 0. -1.
       -2   -1    0    0    0  501  0.00000000000E+00  0.00000000000E+00 -0.20854182504E+04  0.20854182504E+04  0.25500000920E-02 0.  1.
    10030    2    1    2    0    0  0.00000000000E+00  0.00000000000E+00 -0.52229594436E+03  0.36485405565E+04  0.36109631871E+04 0.  0.
        1    1    3    3  502    0 -0.21694122776E+03  0.17388096992E+04  0.17839756036E+03  0.17613484481E+04  0.50400001928E-02 0. -1.
       -1    1    3    3    0  502  0.21694122776E+03 -0.17388096992E+04 -0.70069350472E+03  0.18871921083E+04  0.50400001928E-02 0.  1.
</event>
<event>
 5   0  0.3202875E-08  0.3582509E+04  0.7818609E-02  0.8094510E-01
        1   -1    0    0  501    0  0.00000000000E+00  0.00000000000E+00  0.31995391675E+04  0.31995391675E+04  0.50400001928E-02 0.  1.
       -1   -1    0    0    0  501  0.00000000000E+00  0.00000000000E+00 -0.10028297061E+04  0.10028297061E+04  0.50400001928E-02 0. -1.
    10030    2    1    2    0    0  0.00000000000E+00  0.00000000000E+00  0.21967094614E+04  0.42023688736E+04  0.35825091336E+04 0.  0.
        2    1    3    3  502    0 -0.12083186608E+04 -0.69059191860E+03  0.24211397014E+04  0.27926454551E+04  0.25500000920E-02 0.  1.
       -2    1    3    3    0  502  0.12083186608E+04  0.69059191860E+03 -0.22443024003E+03  0.14097234185E+04  0.25500000920E-02 0. -1.
</event>
<event>
 5   0  0.3215494E-08  0.3601181E+04  0.7818609E-02  0.8090221E-01
        1   -1    0    0  501    0  0.00000000000E+00  0.00000000000E+00  0.13181659546E+04  0.13181659546E+04  0.50400001928E-02 0. -1.
       -1   -1    0    0    0  501  0.00000000000E+00  0.00000000000E+00 -0.24595737695E+04  0.24595737695E+04  0.50400001928E-02 0.  1.
    10030    2    1    2    0    0  0.00000000000E+00  0.00000000000E+00 -0.11414078149E+04  0.37777397242E+04  0.36011811428E+04 0.  0.
        4    1    3    3  502    0 -0.13245160908E+04 -0.84037881320E+03  0.35668983777E+03  0.16086667392E+04  0.12699999809E+01 0. -1.
       -4    1    3    3    0  502  0.13245160908E+04  0.84037881320E+03 -0.14980976527E+04  0.21690729850E+04  0.12699999809E+01 0.  1.
</event>
<event>
 5   0  0.3212523E-08  0.3600636E+04  0.7818609E-02  0.8090346E-01
       -1   -1    0    0    0  501  0.00000000000E+00  0.00000000000E+00  0.21058672053E+04  0.21058672053E+04  0.50400001928E-02 0. -1.
        1   -1    0    0  501    0  0.00000000000E+00  0.00000000000E+00 -0.15391018347E+04  0.15391018347E+04  0.50400001928E-02 0.  1.
    10030    2    1    2    0    0  0.00000000000E+00  0.00000000000E+00  0.56676537063E+03  0.36449690400E+04  0.36006355435E+04 0.  0.
        3    1    3    3  502    0 -0.13788613441E+04 -0.78842768176E+03 -0.57455888811E+03  0.16890810347E+04  0.10100000352E+00 0.  1.
       -3    1    3    3    0  502  0.13788613441E+04  0.78842768176E+03  0.11413242587E+04  0.19558880053E+04  0.10100000352E+00 0. -1.
</event>
<event>
 5   0  0.1017794E-07  0.3531902E+04  0.7818609E-02  0.8106271E-01
       -2   -1    0    0    0  501  0.00000000000E+00  0.00000000000E+00  0.10037533456E+04  0.10037533456E+04  0.25500000920E-02 0.  1.
        2   -1    0    0  501    0  0.00000000000E+00  0.00000000000E+00 -0.31069209991E+04  0.31069209991E+04  0.25500000920E-02 0. -1.
    10030    2    1    2    0    0  0.00000000000E+00  0.00000000000E+00 -0.21031676535E+04  0.41106743447E+04  0.35319016676E+04 0.  0.
        1    1    3    3  502    0 -0.80840654629E+03 -0.14349560501E+04 -0.17931456115E+04  0.24347466385E+04  0.50400001928E-02 0. -1.
       -1    1    3    3    0  502  0.80840654629E+03  0.14349560501E+04 -0.31002204205E+03  0.16759277062E+04  0.50400001928E-02 0.  1.
</event>
<event>
 5   0  0.3215494E-08  0.3608679E+04  0.7818609E-02  0.8088506E-01
       -1   -1    0    0    0  501  0.00000000000E+00  0.00000000000E+00  0.16476456406E+04  0.16476456406E+04  0.50400001928E-02 0. -1.
        1   -1    0    0  501    0  0.00000000000E+00  0.00000000000E+00 -0.19759356528E+04  0.19759356528E+04  0.50400001928E-02 0.  1.
    10030    2    1    2    0    0  0.00000000000E+00  0.00000000000E+00 -0.32829001222E+03  0.36235812934E+04  0.36086794064E+04 0.  0.
        4    1    3    3  502    0 -0.38423439720E+03 -0.63835722421E+03 -0.18142520985E+04  0.19612874107E+04  0.12699999809E+01 0.  1.
       -4    1    3    3    0  502  0.38423439720E+03  0.63835722421E+03  0.14859620863E+04  0.16622938827E+04  0.12699999809E+01 0. -1.
</event>
<event>
 5   0  0.3215494E-08  0.3600857E+04  0.7818609E-02  0.8090295E-01
        1   -1    0    0  501    0  0.00000000000E+00  0.00000000000E+00  0.21861927744E+04  0.21861927744E+04  0.50400001928E-02 0.  1.
       -1   -1    0    0    0  501  0.00000000000E+00  0.00000000000E+00 -0.14827343529E+04  0.14827343529E+04  0.50400001928E-02 0. -1.
    10030    2    1    2    0    0  0.00000000000E+00  0.00000000000E+00  0.70345842154E+03  0.36689271273E+04  0.36008571916E+04 0.  0.
        4    1    3    3  502    0  0.90150023218E+01 -0.88625810333E+03  0.19485198288E+04  0.21406227673E+04  0.12699999809E+01 0.  1.
       -4    1    3    3    0  502 -0.90150023218E+01  0.88625810333E+03 -0.12450614072E+04  0.15283043599E+04  0.12699999809E+01 0. -1.
</event>
<event>
 5   0  0.3279988E-08  0.3600729E+04  0.7818609E-02  0.8090325E-01
       -1   -1    0    0    0  501  0.00000000000E+00  0.00000000000E+00  0.17652794161E+04  0.17652794161E+04  0.50400001928E-02 0.  1.
        1   -1    0    0  501    0  0.00000000000E+00  0.00000000000E+00 -0.18361467210E+04  0.18361467210E+04  0.50400001928E-02 0. -1.
    10030    2    1    2    0    0  0.00000000000E+00  0.00000000000E+00 -0.70867304873E+02  0.36014261372E+04  0.36007288216E+04 0.  0.
        5    1    3    3  502    0 -0.17667242842E+04 -0.29673657591E+03 -0.21413730435E+03  0.18042295217E+04  0.46999998093E+01 0.  1.
       -5    1    3    3    0  502  0.17667242842E+04  0.29673657591E+03  0.14326999948E+03  0.17971966155E+04  0.46999998093E+01 0. -1.
</event>
<event>
 5   0  0.1044678E-07  0.3595447E+04  0.7818609E-02  0.8091535E-01
        2   -1    0    0  501    0  0.00000000000E+00  0.00000000000E+00  0.17093638631E+04  0.17093638631E+04  0.25500000920E-02 0.  1.
       -2   -1    0    0    0  501  0.00000000000E+00  0.00000000000E+00 -0.18906507731E+04  0.18906507731E+04  0.25500000920E-02 0. -1.
    10030    2    1    2    0    0  0.00000000000E+00  0.00000000000E+00 -0.18128690997E+03  0.36000146362E+04  0.35954471818E+04 0.  0.
        2    1    3    3  502    0 -0.16618237052E+03  0.38244239929E+03 -0.18415590794E+04  0.18881786494E+04  0.25500000920E-02 0. -1.
       -2    1    3    3    0  502  0.16618237052E+03 -0.38244239929E+03  0.16602721695E+04  0.17118359868E+04  0.25500000920E-02 0.  1.
</event>
<event>
 5   0  0.1029908E-07  0.3601522E+04  0.7818609E-02  0.8090143E-01
       -2   -1    0    0    0  501  0.00000000000E+00  0.00000000000E+00  0.15691274931E+04  0.15691274931E+04  0.25500000920E-02 0.  1.
        2   -1    0    0  501    0  0.00000000000E+00  0.00000000000E+00 -0.20665876793E+04  0.20665876793E+04  0.25500000920E-02 0. -1.
    10030    2    1    2    0    0  0.00000000000E+00  0.00000000000E+00 -0.49746018626E+03  0.36357151724E+04  0.36015216476E+04 0.  0.
        4    1    3    3  502    0  0.84105812192E+03 -0.12614602099E+04  0.73213121216E+03  0.16836503053E+04  0.12699999809E+01 0.  1.
       -4    1    3    3    0  502 -0.84105812192E+03  0.12614602099E+04 -0.12295913984E+04  0.19520648672E+04  0.12699999809E+01 0. -1.
</event>
<event>
 5   0  0.9905335E-08  0.3587597E+04  0.7818609E-02  0.8093339E-01
        2   -1    0    0  501    0  0.00000000000E+00  0.00000000000E+00  0.27285217243E+04  0.27285217243E+04  0.25500000920E-02 0.  1.
       -2   -1    0    0    0  501  0.00000000000E+00  0.00000000000E+00 -0.11792879341E+04  0.11792879341E+04  0.25500000920E-02 0. -1.
    10030    2    1    2    0    0  0.00000000000E+00  0.00000000000E+00  0.15492337901E+04  0.39078096584E+04  0.35875968266E+04 0.  0.
        5    1    3    3  502    0 -0.21641015154E+03  0.11396142346E+04 -0.71576837367E+03  0.13630482061E+04  0.46999998093E+01 0. -1.
       -5    1    3    3    0  502  0.21641015154E+03 -0.11396142346E+04  0.22650021638E+04  0.25447614523E+04  0.46999998093E+01 0.  1.
</event>
<event>
 5   0  0.1021087E-07  0.3603110E+04  0.7818609E-02  0.8089780E-01
       -2   -1    0    0    0  501  0.00000000000E+00  0.00000000000E+00  0.11561649283E+04  0.11561649283E+04  0.25500000920E-02 0. -1.
        2   -1    0    0  501    0  0.00000000000E+00  0.00000000000E+00 -0.28072124234E+04  0.28072124234E+04  0.25500000920E-02 0.  1.
    10030    2    1    2    0    0  0.00000000000E+00  0.00000000000E+00 -0.16510474951E+04  0.39633773517E+04  0.36031100734E+04 0.  0.
        3    1    3    3  502    0  0.16549292268E+04  0.33960352447E+03 -0.13728002006E+03  0.16949829243E+04  0.10100000352E+00 0. -1.
       -3    1    3    3    0  502 -0.16549292268E+04 -0.33960352447E+03 -0.15137674750E+04  0.22683944274E+04  0.10100000352E+00 0.  1.
</event>
<event>
 5   0  0.9905335E-08  0.3604655E+04  0.7818609E-02  0.8089426E-01
        2   -1    0    0  501    0  0.00000000000E+00  0.00000000000E+00  0.17887193816E+04  0.17887193816E+04  0.25500000920E-02 0. -1.
       -2   -1    0    0    0  501  0.00000000000E+00  0.00000000000E+00 -0.18160388722E+04  0.18160388722E+04  0.25500000920E-02 0.  1.
    10030    2    1    2    0    0  0.00000000000E+00  0.00000000000E+00 -0.27319490534E+02  0.36047582538E+04  0.36046547288E+04 0.  0.
        5    1    3    3  502    0 -0.15925197909E+04  0.20305765553E+01  0.83030668884E+03  0.17959829329E+04  0.46999998093E+01 0. -1.
       -5    1    3    3    0  502  0.15925197909E+04 -0.20305765553E+01 -0.85762617938E+03  0.18087753209E+04  0.46999998093E+01 0.  1.
</event>
<event>
 5   0  0.1044678E-07  0.3605468E+04  0.7818609E-02  0.8089240E-01
        2   -1    0    0  501    0  0.00000000000E+00  0.00000000000E+00  0.22080527108E+04  0.22080527108E+04  0.25500000920E-02 0.  1.
       -2   -1    0    0    0  501  0.00000000000E+00  0.00000000000E+00 -0.14718167769E+04  0.14718167769E+04  0.25500000920E-02 0. -1.
    10030    2    1    2    0    0  0.00000000000E+00  0.00000000000E+00  0.73623593395E+03  0.36798694877E+04  0.36054675281E+04 0.  0.
        2    1    3    3  502    0  0.64400668661E+03  0.95005349267E+03  0.17869496908E+04  0.21238021209E+04  0.25500000920E-02 0.  1.
       -2    1    3    3    0  502 -0.64400668661E+03 -0.95005349267E+03 -0.10507137568E+04  0.15560673668E+04  0.25500000920E-02 0. -1.
</event>
<event>
 5   0  0.3202875E-08  0.3596418E+04  0.7818609E-02  0.8091313E-01
       -1   -1    0    0    0  501  0.00000000000E+00  0.00000000000E+00  0.13880506198E+04  0.13880506198E+04  0.50400001928E-02 0. -1.
        1   -1    0    0  501    0  0.00000000000E+00  0.00000000000E+00 -0.23295659372E+04  0.23295659372E+04  0.50400001928E-02 0.  1.
    10030    2    1    2    0    0  0.00000000000E+00  0.00000000000E+00 -0.94151531742E+03  0.37176165571E+04  0.35964179085E+04 0.  0.
        1    1    3    3  502    0 -0.15642619097E+02  0.98504037096E+03 -0.20257824450E+04  0.22526304043E+04  0.50400001928E-02 0.  1.
       -1    1    3    3    0  502  0.15642619097E+02 -0.98504037096E+03  0.10842671275E+04  0.14649861528E+04  0.50400001928E-02 0. -1.
</event>
<event>
 5   0  0.3215494E-08  0.3600492E+04  0.7818609E-02  0.8090379E-01
       -1   -1    0    0    0  501  0.00000000000E+00  0.00000000000E+00  0.19115028738E+04  0.19115028738E+04  0.50400001928E-02 0.  1.
        1   -1    0    0  501    0  0.00000000000E+00  0.00000000000E+00 -0.16954643311E+04  0.16954643312E+04  0.50400001928E-02 0. -1.
    10030    2    1    2    0    0  0.00000000000E+00  0.00000000000E+00  0.21603854265E+03  0.36069672050E+04  0.36004916006E+04 0.  0.
        4    1    3    3  502    0  0.51910668225E+03 -0.10160670877E+04 -0.12869718786E+04  0.17199309007E+04  0.12699999809E+01 0. -1.
       -4    1    3    3    0  502 -0.51910668225E+03  0.10160670877E+04  0.15030104212E+04  0.18870363042E+04  0.12699999809E+01 0.  1.
</event>
<event>
 5   0  0.1029908E-07  0.3614629E+04  0.7818609E-02  0.8087149E-01
       -2   -1    0    0    0  501  0.00000000000E+00  0.00000000000E+00  0.16322700703E+04  0.16322700703E+04  0.25500000920E-02 0. -1.
        2   -1    0    0  501    0  0.00000000000E+00  0.00000000000E+00 -0.20011310795E+04  0.20011310795E+04  0.25500000920E-02 0.  1.
    10030    2    1    2    0    0  0.00000000000E+00  0.00000000000E+00 -0.36886100923E+03  0.36334011497E+04  0.36146293684E+04 0.  0.
        4    1    3    3  502    0 -0.89205178387E+03 -0.99928557876E+03 -0.14040148632E+04  0.19405121494E+04  0.12699999809E+01 0.  1.
       -4    1    3    3    0  502  0.89205178387E+03  0.99928557876E+03  0.10351538540E+04  0.16928890003E+04  0.12699999809E+01 0. -1.
</event>
<event>
 5   0  0.1029908E-07  0.3614504E+04  0.7818609E-02  0.8087177E-01
       -2   -1    0    0    0  501  0.00000000000E+00  0.00000000000E+00  0.10433156748E+04  0.10433156748E+04  0.25500000920E-02 0.  1.
        2   -1    0    0  501    0  0.00000000000E+00  0.00000000000E+00 -0.31305578027E+04  0.31305578027E+04  0.25500000920E-02 0. -1.
    10030    2    1    2    0    0  0.00000000000E+00  0.00000000000E+00 -0.20872421279E+04  0.41738734775E+04  0.36145041300E+04 0.  0.
        4    1    3    3  502    0 -0.14470401833E+04 -0.93572066736E+03 -0.16725767061E+04  0.24014605785E+04  0.12699999809E+01 0. -1.
       -4    1    3    3    0  502  0.14470401833E+04  0.93572066736E+03 -0.41466542187E+03  0.17724128990E+04  0.12699999809E+01 0.  1.
</event>
<event>
 5   0  0.3202875E-08  0.3597575E+04  0.7818609E-02  0.8091047E-01
        1   -1    0    0  501    0  0.00000000000E+00  0.00000000000E+00  0.17506997832E+04  0.17506997832E+04  0.50400001928E-02 0.  1.
       -1   -1    0    0    0  501  0.00000000000E+00  0.00000000000E+00 -0.18481963798E+04  0.18481963798E+04  0.50400001928E-02 0. -1.
    10030    2    1    2    0    0  0.00000000000E+00  0.00000000000E+00 -0.97496596608E+02  0.35988961631E+04  0.35975752954E+04 0.  0.
        2    1    3    3  502    0  0.90865983879E+03  0.79309823719E+03  0.12862713678E+04  0.17632814716E+04  0.25500000920E-02 0.  1.
       -2    1    3    3    0  502 -0.90865983879E+03 -0.79309823719E+03 -0.13837679644E+04  0.18356146915E+04  0.25500000920E-02 0. -1.
</event>
<event>
 5   0  0.3202875E-08  0.3601291E+04  0.7818609E-02  0.8090196E-01
        1   -1    0    0  501    0  0.00000000000E+00  0.00000000000E+00  0.11782729678E+04  0.11782729678E+04  0.50400001928E-02 0.  1.
       -1   -1    0    0    0  501  0.00000000000E+00  0.00000000000E+00 -0.27517601876E+04  0.27517601876E+04  0.50400001928E-02 0. -1.
    10030    2    1    2    0    0  0.00000000000E+00  0.00000000000E+00 -0.15734872198E+04  0.39300331553E+04  0.36012912366E+04 0.  0.
        2    1    3    3  502    0  0.28248270453E+03  0.12996302163E+04 -0.21114251603E+04  0.24953860192E+04  0.25500000920E-02 0. -1.
       -2    1    3    3    0  502 -0.28248270453E+03 -0.12996302163E+04  0.53793794047E+03  0.14346471361E+04  0.25500000920E-02 0.  1.
</event>
<event>
 5   0  0.1044678E-07  0.3612344E+04  0.7818609E-02  0.8087670E-01
       -2   -1    0    0    0  501  0.00000000000E+00  0.00000000000E+00  0.19934626116E+04  0.19934626116E+04  0.25500000920E-02 0.  1.
        2   -1    0    0  501    0  0.00000000000E+00  0.00000000000E+00 -0.16364778776E+04  0.16364778776E+04  0.25500000920E-02 0. -1.
    10030    2    1    2    0    0  0.00000000000E+00  0.00000000000E+00  0.35698473391E+03  0.36299404892E+04  0.36123440942E+04 0.  0.
        2    1    3    3  502    0 -0.76939410364E+02  0.14002630492E+04 -0.96529701557E+03  0.17024848335E+04  0.25500000920E-02 0. -1.
       -2    1    3    3    0  502  0.76939410364E+02 -0.14002630492E+04  0.13222817495E+04  0.19274556557E+04  0.25500000920E-02 0.  1.
</event>
<event>
 5   0  0.1021087E-07  0.3595750E+04  0.7818609E-02  0.8091466E-01
        2   -1    0    0  501    0  0.00000000000E+00  0.00000000000E+00  0.18671996851E+04  0.18671996851E+04  0.25500000920E-02 0.  1.
       -2   -1    0    0    0  501  0.00000000000E+00  0.00000000000E+00 -0.17311237272E+04  0.17311237272E+04  0.25500000920E-02 0. -1.
    10030    2    1    2    0    0  0.00000000000E+00  0.00000000000E+00  0.13607595791E+03  0.35983234122E+04  0.35957495342E+04 0.  0.
        3    1    3    3  502    0 -0.79354140230E+03  0.29241653517E+03 -0.15196468646E+04  0.17391210396E+04  0.10100000352E+00 0. -1.
       -3    1    3    3    0  502  0.79354140230E+03 -0.29241653517E+03  0.16557228225E+04  0.18592023726E+04  0.10100000352E+00 0.  1.
</event>
<event>
 5   0  0.1044678E-07  0.3597620E+04  0.7818609E-02  0.8091037E-01
        2   -1    0    0  501    0  0.00000000000E+00  0.00000000000E+00  0.30195830422E+04  0.30195830422E+04  0.25500000920E-02 0. -1.
       -2   -1    0    0    0  501  0.00000000000E+00  0.00000000000E+00 -0.10715773927E+04  0.10715773927E+04  0.25500000920E-02 0.  1.
    10030    2    1    2    0    0  0.00000000000E+00  0.00000000000E+00  0.19480056494E+04  0.40911604349E+04  0.35976197262E+04 0.  0.
        2    1    3    3  502    0 -0.18321212594E+03  0.67843701327E+02  0.30074821225E+04  0.30138211904E+04  0.25500000920E-02 0. -1.
       -2    1    3    3    0  502  0.18321212594E+03 -0.67843701327E+02 -0.10594764730E+04  0.10773392445E+04  0.25500000920E-02 0.  1.
</event>
<event>
 5   0  0.1017794E-07  0.3599621E+04  0.7818609E-02  0.8090579E-01
        2   -1    0    0  501    0  0.00000000000E+00  0.00000000000E+00  0.21735514228E+04  0.21735514228E+04  0.25500000920E-02 0. -1.
       -2   -1    0    0    0  501  0.00000000000E+00  0.00000000000E+00 -0.14903339961E+04  0.14903339961E+04  0.25500000920E-02 0.  1.
    10030    2    1    2    0    0  0.00000000000E+00  0.00000000000E+00  0.68321742670E+03  0.36638854189E+04  0.35996208565E+04 0.  0.
        1    1    3    3  502    0  0.35298134734E+03  0.83294681519E+03 -0.12421005761E+04  0.15366229432E+04  0.50400001928E-02 0.  1.
       -1    1    3    3    0  502 -0.35298134734E+03 -0.83294681519E+03  0.19253180028E+04  0.21272624757E+04  0.50400001928E-02 0. -1.
</event>
<event>
 5   0  0.3279988E-08  0.3600536E+04  0.7818609E-02  0.8090369E-01
       -1   -1    0    0    0  501  0.00000000000E+00  0.00000000000E+00  0.17641723281E+04  0.17641723281E+04  0.50400001928E-02 0.  1.
        1   -1    0    0  501    0  0.00000000000E+00  0.00000000000E+00 -0.18371018425E+04  0.18371018425E+04  0.50400001928E-02 0. -1.
    10030    2    1    2    0    0  0.00000000000E+00  0.00000000000E+00 -0.72929514417E+02  0.36012741705E+04  0.36005356459E+04 0.  0.
        5    1    3    3  502    0 -0.15393980868E+04 -0.74717590629E+03  0.52304594316E+03  0.17893064168E+04  0.46999998093E+01 0.  1.
       -5    1    3    3    0  502  0.15393980868E+04  0.74717590629E+03 -0.59597545757E+03  0.18119677537E+04  0.46999998093E+01 0. -1.
</event>
<event>
 5   0  0.9905335E-08  0.3579864E+04  0.7818609E-02  0.8095120E-01
       -2   -1    0    0    0  501  0.00000000000E+00  0.00000000000E+00  0.15617188062E+04  0.15617188062E+04  0.25500000920E-02 0. -1.
        2   -1    0    0  501    0  0.00000000000E+00  0.00000000000E+00 -0.20514938086E+04  0.20514938086E+04  0.25500000920E-02 0.  1.
    10030    2    1    2    0    0  0.00000000000E+00  0.00000000000E+00 -0.48977500231E+03  0.36132126148E+04  0.35798639425E+04 0.  0.
        5    1    3    3  502    0  0.13858970290E+04 -0.91987373249E+03 -0.91207193713E+03  0.18970439023E+04  0.46999998093E+01 0.  1.
       -5    1    3    3    0  502 -0.13858970290E+04  0.91987373249E+03  0.42229693482E+03  0.17161687125E+04  0.46999998093E+01 0. -1.
</event>
<event>
 5   0  0.1029908E-07  0.3602534E+04  0.7818609E-02  0.8089912E-01
        2   -1    0    0  501    0  0.00000000000E+00  0.00000000000E+00  0.31935881192E+04  0.31935881192E+04  0.25500000920E-02 0.  1.
       -2   -1    0    0    0  501  0.00000000000E+00  0.00000000000E+00 -0.10159615108E+04  0.10159615108E+04  0.25500000920E-02 0. -1.
    10030    2    1    2    0    0  0.00000000000E+00  0.00000000000E+00  0.21776266084E+04  0.42095496299E+04  0.36025338918E+04 0.  0.
        4    1    3    3  502    0 -0.26570656032E+02 -0.36622975535E+03  0.31493908070E+04  0.31707245705E+04  0.12699999809E+01 0.  1.
       -4    1    3    3    0  502  0.26570656032E+02  0.36622975535E+03 -0.97176419866E+03  0.10388250595E+04  0.12699999809E+01 0. -1.
</event>
<event>
 5   0  0.1044678E-07  0.3598967E+04  0.7818609E-02  0.8090728E-01
        2   -1    0    0  501    0  0.00000000000E+00  0.00000000000E+00  0.18738693899E+04  0.18738693899E+04  0.25500000920E-02 0.  1.
       -2   -1    0    0    0  501  0.00000000000E+00  0.00000000000E+00 -0.17280506225E+04  0.17280506225E+04  0.25500000920E-02 0. -1.
    10030    2    1    2    0    0  0.00000000000E+00  0.00000000000E+00  0.14581876733E+03  0.36019200124E+04  0.35989671661E+04 0.  0.
        2    1    3    3  502    0  0.59192257963E+03 -0.13753557393E+04 -0.92599037853E+03  0.17605209261E+04  0.25500000920E-02 0. -1.
       -2    1    3    3    0  502 -0.59192257963E+03  0.13753557393E+04  0.10718091459E+04  0.18413990863E+04  0.25500000920E-02 0.  1.
</event>
<event>
 5   0  0.3279988E-08  0.3605463E+04  0.7818609E-02  0.8089241E-01
        1   -1    0    0  501    0  0.00000000000E+00  0.00000000000E+00  0.19131628698E+04  0.19131628698E+04  0.50400001928E-02 0.  1.
       -1   -1    0    0    0  501  0.00000000000E+00  0.00000000000E+00 -0.16986746385E+04  0.16986746385E+04  0.50400001928E-02 0. -1.
    10030    2    1    2    0    0  0.00000000000E+00  0.00000000000E+00  0.21448823128E+03  0.36118375084E+04  0.36054632137E+04 0.  0.
        5    1    3    3  502    0  0.10522549744E+04 -0.13589776464E+04 -0.43755408632E+03  0.17735660244E+04  0.46999998093E+01 0.  1.
       -5    1    3    3    0  502 -0.10522549744E+04  0.13589776464E+04  0.65204231760E+03  0.18382714839E+04  0.46999998093E+01 0. -1.
</event>
<event>
 5   0  0.3279988E-08  0.3599919E+04  0.7818609E-02  0.8090510E-01
       -1   -1    0    0    0  501  0.00000000000E+00  0.00000000000E+00  0.14020515548E+04  0.14020515548E+04  0.50400001928E-02 0. -1.
        1   -1    0    0  501    0  0.00000000000E+00  0.00000000000E+00 -0.23107957931E+04  0.23107957931E+04  0.50400001928E-02 0.  1.
    10030    2    1    2    0    0  0.00000000000E+00  0.00000000000E+00 -0.90874423827E+03  0.37128473479E+04  0.35999193516E+04 0.  0.
        5    1    3    3  502    0  0.37840515979E+03  0.12591020601E+04  0.81354328648E+03  0.15460928923E+04  0.46999998093E+01 0. -1.
       -5    1    3    3    0  502 -0.37840515979E+03 -0.12591020601E+04 -0.17222875248E+04  0.21667544556E+04  0.46999998093E+01 0.  1.
</event>
<event>
 5   0  0.1017794E-07  0.3608498E+04  0.7818609E-02  0.8088548E-01
       -2   -1    0    0    0  501  0.00000000000E+00  0.00000000000E+00  0.18050372370E+04  0.18050372370E+04  0.25500000920E-02 0.  1.
        2   -1    0    0  501    0  0.00000000000E+00  0.00000000000E+00 -0.18034614677E+04  0.18034614677E+04  0.25500000920E-02 0. -1.
    10030    2    1    2    0    0  0.00000000000E+00  0.00000000000E+00  0.15757692947E+01  0.36084987047E+04  0.36084983606E+04 0.  0.
        1    1    3    3  502    0  0.34687723821E+03 -0.15740736468E+04 -0.80994238248E+03  0.18038953204E+04  0.50400001928E-02 0. -1.
       -1    1    3    3    0  502 -0.34687723821E+03  0.15740736468E+04  0.81151815177E+03  0.18046033843E+04  0.50400001928E-02 0.  1.
</event>
<event>
 5   0  0.9905335E-08  0.3617376E+04  0.7818609E-02  0.8086523E-01
       -2   -1    0    0    0  501  0.00000000000E+00  0.00000000000E+00  0.32031311655E+04  0.32031311655E+04  0.25500000920E-02 0. -1.
        2   -1    0    0  501    0  0.00000000000E+00  0.00000000000E+00 -0.10212981832E+04  0.10212981832E+04  0.25500000920E-02 0.  1.
    10030    2    1    2    0    0  0.00000000000E+00  0.00000000000E+00  0.21818329823E+04  0.42244293488E+04  0.36173758666E+04 0.  0.
        5    1    3    3  502    0 -0.34618892791E+03  0.12479707986E+04  0.25653516048E+04  0.28737308214E+04  0.46999998093E+01 0. -1.
       -5    1    3    3    0  502  0.34618892791E+03 -0.12479707986E+04 -0.38351862245E+03  0.13506985274E+04  0.46999998093E+01 0.  1.
</event>
<event>
 5   0  0.9905335E-08  0.3603728E+04  0.7818609E-02  0.8089638E-01
       -2   -1    0    0    0  501  0.00000000000E+00  0.00000000000E+00  0.14571042349E+04  0.14571042349E+04  0.25500000920E-02 0. -1.
        2   -1    0    0  501    0  0.00000000000E+00  0.00000000000E+00 -0.22281964976E+04  0.22281964976E+04  0.25500000920E-02 0.  1.
    10030    2    1    2    0    0  0.00000000000E+00  0.00000000000E+00 -0.77109226271E+03  0.36853007325E+04  0.36037283765E+04 0.  0.
        5    1    3    3  502    0  0.16739831707E+04  0.56936825327E+03 -0.30863159472E+02  0.17684384321E+04  0.46999998093E+01 0.  1.
       -5    1    3    3    0  502 -0.16739831707E+04 -0.56936825327E+03 -0.74022910323E+03  0.19168623004E+04  0.46999998093E+01 0. -1.
</event>
<event>
 5   0  0.3215494E-08  0.3599368E+04  0.7818609E-02  0.8090636E-01
        1   -1    0    0  501    0  0.00000000000E+00  0.00000000000E+00  0.21801078892E+04  0.21801078892E+04  0.50400001928E-02 0. -1.
       -1   -1    0    0    0  501  0.00000000000E+00  0.00000000000E+00 -0.14856435976E+04  0.14856435976E+04  0.50400001928E-02 0.  1.
    10030    2    1    2    0    0  0.00000000000E+00  0.00000000000E+00  0.69446429158E+03  0.36657514868E+04  0.35993684600E+04 0.  0.
        4    1    3    3  502    0  0.12591055541E+04  0.77439996883E+03  0.13927220656E+04  0.20309402928E+04  0.12699999809E+01 0. -1.
       -4    1    3    3    0  502 -0.12591055541E+04 -0.77439996883E+03 -0.69825777401E+03  0.16348111940E+04  0.12699999809E+01 0.  1.
</event>
<event>
 5   0  0.3215494E-08  0.3596463E+04  0.7818609E-02  0.8091302E-01
        1   -1    0    0  501    0  0.00000000000E+00  0.00000000000E+00  0.18999555663E+04  0.18999555663E+04  0.50400001928E-02 0. -1.
       -1   -1    0    0    0  501  0.00000000000E+00  0.00000000000E+00 -0.17019534839E+04  0.17019534839E+04  0.50400001928E-02 0.  1.
    10030    2    1    2    0    0  0.00000000000E+00  0.00000000000E+00  0.19800208242E+03  0.36019090502E+04  0.35964627040E+04 0.  0.
        4    1    3    3  502    0 -0.13614998054E+04 -0.36557317317E+03 -0.10190716312E+04  0.17394924742E+04  0.12699999809E+01 0. -1.
       -4    1    3    3    0  502  0.13614998054E+04  0.36557317317E+03  0.12170737137E+04  0.18624165760E+04  0.12699999809E+01 0.  1.
</event>
<event>
 5   0  0.3202875E-08  0.3492536E+04  0.7818609E-02  0.8115561E-01
        1   -1    0    0  501    0  0.00000000000E+00  0.00000000000E+00  0.15913869820E+04  0.15913869820E+04  0.50400001928E-02 0. -1.
       -1   -1    0    0    0  501  0.00000000000E+00  0.00000000000E+00 -0.19162228369E+04  0.19162228369E+04  0.50400001928E-02 0.  1.
    10030    2    1    2    0    0  0.00000000000E+00  0.00000000000E+00 -0.32483585488E+03  0.35076098189E+04  0.34925360856E+04 0.  0.
        2    1    3    3  502    0  0.13155331739E+04 -0.42878206105E+03  0.90753004459E+03  0.16547182145E+04  0.25500000920E-02 0. -1.
       -2    1    3    3    0  502 -0.13155331739E+04  0.42878206105E+03 -0.12323658995E+04  0.18528916044E+04  0.25500000920E-02 0.  1.
</event>
<event>
 5   0  0.1017794E-07  0.3599146E+04  0.7818609E-02  0.8090687E-01
       -2   -1    0    0    0  501  0.00000000000E+00  0.00000000000E+00  0.25093531206E+04  0.25093531206E+04  0.25500000920E-02 0. -1.
        2   -1    0    0  501    0  0.00000000000E+00  0.00000000000E+00 -0.12905567997E+04  0.12905567997E+04  0.25500000920E-02 0.  1.
    10030    2    1    2    0    0  0.00000000000E+00  0.00000000000E+00  0.12187963209E+04  0.37999099203E+04  0.35991458612E+04 0.  0.
        1    1    3    3  502    0 -0.33916044821E+03  0.13030664022E+04  0.18699188587E+04  0.23042587520E+04  0.50400001928E-02 0. -1.
       -1    1    3    3    0  502  0.33916044821E+03 -0.13030664022E+04 -0.65112253773E+03  0.14956511683E+04  0.50400001928E-02 0.  1.
</event>
<event>
 5   0  0.9905335E-08  0.3596045E+04  0.7818609E-02  0.8091398E-01
        2   -1    0    0  501    0  0.00000000000E+00  0.00000000000E+00  0.20183944412E+04  0.20183944412E+04  0.25500000920E-02 0.  1.
       -2   -1    0    0    0  501  0.00000000000E+00  0.00000000000E+00 -0.16017113198E+04  0.16017113198E+04  0.25500000920E-02 0. -1.
    10030    2    1    2    0    0  0.00000000000E+00  0.00000000000E+00  0.41668312132E+03  0.36201057610E+04  0.35960451745E+04 0.  0.
        5    1    3    3  502    0 -0.35470326146E+03  0.15236862754E+04  0.11005155316E+04  0.19127443098E+04  0.46999998093E+01 0.  1.
       -5    1    3    3    0  502  0.35470326146E+03 -0.15236862754E+04 -0.68383241028E+03  0.17073614512E+04  0.46999998093E+01 0. -1.
</event>
<event>
 5   0  0.1021087E-07  0.3603355E+04  0.7818609E-02  0.8089724E-01
        2   -1    0    0  501    0  0.00000000000E+00  0.00000000000E+00  0.11928995782E+04  0.11928995783E+04  0.25500000920E-02 0.  1.
       -2   -1    0    0    0  501  0.00000000000E+00  0.00000000000E+00 -0.27211364725E+04  0.27211364725E+04  0.25500000920E-02 0. -1.
    10030    2    1    2    0    0  0.00000000000E+00  0.00000000000E+00 -0.15282368942E+04  0.39140360507E+04  0.36033554087E+04 0.  0.
        3    1    3    3  502    0  0.22338101269E+03 -0.32126711849E+03 -0.26744239663E+04  0.27028975563E+04  0.10100000352E+00 0. -1.
       -3    1    3    3    0  502 -0.22338101269E+03  0.32126711849E+03  0.11461870721E+04  0.12111384944E+04  0.10100000352E+00 0.  1.
</event>
<event>
 5   0  0.3202875E-08  0.3600415E+04  0.7818609E-02  0.8090397E-01
        1   -1    0    0  501    0  0.00000000000E+00  0.00000000000E+00  0.14448191445E+04  0.14448191445E+04  0.50400001928E-02 0.  1.
       -1   -1    0    0    0  501  0.00000000000E+00  0.00000000000E+00 -0.22430127226E+04  0.22430127226E+04  0.50400001928E-02 0. -1.
    10030    2    1    2    0    0  0.00000000000E+00  0.00000000000E+00 -0.79819357812E+03  0.36878318671E+04  0.36004153777E+04 0.  0.
        1    1    3    3  502    0 -0.27939693647E+03 -0.17774209586E+04 -0.45934507409E+03  0.18569560601E+04  0.50400001928E-02 0. -1.
       -1    1    3    3    0  502  0.27939693647E+03  0.17774209586E+04 -0.33884850403E+03  0.18308758070E+04  0.50400001928E-02 0.  1.
</event>
<event>
 5   0  0.1017794E-07  0.3600198E+04  0.7818609E-02  0.8090446E-01
        2   -1    0    0  501    0  0.00000000000E+00  0.00000000000E+00  0.19580182881E+04  0.19580182881E+04  0.25500000920E-02 0. -1.
       -2   -1    0    0    0  501  0.00000000000E+00  0.00000000000E+00 -0.16549164871E+04  0.16549164871E+04  0.25500000920E-02 0.  1.
    10030    2    1    2    0    0  0.00000000000E+00  0.00000000000E+00  0.30310180097E+03  0.36129347752E+04  0.36001981873E+04 0.  0.
        1    1    3    3  502    0  0.13966518589E+04 -0.80714397658E+03 -0.65017397490E+03  0.17392078690E+04  0.50400001928E-02 0.  1.
       -1    1    3    3    0  502 -0.13966518589E+04  0.80714397658E+03  0.95327577586E+03  0.18737269062E+04  0.50400001928E-02 0. -1.
</event>
<event>
 5   0  0.3215494E-08  0.3597276E+04  0.7818609E-02  0.8091116E-01
       -1   -1    0    0    0  501  0.00000000000E+00  0.00000000000E+00  0.13357982587E+04  0.13357982588E+04  0.50400001928E-02 0.  1.
        1   -1    0    0  501    0  0.00000000000E+00  0.00000000000E+00 -0.24218463758E+04  0.24218463758E+04  0.50400001928E-02 0. -1.
    10030    2    1    2    0    0  0.00000000000E+00  0.00000000000E+00 -0.10860481170E+04  0.37576446345E+04  0.35972757313E+04 0.  0.
        4    1    3    3  502    0 -0.17681255467E+04  0.19568513388E+03 -0.26559803165E+03  0.17986396381E+04  0.12699999809E+01 0.  1.
       -4    1    3    3    0  502  0.17681255467E+04 -0.19568513388E+03 -0.82045008540E+03  0.19590049964E+04  0.12699999809E+01 0. -1.
</event>
<event>
 5   0  0.1021087E-07  0.3606097E+04  0.7818609E-02  0.8089096E-01
        2   -1    0    0  501    0  0.00000000000E+00  0.00000000000E+00  0.20957924727E+04  0.20957924727E+04  0.25500000920E-02 0.  1.
       -2   -1    0    0    0  501  0.00000000000E+00  0.00000000000E+00 -0.15511956465E+04  0.15511956465E+04  0.25500000920E-02 0. -1.
    10030    2    1    2    0    0  0.00000000000E+00  0.00000000000E+00  0.54459682619E+03  0.36469881193E+04  0.36060971477E+04 0.  0.
        3    1    3    3  502    0 -0.38025515469E+03 -0.17624171340E+04  0.28910042595E+03  0.18260030678E+04  0.10100000352E+00 0. -1.
       -3    1    3    3    0  502  0.38025515469E+03  0.17624171340E+04  0.25549640024E+03  0.18209850515E+04  0.10100000352E+00 0.  1.
</event>
<event>
 5   0  0.1029908E-07  0.3602304E+04  0.7818609E-02  0.8089964E-01
       -2   -1    0    0    0  501  0.00000000000E+00  0.00000000000E+00  0.20811335649E+04  0.20811335649E+04  0.25500000920E-02 0.  1.
        2   -1    0    0  501    0  0.00000000000E+00  0.00000000000E+00 -0.15588369341E+04  0.15588369341E+04  0.25500000920E-02 0. -1.
    10030    2    1    2    0    0  0.00000000000E+00  0.00000000000E+00  0.52229663075E+03  0.36399704990E+04  0.36023036328E+04 0.  0.
        4    1    3    3  502    0  0.65386383695E+03 -0.11483331402E+04 -0.97555253756E+03  0.16425319737E+04  0.12699999809E+01 0. -1.
       -4    1    3    3    0  502 -0.65386383695E+03  0.11483331402E+04  0.14978491683E+04  0.19974385252E+04  0.12699999809E+01 0.  1.
</event>
<event>
 5   0  0.3202875E-08  0.3620538E+04  0.7818609E-02  0.8085803E-01
       -1   -1    0    0    0  501  0.00000000000E+00  0.00000000000E+00  0.18248533444E+04  0.18248533444E+04  0.50400001928E-02 0.  1.
        1   -1    0    0  501    0  0.00000000000E+00  0.00000000000E+00 -0.17958007841E+04  0.17958007841E+04  0.50400001928E-02 0. -1.
    10030    2    1    2    0    0  0.00000000000E+00  0.00000000000E+00  0.29052560318E+02  0.36206541286E+04  0.36205375661E+04 0.  0.
        1    1    3    3  502    0  0.35134430466E+03 -0.17469805596E+04  0.33342394178E+03  0.18128859371E+04  0.50400001928E-02 0.  1.
       -1    1    3    3    0  502 -0.35134430466E+03  0.17469805596E+04 -0.30437138146E+03  0.18077681914E+04  0.50400001928E-02 0. -1.
</event>
<event>
 5   0  0.1017794E-07  0.3609105E+04  0.7818609E-02  0.8088409E-01
       -2   -1    0    0    0  501  0.00000000000E+00  0.00000000000E+00  0.99969815455E+03  0.99969815455E+03  0.25500000920E-02 0.  1.
        2   -1    0    0  501    0  0.00000000000E+00  0.00000000000E+00 -0.32573932052E+04  0.32573932052E+04  0.25500000920E-02 0. -1.
    10030    2    1    2    0    0  0.00000000000E+00  0.00000000000E+00 -0.22576950506E+04  0.42570913597E+04  0.36091051389E+04 0.  0.
        1    1    3    3  502    0  0.26065652119E+02  0.15133433946E+04 -0.22878773117E+04  0.27432226015E+04  0.50400001928E-02 0. -1.
       -1    1    3    3    0  502 -0.26065652119E+02 -0.15133433946E+04  0.30182261052E+02  0.15138687582E+04  0.50400001928E-02 0.  1.
</event>
<event>
 5   0  0.3279988E-08  0.3612227E+04  0.7818609E-02  0.8087697E-01
        1   -1    0    0  501    0  0.00000000000E+00  0.00000000000E+00  0.21596783653E+04  0.21596783654E+04  0.50400001928E-02 0.  1.
       -1   -1    0    0    0  501  0.00000000000E+00  0.00000000000E+00 -0.15104315921E+04  0.15104315921E+04  0.50400001928E-02 0. -1.
    10030    2    1    2    0    0  0.00000000000E+00  0.00000000000E+00  0.64924677322E+03  0.36701099575E+04  0.36122272530E+04 0.  0.
        5    1    3    3  502    0  0.12017094042E+03 -0.24850822215E+03  0.21381131232E+04  0.21558634486E+04  0.46999998093E+01 0.  1.
       -5    1    3    3    0  502 -0.12017094042E+03  0.24850822215E+03 -0.14888663500E+04  0.15142465089E+04  0.46999998093E+01 0. -1.
</event>
<event>
 5   0  0.3279988E-08  0.3591680E+04  0.7818609E-02  0.8092400E-01
        1   -1    0    0  501    0  0.00000000000E+00  0.00000000000E+00  0.17745844061E+04  0.17745844061E+04  0.50400001928E-02 0.  1.
       -1   -1    0    0    0  501  0.00000000000E+00  0.00000000000E+00 -0.18173504018E+04  0.18173504018E+04  0.50400001928E-02 0. -1.
    10030    2    1    2    0    0  0.00000000000E+00  0.00000000000E+00 -0.42765995735E+02  0.35919348079E+04  0.35916802104E+04 0.  0.
        5    1    3    3  502    0 -0.16098790418E+04 -0.54787820405E+03  0.55583946239E+03  0.17890949259E+04  0.46999998093E+01 0. -1.
       -5    1    3    3    0  502  0.16098790418E+04  0.54787820405E+03 -0.59860545812E+03  0.18028398820E+04  0.46999998093E+01 0.  1.
</event>
<event>
 5   0  0.3202875E-08  0.3602857E+04  0.7818609E-02  0.8089838E-01
        1   -1    0    0  501    0  0.00000000000E+00  0.00000000000E+00  0.20088576145E+04  0.20088576145E+04  0.50400001928E-02 0.  1.
       -1   -1    0    0    0  501  0.00000000000E+00  0.00000000000E+00 -0.16154179361E+04  0.16154179361E+04  0.50400001928E-02 0. -1.
    10030    2    1    2    0    0  0.00000000000E+00  0.00000000000E+00  0.39343967845E+03  0.36242755506E+04  0.36028569894E+04 0.  0.
        1    1    3    3  502    0  0.10911123707E+03  0.21757166518E+02 -0.16119584251E+04  0.16157934895E+04  0.50400001928E-02 0. -1.
       -1    1    3    3    0  502 -0.10911123707E+03 -0.21757166518E+02  0.20053981035E+04  0.20084820612E+04  0.50400001928E-02 0.  1.
</event>
<event>
 5   0  0.3212523E-08  0.3595058E+04  0.7818609E-02  0.8091625E-01
        1   -1    0    0  501    0  0.00000000000E+00  0.00000000000E+00  0.27543564489E+04  0.27543564489E+04  0.50400001928E-02 0.  1.
       -1   -1    0    0    0  501  0.00000000000E+00  0.00000000000E+00 -0.11730911583E+04  0.11730911583E+04  0.50400001928E-02 0. -1.
    10030    2    1    2    0    0  0.00000000000E+00  0.00000000000E+00  0.15812652906E+04  0.39274476071E+04  0.35950583845E+04 0.  0.
        3    1    3    3  502    0 -0.12936907098E+04  0.10051582729E+04 -0.17440476488E+02  0.16383781574E+04  0.10100000352E+00 0.  1.
       -3    1    3    3    0  502  0.12936907098E+04 -0.10051582729E+04  0.15987057671E+04  0.22890694498E+04  0.10100000352E+00 0. -1.
</event>
<event>
 5   0  0.3212523E-08  0.3597187E+04  0.7818609E-02  0.8091136E-01
       -1   -1    0    0    0  501  0.00000000000E+00  0.00000000000E+00  0.15231139774E+04  0.15231139774E+04  0.50400001928E-02 0.  1.
        1   -1    0    0  501    0  0.00000000000E+00  0.00000000000E+00 -0.21238975511E+04  0.21238975511E+04  0.50400001928E-02 0. -1.
    10030    2    1    2    0    0  0.00000000000E+00  0.00000000000E+00 -0.60078357365E+03  0.36470115285E+04  0.35971867045E+04 0.  0.
        3    1    3    3  502    0  0.14439225734E+03 -0.55893625454E+03  0.14266341228E+04  0.15390074045E+04  0.10100000352E+00 0.  1.
       -3    1    3    3    0  502 -0.14439225734E+03  0.55893625454E+03 -0.20274176965E+04  0.21080041240E+04  0.10100000352E+00 0. -1.
</event>
<event>
 5   0  0.3215494E-08  0.3606661E+04  0.7818609E-02  0.8088968E-01
        1   -1    0    0  501    0  0.00000000000E+00  0.00000000000E+00  0.21087940175E+04  0.21087940175E+04  0.50400001928E-02 0.  1.
       -1   -1    0    0    0  501  0.00000000000E+00  0.00000000000E+00 -0.15421136962E+04  0.15421136962E+04  0.50400001928E-02 0. -1.
    10030    2    1    2    0    0  0.00000000000E+00  0.00000000000E+00  0.56668032128E+03  0.36509077137E+04  0.36066605811E+04 0.  0.
        4    1    3    3  502    0  0.17576457936E+04  0.92369220034E+02 -0.11409302505E+03  0.17637657554E+04  0.12699999809E+01 0. -1.
       -4    1    3    3    0  502 -0.17576457936E+04 -0.92369220034E+02  0.68077334633E+03  0.18871419583E+04  0.12699999809E+01 0.  1.
</event>
<event>
 5   0  0.3212523E-08  0.3602297E+04  0.7818609E-02  0.8089966E-01
       -1   -1    0    0    0  501  0.00000000000E+00  0.00000000000E+00  0.15410217473E+04  0.15410217473E+04  0.50400001928E-02 0.  1.
        1   -1    0    0  501    0  0.00000000000E+00  0.00000000000E+00 -0.21051849837E+04  0.21051849837E+04  0.50400001928E-02 0. -1.
    10030    2    1    2    0    0  0.00000000000E+00  0.00000000000E+00 -0.56416323638E+03  0.36462067310E+04  0.36022969572E+04 0.  0.
        3    1    3    3  502    0  0.11705272263E+04 -0.12910508475E+04 -0.74281078285E+03  0.18943901783E+04  0.10100000352E+00 0. -1.
       -3    1    3    3    0  502 -0.11705272263E+04  0.12910508475E+04  0.17864754646E+03  0.17518165527E+04  0.10100000352E+00 0.  1.
</event>
<event>
 5   0  0.3202875E-08  0.3597478E+04  0.7818609E-02  0.8091070E-01
       -1   -1    0    0    0  501  0.00000000000E+00  0.00000000000E+00  0.12632148705E+04  0.12632148705E+04  0.50400001928E-02 0.  1.
        1   -1    0    0  501    0  0.00000000000E+00  0.00000000000E+00 -0.25612915764E+04  0.25612915764E+04  0.50400001928E-02 0. -1.
    10030    2    1    2    0    0  0.00000000000E+00  0.00000000000E+00 -0.12980767059E+04  0.38245064470E+04  0.35974777871E+04 0.  0.
        1    1    3    3  502    0 -0.31222020903E+03  0.11311469366E+04  0.80025737349E+03  0.14203473924E+04  0.50400001928E-02 0.  1.
       -1    1    3    3    0  502  0.31222020903E+03 -0.11311469366E+04 -0.20983340794E+04  0.24041590546E+04  0.50400001928E-02 0. -1.
</event>
<event>
 5   0  0.3279988E-08  0.3602670E+04  0.7818609E-02  0.8089880E-01
       -1   -1    0    0    0  501  0.00000000000E+00  0.00000000000E+00  0.14620788011E+04  0.14620788011E+04  0.50400001928E-02 0.  1.
        1   -1    0    0  501    0  0.00000000000E+00  0.00000000000E+00 -0.22193116601E+04  0.22193116601E+04  0.50400001928E-02 0. -1.
    10030    2    1    2    0    0  0.00000000000E+00  0.00000000000E+00 -0.75723285903E+03  0.36813904613E+04  0.36026704159E+04 0.  0.
        5    1    3    3  502    0 -0.69295091927E+03 -0.14444027915E+04  0.46297284462E+03  0.16675869828E+04  0.46999998093E+01 0.  1.
       -5    1    3    3    0  502  0.69295091927E+03  0.14444027915E+04 -0.12202057037E+04  0.20138034784E+04  0.46999998093E+01 0. -1.
</event>
<event>
 5   0  0.1021087E-07  0.3665913E+04  0.7818609E-02  0.8075558E-01
       -2   -1    0    0    0  501  0.00000000000E+00  0.00000000000E+00  0.13327922500E+04  0.13327922500E+04  0.25500000920E-02 0.  1.
        2   -1    0    0  501    0  0.00000000000E+00  0.00000000000E+00 -0.25208201089E+04  0.25208201090E+04  0.25500000920E-02 0. -1.
    10030    2    1    2    0    0  0.00000000000E+00  0.00000000000E+00 -0.11880278590E+04  0.38536123589E+04  0.36659129857E+04 0.  0.
        3    1    3    3  502    0 -0.63965050184E+03  0.17165155037E+04 -0.66174307599E+03  0.19476863577E+04  0.10100000352E+00 0.  1.
       -3    1    3    3    0  502  0.63965050184E+03 -0.17165155037E+04 -0.52628478300E+03  0.19059260012E+04  0.10100000352E+00 0. -1.
</event>
<event>
 5   0  0.1044678E-07  0.3602894E+04  0.7818609E-02  0.8089829E-01
        2   -1    0    0  501    0  0.00000000000E+00  0.00000000000E+00  0.22673615402E+04  0.22673615402E+04  0.25500000920E-02 0.  1.
       -2   -1    0    0    0  501  0.00000000000E+00  0.00000000000E+00 -0.14312721345E+04  0.14312721345E+04  0.25500000920E-02 0. -1.
    10030    2    1    2    0    0  0.00000000000E+00  0.00000000000E+00  0.83608940562E+03  0.36986336747E+04  0.36028940542E+04 0.  0.
        2    1    3    3  502    0  0.86594285741E+03 -0.61421291696E+03 -0.10759970524E+04  0.15115833409E+04  0.25500000920E-02 0. -1.
       -2    1    3    3    0  502 -0.86594285741E+03  0.61421291696E+03  0.19120864580E+04  0.21870503338E+04  0.25500000920E-02 0.  1.
</event>
<event>
 5   0  0.3279988E-08  0.3602050E+04  0.7818609E-02  0.8090022E-01
        1   -1    0    0  501    0  0.00000000000E+00  0.00000000000E+00  0.13237862044E+04  0.13237862045E+04  0.50400001928E-02 0. -1.
       -1   -1    0    0    0  501  0.00000000000E+00  0.00000000000E+00 -0.24503130224E+04  0.24503130224E+04  0.50400001928E-02 0.  1.
    10030    2    1    2    0    0  0.00000000000E+00  0.00000000000E+00 -0.11265268180E+04  0.37740992269E+04  0.36020497363E+04 0.  0.
        5    1    3    3  502    0 -0.12766106892E+03  0.68325112641E+03  0.11775833986E+04  0.13674261227E+04  0.46999998093E+01 0. -1.
       -5    1    3    3    0  502  0.12766106892E+03 -0.68325112641E+03 -0.23041102166E+04  0.24066731042E+04  0.46999998093E+01 0.  1.
</event>
<event>
 5   0  0.1021087E-07  0.3591666E+04  0.7818609E-02  0.8092403E-01
       -2   -1    0    0    0  501  0.00000000000E+00  0.00000000000E+00  0.19449508921E+04  0.19449508921E+04  0.25500000920E-02 0. -1.
        2   -1    0    0  501    0  0.00000000000E+00  0.00000000000E+00 -0.16581477549E+04  0.16581477549E+04  0.25500000920E-02 0.  1.
    10030    2    1    2    0    0  0.00000000000E+00  0.00000000000E+00  0.28680313722E+03  0.36030986471E+04  0.35916658838E+04 0.  0.
        3    1    3    3  502    0  0.12580317968E+04 -0.36044373008E+03 -0.10903310887E+04  0.17033454076E+04  0.10100000352E+00 0.  1.
       -3    1    3    3    0  502 -0.12580317968E+04  0.36044373008E+03  0.13771342260E+04  0.18997532395E+04  0.10100000352E+00 0. -1.
</event>
<event>
 5   0  0.1017794E-07  0.3594728E+04  0.7818609E-02  0.8091700E-01
       -2   -1    0    0    0  501  0.00000000000E+00  0.00000000000E+00  0.15355112929E+04  0.15355112929E+04  0.25500000920E-02 0.  1.
        2   -1    0    0  501    0  0.00000000000E+00  0.00000000000E+00 -0.21038702992E+04  0.21038702992E+04  0.25500000920E-02 0. -1.
    10030    2    1    2    0    0  0.00000000000E+00  0.00000000000E+00 -0.56835900629E+03  0.36393815921E+04  0.35947275853E+04 0.  0.
        1    1    3    3  502    0  0.11299247890E+04  0.51539452299E+03 -0.15996096088E+04  0.20251203529E+04  0.50400001928E-02 0. -1.
       -1    1    3    3    0  502 -0.11299247890E+04 -0.51539452299E+03  0.10312506026E+04  0.16142612392E+04  0.50400001928E-02 0.  1.
</event>
<event>
 5   0  0.1029908E-07  0.3603371E+04  0.7818609E-02  0.8089720E-01
        2   -1    0    0  501    0  0.00000000000E+00  0.00000000000E+00  0.23170855717E+04  0.23170855717E+04  0.25500000920E-02 0. -1.
       -2   -1    0    0    0  501  0.00000000000E+00  0.00000000000E+00 -0.14009283418E+04  0.14009283418E+04  0.25500000920E-02 0.  1.
    10030    2    1    2    0    0  0.00000000000E+00  0.00000000000E+00  0.91615722992E+03  0.37180139136E+04  0.36033711149E+04 0.  0.
        4    1    3    3  502    0 -0.17673653021E+03  0.15014461874E+04 -0.55314934733E+03  0.16098298880E+04  0.12699999809E+01 0.  1.
       -4    1    3    3    0  502  0.17673653021E+03 -0.15014461874E+04  0.14693065773E+04  0.21081840256E+04  0.12699999809E+01 0. -1.
</event>
<event>
 5   0  0.1044678E-07  0.3616666E+04  0.7818609E-02  0.8086685E-01
        2   -1    0    0  501    0  0.00000000000E+00  0.00000000000E+00  0.21360787853E+04  0.21360787853E+04  0.25500000920E-02 0.  1.
       -2   -1    0    0    0  501  0.00000000000E+00  0.00000000000E+00 -0.15308745602E+04  0.15308745602E+04  0.25500000920E-02 0. -1.
    10030    2    1    2    0    0  0.00000000000E+00  0.00000000000E+00  0.60520422513E+03  0.36669533455E+04  0.36166662389E+04 0.  0.
        2    1    3    3  502    0  0.84841618393E+03  0.54134884755E+03 -0.12206857455E+04  0.15820689888E+04  0.25500000920E-02 0. -1.
       -2    1    3    3    0  502 -0.84841618393E+03 -0.54134884755E+03  0.18258899707E+04  0.20848843567E+04  0.25500000920E-02 0.  1.
</event>
<event>
 5   0  0.3279988E-08  0.3578471E+04  0.7818609E-02  0.8095441E-01
       -1   -1    0    0    0  501  0.00000000000E+00  0.00000000000E+00  0.22185675756E+04  0.22185675756E+04  0.50400001928E-02 0.  1.
        1   -1    0    0  501    0  0.00000000000E+00  0.00000000000E+00 -0.14429867371E+04  0.14429867371E+04  0.50400001928E-02 0. -1.
    10030    2    1    2    0    0  0.00000000000E+00  0.00000000000E+00  0.77558083851E+03  0.36615543128E+04  0.35784709512E+04 0.  0.
        5    1    3    3  502    0  0.73663465585E+03 -0.11205783040E+04  0.15997807750E+04  0.20874977772E+04  0.46999998093E+01 0.  1.
       -5    1    3    3    0  502 -0.73663465585E+03  0.11205783040E+04 -0.82419993654E+03  0.15740565355E+04  0.46999998093E+01 0. -1.
</event>
<event>
 5   0  0.1044678E-07  0.3628273E+04  0.7818609E-02  0.8084046E-01
        2   -1    0    0  501    0  0.00000000000E+00  0.00000000000E+00  0.18379100525E+04  0.18379100525E+04  0.25500000920E-02 0. -1.
       -2   -1    0    0    0  501  0.00000000000E+00  0.00000000000E+00 -0.17906704330E+04  0.17906704330E+04  0.25500000920E-02 0.  1.
    10030    2    1    2    0    0  0.00000000000E+00  0.00000000000E+00  0.47239619526E+02  0.36285804855E+04  0.36282729719E+04 0.  0.
        2    1    3    3  502    0 -0.52694530585E+03 -0.22004087719E+03  0.17456838226E+04  0.18367093813E+04  0.25500000920E-02 0. -1.
       -2    1    3    3    0  502  0.52694530585E+03  0.22004087719E+03 -0.16984442031E+04  0.17918711042E+04  0.25500000920E-02 0.  1.
</event>
<event>
 5   0  0.3279988E-08  0.3593490E+04  0.7818609E-02  0.8091984E-01
       -1   -1    0    0    0  501  0.00000000000E+00  0.00000000000E+00  0.20475231380E+04  0.20475231381E+04  0.50400001928E-02 0. -1.
        1   -1    0    0  501    0  0.00000000000E+00  0.00000000000E+00 -0.15766820133E+04  0.15766820133E+04  0.50400001928E-02 0.  1.
    10030    2    1    2    0    0  0.00000000000E+00  0.00000000000E+00  0.47084112475E+03  0.36242051514E+04  0.35934901717E+04 0.  0.
        5    1    3    3  502    0  0.12591636014E+04  0.10461051854E+04 -0.51147792102E+03  0.17150687414E+04  0.46999998093E+01 0.  1.
       -5    1    3    3    0  502 -0.12591636014E+04 -0.10461051854E+04  0.98231904576E+03  0.19091364099E+04  0.46999998093E+01 0. -1.
</event>
<event>
 5   0  0.3215494E-08  0.3601367E+04  0.7818609E-02  0.8090179E-01
       -1   -1    0    0    0  501  0.00000000000E+00  0.00000000000E+00  0.14199706239E+04  0.14199706239E+04  0.50400001928E-02 0.  1.
        1   -1    0    0  501    0  0.00000000000E+00  0.00000000000E+00 -0.22834700636E+04  0.22834700636E+04  0.50400001928E-02 0. -1.
    10030    2    1    2    0    0  0.00000000000E+00  0.00000000000E+00 -0.86349943967E+03  0.37034406875E+04  0.36013666356E+04 0.  0.
        4    1    3    3  502    0  0.16299201528E+04 -0.26832797709E+03  0.30537880414E+03  0.16798504203E+04  0.12699999809E+01 0.  1.
       -4    1    3    3    0  502 -0.16299201528E+04  0.26832797709E+03 -0.11688782438E+04  0.20235902672E+04  0.12699999809E+01 0. -1.
</event>
<event>
 5   0  0.3202875E-08  0.3610568E+04  0.7818609E-02  0.8088075E-01
       -1   -1    0    0    0  501  0.00000000000E+00  0.00000000000E+00  0.18327058629E+04  0.18327058629E+04  0.50400001928E-02 0. -1.
        1   -1    0    0  501    0  0.00000000000E+00  0.00000000000E+00 -0.17782725126E+04  0.17782725126E+04  0.50400001928E-02 0.  1.
    10030    2    1    2    0    0  0.00000000000E+00  0.00000000000E+00  0.54433350313E+02  0.36109783754E+04  0.36105680769E+04 0.  0.
        2    1    3    3  502    0 -0.99332155151E+03  0.14639338677E+04  0.38678553566E+03  0.18109094743E+04  0.25500000920E-02 0.  1.
       -2    1    3    3    0  502  0.99332155151E+03 -0.14639338677E+04 -0.33235218535E+03  0.18000689011E+04  0.25500000920E-02 0. -1.
</event>
<event>
 5   0  0.3215494E-08  0.3608242E+04  0.7818609E-02  0.8088606E-01
        1   -1    0    0  501    0  0.00000000000E+00  0.00000000000E+00  0.19089460227E+04  0.19089460227E+04  0.50400001928E-02 0.  1.
       -1   -1    0    0    0  501  0.00000000000E+00  0.00000000000E+00 -0.17050525480E+04  0.17050525480E+04  0.50400001928E-02 0. -1.
    10030    2    1    2    0    0  0.00000000000E+00  0.00000000000E+00  0.20389347466E+03  0.36139985707E+04  0.36082423865E+04 0.  0.
        4    1    3    3  502    0  0.17791314460E+04 -0.28266878253E+03  0.20029362442E+03  0.18125477902E+04  0.12699999809E+01 0. -1.
       -4    1    3    3    0  502 -0.17791314460E+04  0.28266878253E+03  0.35998502409E+01  0.18014507805E+04  0.12699999809E+01 0.  1.
</event>
<event>
 5   0  0.1017794E-07  0.3599633E+04  0.7818609E-02  0.8090576E-01
       -2   -1    0    0    0  501  0.00000000000E+00  0.00000000000E+00  0.13138313382E+04  0.13138313382E+04  0.25500000920E-02 0.  1.
        2   -1    0    0  501    0  0.00000000000E+00  0.00000000000E+00 -0.24655674882E+04  0.24655674882E+04  0.25500000920E-02 0. -1.
    10030    2    1    2    0    0  0.00000000000E+00  0.00000000000E+00 -0.11517361500E+04  0.37793988264E+04  0.35996332215E+04 0.  0.
        1    1    3    3  502    0  0.16006980896E+04  0.82051293900E+03 -0.64113327088E+03  0.19095883661E+04  0.50400001928E-02 0. -1.
       -1    1    3    3    0  502 -0.16006980896E+04 -0.82051293900E+03 -0.51060287915E+03  0.18698104602E+04  0.50400001928E-02 0.  1.
</event>
<event>
 5   0  0.1029908E-07  0.3603378E+04  0.7818609E-02  0.8089718E-01
       -2   -1    0    0    0  501  0.00000000000E+00  0.00000000000E+00  0.16012169669E+04  0.16012169669E+04  0.25500000920E-02 0.  1.
        2   -1    0    0  501    0  0.00000000000E+00  0.00000000000E+00 -0.20272599060E+04  0.20272599060E+04  0.25500000920E-02 0. -1.
    10030    2    1    2    0    0  0.00000000000E+00  0.00000000000E+00 -0.42604293911E+03  0.36284768730E+04  0.36033778364E+04 0.  0.
        4    1    3    3  502    0  0.38568998055E+03  0.49285694692E+03 -0.19142914415E+04  0.20139955479E+04  0.12699999809E+01 0. -1.
       -4    1    3    3    0  502 -0.38568998055E+03 -0.49285694692E+03  0.14882485024E+04  0.16144813251E+04  0.12699999809E+01 0.  1.
</event>
<event>
 5   0  0.3212523E-08  0.3599320E+04  0.7818609E-02  0.8090648E-01
        1   -1    0    0  501    0  0.00000000000E+00  0.00000000000E+00  0.22281798117E+04  0.22281798118E+04  0.50400001928E-02 0.  1.
       -1   -1    0    0    0  501  0.00000000000E+00  0.00000000000E+00 -0.14535520057E+04  0.14535520057E+04  0.50400001928E-02 0. -1.
    10030    2    1    2    0    0  0.00000000000E+00  0.00000000000E+00  0.77462780608E+03  0.36817318174E+04  0.35993195103E+04 0.  0.
        3    1    3    3  502    0 -0.11154277732E+04  0.13908746210E+04  0.13662304441E+03  0.17881211355E+04  0.10100000352E+00 0.  1.
       -3    1    3    3    0  502  0.11154277732E+04 -0.13908746210E+04  0.63800476167E+03  0.18936106819E+04  0.10100000352E+00 0. -1.
</event>
<event>
 5   0  0.1021087E-07  0.3577157E+04  0.7818609E-02  0.8095744E-01
        2   -1    0    0  501    0  0.00000000000E+00  0.00000000000E+00  0.17326619881E+04  0.17326619881E+04  0.25500000920E-02 0.  1.
       -2   -1    0    0    0  501  0.00000000000E+00  0.00000000000E+00 -0.18462998796E+04  0.18462998796E+04  0.25500000920E-02 0. -1.
    10030    2    1    2    0    0  0.00000000000E+00  0.00000000000E+00 -0.11363789149E+03  0.35789618677E+04  0.35771573184E+04 0.  0.
        3    1    3    3  502    0 -0.25181062064E+03 -0.79694677744E+02 -0.18266810228E+04  0.18456769488E+04  0.10100000352E+00 0. -1.
       -3    1    3    3    0  502  0.25181062064E+03  0.79694677744E+02  0.17130431313E+04  0.17332849189E+04  0.10100000352E+00 0.  1.
</event>
<event>
 5   0  0.3212523E-08  0.3605758E+04  0.7818609E-02  0.8089174E-01
        1   -1    0    0  501    0  0.00000000000E+00  0.00000000000E+00  0.17901142758E+04  0.17901142758E+04  0.50400001928E-02 0.  1.
       -1   -1    0    0    0  501  0.00000000000E+00  0.00000000000E+00 -0.18157343954E+04  0.18157343954E+04  0.50400001928E-02 0. -1.
    10030    2    1    2    0    0  0.00000000000E+00  0.00000000000E+00 -0.25620119660E+02  0.36058486712E+04  0.36057576526E+04 0.  0.
        3    1    3    3  502    0 -0.24236934127E+03  0.16355622286E+04 -0.73155301111E+03  0.18080311169E+04  0.10100000352E+00 0. -1.
       -3    1    3    3    0  502  0.24236934127E+03 -0.16355622286E+04  0.70593289145E+03  0.17978175543E+04  0.10100000352E+00 0.  1.
</event>
<event>
 5   0  0.3202875E-08  0.3594531E+04  0.7818609E-02  0.8091746E-01
       -1   -1    0    0    0  501  0.00000000000E+00  0.00000000000E+00  0.12418516514E+04  0.12418516515E+04  0.50400001928E-02 0.  1.
        1   -1    0    0  501    0  0.00000000000E+00  0.00000000000E+00 -0.26010859032E+04  0.26010859032E+04  0.50400001928E-02 0. -1.
    10030    2    1    2    0    0  0.00000000000E+00  0.00000000000E+00 -0.13592342518E+04  0.38429375547E+04  0.35945307479E+04 0.  0.
        2    1    3    3  502    0 -0.11262724466E+04 -0.12831980948E+04 -0.79510139345E+02  0.17092129290E+04  0.25500000920E-02 0.  1.
       -2    1    3    3    0  502  0.11262724466E+04  0.12831980948E+04 -0.12797241124E+04  0.21337246257E+04  0.25500000920E-02 0. -1.
</event>
<event>
 5   0  0.1044678E-07  0.3599013E+04  0.7818609E-02  0.8090718E-01
        2   -1    0    0  501    0  0.00000000000E+00  0.00000000000E+00  0.20998654705E+04  0.20998654705E+04  0.25500000920E-02 0.  1.
       -2   -1    0    0    0  501  0.00000000000E+00  0.00000000000E+00 -0.15421098800E+04  0.15421098800E+04  0.25500000920E-02 0. -1.
    10030    2    1    2    0    0  0.00000000000E+00  0.00000000000E+00  0.55775559045E+03  0.36419753505E+04  0.35990128028E+04 0.  0.
        2    1    3    3  502    0 -0.38014031710E+03  0.16235037942E+04 -0.40592199421E+03  0.17161130196E+04  0.25500000920E-02 0.  1.
       -2    1    3    3    0  502  0.38014031710E+03 -0.16235037942E+04  0.96367758466E+03  0.19258623309E+04  0.25500000920E-02 0. -1.
</event>
<event>
 5   0  0.3202875E-08  0.3602698E+04  0.7818609E-02  0.8089874E-01
        3   -1    0    0  501    0  0.00000000000E+00  0.00000000000E+00  0.13190918622E+04  0.13190918661E+04  0.10100000352E+00 0. -1.
       -3   -1    0    0    0  501  0.00000000000E+00  0.00000000000E+00 -0.24599187754E+04  0.24599187775E+04  0.10100000352E+00 0.  1.
    10030    2    1    2    0    0  0.00000000000E+00  0.00000000000E+00 -0.11408269132E+04  0.37790106436E+04  0.36026983496E+04 0.  0.
        3    1    3    3  502    0  0.69029046193E+03 -0.19994501530E+03 -0.23030307144E+04  0.24125566134E+04  0.10100000352E+00 0.  1.
       -3    1    3    3    0  502 -0.69029046193E+03  0.19994501530E+03  0.11622038012E+04  0.13664540302E+04  0.10100000352E+00 0. -1.
</event>
<event>
 5   0  0.3202875E-08  0.3601103E+04  0.7818609E-02  0.8090239E-01
        1   -1    0    0  501    0  0.00000000000E+00  0.00000000000E+00  0.30259529649E+04  0.30259529649E+04  0.50400001928E-02 0.  1.
       -1   -1    0    0    0  501  0.00000000000E+00  0.00000000000E+00 -0.10713933602E+04  0.10713933602E+04  0.50400001928E-02 0. -1.
    10030    2    1    2    0    0  0.00000000000E+00  0.00000000000E+00  0.19545596047E+04  0.40973463251E+04  0.36011031170E+04 0.  0.
        1    1    3    3  502    0  0.14312237760E+04 -0.94582909817E+03  0.35512750659E+03  0.17518874752E+04  0.50400001928E-02 0. -1.
       -1    1    3    3    0  502 -0.14312237760E+04  0.94582909817E+03  0.15994320981E+04  0.23454588499E+04  0.50400001928E-02 0.  1.
</event>
<event>
 5   0  0.1029908E-07  0.3601117E+04  0.7818609E-02  0.8090236E-01
       -2   -1    0    0    0  501  0.00000000000E+00  0.00000000000E+00  0.20921241922E+04  0.20921241922E+04  0.25500000920E-02 0. -1.
        2   -1    0    0  501    0  0.00000000000E+00  0.00000000000E+00 -0.15496265363E+04  0.15496265363E+04  0.25500000920E-02 0.  1.
    10030    2    1    2    0    0  0.00000000000E+00  0.00000000000E+00  0.54249765592E+03  0.36417507285E+04  0.36011171408E+04 0.  0.
        4    1    3    3  502    0 -0.35496146321E+03 -0.32968429513E+03 -0.14824814541E+04  0.15596288820E+04  0.12699999809E+01 0.  1.
       -4    1    3    3    0  502  0.35496146321E+03  0.32968429513E+03  0.20249791100E+04  0.20821218465E+04  0.12699999809E+01 0. -1.
</event>
<event>
 5   0  0.3202875E-08  0.3607653E+04  0.7818609E-02  0.8088741E-01
        1   -1    0    0  501    0  0.00000000000E+00  0.00000000000E+00  0.12427037387E+04  0.12427037388E+04  0.50400001928E-02 0. -1.
       -1   -1    0    0    0  501  0.00000000000E+00  0.00000000000E+00 -0.26183151578E+04  0.26183151578E+04  0.50400001928E-02 0.  1.
    10030    2    1    2    0    0  0.00000000000E+00  0.00000000000E+00 -0.13756114191E+04  0.38610188966E+04  0.36076529965E+04 0.  0.
        1    1    3    3  502    0  0.46773656567E+03 -0.28666602203E+03  0.11512579758E+04  0.12752842153E+04  0.50400001928E-02 0. -1.
       -1    1    3    3    0  502 -0.46773656567E+03  0.28666602203E+03 -0.25268693949E+04  0.25857346813E+04  0.50400001928E-02 0.  1.
</event>
<event>
 5   0  0.1029908E-07  0.3592264E+04  0.7818609E-02  0.8092266E-01
        2   -1    0    0  501    0  0.00000000000E+00  0.00000000000E+00  0.19072935767E+04  0.19072935767E+04  0.25500000920E-02 0. -1.
       -2   -1    0    0    0  501  0.00000000000E+00  0.00000000000E+00 -0.16914488302E+04  0.16914488302E+04  0.25500000920E-02 0.  1.
    10030    2    1    2    0    0  0.00000000000E+00  0.00000000000E+00  0.21584474654E+03  0.35987424069E+04  0.35922636258E+04 0.  0.
        4    1    3    3  502    0 -0.12513452042E+04  0.21771351742E+03  0.13801828429E+04  0.18756786208E+04  0.12699999809E+01 0. -1.
       -4    1    3    3    0  502  0.12513452042E+04 -0.21771351742E+03 -0.11643380963E+04  0.17230637862E+04  0.12699999809E+01 0.  1.
</event>
<event>
 5   0  0.9905335E-08  0.3602674E+04  0.7818609E-02  0.8089880E-01
        2   -1    0    0  501    0  0.00000000000E+00  0.00000000000E+00  0.27381960906E+04  0.27381960906E+04  0.25500000920E-02 0.  1.
       -2   -1    0    0    0  501  0.00000000000E+00  0.00000000000E+00 -0.11850189339E+04  0.11850189339E+04  0.25500000920E-02 0. -1.
    10030    2    1    2    0    0  0.00000000000E+00  0.00000000000E+00  0.15531771567E+04  0.39232150245E+04  0.36026735695E+04 0.  0.
        5    1    3    3  502    0  0.55552264731E+03 -0.71693063489E+03  0.24714021964E+04  0.26325739976E+04  0.46999998093E+01 0.  1.
       -5    1    3    3    0  502 -0.55552264731E+03  0.71693063489E+03 -0.91822503964E+03  0.12906410269E+04  0.46999998093E+01 0. -1.
</event>
<event>
 5   0  0.3215494E-08  0.3600739E+04  0.7818609E-02  0.8090322E-01
       -1   -1    0    0    0  501  0.00000000000E+00  0.00000000000E+00  0.15943004785E+04  0.15943004785E+04  0.50400001928E-02 0. -1.
        1   -1    0    0  501    0  0.00000000000E+00  0.00000000000E+00 -0.20330741212E+04  0.20330741212E+04  0.50400001928E-02 0.  1.
    10030    2    1    2    0    0  0.00000000000E+00  0.00000000000E+00 -0.43877364270E+03  0.36273745997E+04  0.36007393931E+04 0.  0.
        4    1    3    3  502    0 -0.23587099024E+03 -0.20215563403E+03 -0.20058707984E+04  0.20297835592E+04  0.12699999809E+01 0.  1.
       -4    1    3    3    0  502  0.23587099024E+03  0.20215563403E+03  0.15670971557E+04  0.15975910405E+04  0.12699999809E+01 0. -1.
</event>
<event>
 5   0  0.9905335E-08  0.3606432E+04  0.7818609E-02  0.8089020E-01
       -2   -1    0    0    0  501  0.00000000000E+00  0.00000000000E+00  0.11476407734E+04  0.11476407734E+04  0.25500000920E-02 0. -1.
        2   -1    0    0  501    0  0.00000000000E+00  0.00000000000E+00 -0.28332797761E+04  0.28332797761E+04  0.25500000920E-02 0.  1.
    10030    2    1    2    0    0  0.00000000000E+00  0.00000000000E+00 -0.16856390027E+04  0.39809205495E+04  0.36064316954E+04 0.  0.
        5    1    3    3  502    0 -0.15233242398E+04 -0.95068156867E+03 -0.66059200697E+03  0.19132997868E+04  0.46999998093E+01 0.  1.
       -5    1    3    3    0  502  0.15233242398E+04  0.95068156867E+03 -0.10250469957E+04  0.20676207626E+04  0.46999998093E+01 0. -1.
</event>
<event>
 5   0  0.3202875E-08  0.3564320E+04  0.7818609E-02  0.8098714E-01
        1   -1    0    0  501    0  0.00000000000E+00  0.00000000000E+00  0.16505650370E+04  0.16505650370E+04  0.50400001928E-02 0. -1.
       -1   -1    0    0    0  501  0.00000000000E+00  0.00000000000E+00 -0.19242463696E+04  0.19242463696E+04  0.50400001928E-02 0.  1.
    10030    2    1    2    0    0  0.00000000000E+00  0.00000000000E+00 -0.27368133256E+03  0.35748114066E+04  0.35643197277E+04 0.  0.
        2    1    3    3  502    0 -0.13076129462E+04 -0.11945117424E+04  0.62197161699E+02  0.17721677140E+04  0.25500000920E-02 0. -1.
       -2    1    3    3    0  502  0.13076129462E+04  0.11945117424E+04 -0.33587849425E+03  0.18026436926E+04  0.25500000920E-02 0.  1.
</event>
<event>
 5   0  0.1044678E-07  0.3600469E+04  0.7818609E-02  0.8090384E-01
        2   -1    0    0  501    0  0.00000000000E+00  0.00000000000E+00  0.18445055843E+04  0.18445055843E+04  0.25500000920E-02 0. -1.
       -2   -1    0    0    0  501  0.00000000000E+00  0.00000000000E+00 -0.17570262714E+04  0.17570262714E+04  0.25500000920E-02 0.  1.
    10030    2    1    2    0    0  0.00000000000E+00  0.00000000000E+00  0.87479312889E+02  0.36015318556E+04  0.36004692856E+04 0.  0.
        2    1    3    3  502    0 -0.72530485998E+03  0.30805417930E+03  0.16628217536E+04  0.18400925797E+04  0.25500000920E-02 0. -1.
       -2    1    3    3    0  502  0.72530485998E+03 -0.30805417930E+03 -0.15753424408E+04  0.17614392760E+04  0.25500000920E-02 0.  1.
</event>
<event>
 5   0  0.3279988E-08  0.3599218E+04  0.7818609E-02  0.8090671E-01
       -1   -1    0    0    0  501  0.00000000000E+00  0.00000000000E+00  0.20118616476E+04  0.20118616476E+04  0.50400001928E-02 0. -1.
        1   -1    0    0  501    0  0.00000000000E+00  0.00000000000E+00 -0.16097489666E+04  0.16097489666E+04  0.50400001928E-02 0.  1.
    10030    2    1    2    0    0  0.00000000000E+00  0.00000000000E+00  0.40211268102E+03  0.36216106142E+04  0.35992178085E+04 0.  0.
        5    1    3    3  502    0 -0.88180522027E+03 -0.15253229795E+04 -0.16780242072E+03  0.17698503837E+04  0.46999998093E+01 0. -1.
       -5    1    3    3    0  502  0.88180522027E+03  0.15253229795E+04  0.56991510174E+03  0.18517602305E+04  0.46999998093E+01 0.  1.
</event>
</LesHouchesEvents>
