<LesHouchesEvents version="3.0">
<header>
<!--
#*********************************************************************
#                                                                    *
#                        MadGraph5_aMC@NLO                           *
#                                                                    *
#                           Going Beyond                             *
#                                                                    *
#                   http://madgraph.hep.uiuc.edu                     *
#                   http://madgraph.phys.ucl.ac.be                   *
#                   http://amcatnlo.cern.ch                          *
#                                                                    *
#                     The MadGraph5_aMC@NLO team                     *
#                                                                    *
#....................................................................*
#                                                                    *
# This file contains all the information necessary to reproduce      *
# the events generated:                                              *
#                                                                    *
# 1. software version                                                *
# 2. proc_card          : code generation info including model       *
# 3. param_card         : model primary parameters in the LH format  *
# 4. run_card           : running parameters (collider and cuts)     *
# 5. pythia_card        : present only if pythia has been run        *
# 6. pgs_card           : present only if pgs has been run           *
# 7. delphes_cards      : present only if delphes has been run       *
#                                                                    *
#                                                                    *
#*********************************************************************
-->
<MGVersion>
#5.2.2.3
</MGVersion>
<MG5ProcCard>
#************************************************************
#*                     MadGraph5_aMC@NLO                    *
#*                                                          *
#*                *                       *                 *
#*                  *        * *        *                   *
#*                    * * * * 5 * * * *                     *
#*                  *        * *        *                   *
#*                *                       *                 *
#*                                                          *
#*                                                          *
#*         VERSION 2.2.3                 2015-02-10         *
#*                                                          *
#*    The MadGraph5_aMC@NLO Development Team - Find us at   *
#*    https://server06.fynu.ucl.ac.be/projects/madgraph     *
#*                                                          *
#************************************************************
#*                                                          *
#*               Command File for MadGraph5_aMC@NLO         *
#*                                                          *
#*     run as ./bin/mg5_aMC  filename                       *
#*                                                          *
#************************************************************
set group_subprocesses Auto
set ignore_six_quark_processes False
set loop_optimized_output True
set gauge unitary
set complex_mass_scheme False
import model sm
define p = g u c d s u~ c~ d~ s~
define j = g u c d s u~ c~ d~ s~
define l+ = e+ mu+
define l- = e- mu-
define vl = ve vm vt
define vl~ = ve~ vm~ vt~
import model Zprime_UFO
generate p p > zph, zph > j j
add process p p > zph, zph > b b~
output Dijet_signal
</MG5ProcCard>
<MGProcCard>
#*********************************************************************
#                        MadGraph/MadEvent                           *
#                   http://madgraph.hep.uiuc.edu                     *
#                                                                    *
#                          proc_card.dat                             *
#*********************************************************************
#                                                                    *
#            This Files is generated by MADGRAPH 5                   *
#                                                                    *
# WARNING: This Files is generated for MADEVENT (compatibility issue)*
#          This files is NOT a valid MG4 proc_card.dat               *
#          Running this in MG4 will NEVER reproduce the result of MG5*
#                                                                    *
#*********************************************************************
#*********************************************************************
# Process(es) requested : mg2 input                                  *
#*********************************************************************
# Begin PROCESS # This is TAG. Do not modify this line
p p > zph , zph > j j           #Process
# Be carefull the coupling are here in MG5 convention
          
end_coup           # End the couplings input

done               # this tells MG there are no more procs
# End PROCESS  # This is TAG. Do not modify this line
#*********************************************************************
# Model information                                                  *
#*********************************************************************
# Begin MODEL  # This is TAG. Do not modify this line
Zprime_UFO
# End   MODEL  # This is TAG. Do not modify this line
#*********************************************************************
# Start multiparticle definitions                                    *
#*********************************************************************
# Begin MULTIPARTICLES # This is TAG. Do not modify this line

# End  MULTIPARTICLES # This is TAG. Do not modify this line
</MGProcCard>
<MGRunCard>
#*********************************************************************
#                       MadGraph5_aMC@NLO                            *
#                                                                    *
#                     run_card.dat MadEvent                          *
#                                                                    *
#  This file is used to set the parameters of the run.               *
#                                                                    *
#  Some notation/conventions:                                        *
#                                                                    *
#   Lines starting with a '# ' are info or comments                  *
#                                                                    *
#   mind the format:   value    = variable     ! comment             *
#*********************************************************************
#
#*******************                                                 
# Running parameters
#*******************                                                 
#                                                                    
#*********************************************************************
# Tag name for the run (one word)                                    *
#*********************************************************************
  tag_1     = run_tag ! name of the run 
#*********************************************************************
# Run to generate the grid pack                                      *
#*********************************************************************
  .false.     = gridpack  !True = setting up the grid pack
#*********************************************************************
# Number of events and rnd seed                                      *
# Warning: Do not generate more than 1M events in a single run       *
# If you want to run Pythia, avoid more than 50k events in a run.    *
#*********************************************************************
  2000 = nevents ! Number of unweighted events requested 
 984 = iseed   ! rnd seed (0=assigned automatically=default))
#*********************************************************************
# Collider type and energy                                           *
# lpp: 0=No PDF, 1=proton, -1=antiproton, 2=photon from proton,      *
#                                         3=photon from electron     *
#*********************************************************************
        1     = lpp1    ! beam 1 type 
        1     = lpp2    ! beam 2 type
     4000     = ebeam1  ! beam 1 total energy in GeV
     4000     = ebeam2  ! beam 2 total energy in GeV
#*********************************************************************
# Beam polarization from -100 (left-handed) to 100 (right-handed)    *
#*********************************************************************
        0     = polbeam1 ! beam polarization for beam 1
        0     = polbeam2 ! beam polarization for beam 2
#*********************************************************************
# PDF CHOICE: this automatically fixes also alpha_s and its evol.    *
#*********************************************************************
 'nn23lo1'    = pdlabel     ! PDF set                                     
 230000    = lhaid     ! if pdlabel=lhapdf, this is the lhapdf number
#*********************************************************************
# Renormalization and factorization scales                           *
#*********************************************************************
 F        = fixed_ren_scale  ! if .true. use fixed ren scale
 F        = fixed_fac_scale  ! if .true. use fixed fac scale
 91.1880  = scale            ! fixed ren scale
 91.1880  = dsqrt_q2fact1    ! fixed fact scale for pdf1
 91.1880  = dsqrt_q2fact2    ! fixed fact scale for pdf2
 1        = scalefact        ! scale factor for event-by-event scales
#*********************************************************************
# Matching - Warning! ickkw > 1 is still beta
#*********************************************************************
 0        = ickkw            ! 0 no matching, 1 MLM, 2 CKKW matching
 1        = highestmult      ! for ickkw=2, highest mult group
 1        = ktscheme         ! for ickkw=1, 1 Durham kT, 2 Pythia pTE
 1        = alpsfact         ! scale factor for QCD emission vx
 F        = chcluster        ! cluster only according to channel diag
 T        = pdfwgt           ! for ickkw=1, perform pdf reweighting
 5        = asrwgtflavor     ! highest quark flavor for a_s reweight
 T        = clusinfo         ! include clustering tag in output
 3.0      = lhe_version       ! Change the way clustering information pass to shower.        
#*********************************************************************
#**********************************************************
#
#**********************************************************
# Automatic ptj and mjj cuts if xqcut > 0
# (turn off for VBF and single top processes)
#**********************************************************
   T  = auto_ptj_mjj  ! Automatic setting of ptj and mjj
#**********************************************************
#                                                                    
#**********************************
# BW cutoff (M+/-bwcutoff*Gamma)
#**********************************
  15  = bwcutoff      ! (M+/-bwcutoff*Gamma)
#**********************************************************
# Apply pt/E/eta/dr/mij cuts on decay products or not
# (note that etmiss/ptll/ptheavy/ht/sorted cuts always apply)
#**********************************************************
   T  = cut_decays    ! Cut decay products 
#*************************************************************
# Number of helicities to sum per event (0 = all helicities)
# 0 gives more stable result, but longer run time (needed for
# long decay chains e.g.).
# Use >=2 if most helicities contribute, e.g. pure QCD.
#*************************************************************
   0  = nhel          ! Number of helicities used per event
#*******************                                                 
# Standard Cuts
#*******************                                                 
#                                                                    
#*********************************************************************
# Minimum and maximum pt's (for max, -1 means no cut)                *
#*********************************************************************
 20  = ptj       ! minimum pt for the jets 
  0  = ptb       ! minimum pt for the b 
 10  = pta       ! minimum pt for the photons 
 10  = ptl       ! minimum pt for the charged leptons 
  0  = misset    ! minimum missing Et (sum of neutrino's momenta)
  0  = ptheavy   ! minimum pt for one heavy final state
 1.0 = ptonium   ! minimum pt for the quarkonium states
 -1  = ptjmax    ! maximum pt for the jets
 -1  = ptbmax    ! maximum pt for the b
 -1  = ptamax    ! maximum pt for the photons
 -1  = ptlmax    ! maximum pt for the charged leptons
 -1  = missetmax ! maximum missing Et (sum of neutrino's momenta)
#*********************************************************************
# Minimum and maximum E's (in the center of mass frame)              *
#*********************************************************************
  0  = ej     ! minimum E for the jets 
  0  = eb     ! minimum E for the b 
  0  = ea     ! minimum E for the photons 
  0  = el     ! minimum E for the charged leptons 
 -1   = ejmax ! maximum E for the jets
 -1   = ebmax ! maximum E for the b
 -1   = eamax ! maximum E for the photons
 -1   = elmax ! maximum E for the charged leptons
#*********************************************************************
# Maximum and minimum absolute rapidity (for max, -1 means no cut)   *
#*********************************************************************
   5  = etaj    ! max rap for the jets 
  -1  = etab    ! max rap for the b
 2.5  = etaa    ! max rap for the photons 
 2.5  = etal    ! max rap for the charged leptons 
 0.6  = etaonium ! max rap for the quarkonium states
   0  = etajmin ! min rap for the jets
   0  = etabmin ! min rap for the b
   0  = etaamin ! min rap for the photons
   0  = etalmin ! main rap for the charged leptons
#*********************************************************************
# Minimum and maximum DeltaR distance                                *
#*********************************************************************
 0.4 = drjj    ! min distance between jets 
 0   = drbb    ! min distance between b's 
 0.4 = drll    ! min distance between leptons 
 0.4 = draa    ! min distance between gammas 
 0   = drbj    ! min distance between b and jet 
 0.4 = draj    ! min distance between gamma and jet 
 0.4 = drjl    ! min distance between jet and lepton 
 0   = drab    ! min distance between gamma and b 
 0   = drbl    ! min distance between b and lepton 
 0.4 = dral    ! min distance between gamma and lepton 
 -1  = drjjmax ! max distance between jets
 -1  = drbbmax ! max distance between b's
 -1  = drllmax ! max distance between leptons
 -1  = draamax ! max distance between gammas
 -1  = drbjmax ! max distance between b and jet
 -1  = drajmax ! max distance between gamma and jet
 -1  = drjlmax ! max distance between jet and lepton
 -1  = drabmax ! max distance between gamma and b
 -1  = drblmax ! max distance between b and lepton
 -1  = dralmax ! maxdistance between gamma and lepton
#*********************************************************************
# Minimum and maximum invariant mass for pairs                       *
# WARNING: for four lepton final state mmll cut require to have      *
#          different lepton masses for each flavor!                  *           
#*********************************************************************
 0   = mmjj    ! min invariant mass of a jet pair 
 0   = mmbb    ! min invariant mass of a b pair 
 0   = mmaa    ! min invariant mass of gamma gamma pair
 0   = mmll    ! min invariant mass of l+l- (same flavour) lepton pair
 -1  = mmjjmax ! max invariant mass of a jet pair
 -1  = mmbbmax ! max invariant mass of a b pair
 -1  = mmaamax ! max invariant mass of gamma gamma pair
 -1  = mmllmax ! max invariant mass of l+l- (same flavour) lepton pair
#*********************************************************************
# Minimum and maximum invariant mass for all letpons                 *
#*********************************************************************
 0   = mmnl    ! min invariant mass for all letpons (l+- and vl) 
 -1  = mmnlmax ! max invariant mass for all letpons (l+- and vl) 
#*********************************************************************
# Minimum and maximum pt for 4-momenta sum of leptons                *
#*********************************************************************
 0   = ptllmin  ! Minimum pt for 4-momenta sum of leptons(l and vl)
 -1  = ptllmax  ! Maximum pt for 4-momenta sum of leptons(l and vl)
#*********************************************************************
# Inclusive cuts                                                     *
#*********************************************************************
 0  = xptj ! minimum pt for at least one jet  
 0  = xptb ! minimum pt for at least one b 
 0  = xpta ! minimum pt for at least one photon 
 0  = xptl ! minimum pt for at least one charged lepton 
#*********************************************************************
# Control the pt's of the jets sorted by pt                          *
#*********************************************************************
 0   = ptj1min ! minimum pt for the leading jet in pt
 0   = ptj2min ! minimum pt for the second jet in pt
 0   = ptj3min ! minimum pt for the third jet in pt
 0   = ptj4min ! minimum pt for the fourth jet in pt
 -1  = ptj1max ! maximum pt for the leading jet in pt 
 -1  = ptj2max ! maximum pt for the second jet in pt
 -1  = ptj3max ! maximum pt for the third jet in pt
 -1  = ptj4max ! maximum pt for the fourth jet in pt
 0   = cutuse  ! reject event if fails any (0) / all (1) jet pt cuts
#*********************************************************************
# Control the pt's of leptons sorted by pt                           *
#*********************************************************************
 0   = ptl1min ! minimum pt for the leading lepton in pt
 0   = ptl2min ! minimum pt for the second lepton in pt
 0   = ptl3min ! minimum pt for the third lepton in pt
 0   = ptl4min ! minimum pt for the fourth lepton in pt
 -1  = ptl1max ! maximum pt for the leading lepton in pt 
 -1  = ptl2max ! maximum pt for the second lepton in pt
 -1  = ptl3max ! maximum pt for the third lepton in pt
 -1  = ptl4max ! maximum pt for the fourth lepton in pt
#*********************************************************************
# Control the Ht(k)=Sum of k leading jets                            *
#*********************************************************************
 0   = htjmin ! minimum jet HT=Sum(jet pt)
 -1  = htjmax ! maximum jet HT=Sum(jet pt)
 0   = ihtmin  !inclusive Ht for all partons (including b)
 -1  = ihtmax  !inclusive Ht for all partons (including b)
 0   = ht2min ! minimum Ht for the two leading jets
 0   = ht3min ! minimum Ht for the three leading jets
 0   = ht4min ! minimum Ht for the four leading jets
 -1  = ht2max ! maximum Ht for the two leading jets
 -1  = ht3max ! maximum Ht for the three leading jets
 -1  = ht4max ! maximum Ht for the four leading jets
#***********************************************************************
# Photon-isolation cuts, according to hep-ph/9801442                   *
# When ptgmin=0, all the other parameters are ignored                  *
# When ptgmin>0, pta and draj are not going to be used                 *
#***********************************************************************
   0 = ptgmin ! Min photon transverse momentum
 0.4 = R0gamma ! Radius of isolation code
 1.0 = xn ! n parameter of eq.(3.4) in hep-ph/9801442
 1.0 = epsgamma ! epsilon_gamma parameter of eq.(3.4) in hep-ph/9801442
 .true. = isoEM ! isolate photons from EM energy (photons and leptons)
#*********************************************************************
# WBF cuts                                                           *
#*********************************************************************
 0   = xetamin ! minimum rapidity for two jets in the WBF case  
 0   = deltaeta ! minimum rapidity for two jets in the WBF case 
#*********************************************************************
# KT DURHAM CUT                                                      *
#*********************************************************************
 -1    =  ktdurham        
 0.4  =  dparameter 
#*********************************************************************
# maximal pdg code for quark to be considered as a light jet         *
# (otherwise b cuts are applied)                                     *
#*********************************************************************
 4 = maxjetflavor    ! Maximum jet pdg code
#*********************************************************************
# Jet measure cuts                                                   *
#*********************************************************************
 0   = xqcut   ! minimum kt jet measure between partons
#*********************************************************************
#
#*********************************************************************
# Store info for systematics studies                                 *
# WARNING: If use_syst is T, matched Pythia output is                *
#          meaningful ONLY if plotted taking matchscale              *
#          reweighting into account!                                 *
#*********************************************************************
   F  = use_syst      ! Enable systematics studies
#
#**************************************
# Parameter of the systematics study
#  will be used by SysCalc (if installed)
#**************************************                                  
#
0.5 1 2 = sys_scalefact  # factorization/renormalization scale factor
0.5 1 2 = sys_alpsfact  # \alpha_s emission scale factors
30 50 = sys_matchscale # variation of merging scale
# PDF sets and number of members (0 or none for all members).
CT10nlo.LHgrid = sys_pdf # matching scales
# MSTW2008nlo68cl.LHgrid 1  = sys_pdf
</MGRunCard>
<slha>
######################################################################
## PARAM_CARD AUTOMATICALY GENERATED BY MG5 FOLLOWING UFO MODEL   ####
######################################################################
##                                                                  ##
##  Width set on Auto will be computed following the information    ##
##        present in the decay.py files of the model.               ##
##        See  arXiv:1402.1178 for more details.                    ##
##                                                                  ##
######################################################################

###################################
## INFORMATION FOR CKMBLOCK
###################################
Block ckmblock 
    1 2.277360e-01 # cabi 

###################################
## INFORMATION FOR FRBLOCK
###################################
Block frblock 
    1 4.000000e-01 # gz 

###################################
## INFORMATION FOR MASS
###################################
Block mass 
    1 5.040000e-03 # MD 
    2 2.550000e-03 # MU 
    3 1.010000e-01 # MS 
    4 1.270000e+00 # MC 
    5 4.700000e+00 # MB 
    6 1.720000e+02 # MT 
   11 5.110000e-04 # Me 
   13 1.056600e-01 # MM 
   15 1.777000e+00 # MTA 
   23 9.118760e+01 # MZ 
   25 1.200000e+02 # MH 
  10030 2.300000e+03 # MZph 
  10031 3.000000e+02 # MZpl 
## Dependent parameters, given by model restrictions.
## Those values should be edited following the 
## analytical expression. MG5 ignores those values 
## but they are important for interfacing the output of MG5
## to external program such as Pythia.
  12 0.000000 # ve : 0.0 
  14 0.000000 # vm : 0.0 
  16 0.000000 # vt : 0.0 
  21 0.000000 # g : 0.0 
  22 0.000000 # a : 0.0 
  24 79.824360 # w+ : cmath.sqrt(MZ__exp__2/2. + cmath.sqrt(MZ__exp__4/4. - (aEW*cmath.pi*MZ__exp__2)/(Gf*sqrt__2))) 

###################################
## INFORMATION FOR SMINPUTS
###################################
Block sminputs 
    1 1.279000e+02 # aEWM1 
    2 1.166370e-05 # Gf 
    3 1.184000e-01 # aS 

###################################
## INFORMATION FOR YUKAWA
###################################
Block yukawa 
    1 5.040000e-03 # ymdo 
    2 2.550000e-03 # ymup 
    3 1.010000e-01 # yms 
    4 1.270000e+00 # ymc 
    5 4.700000e+00 # ymb 
    6 1.720000e+02 # ymt 
   11 5.110000e-04 # yme 
   13 1.056600e-01 # ymm 
   15 1.777000e+00 # ymtau 

###################################
## INFORMATION FOR DECAY
###################################
DECAY   6 1.508336e+00 # WT 
DECAY  23 2.495200e+00 # WZ 
DECAY  24 2.085000e+00 # WW 
DECAY  25 5.753088e-03 # WH 
## Dependent parameters, given by model restrictions.
## Those values should be edited following the 
## analytical expression. MG5 ignores those values 
## but they are important for interfacing the output of MG5
## to external program such as Pythia.
DECAY  1 0.000000 # d : 0.0 
DECAY  2 0.000000 # u : 0.0 
DECAY  3 0.000000 # s : 0.0 
DECAY  4 0.000000 # c : 0.0 
DECAY  5 0.000000 # b : 0.0 
DECAY  11 0.000000 # e- : 0.0 
DECAY  12 0.000000 # ve : 0.0 
DECAY  13 0.000000 # mu- : 0.0 
DECAY  14 0.000000 # vm : 0.0 
DECAY  15 0.000000 # ta- : 0.0 
DECAY  16 0.000000 # vt : 0.0 
DECAY  21 0.000000 # g : 0.0 
DECAY  22 0.000000 # a : 0.0 
DECAY  10030 0.308725 # zph : (gz__exp__2*MZph*(5 + cmath.sqrt(1 - (4*MT__exp__2)/MZph__exp__2)))/(144.*cmath.pi) 
DECAY  10031 0.132629 # zpl : (5*gz__exp__2*MZpl)/(144.*cmath.pi) 
#===========================================================
# QUANTUM NUMBERS OF NEW STATE(S) (NON SM PDG CODE)
#===========================================================

Block QNUMBERS 10030  # zph 
        1 0  # 3 times electric charge
        2 3  # number of spin states (2S+1)
        3 1  # colour rep (1: singlet, 3: triplet, 8: octet)
        4 0  # Particle/Antiparticle distinction (0=own anti)
Block QNUMBERS 10031  # zpl 
        1 0  # 3 times electric charge
        2 3  # number of spin states (2S+1)
        3 1  # colour rep (1: singlet, 3: triplet, 8: octet)
        4 0  # Particle/Antiparticle distinction (0=own anti)
</slha>
## END BANNER##
<MGGenerationInfo>
#  Number of Events        :         3905
#  Integrated weight (pb)  :  0.20157E-02
#  Max wgt                 :  0.74973E-06
#  Average wgt             :  0.51618E-06
</MGGenerationInfo>
</header>
<init>
     2212     2212  0.40000000000E+04  0.40000000000E+04 0 0  247000  247000 2   1
  0.20166004548E-02  0.39382585158E-05  0.74973440000E-06   0
</init>
<event>
 5   0  0.7242214E-06  0.2329343E+04  0.7818609E-02  0.8466441E-01
       -2   -1    0    0    0  501  0.00000000000E+00  0.00000000000E+00  0.19376619936E+04  0.19376619936E+04  0.25500000920E-02 0. -1.
        2   -1    0    0  501    0  0.00000000000E+00  0.00000000000E+00 -0.70004944594E+03  0.70004944595E+03  0.25500000920E-02 0.  1.
    10030    2    1    2    0    0  0.00000000000E+00  0.00000000000E+00  0.12376125477E+04  0.26377114396E+04  0.23293425726E+04 0.  0.
        1    1    3    3  502    0  0.23746389882E+03 -0.20152187939E+03 -0.65201928740E+03  0.72258516611E+03  0.50400001928E-02 0.  1.
       -1    1    3    3    0  502 -0.23746389882E+03  0.20152187939E+03  0.18896318351E+04  0.19151262735E+04  0.50400001928E-02 0. -1.
</event>
<event>
 5   0  0.7242214E-06  0.2303025E+04  0.7818609E-02  0.8476729E-01
       -2   -1    0    0    0  501  0.00000000000E+00  0.00000000000E+00  0.49383967879E+03  0.49383967879E+03  0.25500000920E-02 0.  1.
        2   -1    0    0  501    0  0.00000000000E+00  0.00000000000E+00 -0.26850435903E+04  0.26850435903E+04  0.25500000920E-02 0. -1.
    10030    2    1    2    0    0  0.00000000000E+00  0.00000000000E+00 -0.21912039115E+04  0.31788832691E+04  0.23030250230E+04 0.  0.
        1    1    3    3  502    0 -0.43514919467E+03 -0.56060088085E+03 -0.23473157453E+04  0.24522478214E+04  0.50400001928E-02 0. -1.
       -1    1    3    3    0  502  0.43514919467E+03  0.56060088085E+03  0.15611183379E+03  0.72663544773E+03  0.50400001928E-02 0.  1.
</event>
<event>
 5   0  0.7348107E-06  0.2311040E+04  0.7818609E-02  0.8473581E-01
        2   -1    0    0  501    0  0.00000000000E+00  0.00000000000E+00  0.98606788571E+03  0.98606788571E+03  0.25500000920E-02 0. -1.
       -2   -1    0    0    0  501  0.00000000000E+00  0.00000000000E+00 -0.13540913331E+04  0.13540913331E+04  0.25500000920E-02 0.  1.
    10030    2    1    2    0    0  0.00000000000E+00  0.00000000000E+00 -0.36802344739E+03  0.23401592188E+04  0.23110395738E+04 0.  0.
        3    1    3    3  502    0 -0.11218228508E+04  0.25680999890E+03 -0.28918615576E+03  0.11866197904E+04  0.10100000352E+00 0.  1.
       -3    1    3    3    0  502  0.11218228508E+04 -0.25680999890E+03 -0.78837291627E+02  0.11535394284E+04  0.10100000352E+00 0. -1.
</event>
<event>
 5   0  0.7242214E-06  0.2302964E+04  0.7818609E-02  0.8476753E-01
       -2   -1    0    0    0  501  0.00000000000E+00  0.00000000000E+00  0.70304869773E+03  0.70304869773E+03  0.25500000920E-02 0.  1.
        2   -1    0    0  501    0  0.00000000000E+00  0.00000000000E+00 -0.18859441449E+04  0.18859441449E+04  0.25500000920E-02 0. -1.
    10030    2    1    2    0    0  0.00000000000E+00  0.00000000000E+00 -0.11828954472E+04  0.25889928426E+04  0.23029638078E+04 0.  0.
        1    1    3    3  502    0  0.10365126118E+04 -0.27622424311E+02 -0.11544344254E+04  0.15517217003E+04  0.50400001928E-02 0. -1.
       -1    1    3    3    0  502 -0.10365126118E+04  0.27622424311E+02 -0.28461021811E+02  0.10372711423E+04  0.50400001928E-02 0.  1.
</event>
<event>
 5   0  0.7348107E-06  0.2295595E+04  0.7818609E-02  0.8479660E-01
       -2   -1    0    0    0  501  0.00000000000E+00  0.00000000000E+00  0.91946170719E+03  0.91946170719E+03  0.25500000920E-02 0.  1.
        2   -1    0    0  501    0  0.00000000000E+00  0.00000000000E+00 -0.14328368813E+04  0.14328368813E+04  0.25500000920E-02 0. -1.
    10030    2    1    2    0    0  0.00000000000E+00  0.00000000000E+00 -0.51337517411E+03  0.23522985885E+04  0.22955946027E+04 0.  0.
        3    1    3    3  502    0 -0.10748571379E+04 -0.38698714021E+03 -0.37061722742E+03  0.12010137605E+04  0.10100000352E+00 0. -1.
       -3    1    3    3    0  502  0.10748571379E+04  0.38698714021E+03 -0.14275794669E+03  0.11512848280E+04  0.10100000352E+00 0.  1.
</event>
<event>
 5   0  0.3184492E-06  0.2301961E+04  0.7818609E-02  0.8477148E-01
        1   -1    0    0  501    0  0.00000000000E+00  0.00000000000E+00  0.24897349883E+04  0.24897349883E+04  0.50400001928E-02 0.  1.
       -1   -1    0    0    0  501  0.00000000000E+00  0.00000000000E+00 -0.53208738409E+03  0.53208738411E+03  0.50400001928E-02 0. -1.
    10030    2    1    2    0    0  0.00000000000E+00  0.00000000000E+00  0.19576476042E+04  0.30218223724E+04  0.23019614046E+04 0.  0.
        1    1    3    3  502    0 -0.51065970263E+03  0.88256526238E+03  0.16796985422E+04  0.19649636045E+04  0.50400001928E-02 0.  1.
       -1    1    3    3    0  502  0.51065970263E+03 -0.88256526238E+03  0.27794906200E+03  0.10568587679E+04  0.50400001928E-02 0. -1.
</event>
<event>
 5   0  0.3238713E-06  0.2299148E+04  0.7818609E-02  0.8478257E-01
        1   -1    0    0  501    0  0.00000000000E+00  0.00000000000E+00  0.93949301073E+03  0.93949301074E+03  0.50400001928E-02 0. -1.
       -1   -1    0    0    0  501  0.00000000000E+00  0.00000000000E+00 -0.14066315688E+04  0.14066315688E+04  0.50400001928E-02 0.  1.
    10030    2    1    2    0    0  0.00000000000E+00  0.00000000000E+00 -0.46713855804E+03  0.23461245795E+04  0.22991481271E+04 0.  0.
        3    1    3    3  502    0  0.34809164225E+03  0.68683393286E+03 -0.11045975267E+04  0.13464933527E+04  0.10100000352E+00 0.  1.
       -3    1    3    3    0  502 -0.34809164225E+03 -0.68683393286E+03  0.63745896863E+03  0.99963122682E+03  0.10100000352E+00 0. -1.
</event>
<event>
 5   0  0.7242214E-06  0.2297583E+04  0.7818609E-02  0.8478875E-01
        2   -1    0    0  501    0  0.00000000000E+00  0.00000000000E+00  0.10117949899E+04  0.10117949899E+04  0.25500000920E-02 0. -1.
       -2   -1    0    0    0  501  0.00000000000E+00  0.00000000000E+00 -0.13043370434E+04  0.13043370434E+04  0.25500000920E-02 0.  1.
    10030    2    1    2    0    0  0.00000000000E+00  0.00000000000E+00 -0.29254205358E+03  0.23161320333E+04  0.22975828043E+04 0.  0.
        1    1    3    3  502    0  0.84132677847E+03 -0.62260114423E+03 -0.62365390880E+03  0.12183624793E+04  0.50400001928E-02 0.  1.
       -1    1    3    3    0  502 -0.84132677847E+03  0.62260114423E+03  0.33111185522E+03  0.10977695540E+04  0.50400001928E-02 0. -1.
</event>
<event>
 5   0  0.3195296E-06  0.2299105E+04  0.7818609E-02  0.8478274E-01
       -1   -1    0    0    0  501  0.00000000000E+00  0.00000000000E+00  0.92588853067E+03  0.92588853068E+03  0.50400001928E-02 0.  1.
        1   -1    0    0  501    0  0.00000000000E+00  0.00000000000E+00 -0.14272458340E+04  0.14272458340E+04  0.50400001928E-02 0. -1.
    10030    2    1    2    0    0  0.00000000000E+00  0.00000000000E+00 -0.50135730331E+03  0.23531343647E+04  0.22991046502E+04 0.  0.
        2    1    3    3  502    0 -0.11342673514E+04 -0.23480009340E+02 -0.44039048496E+03  0.12169870643E+04  0.25500000920E-02 0. -1.
       -2    1    3    3    0  502  0.11342673514E+04  0.23480009340E+02 -0.60966818349E+02  0.11361473004E+04  0.25500000920E-02 0.  1.
</event>
<event>
 5   0  0.7242214E-06  0.2300025E+04  0.7818609E-02  0.8477911E-01
        2   -1    0    0  501    0  0.00000000000E+00  0.00000000000E+00  0.14569097349E+04  0.14569097349E+04  0.25500000920E-02 0. -1.
       -2   -1    0    0    0  501  0.00000000000E+00  0.00000000000E+00 -0.90776274569E+03  0.90776274570E+03  0.25500000920E-02 0.  1.
    10030    2    1    2    0    0  0.00000000000E+00  0.00000000000E+00  0.54914698923E+03  0.23646724806E+04  0.23000246792E+04 0.  0.
        1    1    3    3  502    0  0.64427834220E+03 -0.63853685844E+03  0.10013403661E+04  0.13511130340E+04  0.50400001928E-02 0. -1.
       -1    1    3    3    0  502 -0.64427834220E+03  0.63853685844E+03 -0.45219337684E+03  0.10135594467E+04  0.50400001928E-02 0.  1.
</event>
<event>
 5   0  0.2519625E-06  0.2296034E+04  0.7818609E-02  0.8479486E-01
       -4   -1    0    0    0  501  0.00000000000E+00  0.00000000000E+00  0.10295898017E+04  0.10295905849E+04  0.12699999809E+01 0.  1.
        4   -1    0    0  501    0  0.00000000000E+00  0.00000000000E+00 -0.12800650356E+04  0.12800656656E+04  0.12699999809E+01 0. -1.
    10030    2    1    2    0    0  0.00000000000E+00  0.00000000000E+00 -0.25047523389E+03  0.23096562505E+04  0.22960344406E+04 0.  0.
        1    1    3    3  502    0  0.33371717471E+03 -0.50465727844E+03  0.85620299236E+03  0.10483938599E+04  0.50400001928E-02 0.  1.
       -1    1    3    3    0  502 -0.33371717471E+03  0.50465727844E+03 -0.11066782263E+04  0.12612623906E+04  0.50400001928E-02 0. -1.
</event>
<event>
 5   0  0.7497344E-06  0.2300670E+04  0.7818609E-02  0.8477657E-01
       -2   -1    0    0    0  501  0.00000000000E+00  0.00000000000E+00  0.75418149580E+03  0.75418149580E+03  0.25500000920E-02 0.  1.
        2   -1    0    0  501    0  0.00000000000E+00  0.00000000000E+00 -0.17545781474E+04  0.17545781475E+04  0.25500000920E-02 0. -1.
    10030    2    1    2    0    0  0.00000000000E+00  0.00000000000E+00 -0.10003966516E+04  0.25087596433E+04  0.23006697910E+04 0.  0.
        5    1    3    3  502    0  0.23555940435E+03 -0.21829113070E+03  0.70429413418E+03  0.77407465283E+03  0.46999998093E+01 0.  1.
       -5    1    3    3    0  502 -0.23555940435E+03  0.21829113070E+03 -0.17046907858E+04  0.17346849904E+04  0.46999998093E+01 0. -1.
</event>
<event>
 5   0  0.3338758E-06  0.2298516E+04  0.7818609E-02  0.8478506E-01
       -1   -1    0    0    0  501  0.00000000000E+00  0.00000000000E+00  0.74888352839E+03  0.74888352841E+03  0.50400001928E-02 0. -1.
        1   -1    0    0  501    0  0.00000000000E+00  0.00000000000E+00 -0.17636845278E+04  0.17636845278E+04  0.50400001928E-02 0.  1.
    10030    2    1    2    0    0  0.00000000000E+00  0.00000000000E+00 -0.10148009994E+04  0.25125680562E+04  0.22985162972E+04 0.  0.
        5    1    3    3  502    0  0.42857230257E+03  0.39980527391E+03 -0.15880227716E+04  0.16927365090E+04  0.46999998093E+01 0.  1.
       -5    1    3    3    0  502 -0.42857230257E+03 -0.39980527391E+03  0.57322177227E+03  0.81983154720E+03  0.46999998093E+01 0. -1.
</event>
<event>
 5   0  0.3184492E-06  0.2326357E+04  0.7818609E-02  0.8467601E-01
        1   -1    0    0  501    0  0.00000000000E+00  0.00000000000E+00  0.10229823776E+04  0.10229823776E+04  0.50400001928E-02 0. -1.
       -1   -1    0    0    0  501  0.00000000000E+00  0.00000000000E+00 -0.13225878583E+04  0.13225878583E+04  0.50400001928E-02 0.  1.
    10030    2    1    2    0    0  0.00000000000E+00  0.00000000000E+00 -0.29960548064E+03  0.23455702359E+04  0.23263568702E+04 0.  0.
        1    1    3    3  502    0 -0.78800439549E+02 -0.16610776722E+01 -0.13198923209E+04  0.13222435506E+04  0.50400001928E-02 0.  1.
       -1    1    3    3    0  502  0.78800439549E+02  0.16610776722E+01  0.10202868402E+04  0.10233266853E+04  0.50400001928E-02 0. -1.
</event>
<event>
 5   0  0.3238713E-06  0.2295870E+04  0.7818609E-02  0.8479551E-01
        1   -1    0    0  501    0  0.00000000000E+00  0.00000000000E+00  0.97659965445E+03  0.97659965447E+03  0.50400001928E-02 0.  1.
       -1   -1    0    0    0  501  0.00000000000E+00  0.00000000000E+00 -0.13493300959E+04  0.13493300959E+04  0.50400001928E-02 0. -1.
    10030    2    1    2    0    0  0.00000000000E+00  0.00000000000E+00 -0.37273044144E+03  0.23259297504E+04  0.22958704715E+04 0.  0.
        3    1    3    3  502    0  0.36880618637E+02 -0.74849342668E+03 -0.10673207109E+04  0.13041380678E+04  0.10100000352E+00 0. -1.
       -3    1    3    3    0  502 -0.36880618637E+02  0.74849342668E+03  0.69459026949E+03  0.10217916825E+04  0.10100000352E+00 0.  1.
</event>
<event>
 5   0  0.3238713E-06  0.2308276E+04  0.7818609E-02  0.8474665E-01
       -1   -1    0    0    0  501  0.00000000000E+00  0.00000000000E+00  0.86588446376E+03  0.86588446378E+03  0.50400001928E-02 0. -1.
        1   -1    0    0  501    0  0.00000000000E+00  0.00000000000E+00 -0.15383516625E+04  0.15383516625E+04  0.50400001928E-02 0.  1.
    10030    2    1    2    0    0  0.00000000000E+00  0.00000000000E+00 -0.67246719874E+03  0.24042361263E+04  0.23082762438E+04 0.  0.
        3    1    3    3  502    0 -0.19186755411E+03  0.48871609769E+03  0.73429692316E+03  0.90268962773E+03  0.10100000352E+00 0. -1.
       -3    1    3    3    0  502  0.19186755411E+03 -0.48871609769E+03 -0.14067641219E+04  0.15015464986E+04  0.10100000352E+00 0.  1.
</event>
<event>
 5   0  0.7242214E-06  0.2299365E+04  0.7818609E-02  0.8478172E-01
       -2   -1    0    0    0  501  0.00000000000E+00  0.00000000000E+00  0.90059633113E+03  0.90059633113E+03  0.25500000920E-02 0.  1.
        2   -1    0    0  501    0  0.00000000000E+00  0.00000000000E+00 -0.14676600741E+04  0.14676600741E+04  0.25500000920E-02 0. -1.
    10030    2    1    2    0    0  0.00000000000E+00  0.00000000000E+00 -0.56706374295E+03  0.23682564052E+04  0.22993645018E+04 0.  0.
        1    1    3    3  502    0 -0.34432501924E+02  0.83948023582E+03  0.52474602654E+03  0.99059126582E+03  0.50400001928E-02 0.  1.
       -1    1    3    3    0  502  0.34432501924E+02 -0.83948023582E+03 -0.10918097695E+04  0.13776651394E+04  0.50400001928E-02 0. -1.
</event>
<event>
 5   0  0.3226427E-06  0.2306135E+04  0.7818609E-02  0.8475506E-01
       -1   -1    0    0    0  501  0.00000000000E+00  0.00000000000E+00  0.51434213200E+03  0.51434213203E+03  0.50400001928E-02 0. -1.
        1   -1    0    0  501    0  0.00000000000E+00  0.00000000000E+00 -0.25849815083E+04  0.25849815083E+04  0.50400001928E-02 0.  1.
    10030    2    1    2    0    0  0.00000000000E+00  0.00000000000E+00 -0.20706393763E+04  0.30993236404E+04  0.23061352087E+04 0.  0.
        4    1    3    3  502    0 -0.47169032152E+03  0.10463899261E+04 -0.88724349002E+03  0.14507330079E+04  0.12699999809E+01 0. -1.
       -4    1    3    3    0  502  0.47169032152E+03 -0.10463899261E+04 -0.11833958863E+04  0.16485906324E+04  0.12699999809E+01 0.  1.
</event>
<event>
 5   0  0.3184492E-06  0.2298978E+04  0.7818609E-02  0.8478324E-01
        1   -1    0    0  501    0  0.00000000000E+00  0.00000000000E+00  0.14972157038E+04  0.14972157039E+04  0.50400001928E-02 0. -1.
       -1   -1    0    0    0  501  0.00000000000E+00  0.00000000000E+00 -0.88252174859E+03  0.88252174861E+03  0.50400001928E-02 0.  1.
    10030    2    1    2    0    0  0.00000000000E+00  0.00000000000E+00  0.61469395525E+03  0.23797374525E+04  0.22989784001E+04 0.  0.
        1    1    3    3  502    0  0.51438065372E+03  0.59578290374E+03 -0.55980429047E+03  0.96588072191E+03  0.50400001928E-02 0.  1.
       -1    1    3    3    0  502 -0.51438065372E+03 -0.59578290374E+03  0.11744982457E+04  0.14138567306E+04  0.50400001928E-02 0. -1.
</event>
<event>
 5   0  0.7003852E-06  0.2299002E+04  0.7818609E-02  0.8478315E-01
       -2   -1    0    0    0  501  0.00000000000E+00  0.00000000000E+00  0.69290729975E+03  0.69290729976E+03  0.25500000920E-02 0. -1.
        2   -1    0    0  501    0  0.00000000000E+00  0.00000000000E+00 -0.19069687817E+04  0.19069687817E+04  0.25500000920E-02 0.  1.
    10030    2    1    2    0    0  0.00000000000E+00  0.00000000000E+00 -0.12140614820E+04  0.25998760815E+04  0.22990020350E+04 0.  0.
        2    1    3    3  502    0 -0.10535753002E+04  0.83977592674E+02 -0.95907507902E+02  0.10612593459E+04  0.25500000920E-02 0. -1.
       -2    1    3    3    0  502  0.10535753002E+04 -0.83977592674E+02 -0.11181539741E+04  0.15386167356E+04  0.25500000920E-02 0.  1.
</event>
<event>
 5   0  0.3238713E-06  0.2299566E+04  0.7818609E-02  0.8478092E-01
       -1   -1    0    0    0  501  0.00000000000E+00  0.00000000000E+00  0.10730260477E+04  0.10730260477E+04  0.50400001928E-02 0.  1.
        1   -1    0    0  501    0  0.00000000000E+00  0.00000000000E+00 -0.12320308546E+04  0.12320308546E+04  0.50400001928E-02 0. -1.
    10030    2    1    2    0    0  0.00000000000E+00  0.00000000000E+00 -0.15900480686E+03  0.23050569023E+04  0.22995662187E+04 0.  0.
        3    1    3    3  502    0  0.38867260150E+03  0.10814719406E+04 -0.42628172015E+02  0.11499848350E+04  0.10100000352E+00 0. -1.
       -3    1    3    3    0  502 -0.38867260150E+03 -0.10814719406E+04 -0.11637663484E+03  0.11550720673E+04  0.10100000352E+00 0.  1.
</event>
<event>
 5   0  0.7348107E-06  0.2298924E+04  0.7818609E-02  0.8478345E-01
       -2   -1    0    0    0  501  0.00000000000E+00  0.00000000000E+00  0.92115957016E+03  0.92115957016E+03  0.25500000920E-02 0. -1.
        2   -1    0    0  501    0  0.00000000000E+00  0.00000000000E+00 -0.14343477490E+04  0.14343477490E+04  0.25500000920E-02 0.  1.
    10030    2    1    2    0    0  0.00000000000E+00  0.00000000000E+00 -0.51318817880E+03  0.23555073191E+04  0.22989242318E+04 0.  0.
        3    1    3    3  502    0  0.28701400912E+03  0.97936192029E+03  0.28532473737E+03  0.10596872314E+04  0.10100000352E+00 0.  1.
       -3    1    3    3    0  502 -0.28701400912E+03 -0.97936192029E+03 -0.79851291617E+03  0.12958200878E+04  0.10100000352E+00 0. -1.
</event>
<event>
 5   0  0.3184492E-06  0.2306435E+04  0.7818609E-02  0.8475388E-01
       -1   -1    0    0    0  501  0.00000000000E+00  0.00000000000E+00  0.79538635762E+03  0.79538635763E+03  0.50400001928E-02 0.  1.
        1   -1    0    0  501    0  0.00000000000E+00  0.00000000000E+00 -0.16720302521E+04  0.16720302521E+04  0.50400001928E-02 0. -1.
    10030    2    1    2    0    0  0.00000000000E+00  0.00000000000E+00 -0.87664389447E+03  0.24674166097E+04  0.23064345229E+04 0.  0.
        1    1    3    3  502    0 -0.14974451951E+03  0.22700618948E+03 -0.16372368610E+04  0.16596685724E+04  0.50400001928E-02 0. -1.
       -1    1    3    3    0  502  0.14974451951E+03 -0.22700618948E+03  0.76059296649E+03  0.80774803737E+03  0.50400001928E-02 0.  1.
</event>
<event>
 5   0  0.7003852E-06  0.2290268E+04  0.7818609E-02  0.8481768E-01
        2   -1    0    0  501    0  0.00000000000E+00  0.00000000000E+00  0.17243684843E+04  0.17243684843E+04  0.25500000920E-02 0.  1.
       -2   -1    0    0    0  501  0.00000000000E+00  0.00000000000E+00 -0.76047078177E+03  0.76047078177E+03  0.25500000920E-02 0. -1.
    10030    2    1    2    0    0  0.00000000000E+00  0.00000000000E+00  0.96389770249E+03  0.24848392660E+04  0.22902679750E+04 0.  0.
        2    1    3    3  502    0  0.23789482715E+03 -0.54047959209E+03  0.15464334346E+04  0.16553454340E+04  0.25500000920E-02 0.  1.
       -2    1    3    3    0  502 -0.23789482715E+03  0.54047959209E+03 -0.58253573208E+03  0.82949383205E+03  0.25500000920E-02 0. -1.
</event>
<event>
 5   0  0.3195296E-06  0.2300194E+04  0.7818609E-02  0.8477845E-01
        1   -1    0    0  501    0  0.00000000000E+00  0.00000000000E+00  0.15271725619E+04  0.15271725619E+04  0.50400001928E-02 0. -1.
       -1   -1    0    0    0  501  0.00000000000E+00  0.00000000000E+00 -0.86612526874E+03  0.86612526876E+03  0.50400001928E-02 0.  1.
    10030    2    1    2    0    0  0.00000000000E+00  0.00000000000E+00  0.66104729319E+03  0.23932978307E+04  0.23001936837E+04 0.  0.
        2    1    3    3  502    0 -0.35780114993E+03 -0.10462409435E+04  0.65968443610E+03  0.12875656605E+04  0.25500000920E-02 0. -1.
       -2    1    3    3    0  502  0.35780114993E+03  0.10462409435E+04  0.13628570876E+01  0.11057321702E+04  0.25500000920E-02 0.  1.
</event>
<event>
 5   0  0.7348107E-06  0.2323174E+04  0.7818609E-02  0.8468839E-01
        2   -1    0    0  501    0  0.00000000000E+00  0.00000000000E+00  0.83104906696E+03  0.83104906697E+03  0.25500000920E-02 0. -1.
       -2   -1    0    0    0  501  0.00000000000E+00  0.00000000000E+00 -0.16235920497E+04  0.16235920497E+04  0.25500000920E-02 0.  1.
    10030    2    1    2    0    0  0.00000000000E+00  0.00000000000E+00 -0.79254298270E+03  0.24546411166E+04  0.23231742578E+04 0.  0.
        3    1    3    3  502    0 -0.90017109015E+03 -0.59670121834E+03  0.55628084099E+02  0.10814133481E+04  0.10100000352E+00 0.  1.
       -3    1    3    3    0  502  0.90017109015E+03  0.59670121834E+03 -0.84817106680E+03  0.13732277685E+04  0.10100000352E+00 0. -1.
</event>
<event>
 5   0  0.7497344E-06  0.2297388E+04  0.7818609E-02  0.8478952E-01
        2   -1    0    0  501    0  0.00000000000E+00  0.00000000000E+00  0.18813094981E+04  0.18813094981E+04  0.25500000920E-02 0.  1.
       -2   -1    0    0    0  501  0.00000000000E+00  0.00000000000E+00 -0.70137178037E+03  0.70137178037E+03  0.25500000920E-02 0. -1.
    10030    2    1    2    0    0  0.00000000000E+00  0.00000000000E+00  0.11799377177E+04  0.25826812784E+04  0.22973875529E+04 0.  0.
        5    1    3    3  502    0 -0.27361929208E+03 -0.42552945898E+03  0.17493118113E+04  0.18210043220E+04  0.46999998093E+01 0.  1.
       -5    1    3    3    0  502  0.27361929208E+03  0.42552945898E+03 -0.56937409365E+03  0.76167695644E+03  0.46999998093E+01 0. -1.
</event>
<event>
 5   0  0.3195296E-06  0.2311905E+04  0.7818609E-02  0.8473242E-01
        1   -1    0    0  501    0  0.00000000000E+00  0.00000000000E+00  0.98346920474E+03  0.98346920476E+03  0.50400001928E-02 0.  1.
       -1   -1    0    0    0  501  0.00000000000E+00  0.00000000000E+00 -0.13586860075E+04  0.13586860075E+04  0.50400001928E-02 0. -1.
    10030    2    1    2    0    0  0.00000000000E+00  0.00000000000E+00 -0.37521680274E+03  0.23421552122E+04  0.23119047102E+04 0.  0.
        2    1    3    3  502    0 -0.20513165025E+03  0.75685621162E+03  0.67280741080E+03  0.10332376934E+04  0.25500000920E-02 0.  1.
       -2    1    3    3    0  502  0.20513165025E+03 -0.75685621162E+03 -0.10480242135E+04  0.13089175189E+04  0.25500000920E-02 0. -1.
</event>
<event>
 5   0  0.7348107E-06  0.2289257E+04  0.7818609E-02  0.8482169E-01
        2   -1    0    0  501    0  0.00000000000E+00  0.00000000000E+00  0.23975463352E+04  0.23975463352E+04  0.25500000920E-02 0.  1.
       -2   -1    0    0    0  501  0.00000000000E+00  0.00000000000E+00 -0.54646457195E+03  0.54646457196E+03  0.25500000920E-02 0. -1.
    10030    2    1    2    0    0  0.00000000000E+00  0.00000000000E+00  0.18510817633E+04  0.29440109072E+04  0.22892567631E+04 0.  0.
        3    1    3    3  502    0 -0.79987509271E+03 -0.15334434098E+03 -0.10876710773E+03  0.82167204211E+03  0.10100000352E+00 0. -1.
       -3    1    3    3    0  502  0.79987509271E+03  0.15334434098E+03  0.19598488710E+04  0.21223388651E+04  0.10100000352E+00 0.  1.
</event>
<event>
 5   0  0.7242214E-06  0.2295835E+04  0.7818609E-02  0.8479565E-01
       -2   -1    0    0    0  501  0.00000000000E+00  0.00000000000E+00  0.13888573452E+04  0.13888573452E+04  0.25500000920E-02 0. -1.
        2   -1    0    0  501    0  0.00000000000E+00  0.00000000000E+00 -0.94877639883E+03  0.94877639884E+03  0.25500000920E-02 0.  1.
    10030    2    1    2    0    0  0.00000000000E+00  0.00000000000E+00  0.44008094633E+03  0.23376337440E+04  0.22958354213E+04 0.  0.
        1    1    3    3  502    0  0.10891852561E+03 -0.49998971413E+03  0.12662997421E+04  0.13657847547E+04  0.50400001928E-02 0. -1.
       -1    1    3    3    0  502 -0.10891852561E+03  0.49998971413E+03 -0.82621879575E+03  0.97184898927E+03  0.50400001928E-02 0.  1.
</event>
<event>
 5   0  0.3338758E-06  0.2303217E+04  0.7818609E-02  0.8476654E-01
       -1   -1    0    0    0  501  0.00000000000E+00  0.00000000000E+00  0.53580278655E+03  0.53580278658E+03  0.50400001928E-02 0. -1.
        1   -1    0    0  501    0  0.00000000000E+00  0.00000000000E+00 -0.24751674772E+04  0.24751674772E+04  0.50400001928E-02 0.  1.
    10030    2    1    2    0    0  0.00000000000E+00  0.00000000000E+00 -0.19393646906E+04  0.30109702638E+04  0.23032165608E+04 0.  0.
        5    1    3    3  502    0  0.10693406226E+04  0.76412634207E+02 -0.41991897509E+03  0.11513827745E+04  0.46999998093E+01 0. -1.
       -5    1    3    3    0  502 -0.10693406226E+04 -0.76412634207E+02 -0.15194457155E+04  0.18595874893E+04  0.46999998093E+01 0.  1.
</event>
<event>
 5   0  0.7348107E-06  0.2294002E+04  0.7818609E-02  0.8480290E-01
        2   -1    0    0  501    0  0.00000000000E+00  0.00000000000E+00  0.16784459697E+04  0.16784459697E+04  0.25500000920E-02 0.  1.
       -2   -1    0    0    0  501  0.00000000000E+00  0.00000000000E+00 -0.78382697216E+03  0.78382697216E+03  0.25500000920E-02 0. -1.
    10030    2    1    2    0    0  0.00000000000E+00  0.00000000000E+00  0.89461899756E+03  0.24622729419E+04  0.22940019376E+04 0.  0.
        3    1    3    3  502    0  0.16526361502E+03  0.31478657130E+03  0.16178095211E+04  0.16564148951E+04  0.10100000352E+00 0.  1.
       -3    1    3    3    0  502 -0.16526361502E+03 -0.31478657130E+03 -0.72319052358E+03  0.80585804675E+03  0.10100000352E+00 0. -1.
</event>
<event>
 5   0  0.3226427E-06  0.2298879E+04  0.7818609E-02  0.8478363E-01
        1   -1    0    0  501    0  0.00000000000E+00  0.00000000000E+00  0.85691236489E+03  0.85691236490E+03  0.50400001928E-02 0. -1.
       -1   -1    0    0    0  501  0.00000000000E+00  0.00000000000E+00 -0.15418271833E+04  0.15418271833E+04  0.50400001928E-02 0.  1.
    10030    2    1    2    0    0  0.00000000000E+00  0.00000000000E+00 -0.68491481844E+03  0.23987395482E+04  0.22988786640E+04 0.  0.
        4    1    3    3  502    0  0.82400420631E+01 -0.64821598729E+03  0.64796201740E+03  0.91657419414E+03  0.12699999809E+01 0. -1.
       -4    1    3    3    0  502 -0.82400420631E+01  0.64821598729E+03 -0.13328768358E+04  0.14821653541E+04  0.12699999809E+01 0.  1.
</event>
<event>
 5   0  0.3184492E-06  0.2261531E+04  0.7818609E-02  0.8493245E-01
       -1   -1    0    0    0  501  0.00000000000E+00  0.00000000000E+00  0.65629067028E+03  0.65629067030E+03  0.50400001928E-02 0.  1.
        1   -1    0    0  501    0  0.00000000000E+00  0.00000000000E+00 -0.19482681225E+04  0.19482681225E+04  0.50400001928E-02 0. -1.
    10030    2    1    2    0    0  0.00000000000E+00  0.00000000000E+00 -0.12919774523E+04  0.26045587928E+04  0.22615306251E+04 0.  0.
        1    1    3    3  502    0 -0.41918184209E+03  0.16482620908E+01  0.56350195982E+03  0.70231801362E+03  0.50400001928E-02 0.  1.
       -1    1    3    3    0  502  0.41918184209E+03 -0.16482620908E+01 -0.18554794121E+04  0.19022407792E+04  0.50400001928E-02 0. -1.
</event>
<event>
 5   0  0.3238713E-06  0.2295125E+04  0.7818609E-02  0.8479846E-01
       -1   -1    0    0    0  501  0.00000000000E+00  0.00000000000E+00  0.10826950348E+04  0.10826950348E+04  0.50400001928E-02 0.  1.
        1   -1    0    0  501    0  0.00000000000E+00  0.00000000000E+00 -0.12163162902E+04  0.12163162902E+04  0.50400001928E-02 0. -1.
    10030    2    1    2    0    0  0.00000000000E+00  0.00000000000E+00 -0.13362125538E+03  0.22990113250E+04  0.22951249275E+04 0.  0.
        3    1    3    3  502    0 -0.52654650566E+03 -0.72845567724E+03 -0.78146157089E+03  0.11910420200E+04  0.10100000352E+00 0. -1.
       -3    1    3    3    0  502  0.52654650566E+03  0.72845567724E+03  0.64784031551E+03  0.11079693051E+04  0.10100000352E+00 0.  1.
</event>
<event>
 5   0  0.7044981E-06  0.2298165E+04  0.7818609E-02  0.8478645E-01
        2   -1    0    0  501    0  0.00000000000E+00  0.00000000000E+00  0.10416914394E+04  0.10416914394E+04  0.25500000920E-02 0.  1.
       -2   -1    0    0    0  501  0.00000000000E+00  0.00000000000E+00 -0.12675449868E+04  0.12675449868E+04  0.25500000920E-02 0. -1.
    10030    2    1    2    0    0  0.00000000000E+00  0.00000000000E+00 -0.22585354740E+03  0.23092364263E+04  0.22981651480E+04 0.  0.
        4    1    3    3  502    0 -0.25198881917E+03 -0.35369017819E+03  0.95605639431E+03  0.10500669260E+04  0.12699999809E+01 0.  1.
       -4    1    3    3    0  502  0.25198881917E+03  0.35369017819E+03 -0.11819099417E+04  0.12591695002E+04  0.12699999809E+01 0. -1.
</event>
<event>
 5   0  0.7044981E-06  0.2254724E+04  0.7818609E-02  0.8495990E-01
       -2   -1    0    0    0  501  0.00000000000E+00  0.00000000000E+00  0.81193107901E+03  0.81193107901E+03  0.25500000920E-02 0. -1.
        2   -1    0    0  501    0  0.00000000000E+00  0.00000000000E+00 -0.15653362677E+04  0.15653362677E+04  0.25500000920E-02 0.  1.
    10030    2    1    2    0    0  0.00000000000E+00  0.00000000000E+00 -0.75340518870E+03  0.23772673467E+04  0.22547240761E+04 0.  0.
        4    1    3    3  502    0 -0.17766579959E+03  0.10945254275E+04 -0.16219361652E+03  0.11206513418E+04  0.12699999809E+01 0.  1.
       -4    1    3    3    0  502  0.17766579959E+03 -0.10945254275E+04 -0.59121157218E+03  0.12566160049E+04  0.12699999809E+01 0. -1.
</event>
<event>
 5   0  0.3195296E-06  0.2304449E+04  0.7818609E-02  0.8476169E-01
       -1   -1    0    0    0  501  0.00000000000E+00  0.00000000000E+00  0.58963629025E+03  0.58963629027E+03  0.50400001928E-02 0.  1.
        1   -1    0    0  501    0  0.00000000000E+00  0.00000000000E+00 -0.22515932266E+04  0.22515932266E+04  0.50400001928E-02 0. -1.
    10030    2    1    2    0    0  0.00000000000E+00  0.00000000000E+00 -0.16619569363E+04  0.28412295169E+04  0.23044488081E+04 0.  0.
        2    1    3    3  502    0 -0.56020364104E+03  0.82303645845E+03 -0.15460834333E+04  0.18389103062E+04  0.25500000920E-02 0. -1.
       -2    1    3    3    0  502  0.56020364104E+03 -0.82303645845E+03 -0.11587350299E+03  0.10023192107E+04  0.25500000920E-02 0.  1.
</event>
<event>
 5   0  0.3338758E-06  0.2301040E+04  0.7818609E-02  0.8477511E-01
        1   -1    0    0  501    0  0.00000000000E+00  0.00000000000E+00  0.98488985380E+03  0.98488985382E+03  0.50400001928E-02 0. -1.
       -1   -1    0    0    0  501  0.00000000000E+00  0.00000000000E+00 -0.13440047810E+04  0.13440047810E+04  0.50400001928E-02 0.  1.
    10030    2    1    2    0    0  0.00000000000E+00  0.00000000000E+00 -0.35911492720E+03  0.23288946348E+04  0.23010403493E+04 0.  0.
        5    1    3    3  502    0  0.10486768363E+04 -0.34396580676E+03  0.14939848566E+03  0.11137223984E+04  0.46999998093E+01 0. -1.
       -5    1    3    3    0  502 -0.10486768363E+04  0.34396580676E+03 -0.50851341286E+03  0.12151722364E+04  0.46999998093E+01 0.  1.
</event>
<event>
 5   0  0.3338758E-06  0.2299020E+04  0.7818609E-02  0.8478308E-01
        1   -1    0    0  501    0  0.00000000000E+00  0.00000000000E+00  0.23605720513E+04  0.23605720513E+04  0.50400001928E-02 0.  1.
       -1   -1    0    0    0  501  0.00000000000E+00  0.00000000000E+00 -0.55976823832E+03  0.55976823835E+03  0.50400001928E-02 0. -1.
    10030    2    1    2    0    0  0.00000000000E+00  0.00000000000E+00  0.18008038129E+04  0.29203402896E+04  0.22990200161E+04 0.  0.
        5    1    3    3  502    0  0.66789735515E+03 -0.64354144121E+03  0.17629773248E+04  0.19920701798E+04  0.46999998093E+01 0.  1.
       -5    1    3    3    0  502 -0.66789735515E+03  0.64354144121E+03  0.37826488164E+02  0.92827010981E+03  0.46999998093E+01 0. -1.
</event>
<event>
 5   0  0.7003852E-06  0.2277864E+04  0.7818609E-02  0.8486700E-01
       -2   -1    0    0    0  501  0.00000000000E+00  0.00000000000E+00  0.12916311323E+04  0.12916311323E+04  0.25500000920E-02 0. -1.
        2   -1    0    0  501    0  0.00000000000E+00  0.00000000000E+00 -0.10042856338E+04  0.10042856338E+04  0.25500000920E-02 0.  1.
    10030    2    1    2    0    0  0.00000000000E+00  0.00000000000E+00  0.28734549849E+03  0.22959167661E+04  0.22778644300E+04 0.  0.
        2    1    3    3  502    0  0.94024088200E+03 -0.20873647697E+03 -0.46904521576E+03  0.10712736567E+04  0.25500000920E-02 0.  1.
       -2    1    3    3    0  502 -0.94024088200E+03  0.20873647697E+03  0.75639071424E+03  0.12246431095E+04  0.25500000920E-02 0. -1.
</event>
<event>
 5   0  0.7348107E-06  0.2294604E+04  0.7818609E-02  0.8480052E-01
       -2   -1    0    0    0  501  0.00000000000E+00  0.00000000000E+00  0.87796027594E+03  0.87796027594E+03  0.25500000920E-02 0. -1.
        2   -1    0    0  501    0  0.00000000000E+00  0.00000000000E+00 -0.14992730099E+04  0.14992730099E+04  0.25500000920E-02 0.  1.
    10030    2    1    2    0    0  0.00000000000E+00  0.00000000000E+00 -0.62131273395E+03  0.23772332858E+04  0.22946042321E+04 0.  0.
        3    1    3    3  502    0 -0.14067589633E+03 -0.65047511383E+03 -0.12788656718E+04  0.14416674368E+04  0.10100000352E+00 0.  1.
       -3    1    3    3    0  502  0.14067589633E+03  0.65047511383E+03  0.65755293790E+03  0.93556584903E+03  0.10100000352E+00 0. -1.
</event>
<event>
 5   0  0.7242214E-06  0.2301735E+04  0.7818609E-02  0.8477237E-01
        2   -1    0    0  501    0  0.00000000000E+00  0.00000000000E+00  0.15803282146E+04  0.15803282146E+04  0.25500000920E-02 0.  1.
       -2   -1    0    0    0  501  0.00000000000E+00  0.00000000000E+00 -0.83811459105E+03  0.83811459106E+03  0.25500000920E-02 0. -1.
    10030    2    1    2    0    0  0.00000000000E+00  0.00000000000E+00  0.74221362353E+03  0.24184428056E+04  0.23017351153E+04 0.  0.
        1    1    3    3  502    0  0.10446600972E+04  0.12141181366E+03 -0.11996742040E+03  0.10585120354E+04  0.50400001928E-02 0. -1.
       -1    1    3    3    0  502 -0.10446600972E+04 -0.12141181366E+03  0.86218104393E+03  0.13599307702E+04  0.50400001928E-02 0.  1.
</event>
<event>
 5   0  0.7003852E-06  0.2296737E+04  0.7818609E-02  0.8479209E-01
       -2   -1    0    0    0  501  0.00000000000E+00  0.00000000000E+00  0.13758828253E+04  0.13758828253E+04  0.25500000920E-02 0.  1.
        2   -1    0    0  501    0  0.00000000000E+00  0.00000000000E+00 -0.95847536932E+03  0.95847536933E+03  0.25500000920E-02 0. -1.
    10030    2    1    2    0    0  0.00000000000E+00  0.00000000000E+00  0.41740745598E+03  0.23343581946E+04  0.22967366407E+04 0.  0.
        2    1    3    3  502    0  0.14292284323E+03 -0.38064702319E+03  0.13002748860E+04  0.13623633416E+04  0.25500000920E-02 0.  1.
       -2    1    3    3    0  502 -0.14292284323E+03  0.38064702319E+03 -0.88286743000E+03  0.97199485304E+03  0.25500000920E-02 0. -1.
</event>
<event>
 5   0  0.7348107E-06  0.2302630E+04  0.7818609E-02  0.8476885E-01
       -2   -1    0    0    0  501  0.00000000000E+00  0.00000000000E+00  0.62792472593E+03  0.62792472594E+03  0.25500000920E-02 0.  1.
        2   -1    0    0  501    0  0.00000000000E+00  0.00000000000E+00 -0.21109629145E+04  0.21109629145E+04  0.25500000920E-02 0. -1.
    10030    2    1    2    0    0  0.00000000000E+00  0.00000000000E+00 -0.14830381886E+04  0.27388876405E+04  0.23026296355E+04 0.  0.
        3    1    3    3  502    0  0.66395485852E+03 -0.45695032944E+03 -0.17194020966E+04  0.18989426631E+04  0.10100000352E+00 0. -1.
       -3    1    3    3    0  502 -0.66395485852E+03  0.45695032944E+03  0.23636390804E+03  0.83994497734E+03  0.10100000352E+00 0.  1.
</event>
<event>
 5   0  0.3238713E-06  0.2298926E+04  0.7818609E-02  0.8478345E-01
       -1   -1    0    0    0  501  0.00000000000E+00  0.00000000000E+00  0.12574205124E+04  0.12574205124E+04  0.50400001928E-02 0. -1.
        1   -1    0    0  501    0  0.00000000000E+00  0.00000000000E+00 -0.10507744170E+04  0.10507744170E+04  0.50400001928E-02 0.  1.
    10030    2    1    2    0    0  0.00000000000E+00  0.00000000000E+00  0.20664609543E+03  0.23081949294E+04  0.22989261022E+04 0.  0.
        3    1    3    3  502    0 -0.21851701993E+03 -0.76011282948E+03 -0.73415269288E+03  0.10791206551E+04  0.10100000352E+00 0.  1.
       -3    1    3    3    0  502  0.21851701993E+03  0.76011282948E+03  0.94079878831E+03  0.12290742743E+04  0.10100000352E+00 0. -1.
</event>
<event>
 5   0  0.7497344E-06  0.2332211E+04  0.7818609E-02  0.8465328E-01
       -2   -1    0    0    0  501  0.00000000000E+00  0.00000000000E+00  0.17764900843E+04  0.17764900843E+04  0.25500000920E-02 0. -1.
        2   -1    0    0  501    0  0.00000000000E+00  0.00000000000E+00 -0.76544293853E+03  0.76544293854E+03  0.25500000920E-02 0.  1.
    10030    2    1    2    0    0  0.00000000000E+00  0.00000000000E+00  0.10110471458E+04  0.25419330229E+04  0.23322107884E+04 0.  0.
        5    1    3    3  502    0  0.28671477274E+03  0.32984500802E+03  0.16838403440E+04  0.17396388948E+04  0.46999998093E+01 0. -1.
       -5    1    3    3    0  502 -0.28671477274E+03 -0.32984500802E+03 -0.67279319826E+03  0.80229412801E+03  0.46999998093E+01 0.  1.
</event>
<event>
 5   0  0.3338758E-06  0.2297309E+04  0.7818609E-02  0.8478983E-01
       -1   -1    0    0    0  501  0.00000000000E+00  0.00000000000E+00  0.49509110610E+03  0.49509110612E+03  0.50400001928E-02 0.  1.
        1   -1    0    0  501    0  0.00000000000E+00  0.00000000000E+00 -0.26649783173E+04  0.26649783173E+04  0.50400001928E-02 0. -1.
    10030    2    1    2    0    0  0.00000000000E+00  0.00000000000E+00 -0.21698872112E+04  0.31600694234E+04  0.22973089151E+04 0.  0.
        5    1    3    3  502    0  0.47610490571E+03  0.10114522143E+04 -0.14480309153E+04  0.18293515476E+04  0.46999998093E+01 0. -1.
       -5    1    3    3    0  502 -0.47610490571E+03 -0.10114522143E+04 -0.72185629589E+03  0.13307178758E+04  0.46999998093E+01 0.  1.
</event>
<event>
 5   0  0.3238713E-06  0.2301799E+04  0.7818609E-02  0.8477212E-01
        1   -1    0    0  501    0  0.00000000000E+00  0.00000000000E+00  0.21419395658E+04  0.21419395658E+04  0.50400001928E-02 0. -1.
       -1   -1    0    0    0  501  0.00000000000E+00  0.00000000000E+00 -0.61839717791E+03  0.61839717793E+03  0.50400001928E-02 0.  1.
    10030    2    1    2    0    0  0.00000000000E+00  0.00000000000E+00  0.15235423878E+04  0.27603367437E+04  0.23017987599E+04 0.  0.
        3    1    3    3  502    0 -0.29287680470E+03  0.94132198115E+03  0.49573083699E+02  0.98707719848E+03  0.10100000352E+00 0.  1.
       -3    1    3    3    0  502  0.29287680470E+03 -0.94132198115E+03  0.14739693041E+04  0.17732595452E+04  0.10100000352E+00 0. -1.
</event>
<event>
 5   0  0.7348107E-06  0.2301216E+04  0.7818609E-02  0.8477442E-01
       -2   -1    0    0    0  501  0.00000000000E+00  0.00000000000E+00  0.52931959872E+03  0.52931959873E+03  0.25500000920E-02 0. -1.
        2   -1    0    0  501    0  0.00000000000E+00  0.00000000000E+00 -0.25011322577E+04  0.25011322577E+04  0.25500000920E-02 0.  1.
    10030    2    1    2    0    0  0.00000000000E+00  0.00000000000E+00 -0.19718126590E+04  0.30304518564E+04  0.23012156118E+04 0.  0.
        3    1    3    3  502    0  0.19558839352E+03 -0.18390868601E+03  0.48749551428E+03  0.55653311772E+03  0.10100000352E+00 0. -1.
       -3    1    3    3    0  502 -0.19558839352E+03  0.18390868601E+03 -0.24593081733E+04  0.24739187387E+04  0.10100000352E+00 0.  1.
</event>
<event>
 5   0  0.3184492E-06  0.2295523E+04  0.7818609E-02  0.8479688E-01
       -1   -1    0    0    0  501  0.00000000000E+00  0.00000000000E+00  0.20676210763E+04  0.20676210763E+04  0.50400001928E-02 0.  1.
        1   -1    0    0  501    0  0.00000000000E+00  0.00000000000E+00 -0.63713636971E+03  0.63713636973E+03  0.50400001928E-02 0. -1.
    10030    2    1    2    0    0  0.00000000000E+00  0.00000000000E+00  0.14304847066E+04  0.27047574460E+04  0.22955231095E+04 0.  0.
        1    1    3    3  502    0  0.10802466767E+04 -0.24184762644E+03  0.35798318185E+03  0.11634324714E+04  0.50400001928E-02 0. -1.
       -1    1    3    3    0  502 -0.10802466767E+04  0.24184762644E+03  0.10725015247E+04  0.15413249747E+04  0.50400001928E-02 0.  1.
</event>
<event>
 5   0  0.3238713E-06  0.2298236E+04  0.7818609E-02  0.8478617E-01
        1   -1    0    0  501    0  0.00000000000E+00  0.00000000000E+00  0.18095272964E+04  0.18095272964E+04  0.50400001928E-02 0. -1.
       -1   -1    0    0    0  501  0.00000000000E+00  0.00000000000E+00 -0.72973297470E+03  0.72973297472E+03  0.50400001928E-02 0.  1.
    10030    2    1    2    0    0  0.00000000000E+00  0.00000000000E+00  0.10797943217E+04  0.25392602711E+04  0.22982356162E+04 0.  0.
        3    1    3    3  502    0 -0.60831944600E+03 -0.32312573380E+03 -0.47635186639E+03  0.83748068577E+03  0.10100000352E+00 0.  1.
       -3    1    3    3    0  502  0.60831944600E+03  0.32312573380E+03  0.15561461881E+04  0.17017795854E+04  0.10100000352E+00 0. -1.
</event>
<event>
 5   0  0.3195296E-06  0.2297820E+04  0.7818609E-02  0.8478781E-01
        1   -1    0    0  501    0  0.00000000000E+00  0.00000000000E+00  0.13714899750E+04  0.13714899750E+04  0.50400001928E-02 0.  1.
       -1   -1    0    0    0  501  0.00000000000E+00  0.00000000000E+00 -0.96245272533E+03  0.96245272534E+03  0.50400001928E-02 0. -1.
    10030    2    1    2    0    0  0.00000000000E+00  0.00000000000E+00  0.40903724967E+03  0.23339427004E+04  0.22978200663E+04 0.  0.
        2    1    3    3  502    0  0.11017945277E+04  0.25257891119E+03  0.41329049855E+03  0.12035598547E+04  0.25500000920E-02 0.  1.
       -2    1    3    3    0  502 -0.11017945277E+04 -0.25257891119E+03 -0.42532488793E+01  0.11303828457E+04  0.25500000920E-02 0. -1.
</event>
<event>
 5   0  0.3338758E-06  0.2302418E+04  0.7818609E-02  0.8476968E-01
        1   -1    0    0  501    0  0.00000000000E+00  0.00000000000E+00  0.14369091037E+04  0.14369091037E+04  0.50400001928E-02 0.  1.
       -1   -1    0    0    0  501  0.00000000000E+00  0.00000000000E+00 -0.92231483318E+03  0.92231483319E+03  0.50400001928E-02 0. -1.
    10030    2    1    2    0    0  0.00000000000E+00  0.00000000000E+00  0.51459427050E+03  0.23592239369E+04  0.23024183636E+04 0.  0.
        5    1    3    3  502    0 -0.25183577549E+03  0.31715709318E+03 -0.84690327257E+03  0.93876361383E+03  0.46999998093E+01 0. -1.
       -5    1    3    3    0  502  0.25183577549E+03 -0.31715709318E+03  0.13614975431E+04  0.14204603230E+04  0.46999998093E+01 0.  1.
</event>
<event>
 5   0  0.7044981E-06  0.2296447E+04  0.7818609E-02  0.8479323E-01
        2   -1    0    0  501    0  0.00000000000E+00  0.00000000000E+00  0.25292959389E+04  0.25292959389E+04  0.25500000920E-02 0.  1.
       -2   -1    0    0    0  501  0.00000000000E+00  0.00000000000E+00 -0.52125851018E+03  0.52125851019E+03  0.25500000920E-02 0. -1.
    10030    2    1    2    0    0  0.00000000000E+00  0.00000000000E+00  0.20080374288E+04  0.30505544491E+04  0.22964468493E+04 0.  0.
        4    1    3    3  502    0  0.69931730602E+03 -0.28680484505E+03 -0.14417650639E+03  0.76947397067E+03  0.12699999809E+01 0. -1.
       -4    1    3    3    0  502 -0.69931730602E+03  0.28680484505E+03  0.21522139351E+04  0.22810804785E+04  0.12699999809E+01 0.  1.
</event>
<event>
 5   0  0.7242214E-06  0.2309113E+04  0.7818609E-02  0.8474337E-01
        2   -1    0    0  501    0  0.00000000000E+00  0.00000000000E+00  0.16693277955E+04  0.16693277955E+04  0.25500000920E-02 0. -1.
       -2   -1    0    0    0  501  0.00000000000E+00  0.00000000000E+00 -0.79852530136E+03  0.79852530136E+03  0.25500000920E-02 0.  1.
    10030    2    1    2    0    0  0.00000000000E+00  0.00000000000E+00  0.87080249412E+03  0.24678530968E+04  0.23091128002E+04 0.  0.
        1    1    3    3  502    0  0.98732360150E+03  0.17809228357E+03  0.10460614294E+04  0.14494030735E+04  0.50400001928E-02 0. -1.
       -1    1    3    3    0  502 -0.98732360150E+03 -0.17809228357E+03 -0.17525893526E+03  0.10184500233E+04  0.50400001928E-02 0.  1.
</event>
<event>
 5   0  0.3226427E-06  0.2293997E+04  0.7818609E-02  0.8480292E-01
        1   -1    0    0  501    0  0.00000000000E+00  0.00000000000E+00  0.17587328906E+04  0.17587328906E+04  0.50400001928E-02 0. -1.
       -1   -1    0    0    0  501  0.00000000000E+00  0.00000000000E+00 -0.74804166964E+03  0.74804166966E+03  0.50400001928E-02 0.  1.
    10030    2    1    2    0    0  0.00000000000E+00  0.00000000000E+00  0.10106912209E+04  0.25067745602E+04  0.22939969380E+04 0.  0.
        4    1    3    3  502    0 -0.83310068880E+03 -0.53404982722E+03  0.11390844854E+04  0.15089006108E+04  0.12699999809E+01 0. -1.
       -4    1    3    3    0  502  0.83310068880E+03  0.53404982722E+03 -0.12839326447E+03  0.99787394940E+03  0.12699999809E+01 0.  1.
</event>
<event>
 5   0  0.7003852E-06  0.2303086E+04  0.7818609E-02  0.8476705E-01
        2   -1    0    0  501    0  0.00000000000E+00  0.00000000000E+00  0.26606382630E+04  0.26606382630E+04  0.25500000920E-02 0.  1.
       -2   -1    0    0    0  501  0.00000000000E+00  0.00000000000E+00 -0.49839608163E+03  0.49839608164E+03  0.25500000920E-02 0. -1.
    10030    2    1    2    0    0  0.00000000000E+00  0.00000000000E+00  0.21622421813E+04  0.31590343446E+04  0.23030863509E+04 0.  0.
        2    1    3    3  502    0  0.57971132093E+03 -0.33866190772E+03  0.23644005594E+04  0.24578745103E+04  0.25500000920E-02 0.  1.
       -2    1    3    3    0  502 -0.57971132093E+03  0.33866190772E+03 -0.20215837805E+03  0.70115983426E+03  0.25500000920E-02 0. -1.
</event>
<event>
 5   0  0.3338758E-06  0.2302507E+04  0.7818609E-02  0.8476933E-01
       -1   -1    0    0    0  501  0.00000000000E+00  0.00000000000E+00  0.59849681049E+03  0.59849681051E+03  0.50400001928E-02 0.  1.
        1   -1    0    0  501    0  0.00000000000E+00  0.00000000000E+00 -0.22145221303E+04  0.22145221303E+04  0.50400001928E-02 0. -1.
    10030    2    1    2    0    0  0.00000000000E+00  0.00000000000E+00 -0.16160253198E+04  0.28130189408E+04  0.23025068354E+04 0.  0.
        5    1    3    3  502    0  0.75216290400E+03 -0.36683128009E+02 -0.18718690191E+04  0.20176745031E+04  0.46999998093E+01 0. -1.
       -5    1    3    3    0  502 -0.75216290400E+03  0.36683128009E+02  0.25584369930E+03  0.79534443765E+03  0.46999998093E+01 0.  1.
</event>
<event>
 5   0  0.7003852E-06  0.2276636E+04  0.7818609E-02  0.8487190E-01
        2   -1    0    0  501    0  0.00000000000E+00  0.00000000000E+00  0.17726042616E+04  0.17726042616E+04  0.25500000920E-02 0. -1.
       -2   -1    0    0    0  501  0.00000000000E+00  0.00000000000E+00 -0.73099687979E+03  0.73099687979E+03  0.25500000920E-02 0.  1.
    10030    2    1    2    0    0  0.00000000000E+00  0.00000000000E+00  0.10416073818E+04  0.25036011414E+04  0.22766362769E+04 0.  0.
        2    1    3    3  502    0 -0.11099940069E+04  0.24391507521E+03  0.59196092876E+03  0.12814050884E+04  0.25500000920E-02 0.  1.
       -2    1    3    3    0  502  0.11099940069E+04 -0.24391507521E+03  0.44964645307E+03  0.12221960530E+04  0.25500000920E-02 0. -1.
</event>
<event>
 5   0  0.3226427E-06  0.2298564E+04  0.7818609E-02  0.8478487E-01
       -1   -1    0    0    0  501  0.00000000000E+00  0.00000000000E+00  0.87692267631E+03  0.87692267633E+03  0.50400001928E-02 0. -1.
        1   -1    0    0  501    0  0.00000000000E+00  0.00000000000E+00 -0.15062322860E+04  0.15062322860E+04  0.50400001928E-02 0.  1.
    10030    2    1    2    0    0  0.00000000000E+00  0.00000000000E+00 -0.62930960970E+03  0.23831549623E+04  0.22985641148E+04 0.  0.
        4    1    3    3  502    0 -0.24047725614E+03 -0.35364896874E+03  0.79135095873E+03  0.89951923637E+03  0.12699999809E+01 0. -1.
       -4    1    3    3    0  502  0.24047725614E+03  0.35364896874E+03 -0.14206605684E+04  0.14836357260E+04  0.12699999809E+01 0.  1.
</event>
<event>
 5   0  0.3226427E-06  0.2295336E+04  0.7818609E-02  0.8479762E-01
       -1   -1    0    0    0  501  0.00000000000E+00  0.00000000000E+00  0.59066281747E+03  0.59066281749E+03  0.50400001928E-02 0. -1.
        1   -1    0    0  501    0  0.00000000000E+00  0.00000000000E+00 -0.22299393418E+04  0.22299393418E+04  0.50400001928E-02 0.  1.
    10030    2    1    2    0    0  0.00000000000E+00  0.00000000000E+00 -0.16392765244E+04  0.28206021593E+04  0.22953363627E+04 0.  0.
        4    1    3    3  502    0  0.64714747952E+03 -0.91807759916E+03 -0.53020967455E+03  0.12420910797E+04  0.12699999809E+01 0.  1.
       -4    1    3    3    0  502 -0.64714747952E+03  0.91807759916E+03 -0.11090668498E+04  0.15785110796E+04  0.12699999809E+01 0. -1.
</event>
<event>
 5   0  0.3195296E-06  0.2308527E+04  0.7818609E-02  0.8474567E-01
        1   -1    0    0  501    0  0.00000000000E+00  0.00000000000E+00  0.12488598415E+04  0.12488598415E+04  0.50400001928E-02 0. -1.
       -1   -1    0    0    0  501  0.00000000000E+00  0.00000000000E+00 -0.10668325200E+04  0.10668325200E+04  0.50400001928E-02 0.  1.
    10030    2    1    2    0    0  0.00000000000E+00  0.00000000000E+00  0.18202732148E+03  0.23156923615E+04  0.23085270558E+04 0.  0.
        2    1    3    3  502    0  0.11211317158E+04  0.26133659512E+03  0.65433128094E+01  0.11512063043E+04  0.25500000920E-02 0.  1.
       -2    1    3    3    0  502 -0.11211317158E+04 -0.26133659512E+03  0.17548400867E+03  0.11644860572E+04  0.25500000920E-02 0. -1.
</event>
<event>
 5   0  0.7003852E-06  0.2300152E+04  0.7818609E-02  0.8477861E-01
        2   -1    0    0  501    0  0.00000000000E+00  0.00000000000E+00  0.20909412361E+04  0.20909412361E+04  0.25500000920E-02 0. -1.
       -2   -1    0    0    0  501  0.00000000000E+00  0.00000000000E+00 -0.63257361285E+03  0.63257361285E+03  0.25500000920E-02 0.  1.
    10030    2    1    2    0    0  0.00000000000E+00  0.00000000000E+00  0.14583676233E+04  0.27235148490E+04  0.23001515185E+04 0.  0.
        2    1    3    3  502    0 -0.43389388154E+03  0.23502232991E+02 -0.53163487167E+03  0.68662354473E+03  0.25500000920E-02 0.  1.
       -2    1    3    3    0  502  0.43389388154E+03 -0.23502232991E+02  0.19900024950E+04  0.20368913043E+04  0.25500000920E-02 0. -1.
</event>
<event>
 5   0  0.2519625E-06  0.2317359E+04  0.7818609E-02  0.8471108E-01
       -3   -1    0    0    0  501  0.00000000000E+00  0.00000000000E+00  0.21791354499E+04  0.21791354523E+04  0.10100000352E+00 0.  1.
        3   -1    0    0  501    0  0.00000000000E+00  0.00000000000E+00 -0.61608755155E+03  0.61608755983E+03  0.10100000352E+00 0. -1.
    10030    2    1    2    0    0  0.00000000000E+00  0.00000000000E+00  0.15630478984E+04  0.27952230121E+04  0.23173590475E+04 0.  0.
        4    1    3    3  502    0  0.23914517909E+03 -0.12185569330E+03  0.21411204100E+04  0.21578779970E+04  0.12699999809E+01 0.  1.
       -4    1    3    3    0  502 -0.23914517909E+03  0.12185569330E+03 -0.57807251166E+03  0.63734501513E+03  0.12699999809E+01 0. -1.
</event>
<event>
 5   0  0.7497344E-06  0.2300541E+04  0.7818609E-02  0.8477708E-01
       -2   -1    0    0    0  501  0.00000000000E+00  0.00000000000E+00  0.95061473995E+03  0.95061473996E+03  0.25500000920E-02 0. -1.
        2   -1    0    0  501    0  0.00000000000E+00  0.00000000000E+00 -0.13918590991E+04  0.13918590991E+04  0.25500000920E-02 0.  1.
    10030    2    1    2    0    0  0.00000000000E+00  0.00000000000E+00 -0.44124435915E+03  0.23424738391E+04  0.23005406109E+04 0.  0.
        5    1    3    3  502    0  0.56636107459E+03 -0.98948730588E+03 -0.37587998062E+03  0.12004823385E+04  0.46999998093E+01 0.  1.
       -5    1    3    3    0  502 -0.56636107459E+03  0.98948730588E+03 -0.65364378531E+02  0.11419915005E+04  0.46999998093E+01 0. -1.
</event>
<event>
 5   0  0.7497344E-06  0.2299312E+04  0.7818609E-02  0.8478192E-01
        2   -1    0    0  501    0  0.00000000000E+00  0.00000000000E+00  0.19846108373E+04  0.19846108373E+04  0.25500000920E-02 0.  1.
       -2   -1    0    0    0  501  0.00000000000E+00  0.00000000000E+00 -0.66597883805E+03  0.66597883806E+03  0.25500000920E-02 0. -1.
    10030    2    1    2    0    0  0.00000000000E+00  0.00000000000E+00  0.13186319993E+04  0.26505896754E+04  0.22993119140E+04 0.  0.
        5    1    3    3  502    0 -0.64924010066E+03 -0.60669310888E+02 -0.43216989014E+03  0.78229558195E+03  0.46999998093E+01 0. -1.
       -5    1    3    3    0  502  0.64924010066E+03  0.60669310888E+02  0.17508018894E+04  0.18682940934E+04  0.46999998093E+01 0.  1.
</event>
<event>
 5   0  0.7044981E-06  0.2299417E+04  0.7818609E-02  0.8478151E-01
       -2   -1    0    0    0  501  0.00000000000E+00  0.00000000000E+00  0.11549694798E+04  0.11549694798E+04  0.25500000920E-02 0. -1.
        2   -1    0    0  501    0  0.00000000000E+00  0.00000000000E+00 -0.11444713789E+04  0.11444713789E+04  0.25500000920E-02 0.  1.
    10030    2    1    2    0    0  0.00000000000E+00  0.00000000000E+00  0.10498100896E+02  0.22994408588E+04  0.22994168941E+04 0.  0.
        4    1    3    3  502    0 -0.90668649025E+03 -0.47289652293E+03  0.53072230642E+03  0.11521194784E+04  0.12699999809E+01 0.  1.
       -4    1    3    3    0  502  0.90668649025E+03  0.47289652293E+03 -0.52022420552E+03  0.11473213804E+04  0.12699999809E+01 0. -1.
</event>
<event>
 5   0  0.3226427E-06  0.2300967E+04  0.7818609E-02  0.8477540E-01
       -1   -1    0    0    0  501  0.00000000000E+00  0.00000000000E+00  0.16683117044E+04  0.16683117044E+04  0.50400001928E-02 0.  1.
        1   -1    0    0  501    0  0.00000000000E+00  0.00000000000E+00 -0.79338448800E+03  0.79338448802E+03  0.50400001928E-02 0. -1.
    10030    2    1    2    0    0  0.00000000000E+00  0.00000000000E+00  0.87492721642E+03  0.24616961925E+04  0.23009672987E+04 0.  0.
        4    1    3    3  502    0 -0.36617924550E+03 -0.13614951301E+03  0.15951743422E+04  0.16423174859E+04  0.12699999809E+01 0.  1.
       -4    1    3    3    0  502  0.36617924550E+03  0.13614951301E+03 -0.72024712573E+03  0.81937870655E+03  0.12699999809E+01 0. -1.
</event>
<event>
 5   0  0.3195296E-06  0.2293199E+04  0.7818609E-02  0.8480608E-01
       -1   -1    0    0    0  501  0.00000000000E+00  0.00000000000E+00  0.99135464388E+03  0.99135464390E+03  0.50400001928E-02 0. -1.
        1   -1    0    0  501    0  0.00000000000E+00  0.00000000000E+00 -0.13261553281E+04  0.13261553281E+04  0.50400001928E-02 0.  1.
    10030    2    1    2    0    0  0.00000000000E+00  0.00000000000E+00 -0.33480068421E+03  0.23175099720E+04  0.22931988514E+04 0.  0.
        2    1    3    3  502    0  0.44289799552E+03  0.69178040598E+03 -0.97586344777E+03  0.12755501688E+04  0.25500000920E-02 0.  1.
       -2    1    3    3    0  502 -0.44289799552E+03 -0.69178040598E+03  0.64106276357E+03  0.10419598031E+04  0.25500000920E-02 0. -1.
</event>
<event>
 5   0  0.7003852E-06  0.2290478E+04  0.7818609E-02  0.8481685E-01
       -2   -1    0    0    0  501  0.00000000000E+00  0.00000000000E+00  0.88294822815E+03  0.88294822815E+03  0.25500000920E-02 0. -1.
        2   -1    0    0  501    0  0.00000000000E+00  0.00000000000E+00 -0.14854469665E+04  0.14854469665E+04  0.25500000920E-02 0.  1.
    10030    2    1    2    0    0  0.00000000000E+00  0.00000000000E+00 -0.60249873835E+03  0.23683951947E+04  0.22904783492E+04 0.  0.
        2    1    3    3  502    0 -0.15981286978E+03 -0.27341030292E+03 -0.14392700372E+04  0.14736999651E+04  0.25500000920E-02 0.  1.
       -2    1    3    3    0  502  0.15981286978E+03  0.27341030292E+03  0.83677129890E+03  0.89469522953E+03  0.25500000920E-02 0. -1.
</event>
<event>
 5   0  0.3195296E-06  0.2300067E+04  0.7818609E-02  0.8477895E-01
        1   -1    0    0  501    0  0.00000000000E+00  0.00000000000E+00  0.26338324213E+04  0.26338324213E+04  0.50400001928E-02 0.  1.
       -1   -1    0    0    0  501  0.00000000000E+00  0.00000000000E+00 -0.50214926959E+03  0.50214926961E+03  0.50400001928E-02 0. -1.
    10030    2    1    2    0    0  0.00000000000E+00  0.00000000000E+00  0.21316831517E+04  0.31359816909E+04  0.23000669787E+04 0.  0.
        2    1    3    3  502    0  0.28635929629E+03 -0.56692957481E+03  0.23730055414E+04  0.24565353832E+04  0.25500000920E-02 0.  1.
       -2    1    3    3    0  502 -0.28635929629E+03  0.56692957481E+03 -0.24132238965E+03  0.67944630775E+03  0.25500000920E-02 0. -1.
</event>
<event>
 5   0  0.7348107E-06  0.2301657E+04  0.7818609E-02  0.8477268E-01
       -2   -1    0    0    0  501  0.00000000000E+00  0.00000000000E+00  0.12127194382E+04  0.12127194382E+04  0.25500000920E-02 0.  1.
        2   -1    0    0  501    0  0.00000000000E+00  0.00000000000E+00 -0.10920965614E+04  0.10920965614E+04  0.25500000920E-02 0. -1.
    10030    2    1    2    0    0  0.00000000000E+00  0.00000000000E+00  0.12062287673E+03  0.23048159996E+04  0.23016574275E+04 0.  0.
        3    1    3    3  502    0  0.88940289500E+03 -0.58272958937E+03 -0.38051470810E+03  0.11293373000E+04  0.10100000352E+00 0. -1.
       -3    1    3    3    0  502 -0.88940289500E+03  0.58272958937E+03  0.50113758483E+03  0.11754786995E+04  0.10100000352E+00 0.  1.
</event>
<event>
 5   0  0.7497344E-06  0.2304359E+04  0.7818609E-02  0.8476204E-01
        2   -1    0    0  501    0  0.00000000000E+00  0.00000000000E+00  0.25479063538E+04  0.25479063538E+04  0.25500000920E-02 0.  1.
       -2   -1    0    0    0  501  0.00000000000E+00  0.00000000000E+00 -0.52102307728E+03  0.52102307728E+03  0.25500000920E-02 0. -1.
    10030    2    1    2    0    0  0.00000000000E+00  0.00000000000E+00  0.20268832766E+04  0.30689294311E+04  0.23043593549E+04 0.  0.
        5    1    3    3  502    0 -0.72175667488E+02 -0.48156251243E+02  0.25435363916E+04  0.25450201997E+04  0.46999998093E+01 0.  1.
       -5    1    3    3    0  502  0.72175667488E+02  0.48156251243E+02 -0.51665311503E+03  0.52390923143E+03  0.46999998093E+01 0. -1.
</event>
<event>
 5   0  0.3338758E-06  0.2294744E+04  0.7818609E-02  0.8479996E-01
       -1   -1    0    0    0  501  0.00000000000E+00  0.00000000000E+00  0.78304778867E+03  0.78304778868E+03  0.50400001928E-02 0. -1.
        1   -1    0    0  501    0  0.00000000000E+00  0.00000000000E+00 -0.16812036634E+04  0.16812036634E+04  0.50400001928E-02 0.  1.
    10030    2    1    2    0    0  0.00000000000E+00  0.00000000000E+00 -0.89815587473E+03  0.24642514521E+04  0.22947442654E+04 0.  0.
        5    1    3    3  502    0 -0.53523383143E+03  0.32347675097E+03  0.58391806414E+03  0.85562541941E+03  0.46999998093E+01 0. -1.
       -5    1    3    3    0  502  0.53523383143E+03 -0.32347675097E+03 -0.14820739389E+04  0.16086260327E+04  0.46999998093E+01 0.  1.
</event>
<event>
 5   0  0.3238713E-06  0.2303016E+04  0.7818609E-02  0.8476733E-01
       -1   -1    0    0    0  501  0.00000000000E+00  0.00000000000E+00  0.45601491956E+03  0.45601491959E+03  0.50400001928E-02 0. -1.
        1   -1    0    0  501    0  0.00000000000E+00  0.00000000000E+00 -0.29077341073E+04  0.29077341073E+04  0.50400001928E-02 0.  1.
    10030    2    1    2    0    0  0.00000000000E+00  0.00000000000E+00 -0.24517191878E+04  0.33637490269E+04  0.23030155320E+04 0.  0.
        3    1    3    3  502    0 -0.10578399186E+04 -0.33565466493E+03 -0.16743346530E+04  0.20087523212E+04  0.10100000352E+00 0.  1.
       -3    1    3    3    0  502  0.10578399186E+04  0.33565466493E+03 -0.77738453475E+03  0.13549967057E+04  0.10100000352E+00 0. -1.
</event>
<event>
 5   0  0.7348107E-06  0.2302491E+04  0.7818609E-02  0.8476939E-01
        2   -1    0    0  501    0  0.00000000000E+00  0.00000000000E+00  0.15462840669E+04  0.15462840669E+04  0.25500000920E-02 0.  1.
       -2   -1    0    0    0  501  0.00000000000E+00  0.00000000000E+00 -0.85713005522E+03  0.85713005522E+03  0.25500000920E-02 0. -1.
    10030    2    1    2    0    0  0.00000000000E+00  0.00000000000E+00  0.68915401170E+03  0.24034141221E+04  0.23024913009E+04 0.  0.
        3    1    3    3  502    0  0.41306266276E+03  0.85835348328E+03  0.10194247511E+04  0.13952126358E+04  0.10100000352E+00 0.  1.
       -3    1    3    3    0  502 -0.41306266276E+03 -0.85835348328E+03 -0.33027073940E+03  0.10082014864E+04  0.10100000352E+00 0. -1.
</event>
<event>
 5   0  0.7044981E-06  0.2304836E+04  0.7818609E-02  0.8476017E-01
        2   -1    0    0  501    0  0.00000000000E+00  0.00000000000E+00  0.12763802317E+04  0.12763802317E+04  0.25500000920E-02 0.  1.
       -2   -1    0    0    0  501  0.00000000000E+00  0.00000000000E+00 -0.10404948525E+04  0.10404948525E+04  0.25500000920E-02 0. -1.
    10030    2    1    2    0    0  0.00000000000E+00  0.00000000000E+00  0.23588537917E+03  0.23168750842E+04  0.23048358388E+04 0.  0.
        4    1    3    3  502    0  0.10627132544E+03 -0.10246901710E+04  0.63715000999E+03  0.12112990091E+04  0.12699999809E+01 0.  1.
       -4    1    3    3    0  502 -0.10627132544E+03  0.10246901710E+04 -0.40126463081E+03  0.11055760752E+04  0.12699999809E+01 0. -1.
</event>
<event>
 5   0  0.7242214E-06  0.2300368E+04  0.7818609E-02  0.8477776E-01
        2   -1    0    0  501    0  0.00000000000E+00  0.00000000000E+00  0.88304240425E+03  0.88304240426E+03  0.25500000920E-02 0. -1.
       -2   -1    0    0    0  501  0.00000000000E+00  0.00000000000E+00 -0.14981421259E+04  0.14981421259E+04  0.25500000920E-02 0.  1.
    10030    2    1    2    0    0  0.00000000000E+00  0.00000000000E+00 -0.61509972162E+03  0.23811845301E+04  0.23003678182E+04 0.  0.
        1    1    3    3  502    0 -0.22338164569E+03 -0.99234756096E+03 -0.86332034765E+03  0.13341570612E+04  0.50400001928E-02 0.  1.
       -1    1    3    3    0  502  0.22338164569E+03  0.99234756096E+03  0.24822062603E+03  0.10470274689E+04  0.50400001928E-02 0. -1.
</event>
<event>
 5   0  0.7003852E-06  0.2295207E+04  0.7818609E-02  0.8479813E-01
        2   -1    0    0  501    0  0.00000000000E+00  0.00000000000E+00  0.99585145583E+03  0.99585145583E+03  0.25500000920E-02 0.  1.
       -2   -1    0    0    0  501  0.00000000000E+00  0.00000000000E+00 -0.13224807145E+04  0.13224807145E+04  0.25500000920E-02 0. -1.
    10030    2    1    2    0    0  0.00000000000E+00  0.00000000000E+00 -0.32662925871E+03  0.23183321704E+04  0.22952074807E+04 0.  0.
        2    1    3    3  502    0  0.30277830582E+03  0.10807973899E+04 -0.40488239708E+03  0.11932005096E+04  0.25500000920E-02 0.  1.
       -2    1    3    3    0  502 -0.30277830582E+03 -0.10807973899E+04  0.78253138365E+02  0.11251316608E+04  0.25500000920E-02 0. -1.
</event>
<event>
 5   0  0.3184492E-06  0.2300436E+04  0.7818609E-02  0.8477749E-01
        1   -1    0    0  501    0  0.00000000000E+00  0.00000000000E+00  0.22244966943E+04  0.22244966944E+04  0.50400001928E-02 0. -1.
       -1   -1    0    0    0  501  0.00000000000E+00  0.00000000000E+00 -0.59474185118E+03  0.59474185121E+03  0.50400001928E-02 0.  1.
    10030    2    1    2    0    0  0.00000000000E+00  0.00000000000E+00  0.16297548432E+04  0.28192385456E+04  0.23004358561E+04 0.  0.
        1    1    3    3  502    0  0.98353667333E+03 -0.19676065518E+03  0.15048180002E+04  0.18084624289E+04  0.50400001928E-02 0. -1.
       -1    1    3    3    0  502 -0.98353667333E+03  0.19676065518E+03  0.12493684301E+03  0.10107761166E+04  0.50400001928E-02 0.  1.
</event>
<event>
 5   0  0.7044981E-06  0.2300070E+04  0.7818609E-02  0.8477894E-01
       -2   -1    0    0    0  501  0.00000000000E+00  0.00000000000E+00  0.24587778637E+04  0.24587778637E+04  0.25500000920E-02 0.  1.
        2   -1    0    0  501    0  0.00000000000E+00  0.00000000000E+00 -0.53790145640E+03  0.53790145641E+03  0.25500000920E-02 0. -1.
    10030    2    1    2    0    0  0.00000000000E+00  0.00000000000E+00  0.19208764073E+04  0.29966793201E+04  0.23000697327E+04 0.  0.
        4    1    3    3  502    0  0.25336031950E+03  0.46551558718E+03 -0.36930238208E+03  0.64597374228E+03  0.12699999809E+01 0. -1.
       -4    1    3    3    0  502 -0.25336031950E+03 -0.46551558718E+03  0.22901787894E+04  0.23507055778E+04  0.12699999809E+01 0.  1.
</event>
<event>
 5   0  0.7044981E-06  0.2317013E+04  0.7818609E-02  0.8471243E-01
        2   -1    0    0  501    0  0.00000000000E+00  0.00000000000E+00  0.16424462039E+04  0.16424462039E+04  0.25500000920E-02 0.  1.
       -2   -1    0    0    0  501  0.00000000000E+00  0.00000000000E+00 -0.81715767393E+03  0.81715767393E+03  0.25500000920E-02 0. -1.
    10030    2    1    2    0    0  0.00000000000E+00  0.00000000000E+00  0.82528853000E+03  0.24596038779E+04  0.23170131804E+04 0.  0.
        4    1    3    3  502    0  0.45445782453E+03 -0.10486417841E+04  0.21135867085E+03  0.11622631399E+04  0.12699999809E+01 0. -1.
       -4    1    3    3    0  502 -0.45445782453E+03  0.10486417841E+04  0.61392985915E+03  0.12973407380E+04  0.12699999809E+01 0.  1.
</event>
<event>
 5   0  0.7348107E-06  0.2302364E+04  0.7818609E-02  0.8476990E-01
       -2   -1    0    0    0  501  0.00000000000E+00  0.00000000000E+00  0.14232523228E+04  0.14232523228E+04  0.25500000920E-02 0.  1.
        2   -1    0    0  501    0  0.00000000000E+00  0.00000000000E+00 -0.93112087712E+03  0.93112087712E+03  0.25500000920E-02 0. -1.
    10030    2    1    2    0    0  0.00000000000E+00  0.00000000000E+00  0.49213144565E+03  0.23543731999E+04  0.23023639601E+04 0.  0.
        3    1    3    3  502    0  0.35242072109E+02  0.65378838784E+02 -0.92866822325E+03  0.93163355204E+03  0.10100000352E+00 0. -1.
       -3    1    3    3    0  502 -0.35242072109E+02 -0.65378838784E+02  0.14207996689E+04  0.14227396478E+04  0.10100000352E+00 0.  1.
</event>
<event>
 5   0  0.3338758E-06  0.2301155E+04  0.7818609E-02  0.8477466E-01
        1   -1    0    0  501    0  0.00000000000E+00  0.00000000000E+00  0.14643368673E+04  0.14643368673E+04  0.50400001928E-02 0. -1.
       -1   -1    0    0    0  501  0.00000000000E+00  0.00000000000E+00 -0.90404628760E+03  0.90404628761E+03  0.50400001928E-02 0.  1.
    10030    2    1    2    0    0  0.00000000000E+00  0.00000000000E+00  0.56029057967E+03  0.23683831549E+04  0.23011547611E+04 0.  0.
        5    1    3    3  502    0  0.24453059434E+03 -0.68850201516E+03  0.11949177465E+04  0.14006001382E+04  0.46999998093E+01 0. -1.
       -5    1    3    3    0  502 -0.24453059434E+03  0.68850201516E+03 -0.63462716680E+03  0.96778301663E+03  0.46999998093E+01 0.  1.
</event>
<event>
 5   0  0.3195296E-06  0.2296340E+04  0.7818609E-02  0.8479366E-01
        1   -1    0    0  501    0  0.00000000000E+00  0.00000000000E+00  0.10493389335E+04  0.10493389335E+04  0.50400001928E-02 0.  1.
       -1   -1    0    0    0  501  0.00000000000E+00  0.00000000000E+00 -0.12563090674E+04  0.12563090674E+04  0.50400001928E-02 0. -1.
    10030    2    1    2    0    0  0.00000000000E+00  0.00000000000E+00 -0.20697013395E+03  0.23056480009E+04  0.22963397109E+04 0.  0.
        2    1    3    3  502    0  0.10965387406E+03 -0.10849823713E+04 -0.46422306989E+03  0.11852062170E+04  0.25500000920E-02 0. -1.
       -2    1    3    3    0  502 -0.10965387406E+03  0.10849823713E+04  0.25725293593E+03  0.11204417839E+04  0.25500000920E-02 0.  1.
</event>
<event>
 5   0  0.7242214E-06  0.2300635E+04  0.7818609E-02  0.8477671E-01
       -2   -1    0    0    0  501  0.00000000000E+00  0.00000000000E+00  0.13654980513E+04  0.13654980513E+04  0.25500000920E-02 0. -1.
        2   -1    0    0  501    0  0.00000000000E+00  0.00000000000E+00 -0.96904565167E+03  0.96904565167E+03  0.25500000920E-02 0.  1.
    10030    2    1    2    0    0  0.00000000000E+00  0.00000000000E+00  0.39645239962E+03  0.23345437030E+04  0.23006346507E+04 0.  0.
        1    1    3    3  502    0  0.11789781122E+03  0.27796294205E+03 -0.92811884888E+03  0.97599584462E+03  0.50400001928E-02 0.  1.
       -1    1    3    3    0  502 -0.11789781122E+03 -0.27796294205E+03  0.13245712485E+04  0.13585478583E+04  0.50400001928E-02 0. -1.
</event>
<event>
 5   0  0.7044981E-06  0.2299570E+04  0.7818609E-02  0.8478091E-01
        2   -1    0    0  501    0  0.00000000000E+00  0.00000000000E+00  0.51311046753E+03  0.51311046754E+03  0.25500000920E-02 0. -1.
       -2   -1    0    0    0  501  0.00000000000E+00  0.00000000000E+00 -0.25764540128E+04  0.25764540128E+04  0.25500000920E-02 0.  1.
    10030    2    1    2    0    0  0.00000000000E+00  0.00000000000E+00 -0.20633435453E+04  0.30895644804E+04  0.22995699799E+04 0.  0.
        4    1    3    3  502    0 -0.10218868238E+04 -0.52701703801E+03 -0.10344484601E+04  0.15466366310E+04  0.12699999809E+01 0. -1.
       -4    1    3    3    0  502  0.10218868238E+04  0.52701703801E+03 -0.10288950852E+04  0.15429278493E+04  0.12699999809E+01 0.  1.
</event>
<event>
 5   0  0.7348107E-06  0.2298817E+04  0.7818609E-02  0.8478388E-01
        2   -1    0    0  501    0  0.00000000000E+00  0.00000000000E+00  0.14072929691E+04  0.14072929691E+04  0.25500000920E-02 0. -1.
       -2   -1    0    0    0  501  0.00000000000E+00  0.00000000000E+00 -0.93878136057E+03  0.93878136058E+03  0.25500000920E-02 0.  1.
    10030    2    1    2    0    0  0.00000000000E+00  0.00000000000E+00  0.46851160854E+03  0.23460743297E+04  0.22988174423E+04 0.  0.
        3    1    3    3  502    0 -0.21195207098E+03 -0.92455340149E+03 -0.42825609543E+03  0.10407333790E+04  0.10100000352E+00 0.  1.
       -3    1    3    3    0  502  0.21195207098E+03  0.92455340149E+03  0.89676770397E+03  0.13053409507E+04  0.10100000352E+00 0. -1.
</event>
<event>
 5   0  0.3184492E-06  0.2297940E+04  0.7818609E-02  0.8478734E-01
       -1   -1    0    0    0  501  0.00000000000E+00  0.00000000000E+00  0.11845371585E+04  0.11845371586E+04  0.50400001928E-02 0.  1.
        1   -1    0    0  501    0  0.00000000000E+00  0.00000000000E+00 -0.11144711984E+04  0.11144711984E+04  0.50400001928E-02 0. -1.
    10030    2    1    2    0    0  0.00000000000E+00  0.00000000000E+00  0.70065960120E+02  0.22990083570E+04  0.22979404228E+04 0.  0.
        1    1    3    3  502    0  0.59824715933E+03 -0.94606187138E+03  0.29438273101E+03  0.11574082773E+04  0.50400001928E-02 0. -1.
       -1    1    3    3    0  502 -0.59824715933E+03  0.94606187138E+03 -0.22431677089E+03  0.11416000796E+04  0.50400001928E-02 0.  1.
</event>
<event>
 5   0  0.7003852E-06  0.2294114E+04  0.7818609E-02  0.8480246E-01
       -2   -1    0    0    0  501  0.00000000000E+00  0.00000000000E+00  0.11036290587E+04  0.11036290588E+04  0.25500000920E-02 0.  1.
        2   -1    0    0  501    0  0.00000000000E+00  0.00000000000E+00 -0.11921933537E+04  0.11921933537E+04  0.25500000920E-02 0. -1.
    10030    2    1    2    0    0  0.00000000000E+00  0.00000000000E+00 -0.88564294989E+02  0.22958224125E+04  0.22941135358E+04 0.  0.
        2    1    3    3  502    0 -0.69176282355E+03 -0.47784676839E+03  0.73659768477E+03  0.11177877649E+04  0.25500000920E-02 0.  1.
       -2    1    3    3    0  502  0.69176282355E+03  0.47784676839E+03 -0.82516197976E+03  0.11780346476E+04  0.25500000920E-02 0. -1.
</event>
<event>
 5   0  0.3184492E-06  0.2301338E+04  0.7818609E-02  0.8477394E-01
        1   -1    0    0  501    0  0.00000000000E+00  0.00000000000E+00  0.13433734010E+04  0.13433734010E+04  0.50400001928E-02 0. -1.
       -1   -1    0    0    0  501  0.00000000000E+00  0.00000000000E+00 -0.98560775204E+03  0.98560775205E+03  0.50400001928E-02 0.  1.
    10030    2    1    2    0    0  0.00000000000E+00  0.00000000000E+00  0.35776564897E+03  0.23289811531E+04  0.23013380786E+04 0.  0.
        1    1    3    3  502    0 -0.53425140675E+03 -0.31245768198E+03  0.11605784838E+04  0.13152934219E+04  0.50400001928E-02 0. -1.
       -1    1    3    3    0  502  0.53425140675E+03  0.31245768198E+03 -0.80281283479E+03  0.10136877312E+04  0.50400001928E-02 0.  1.
</event>
<event>
 5   0  0.3195296E-06  0.2299913E+04  0.7818609E-02  0.8477956E-01
       -1   -1    0    0    0  501  0.00000000000E+00  0.00000000000E+00  0.21276088588E+04  0.21276088589E+04  0.50400001928E-02 0.  1.
        1   -1    0    0  501    0  0.00000000000E+00  0.00000000000E+00 -0.62154261480E+03  0.62154261482E+03  0.50400001928E-02 0. -1.
    10030    2    1    2    0    0  0.00000000000E+00  0.00000000000E+00  0.15060662440E+04  0.27491514737E+04  0.22999126709E+04 0.  0.
        2    1    3    3  502    0  0.58230877771E+01 -0.43632105355E+03 -0.51873677972E+03  0.67786268282E+03  0.25500000920E-02 0. -1.
       -2    1    3    3    0  502 -0.58230877771E+01  0.43632105355E+03  0.20248030238E+04  0.20712887909E+04  0.25500000920E-02 0.  1.
</event>
<event>
 5   0  0.7497344E-06  0.2298447E+04  0.7818609E-02  0.8478534E-01
        2   -1    0    0  501    0  0.00000000000E+00  0.00000000000E+00  0.10435685654E+04  0.10435685654E+04  0.25500000920E-02 0.  1.
       -2   -1    0    0    0  501  0.00000000000E+00  0.00000000000E+00 -0.12655758203E+04  0.12655758203E+04  0.25500000920E-02 0. -1.
    10030    2    1    2    0    0  0.00000000000E+00  0.00000000000E+00 -0.22200725494E+03  0.23091443857E+04  0.22984474266E+04 0.  0.
        5    1    3    3  502    0  0.42869569567E+03  0.11798990696E+03  0.95364117182E+03  0.10522144231E+04  0.46999998093E+01 0.  1.
       -5    1    3    3    0  502 -0.42869569567E+03 -0.11798990696E+03 -0.11756484268E+04  0.12569299626E+04  0.46999998093E+01 0. -1.
</event>
<event>
 5   0  0.3184492E-06  0.2302045E+04  0.7818609E-02  0.8477115E-01
       -1   -1    0    0    0  501  0.00000000000E+00  0.00000000000E+00  0.10250552865E+04  0.10250552865E+04  0.50400001928E-02 0.  1.
        1   -1    0    0  501    0  0.00000000000E+00  0.00000000000E+00 -0.12924698753E+04  0.12924698753E+04  0.50400001928E-02 0. -1.
    10030    2    1    2    0    0  0.00000000000E+00  0.00000000000E+00 -0.26741458879E+03  0.23175251619E+04  0.23020452458E+04 0.  0.
        1    1    3    3  502    0 -0.49178488172E+03 -0.81513210545E+03  0.51760556111E+03  0.10836088945E+04  0.50400001928E-02 0.  1.
       -1    1    3    3    0  502  0.49178488172E+03  0.81513210545E+03 -0.78502014990E+03  0.12339162674E+04  0.50400001928E-02 0. -1.
</event>
<event>
 5   0  0.7044981E-06  0.2302071E+04  0.7818609E-02  0.8477105E-01
        2   -1    0    0  501    0  0.00000000000E+00  0.00000000000E+00  0.12510759996E+04  0.12510759996E+04  0.25500000920E-02 0. -1.
       -2   -1    0    0    0  501  0.00000000000E+00  0.00000000000E+00 -0.10589941798E+04  0.10589941798E+04  0.25500000920E-02 0.  1.
    10030    2    1    2    0    0  0.00000000000E+00  0.00000000000E+00  0.19208181977E+03  0.23100701795E+04  0.23020705481E+04 0.  0.
        4    1    3    3  502    0 -0.27509429133E+03 -0.76558651304E+03 -0.72108661653E+03  0.10870911183E+04  0.12699999809E+01 0.  1.
       -4    1    3    3    0  502  0.27509429133E+03  0.76558651304E+03  0.91316843631E+03  0.12229790612E+04  0.12699999809E+01 0. -1.
</event>
<event>
 5   0  0.2519625E-06  0.2311238E+04  0.7818609E-02  0.8473503E-01
        3   -1    0    0  501    0  0.00000000000E+00  0.00000000000E+00  0.15949835131E+04  0.15949835163E+04  0.10100000352E+00 0.  1.
       -3   -1    0    0    0  501  0.00000000000E+00  0.00000000000E+00 -0.83728491510E+03  0.83728492119E+03  0.10100000352E+00 0. -1.
    10030    2    1    2    0    0  0.00000000000E+00  0.00000000000E+00  0.75769859797E+03  0.24322684375E+04  0.23112383232E+04 0.  0.
        1    1    3    3  502    0 -0.22317211525E+03 -0.58039931463E+03 -0.64621479191E+03  0.89680695512E+03  0.50400001928E-02 0. -1.
       -1    1    3    3    0  502  0.22317211525E+03  0.58039931463E+03  0.14039133899E+04  0.15354614823E+04  0.50400001928E-02 0.  1.
</event>
<event>
 5   0  0.7348107E-06  0.2297637E+04  0.7818609E-02  0.8478853E-01
       -2   -1    0    0    0  501  0.00000000000E+00  0.00000000000E+00  0.60297381487E+03  0.60297381488E+03  0.25500000920E-02 0.  1.
        2   -1    0    0  501    0  0.00000000000E+00  0.00000000000E+00 -0.21887923122E+04  0.21887923122E+04  0.25500000920E-02 0. -1.
    10030    2    1    2    0    0  0.00000000000E+00  0.00000000000E+00 -0.15858184973E+04  0.27917661271E+04  0.22976374392E+04 0.  0.
        3    1    3    3  502    0  0.91791908289E+03  0.12702329603E+03 -0.16179642255E+04  0.18645424655E+04  0.10100000352E+00 0. -1.
       -3    1    3    3    0  502 -0.91791908289E+03 -0.12702329603E+03  0.32145728224E+02  0.92722366153E+03  0.10100000352E+00 0.  1.
</event>
<event>
 5   0  0.7348107E-06  0.2297271E+04  0.7818609E-02  0.8478998E-01
       -2   -1    0    0    0  501  0.00000000000E+00  0.00000000000E+00  0.99777890983E+03  0.99777890983E+03  0.25500000920E-02 0.  1.
        2   -1    0    0  501    0  0.00000000000E+00  0.00000000000E+00 -0.13222999215E+04  0.13222999215E+04  0.25500000920E-02 0. -1.
    10030    2    1    2    0    0  0.00000000000E+00  0.00000000000E+00 -0.32452101164E+03  0.23200788313E+04  0.22972705318E+04 0.  0.
        3    1    3    3  502    0 -0.33830822845E+03 -0.97172034482E+03 -0.67788814729E+03  0.12321628287E+04  0.10100000352E+00 0. -1.
       -3    1    3    3    0  502  0.33830822845E+03  0.97172034482E+03  0.35336713566E+03  0.10879160026E+04  0.10100000352E+00 0.  1.
</event>
<event>
 5   0  0.3238713E-06  0.2299059E+04  0.7818609E-02  0.8478292E-01
        1   -1    0    0  501    0  0.00000000000E+00  0.00000000000E+00  0.15419114476E+04  0.15419114476E+04  0.50400001928E-02 0.  1.
       -1   -1    0    0    0  501  0.00000000000E+00  0.00000000000E+00 -0.85700002343E+03  0.85700002344E+03  0.50400001928E-02 0. -1.
    10030    2    1    2    0    0  0.00000000000E+00  0.00000000000E+00  0.68491142413E+03  0.23989114710E+04  0.22990590655E+04 0.  0.
        3    1    3    3  502    0 -0.43260787404E+03  0.49896620454E+02 -0.76760028387E+03  0.88252447638E+03  0.10100000352E+00 0. -1.
       -3    1    3    3    0  502  0.43260787404E+03 -0.49896620454E+02  0.14525117080E+04  0.15163869946E+04  0.10100000352E+00 0.  1.
</event>
<event>
 5   0  0.7003852E-06  0.2301931E+04  0.7818609E-02  0.8477160E-01
       -2   -1    0    0    0  501  0.00000000000E+00  0.00000000000E+00  0.11950185606E+04  0.11950185606E+04  0.25500000920E-02 0.  1.
        2   -1    0    0  501    0  0.00000000000E+00  0.00000000000E+00 -0.11085368281E+04  0.11085368281E+04  0.25500000920E-02 0. -1.
    10030    2    1    2    0    0  0.00000000000E+00  0.00000000000E+00  0.86481732462E+02  0.23035553887E+04  0.23019314366E+04 0.  0.
        2    1    3    3  502    0  0.45647568598E+02  0.55841957357E+03  0.10493386056E+04  0.11895493390E+04  0.25500000920E-02 0.  1.
       -2    1    3    3    0  502 -0.45647568598E+02 -0.55841957357E+03 -0.96285687314E+03  0.11140060497E+04  0.25500000920E-02 0. -1.
</event>
<event>
 5   0  0.7044981E-06  0.2300149E+04  0.7818609E-02  0.8477862E-01
       -2   -1    0    0    0  501  0.00000000000E+00  0.00000000000E+00  0.11728514804E+04  0.11728514804E+04  0.25500000920E-02 0.  1.
        2   -1    0    0  501    0  0.00000000000E+00  0.00000000000E+00 -0.11277401525E+04  0.11277401525E+04  0.25500000920E-02 0. -1.
    10030    2    1    2    0    0  0.00000000000E+00  0.00000000000E+00  0.45111327941E+02  0.23005916329E+04  0.23001493059E+04 0.  0.
        4    1    3    3  502    0 -0.61595911055E+03 -0.88312472945E+03  0.42680560451E+03  0.11582225825E+04  0.12699999809E+01 0. -1.
       -4    1    3    3    0  502  0.61595911055E+03  0.88312472945E+03 -0.38169427657E+03  0.11423690504E+04  0.12699999809E+01 0.  1.
</event>
<event>
 5   0  0.7044981E-06  0.2290663E+04  0.7818609E-02  0.8481612E-01
       -2   -1    0    0    0  501  0.00000000000E+00  0.00000000000E+00  0.59756402609E+03  0.59756402610E+03  0.25500000920E-02 0. -1.
        2   -1    0    0  501    0  0.00000000000E+00  0.00000000000E+00 -0.21952188820E+04  0.21952188820E+04  0.25500000920E-02 0.  1.
    10030    2    1    2    0    0  0.00000000000E+00  0.00000000000E+00 -0.15976548559E+04  0.27927829081E+04  0.22906626406E+04 0.  0.
        4    1    3    3  502    0  0.92695433890E+03 -0.51240388905E+03 -0.26741692504E+03  0.10923898190E+04  0.12699999809E+01 0. -1.
       -4    1    3    3    0  502 -0.92695433890E+03  0.51240388905E+03 -0.13302379309E+04  0.17003930891E+04  0.12699999809E+01 0.  1.
</event>
<event>
 5   0  0.3226427E-06  0.2298129E+04  0.7818609E-02  0.8478659E-01
       -1   -1    0    0    0  501  0.00000000000E+00  0.00000000000E+00  0.11438044577E+04  0.11438044577E+04  0.50400001928E-02 0. -1.
        1   -1    0    0  501    0  0.00000000000E+00  0.00000000000E+00 -0.11543491363E+04  0.11543491363E+04  0.50400001928E-02 0.  1.
    10030    2    1    2    0    0  0.00000000000E+00  0.00000000000E+00 -0.10544678596E+02  0.22981535940E+04  0.22981294027E+04 0.  0.
        4    1    3    3  502    0  0.30468333109E+02 -0.24817670593E+03  0.11162688145E+04  0.11439308002E+04  0.12699999809E+01 0. -1.
       -4    1    3    3    0  502 -0.30468333109E+02  0.24817670593E+03 -0.11268134931E+04  0.11542227938E+04  0.12699999809E+01 0.  1.
</event>
<event>
 5   0  0.3238713E-06  0.2272806E+04  0.7818609E-02  0.8488721E-01
        1   -1    0    0  501    0  0.00000000000E+00  0.00000000000E+00  0.78393356206E+03  0.78393356208E+03  0.50400001928E-02 0. -1.
       -1   -1    0    0    0  501  0.00000000000E+00  0.00000000000E+00 -0.16473484365E+04  0.16473484365E+04  0.50400001928E-02 0.  1.
    10030    2    1    2    0    0  0.00000000000E+00  0.00000000000E+00 -0.86341487448E+03  0.24312819986E+04  0.22728059555E+04 0.  0.
        3    1    3    3  502    0 -0.27669054040E+03  0.74379103961E+03 -0.13018295914E+04  0.15246452246E+04  0.10100000352E+00 0.  1.
       -3    1    3    3    0  502  0.27669054040E+03 -0.74379103961E+03  0.43841471692E+03  0.90663677399E+03  0.10100000352E+00 0. -1.
</event>
<event>
 5   0  0.3184492E-06  0.2301919E+04  0.7818609E-02  0.8477165E-01
        1   -1    0    0  501    0  0.00000000000E+00  0.00000000000E+00  0.11144964679E+04  0.11144964679E+04  0.50400001928E-02 0. -1.
       -1   -1    0    0    0  501  0.00000000000E+00  0.00000000000E+00 -0.11886152548E+04  0.11886152548E+04  0.50400001928E-02 0.  1.
    10030    2    1    2    0    0  0.00000000000E+00  0.00000000000E+00 -0.74118786972E+02  0.23031117227E+04  0.23019187676E+04 0.  0.
        1    1    3    3  502    0  0.28000819050E+03  0.21793864098E+03 -0.11325266611E+04  0.11868102106E+04  0.50400001928E-02 0.  1.
       -1    1    3    3    0  502 -0.28000819050E+03 -0.21793864098E+03  0.10584078741E+04  0.11163015121E+04  0.50400001928E-02 0. -1.
</event>
<event>
 5   0  0.3226427E-06  0.2298090E+04  0.7818609E-02  0.8478674E-01
       -1   -1    0    0    0  501  0.00000000000E+00  0.00000000000E+00  0.11461044532E+04  0.11461044532E+04  0.50400001928E-02 0.  1.
        1   -1    0    0  501    0  0.00000000000E+00  0.00000000000E+00 -0.11519934480E+04  0.11519934480E+04  0.50400001928E-02 0. -1.
    10030    2    1    2    0    0  0.00000000000E+00  0.00000000000E+00 -0.58889948187E+01  0.22980979013E+04  0.22980903558E+04 0.  0.
        4    1    3    3  502    0  0.40705320861E+03  0.64278323243E+03 -0.86401678141E+03  0.11512554929E+04  0.12699999809E+01 0. -1.
       -4    1    3    3    0  502 -0.40705320861E+03 -0.64278323243E+03  0.85812778659E+03  0.11468424083E+04  0.12699999809E+01 0.  1.
</event>
<event>
 5   0  0.3184492E-06  0.2301092E+04  0.7818609E-02  0.8477491E-01
        1   -1    0    0  501    0  0.00000000000E+00  0.00000000000E+00  0.16656885564E+04  0.16656885564E+04  0.50400001928E-02 0.  1.
       -1   -1    0    0    0  501  0.00000000000E+00  0.00000000000E+00 -0.79472004770E+03  0.79472004772E+03  0.50400001928E-02 0. -1.
    10030    2    1    2    0    0  0.00000000000E+00  0.00000000000E+00  0.87096850865E+03  0.24604086041E+04  0.23010919921E+04 0.  0.
        1    1    3    3  502    0 -0.64811166637E+03 -0.54785709806E+03  0.12661637021E+04  0.15242593783E+04  0.50400001928E-02 0.  1.
       -1    1    3    3    0  502  0.64811166637E+03  0.54785709806E+03 -0.39519519340E+03  0.93614922576E+03  0.50400001928E-02 0. -1.
</event>
<event>
 5   0  0.7003852E-06  0.2302482E+04  0.7818609E-02  0.8476943E-01
       -2   -1    0    0    0  501  0.00000000000E+00  0.00000000000E+00  0.10856515917E+04  0.10856515917E+04  0.25500000920E-02 0. -1.
        2   -1    0    0  501    0  0.00000000000E+00  0.00000000000E+00 -0.12207926559E+04  0.12207926559E+04  0.25500000920E-02 0.  1.
    10030    2    1    2    0    0  0.00000000000E+00  0.00000000000E+00 -0.13514106421E+03  0.23064442475E+04  0.23024816959E+04 0.  0.
        2    1    3    3  502    0 -0.51998524120E+03 -0.10253102833E+04 -0.12858234621E+03  0.11567969778E+04  0.25500000920E-02 0.  1.
       -2    1    3    3    0  502  0.51998524120E+03  0.10253102833E+04 -0.65587179982E+01  0.11496472697E+04  0.25500000920E-02 0. -1.
</event>
<event>
 5   0  0.3226427E-06  0.2301563E+04  0.7818609E-02  0.8477305E-01
       -1   -1    0    0    0  501  0.00000000000E+00  0.00000000000E+00  0.13600797320E+04  0.13600797321E+04  0.50400001928E-02 0. -1.
        1   -1    0    0  501    0  0.00000000000E+00  0.00000000000E+00 -0.97369172061E+03  0.97369172062E+03  0.50400001928E-02 0.  1.
    10030    2    1    2    0    0  0.00000000000E+00  0.00000000000E+00  0.38638801143E+03  0.23337714527E+04  0.23015632726E+04 0.  0.
        4    1    3    3  502    0 -0.41321802084E+03  0.56928946613E+03  0.11166843894E+04  0.13197822803E+04  0.12699999809E+01 0. -1.
       -4    1    3    3    0  502  0.41321802084E+03 -0.56928946613E+03 -0.73029637800E+03  0.10139891723E+04  0.12699999809E+01 0.  1.
</event>
<event>
 5   0  0.7003852E-06  0.2305614E+04  0.7818609E-02  0.8475711E-01
        2   -1    0    0  501    0  0.00000000000E+00  0.00000000000E+00  0.32300712198E+04  0.32300712198E+04  0.25500000920E-02 0. -1.
       -2   -1    0    0    0  501  0.00000000000E+00  0.00000000000E+00 -0.41143481943E+03  0.41143481944E+03  0.25500000920E-02 0.  1.
    10030    2    1    2    0    0  0.00000000000E+00  0.00000000000E+00  0.28186364004E+04  0.36415060392E+04  0.23056138177E+04 0.  0.
        2    1    3    3  502    0 -0.58311602091E+03 -0.18139042384E+03 -0.13498231422E+03  0.62541746446E+03  0.25500000920E-02 0.  1.
       -2    1    3    3    0  502  0.58311602091E+03  0.18139042384E+03  0.29536187146E+04  0.30160885748E+04  0.25500000920E-02 0. -1.
</event>
<event>
 5   0  0.3184492E-06  0.2298158E+04  0.7818609E-02  0.8478648E-01
        1   -1    0    0  501    0  0.00000000000E+00  0.00000000000E+00  0.87509060378E+03  0.87509060379E+03  0.50400001928E-02 0. -1.
       -1   -1    0    0    0  501  0.00000000000E+00  0.00000000000E+00 -0.15088526274E+04  0.15088526274E+04  0.50400001928E-02 0.  1.
    10030    2    1    2    0    0  0.00000000000E+00  0.00000000000E+00 -0.63376202359E+03  0.23839432312E+04  0.22981581814E+04 0.  0.
        1    1    3    3  502    0  0.49454052302E+03  0.10364302740E+04 -0.27506866155E+03  0.11808559651E+04  0.50400001928E-02 0.  1.
       -1    1    3    3    0  502 -0.49454052302E+03 -0.10364302740E+04 -0.35869336204E+03  0.12030872661E+04  0.50400001928E-02 0. -1.
</event>
<event>
 5   0  0.3238713E-06  0.2301424E+04  0.7818609E-02  0.8477360E-01
        1   -1    0    0  501    0  0.00000000000E+00  0.00000000000E+00  0.11365984045E+04  0.11365984045E+04  0.50400001928E-02 0.  1.
       -1   -1    0    0    0  501  0.00000000000E+00  0.00000000000E+00 -0.11650009132E+04  0.11650009132E+04  0.50400001928E-02 0. -1.
    10030    2    1    2    0    0  0.00000000000E+00  0.00000000000E+00 -0.28402508679E+02  0.23015993176E+04  0.23014240627E+04 0.  0.
        3    1    3    3  502    0  0.26958063801E+03  0.66105185224E+03 -0.91675260882E+03  0.11619374457E+04  0.10100000352E+00 0. -1.
       -3    1    3    3    0  502 -0.26958063801E+03 -0.66105185224E+03  0.88835010015E+03  0.11396618719E+04  0.10100000352E+00 0.  1.
</event>
<event>
 5   0  0.7003852E-06  0.2295603E+04  0.7818609E-02  0.8479657E-01
       -2   -1    0    0    0  501  0.00000000000E+00  0.00000000000E+00  0.71234523263E+03  0.71234523264E+03  0.25500000920E-02 0. -1.
        2   -1    0    0  501    0  0.00000000000E+00  0.00000000000E+00 -0.18494522040E+04  0.18494522040E+04  0.25500000920E-02 0.  1.
    10030    2    1    2    0    0  0.00000000000E+00  0.00000000000E+00 -0.11371069713E+04  0.25617974366E+04  0.22956031543E+04 0.  0.
        2    1    3    3  502    0 -0.30022755462E+03  0.62462952904E+03  0.45250253371E+03  0.82768180850E+03  0.25500000920E-02 0. -1.
       -2    1    3    3    0  502  0.30022755462E+03 -0.62462952904E+03 -0.15896095051E+04  0.17341156281E+04  0.25500000920E-02 0.  1.
</event>
<event>
 5   0  0.7242214E-06  0.2303939E+04  0.7818609E-02  0.8476370E-01
       -2   -1    0    0    0  501  0.00000000000E+00  0.00000000000E+00  0.46710730625E+03  0.46710730625E+03  0.25500000920E-02 0.  1.
        2   -1    0    0  501    0  0.00000000000E+00  0.00000000000E+00 -0.28409610090E+04  0.28409610090E+04  0.25500000920E-02 0. -1.
    10030    2    1    2    0    0  0.00000000000E+00  0.00000000000E+00 -0.23738537028E+04  0.33080683153E+04  0.23039389264E+04 0.  0.
        1    1    3    3  502    0 -0.12164921279E+03  0.62965835987E+03  0.18710132126E+03  0.66803823661E+03  0.50400001928E-02 0.  1.
       -1    1    3    3    0  502  0.12164921279E+03 -0.62965835987E+03 -0.25609550240E+04  0.26400300787E+04  0.50400001928E-02 0. -1.
</event>
<event>
 5   0  0.7497344E-06  0.2295294E+04  0.7818609E-02  0.8479779E-01
       -2   -1    0    0    0  501  0.00000000000E+00  0.00000000000E+00  0.13039326539E+04  0.13039326539E+04  0.25500000920E-02 0. -1.
        2   -1    0    0  501    0  0.00000000000E+00  0.00000000000E+00 -0.10100929367E+04  0.10100929367E+04  0.25500000920E-02 0.  1.
    10030    2    1    2    0    0  0.00000000000E+00  0.00000000000E+00  0.29383971724E+03  0.23140255906E+04  0.22952935879E+04 0.  0.
        5    1    3    3  502    0 -0.18727205013E+03  0.96410157781E+03 -0.45164973216E+03  0.10810052006E+04  0.46999998093E+01 0.  1.
       -5    1    3    3    0  502  0.18727205013E+03 -0.96410157781E+03  0.74548944940E+03  0.12330203900E+04  0.46999998093E+01 0. -1.
</event>
<event>
 5   0  0.3226427E-06  0.2301942E+04  0.7818609E-02  0.8477156E-01
       -1   -1    0    0    0  501  0.00000000000E+00  0.00000000000E+00  0.89894116862E+03  0.89894116863E+03  0.50400001928E-02 0. -1.
        1   -1    0    0  501    0  0.00000000000E+00  0.00000000000E+00 -0.14736610108E+04  0.14736610108E+04  0.50400001928E-02 0.  1.
    10030    2    1    2    0    0  0.00000000000E+00  0.00000000000E+00 -0.57471984220E+03  0.23726021795E+04  0.23019422679E+04 0.  0.
        4    1    3    3  502    0  0.24871194539E+03  0.73978525954E+03  0.58453382488E+03  0.97510064473E+03  0.12699999809E+01 0. -1.
       -4    1    3    3    0  502 -0.24871194539E+03 -0.73978525954E+03 -0.11592536671E+04  0.13975015347E+04  0.12699999809E+01 0.  1.
</event>
<event>
 5   0  0.3184492E-06  0.2302409E+04  0.7818609E-02  0.8476972E-01
       -1   -1    0    0    0  501  0.00000000000E+00  0.00000000000E+00  0.12690532515E+04  0.12690532515E+04  0.50400001928E-02 0. -1.
        1   -1    0    0  501    0  0.00000000000E+00  0.00000000000E+00 -0.10443000231E+04  0.10443000231E+04  0.50400001928E-02 0.  1.
    10030    2    1    2    0    0  0.00000000000E+00  0.00000000000E+00  0.22475322841E+03  0.23133532746E+04  0.23024094682E+04 0.  0.
        1    1    3    3  502    0 -0.35739380710E+03  0.55770147853E+02  0.12104719751E+04  0.12633618030E+04  0.50400001928E-02 0. -1.
       -1    1    3    3    0  502  0.35739380710E+03 -0.55770147853E+02 -0.98571874672E+03  0.10499914716E+04  0.50400001928E-02 0.  1.
</event>
<event>
 5   0  0.3238713E-06  0.2297461E+04  0.7818609E-02  0.8478923E-01
       -1   -1    0    0    0  501  0.00000000000E+00  0.00000000000E+00  0.10882307257E+04  0.10882307257E+04  0.50400001928E-02 0. -1.
        1   -1    0    0  501    0  0.00000000000E+00  0.00000000000E+00 -0.12125940399E+04  0.12125940399E+04  0.50400001928E-02 0.  1.
    10030    2    1    2    0    0  0.00000000000E+00  0.00000000000E+00 -0.12436331422E+03  0.23008247656E+04  0.22974612876E+04 0.  0.
        3    1    3    3  502    0  0.64647835504E+03  0.78588453305E+03  0.47154634107E+03  0.11215635180E+04  0.10100000352E+00 0. -1.
       -3    1    3    3    0  502 -0.64647835504E+03 -0.78588453305E+03 -0.59590965529E+03  0.11792612477E+04  0.10100000352E+00 0.  1.
</event>
<event>
 5   0  0.7348107E-06  0.2313651E+04  0.7818609E-02  0.8472558E-01
       -2   -1    0    0    0  501  0.00000000000E+00  0.00000000000E+00  0.64301956581E+03  0.64301956581E+03  0.25500000920E-02 0. -1.
        2   -1    0    0  501    0  0.00000000000E+00  0.00000000000E+00 -0.20811890669E+04  0.20811890669E+04  0.25500000920E-02 0.  1.
    10030    2    1    2    0    0  0.00000000000E+00  0.00000000000E+00 -0.14381695011E+04  0.27242086327E+04  0.23136510456E+04 0.  0.
        3    1    3    3  502    0  0.55228246070E+03 -0.94432824658E+03 -0.27621084031E+03  0.11283014634E+04  0.10100000352E+00 0. -1.
       -3    1    3    3    0  502 -0.55228246070E+03  0.94432824658E+03 -0.11619586608E+04  0.15959071694E+04  0.10100000352E+00 0.  1.
</event>
<event>
 5   0  0.7003852E-06  0.2297846E+04  0.7818609E-02  0.8478771E-01
        2   -1    0    0  501    0  0.00000000000E+00  0.00000000000E+00  0.21128268572E+04  0.21128268572E+04  0.25500000920E-02 0.  1.
       -2   -1    0    0    0  501  0.00000000000E+00  0.00000000000E+00 -0.62476702528E+03  0.62476702528E+03  0.25500000920E-02 0. -1.
    10030    2    1    2    0    0  0.00000000000E+00  0.00000000000E+00  0.14880598320E+04  0.27375938825E+04  0.22978464270E+04 0.  0.
        2    1    3    3  502    0  0.87357361124E+03 -0.29305735703E+03 -0.73612822984E+02  0.92435508138E+03  0.25500000920E-02 0. -1.
       -2    1    3    3    0  502 -0.87357361124E+03  0.29305735703E+03  0.15616726550E+04  0.18132388012E+04  0.25500000920E-02 0.  1.
</event>
<event>
 5   0  0.3195296E-06  0.2300328E+04  0.7818609E-02  0.8477792E-01
       -1   -1    0    0    0  501  0.00000000000E+00  0.00000000000E+00  0.10959618867E+04  0.10959618867E+04  0.50400001928E-02 0. -1.
        1   -1    0    0  501    0  0.00000000000E+00  0.00000000000E+00 -0.12070463771E+04  0.12070463771E+04  0.50400001928E-02 0.  1.
    10030    2    1    2    0    0  0.00000000000E+00  0.00000000000E+00 -0.11108449038E+03  0.23030082638E+04  0.23003276504E+04 0.  0.
        2    1    3    3  502    0  0.10915956179E+04 -0.22971257139E+03  0.22501272806E+03  0.11379716984E+04  0.25500000920E-02 0. -1.
       -2    1    3    3    0  502 -0.10915956179E+04  0.22971257139E+03 -0.33609721843E+03  0.11650365654E+04  0.25500000920E-02 0.  1.
</event>
<event>
 5   0  0.3195296E-06  0.2298717E+04  0.7818609E-02  0.8478427E-01
       -1   -1    0    0    0  501  0.00000000000E+00  0.00000000000E+00  0.11456723998E+04  0.11456723999E+04  0.50400001928E-02 0. -1.
        1   -1    0    0  501    0  0.00000000000E+00  0.00000000000E+00 -0.11530562762E+04  0.11530562763E+04  0.50400001928E-02 0.  1.
    10030    2    1    2    0    0  0.00000000000E+00  0.00000000000E+00 -0.73838763904E+01  0.22987286761E+04  0.22987168170E+04 0.  0.
        2    1    3    3  502    0 -0.30600195426E+03 -0.93109214420E+03  0.59669018460E+03  0.11474358167E+04  0.25500000920E-02 0. -1.
       -2    1    3    3    0  502  0.30600195426E+03  0.93109214420E+03 -0.60407406099E+03  0.11512928594E+04  0.25500000920E-02 0.  1.
</event>
<event>
 5   0  0.7044981E-06  0.2302836E+04  0.7818609E-02  0.8476804E-01
        2   -1    0    0  501    0  0.00000000000E+00  0.00000000000E+00  0.77671961422E+03  0.77671961423E+03  0.25500000920E-02 0.  1.
       -2   -1    0    0    0  501  0.00000000000E+00  0.00000000000E+00 -0.17068750087E+04  0.17068750087E+04  0.25500000920E-02 0. -1.
    10030    2    1    2    0    0  0.00000000000E+00  0.00000000000E+00 -0.93015539452E+03  0.24835946230E+04  0.23028359024E+04 0.  0.
        4    1    3    3  502    0 -0.27568537729E+03  0.72601224604E+03 -0.13819025413E+04  0.15851663809E+04  0.12699999809E+01 0. -1.
       -4    1    3    3    0  502  0.27568537729E+03 -0.72601224604E+03  0.45174714675E+03  0.89842824207E+03  0.12699999809E+01 0.  1.
</event>
<event>
 5   0  0.3238713E-06  0.2302834E+04  0.7818609E-02  0.8476805E-01
        1   -1    0    0  501    0  0.00000000000E+00  0.00000000000E+00  0.13853777333E+04  0.13853777333E+04  0.50400001928E-02 0.  1.
       -1   -1    0    0    0  501  0.00000000000E+00  0.00000000000E+00 -0.95696691402E+03  0.95696691404E+03  0.50400001928E-02 0. -1.
    10030    2    1    2    0    0  0.00000000000E+00  0.00000000000E+00  0.42841081927E+03  0.23423446473E+04  0.23028336060E+04 0.  0.
        3    1    3    3  502    0 -0.98124156890E+03  0.59751916491E+03  0.29231142270E+03  0.11854577795E+04  0.10100000352E+00 0. -1.
       -3    1    3    3    0  502  0.98124156890E+03 -0.59751916491E+03  0.13609939657E+03  0.11568868678E+04  0.10100000352E+00 0.  1.
</event>
<event>
 5   0  0.7242214E-06  0.2333857E+04  0.7818609E-02  0.8464690E-01
        2   -1    0    0  501    0  0.00000000000E+00  0.00000000000E+00  0.66636482700E+03  0.66636482700E+03  0.25500000920E-02 0. -1.
       -2   -1    0    0    0  501  0.00000000000E+00  0.00000000000E+00 -0.20435088061E+04  0.20435088061E+04  0.25500000920E-02 0.  1.
    10030    2    1    2    0    0  0.00000000000E+00  0.00000000000E+00 -0.13771439791E+04  0.27098736331E+04  0.23338572296E+04 0.  0.
        1    1    3    3  502    0 -0.12331453580E+02 -0.65417851951E+03 -0.18104871369E+04  0.19250883806E+04  0.50400001928E-02 0.  1.
       -1    1    3    3    0  502  0.12331453580E+02  0.65417851951E+03  0.43334315780E+03  0.78478525252E+03  0.50400001928E-02 0. -1.
</event>
<event>
 5   0  0.3195296E-06  0.2301908E+04  0.7818609E-02  0.8477169E-01
       -1   -1    0    0    0  501  0.00000000000E+00  0.00000000000E+00  0.12715175683E+04  0.12715175683E+04  0.50400001928E-02 0. -1.
        1   -1    0    0  501    0  0.00000000000E+00  0.00000000000E+00 -0.10418217239E+04  0.10418217239E+04  0.50400001928E-02 0.  1.
    10030    2    1    2    0    0  0.00000000000E+00  0.00000000000E+00  0.22969584438E+03  0.23133392922E+04  0.23019075785E+04 0.  0.
        2    1    3    3  502    0  0.34792518117E+03 -0.31201597162E+03  0.11718739835E+04  0.12616237678E+04  0.25500000920E-02 0. -1.
       -2    1    3    3    0  502 -0.34792518117E+03  0.31201597162E+03 -0.94217813915E+03  0.10517155243E+04  0.25500000920E-02 0.  1.
</event>
<event>
 5   0  0.3226427E-06  0.2299923E+04  0.7818609E-02  0.8477952E-01
        1   -1    0    0  501    0  0.00000000000E+00  0.00000000000E+00  0.74734008181E+03  0.74734008183E+03  0.50400001928E-02 0. -1.
       -1   -1    0    0    0  501  0.00000000000E+00  0.00000000000E+00 -0.17694904945E+04  0.17694904945E+04  0.50400001928E-02 0.  1.
    10030    2    1    2    0    0  0.00000000000E+00  0.00000000000E+00 -0.10221504127E+04  0.25168305763E+04  0.22999227560E+04 0.  0.
        4    1    3    3  502    0 -0.21644412530E+03  0.20565338197E+03  0.70418561006E+03  0.76486623616E+03  0.12699999809E+01 0. -1.
       -4    1    3    3    0  502  0.21644412530E+03 -0.20565338197E+03 -0.17263360227E+04  0.17519643402E+04  0.12699999809E+01 0.  1.
</event>
<event>
 5   0  0.7044981E-06  0.2301265E+04  0.7818609E-02  0.8477423E-01
       -2   -1    0    0    0  501  0.00000000000E+00  0.00000000000E+00  0.88212722511E+03  0.88212722511E+03  0.25500000920E-02 0.  1.
        2   -1    0    0  501    0  0.00000000000E+00  0.00000000000E+00 -0.15008662290E+04  0.15008662290E+04  0.25500000920E-02 0. -1.
    10030    2    1    2    0    0  0.00000000000E+00  0.00000000000E+00 -0.61873900385E+03  0.23829934541E+04  0.23012648364E+04 0.  0.
        4    1    3    3  502    0 -0.98631833836E+03 -0.53094518422E+03 -0.58182341459E+03  0.12622387856E+04  0.12699999809E+01 0. -1.
       -4    1    3    3    0  502  0.98631833836E+03  0.53094518422E+03 -0.36915589261E+02  0.11207546685E+04  0.12699999809E+01 0.  1.
</event>
<event>
 5   0  0.7003852E-06  0.2299452E+04  0.7818609E-02  0.8478137E-01
       -2   -1    0    0    0  501  0.00000000000E+00  0.00000000000E+00  0.11780199624E+04  0.11780199624E+04  0.25500000920E-02 0. -1.
        2   -1    0    0  501    0  0.00000000000E+00  0.00000000000E+00 -0.11221120299E+04  0.11221120299E+04  0.25500000920E-02 0.  1.
    10030    2    1    2    0    0  0.00000000000E+00  0.00000000000E+00  0.55907932578E+02  0.23001319923E+04  0.22994524316E+04 0.  0.
        2    1    3    3  502    0 -0.64386730657E+03 -0.74790881473E+03 -0.56208277081E+03  0.11357243261E+04  0.25500000920E-02 0. -1.
       -2    1    3    3    0  502  0.64386730657E+03  0.74790881473E+03  0.61799070339E+03  0.11644076662E+04  0.25500000920E-02 0.  1.
</event>
<event>
 5   0  0.3338758E-06  0.2263443E+04  0.7818609E-02  0.8492476E-01
        1   -1    0    0  501    0  0.00000000000E+00  0.00000000000E+00  0.11645118806E+04  0.11645118806E+04  0.50400001928E-02 0. -1.
       -1   -1    0    0    0  501  0.00000000000E+00  0.00000000000E+00 -0.10998548858E+04  0.10998548858E+04  0.50400001928E-02 0.  1.
    10030    2    1    2    0    0  0.00000000000E+00  0.00000000000E+00  0.64656994793E+02  0.22643667663E+04  0.22634434664E+04 0.  0.
        5    1    3    3  502    0 -0.41451265656E+03  0.89113307202E+03 -0.52900028471E+03  0.11161551352E+04  0.46999998093E+01 0.  1.
       -5    1    3    3    0  502  0.41451265656E+03 -0.89113307202E+03  0.59365727951E+03  0.11482116312E+04  0.46999998093E+01 0. -1.
</event>
<event>
 5   0  0.7497344E-06  0.2300249E+04  0.7818609E-02  0.8477823E-01
        2   -1    0    0  501    0  0.00000000000E+00  0.00000000000E+00  0.77255639041E+03  0.77255639041E+03  0.25500000920E-02 0.  1.
       -2   -1    0    0    0  501  0.00000000000E+00  0.00000000000E+00 -0.17122203529E+04  0.17122203529E+04  0.25500000920E-02 0. -1.
    10030    2    1    2    0    0  0.00000000000E+00  0.00000000000E+00 -0.93966396249E+03  0.24847767433E+04  0.23002493564E+04 0.  0.
        5    1    3    3  502    0 -0.19466904229E+03 -0.10927835658E+04 -0.79514293576E+03  0.13654106840E+04  0.46999998093E+01 0. -1.
       -5    1    3    3    0  502  0.19466904229E+03  0.10927835658E+04 -0.14452102672E+03  0.11193660593E+04  0.46999998093E+01 0.  1.
</event>
<event>
 5   0  0.7003852E-06  0.2324692E+04  0.7818609E-02  0.8468249E-01
        2   -1    0    0  501    0  0.00000000000E+00  0.00000000000E+00  0.11339432485E+04  0.11339432485E+04  0.25500000920E-02 0. -1.
       -2   -1    0    0    0  501  0.00000000000E+00  0.00000000000E+00 -0.11914597976E+04  0.11914597976E+04  0.25500000920E-02 0.  1.
    10030    2    1    2    0    0  0.00000000000E+00  0.00000000000E+00 -0.57516549097E+02  0.23254030461E+04  0.23246916297E+04 0.  0.
        2    1    3    3  502    0  0.10298990744E+04 -0.29184904749E+03  0.42434814044E+03  0.11514943831E+04  0.25500000920E-02 0. -1.
       -2    1    3    3    0  502 -0.10298990744E+04  0.29184904749E+03 -0.48186468954E+03  0.11739086630E+04  0.25500000920E-02 0.  1.
</event>
<event>
 5   0  0.2519625E-06  0.2304326E+04  0.7818609E-02  0.8476217E-01
       -4   -1    0    0    0  501  0.00000000000E+00  0.00000000000E+00  0.11418438153E+04  0.11418445216E+04  0.12699999809E+01 0.  1.
        4   -1    0    0  501    0  0.00000000000E+00  0.00000000000E+00 -0.11625737625E+04  0.11625744562E+04  0.12699999809E+01 0. -1.
    10030    2    1    2    0    0  0.00000000000E+00  0.00000000000E+00 -0.20729947234E+02  0.23044189778E+04  0.23043257353E+04 0.  0.
        2    1    3    3  502    0  0.35552927821E+03 -0.41810259654E+03 -0.10234550389E+04  0.11613229808E+04  0.25500000920E-02 0. -1.
       -2    1    3    3    0  502 -0.35552927821E+03  0.41810259654E+03  0.10027250917E+04  0.11430959970E+04  0.25500000920E-02 0.  1.
</event>
<event>
 5   0  0.3238713E-06  0.2302656E+04  0.7818609E-02  0.8476875E-01
        1   -1    0    0  501    0  0.00000000000E+00  0.00000000000E+00  0.46315991951E+03  0.46315991954E+03  0.50400001928E-02 0. -1.
       -1   -1    0    0    0  501  0.00000000000E+00  0.00000000000E+00 -0.28619826371E+04  0.28619826371E+04  0.50400001928E-02 0.  1.
    10030    2    1    2    0    0  0.00000000000E+00  0.00000000000E+00 -0.23988227175E+04  0.33251425566E+04  0.23026555521E+04 0.  0.
        3    1    3    3  502    0  0.63023013150E+03 -0.63106365403E+03 -0.14800611030E+03  0.90406701797E+03  0.10100000352E+00 0. -1.
       -3    1    3    3    0  502 -0.63023013150E+03  0.63106365403E+03 -0.22508166072E+04  0.24210755386E+04  0.10100000352E+00 0.  1.
</event>
<event>
 5   0  0.7242214E-06  0.2298996E+04  0.7818609E-02  0.8478317E-01
       -2   -1    0    0    0  501  0.00000000000E+00  0.00000000000E+00  0.84602364494E+03  0.84602364495E+03  0.25500000920E-02 0.  1.
        2   -1    0    0  501    0  0.00000000000E+00  0.00000000000E+00 -0.15618307453E+04  0.15618307453E+04  0.25500000920E-02 0. -1.
    10030    2    1    2    0    0  0.00000000000E+00  0.00000000000E+00 -0.71580710035E+03  0.24078543902E+04  0.22989960765E+04 0.  0.
        1    1    3    3  502    0 -0.76010868525E+03  0.51491173244E+03  0.36654684126E+03  0.98856253846E+03  0.50400001928E-02 0.  1.
       -1    1    3    3    0  502  0.76010868525E+03 -0.51491173244E+03 -0.10823539416E+04  0.14192918518E+04  0.50400001928E-02 0. -1.
</event>
<event>
 5   0  0.3238713E-06  0.2300304E+04  0.7818609E-02  0.8477801E-01
        1   -1    0    0  501    0  0.00000000000E+00  0.00000000000E+00  0.21253278354E+04  0.21253278354E+04  0.50400001928E-02 0.  1.
       -1   -1    0    0    0  501  0.00000000000E+00  0.00000000000E+00 -0.62242119475E+03  0.62242119477E+03  0.50400001928E-02 0. -1.
    10030    2    1    2    0    0  0.00000000000E+00  0.00000000000E+00  0.15029066407E+04  0.27477490302E+04  0.23003035370E+04 0.  0.
        3    1    3    3  502    0  0.62739223964E+03 -0.30442120913E+03 -0.34109176958E+03  0.77629691510E+03  0.10100000352E+00 0. -1.
       -3    1    3    3    0  502 -0.62739223964E+03  0.30442120913E+03  0.18439984102E+04  0.19714521151E+04  0.10100000352E+00 0.  1.
</event>
<event>
 5   0  0.7003852E-06  0.2297808E+04  0.7818609E-02  0.8478786E-01
        2   -1    0    0  501    0  0.00000000000E+00  0.00000000000E+00  0.14556550050E+04  0.14556550050E+04  0.25500000920E-02 0.  1.
       -2   -1    0    0    0  501  0.00000000000E+00  0.00000000000E+00 -0.90679442105E+03  0.90679442106E+03  0.25500000920E-02 0. -1.
    10030    2    1    2    0    0  0.00000000000E+00  0.00000000000E+00  0.54886058393E+03  0.23624494260E+04  0.22978075093E+04 0.  0.
        2    1    3    3  502    0 -0.74190428539E+02 -0.38877021159E+03 -0.83449161516E+03  0.92359230880E+03  0.25500000920E-02 0. -1.
       -2    1    3    3    0  502  0.74190428539E+02  0.38877021159E+03  0.13833521991E+04  0.14388571172E+04  0.25500000920E-02 0.  1.
</event>
<event>
 5   0  0.7348107E-06  0.2242702E+04  0.7818609E-02  0.8500862E-01
       -2   -1    0    0    0  501  0.00000000000E+00  0.00000000000E+00  0.11924712499E+04  0.11924712499E+04  0.25500000920E-02 0. -1.
        2   -1    0    0  501    0  0.00000000000E+00  0.00000000000E+00 -0.10544721455E+04  0.10544721455E+04  0.25500000920E-02 0.  1.
    10030    2    1    2    0    0  0.00000000000E+00  0.00000000000E+00  0.13799910439E+03  0.22469433954E+04  0.22427016898E+04 0.  0.
        3    1    3    3  502    0  0.18582527682E+03 -0.10864255435E+04  0.27572985061E+03  0.11361683220E+04  0.10100000352E+00 0. -1.
       -3    1    3    3    0  502 -0.18582527682E+03  0.10864255435E+04 -0.13773074622E+03  0.11107750735E+04  0.10100000352E+00 0.  1.
</event>
<event>
 5   0  0.7242214E-06  0.2293196E+04  0.7818609E-02  0.8480609E-01
       -2   -1    0    0    0  501  0.00000000000E+00  0.00000000000E+00  0.18935353711E+04  0.18935353711E+04  0.25500000920E-02 0. -1.
        2   -1    0    0  501    0  0.00000000000E+00  0.00000000000E+00 -0.69430253190E+03  0.69430253190E+03  0.25500000920E-02 0.  1.
    10030    2    1    2    0    0  0.00000000000E+00  0.00000000000E+00  0.11992328392E+04  0.25878379030E+04  0.22931955018E+04 0.  0.
        1    1    3    3  502    0  0.10730251625E+04  0.16539129983E+03  0.18352937841E+03  0.11010995932E+04  0.50400001928E-02 0.  1.
       -1    1    3    3    0  502 -0.10730251625E+04 -0.16539129983E+03  0.10157034608E+04  0.14867383098E+04  0.50400001928E-02 0. -1.
</event>
<event>
 5   0  0.7497344E-06  0.2299985E+04  0.7818609E-02  0.8477927E-01
       -2   -1    0    0    0  501  0.00000000000E+00  0.00000000000E+00  0.92591786206E+03  0.92591786206E+03  0.25500000920E-02 0.  1.
        2   -1    0    0  501    0  0.00000000000E+00  0.00000000000E+00 -0.14282935562E+04  0.14282935562E+04  0.25500000920E-02 0. -1.
    10030    2    1    2    0    0  0.00000000000E+00  0.00000000000E+00 -0.50237569419E+03  0.23542114183E+04  0.22999847965E+04 0.  0.
        5    1    3    3  502    0 -0.18023391092E+03  0.23619193605E+03 -0.13883212735E+04  0.14197636922E+04  0.46999998093E+01 0. -1.
       -5    1    3    3    0  502  0.18023391092E+03 -0.23619193605E+03  0.88594557931E+03  0.93444772609E+03  0.46999998093E+01 0.  1.
</event>
<event>
 5   0  0.3226427E-06  0.2301973E+04  0.7818609E-02  0.8477144E-01
       -1   -1    0    0    0  501  0.00000000000E+00  0.00000000000E+00  0.84733094043E+03  0.84733094044E+03  0.50400001928E-02 0.  1.
        1   -1    0    0  501    0  0.00000000000E+00  0.00000000000E+00 -0.15634620543E+04  0.15634620543E+04  0.50400001928E-02 0. -1.
    10030    2    1    2    0    0  0.00000000000E+00  0.00000000000E+00 -0.71613111389E+03  0.24107929948E+04  0.23019728694E+04 0.  0.
        4    1    3    3  502    0 -0.15030320446E+02  0.13910359866E+03 -0.15545222803E+04  0.15608064757E+04  0.12699999809E+01 0. -1.
       -4    1    3    3    0  502  0.15030320446E+02 -0.13910359866E+03  0.83839116644E+03  0.84998651905E+03  0.12699999809E+01 0.  1.
</event>
<event>
 5   0  0.3338758E-06  0.2301521E+04  0.7818609E-02  0.8477322E-01
       -1   -1    0    0    0  501  0.00000000000E+00  0.00000000000E+00  0.11040496393E+04  0.11040496393E+04  0.50400001928E-02 0. -1.
        1   -1    0    0  501    0  0.00000000000E+00  0.00000000000E+00 -0.11994479235E+04  0.11994479235E+04  0.50400001928E-02 0.  1.
    10030    2    1    2    0    0  0.00000000000E+00  0.00000000000E+00 -0.95398284218E+02  0.23034975629E+04  0.23015212772E+04 0.  0.
        5    1    3    3  502    0 -0.50244125543E+02  0.11496259375E+04 -0.55686535149E+02  0.11520795756E+04  0.46999998093E+01 0. -1.
       -5    1    3    3    0  502  0.50244125543E+02 -0.11496259375E+04 -0.39711749069E+02  0.11514179872E+04  0.46999998093E+01 0.  1.
</event>
<event>
 5   0  0.7044981E-06  0.2301863E+04  0.7818609E-02  0.8477187E-01
       -2   -1    0    0    0  501  0.00000000000E+00  0.00000000000E+00  0.92437170812E+03  0.92437170813E+03  0.25500000920E-02 0.  1.
        2   -1    0    0  501    0  0.00000000000E+00  0.00000000000E+00 -0.14330198661E+04  0.14330198661E+04  0.25500000920E-02 0. -1.
    10030    2    1    2    0    0  0.00000000000E+00  0.00000000000E+00 -0.50864815795E+03  0.23573915742E+04  0.23018627425E+04 0.  0.
        4    1    3    3  502    0  0.44916650344E+03 -0.70857895209E+03 -0.10612441374E+04  0.13528027984E+04  0.12699999809E+01 0. -1.
       -4    1    3    3    0  502 -0.44916650344E+03  0.70857895209E+03  0.55259597945E+03  0.10045887759E+04  0.12699999809E+01 0.  1.
</event>
<event>
 5   0  0.3226427E-06  0.2307336E+04  0.7818609E-02  0.8475034E-01
        1   -1    0    0  501    0  0.00000000000E+00  0.00000000000E+00  0.12902802574E+04  0.12902802574E+04  0.50400001928E-02 0.  1.
       -1   -1    0    0    0  501  0.00000000000E+00  0.00000000000E+00 -0.10315198782E+04  0.10315198782E+04  0.50400001928E-02 0. -1.
    10030    2    1    2    0    0  0.00000000000E+00  0.00000000000E+00  0.25876037918E+03  0.23218001356E+04  0.23073358957E+04 0.  0.
        4    1    3    3  502    0 -0.41125110788E+03 -0.48083353252E+03  0.11001139745E+04  0.12690865729E+04  0.12699999809E+01 0.  1.
       -4    1    3    3    0  502  0.41125110788E+03  0.48083353252E+03 -0.84135359534E+03  0.10527135627E+04  0.12699999809E+01 0. -1.
</event>
<event>
 5   0  0.3184492E-06  0.2302170E+04  0.7818609E-02  0.8477066E-01
       -1   -1    0    0    0  501  0.00000000000E+00  0.00000000000E+00  0.79642820598E+03  0.79642820599E+03  0.50400001928E-02 0. -1.
        1   -1    0    0  501    0  0.00000000000E+00  0.00000000000E+00 -0.16636731149E+04  0.16636731149E+04  0.50400001928E-02 0.  1.
    10030    2    1    2    0    0  0.00000000000E+00  0.00000000000E+00 -0.86724490892E+03  0.24601013209E+04  0.23021695804E+04 0.  0.
        1    1    3    3  502    0 -0.53875729904E+03  0.93815302638E+03 -0.13449217813E+02  0.10819294846E+04  0.50400001928E-02 0. -1.
       -1    1    3    3    0  502  0.53875729904E+03 -0.93815302638E+03 -0.85379569111E+03  0.13781718363E+04  0.50400001928E-02 0.  1.
</event>
<event>
 5   0  0.7242214E-06  0.2303128E+04  0.7818609E-02  0.8476689E-01
       -2   -1    0    0    0  501  0.00000000000E+00  0.00000000000E+00  0.91389240713E+03  0.91389240714E+03  0.25500000920E-02 0.  1.
        2   -1    0    0  501    0  0.00000000000E+00  0.00000000000E+00 -0.14510453548E+04  0.14510453548E+04  0.25500000920E-02 0. -1.
    10030    2    1    2    0    0  0.00000000000E+00  0.00000000000E+00 -0.53715294764E+03  0.23649377619E+04  0.23031277274E+04 0.  0.
        1    1    3    3  502    0  0.96001490119E+03  0.60909951722E+03 -0.80722747363E+02  0.11398012960E+04  0.50400001928E-02 0. -1.
       -1    1    3    3    0  502 -0.96001490119E+03 -0.60909951722E+03 -0.45643020028E+03  0.12251364659E+04  0.50400001928E-02 0.  1.
</event>
<event>
 5   0  0.3338758E-06  0.2299559E+04  0.7818609E-02  0.8478095E-01
        1   -1    0    0  501    0  0.00000000000E+00  0.00000000000E+00  0.95222010385E+03  0.95222010387E+03  0.50400001928E-02 0.  1.
       -1   -1    0    0    0  501  0.00000000000E+00  0.00000000000E+00 -0.13883267334E+04  0.13883267334E+04  0.50400001928E-02 0. -1.
    10030    2    1    2    0    0  0.00000000000E+00  0.00000000000E+00 -0.43610662956E+03  0.23405468373E+04  0.22995587632E+04 0.  0.
        5    1    3    3  502    0 -0.59927439919E+03  0.48116423795E+03 -0.10884696971E+04  0.13324553279E+04  0.46999998093E+01 0. -1.
       -5    1    3    3    0  502  0.59927439919E+03 -0.48116423795E+03  0.65236306753E+03  0.10080915094E+04  0.46999998093E+01 0.  1.
</event>
<event>
 5   0  0.7044981E-06  0.2292510E+04  0.7818609E-02  0.8480880E-01
       -2   -1    0    0    0  501  0.00000000000E+00  0.00000000000E+00  0.11696977984E+04  0.11696977984E+04  0.25500000920E-02 0.  1.
        2   -1    0    0  501    0  0.00000000000E+00  0.00000000000E+00 -0.11232820873E+04  0.11232820873E+04  0.25500000920E-02 0. -1.
    10030    2    1    2    0    0  0.00000000000E+00  0.00000000000E+00  0.46415711155E+02  0.22929798857E+04  0.22925100519E+04 0.  0.
        4    1    3    3  502    0  0.37961741232E+02 -0.67491165637E+03  0.94911466651E+03  0.11652326381E+04  0.12699999809E+01 0.  1.
       -4    1    3    3    0  502 -0.37961741232E+02  0.67491165637E+03 -0.90269895536E+03  0.11277472477E+04  0.12699999809E+01 0. -1.
</event>
<event>
 5   0  0.7242214E-06  0.2274708E+04  0.7818609E-02  0.8487960E-01
       -2   -1    0    0    0  501  0.00000000000E+00  0.00000000000E+00  0.10738797397E+04  0.10738797397E+04  0.25500000920E-02 0.  1.
        2   -1    0    0  501    0  0.00000000000E+00  0.00000000000E+00 -0.12045805216E+04  0.12045805216E+04  0.25500000920E-02 0. -1.
    10030    2    1    2    0    0  0.00000000000E+00  0.00000000000E+00 -0.13070078187E+03  0.22784602613E+04  0.22747084358E+04 0.  0.
        1    1    3    3  502    0  0.85381075894E+03 -0.57737845420E+03 -0.54699265822E+03  0.11668588859E+04  0.50400001928E-02 0. -1.
       -1    1    3    3    0  502 -0.85381075894E+03  0.57737845420E+03  0.41629187635E+03  0.11116013754E+04  0.50400001928E-02 0.  1.
</event>
<event>
 5   0  0.7348107E-06  0.2307034E+04  0.7818609E-02  0.8475153E-01
        2   -1    0    0  501    0  0.00000000000E+00  0.00000000000E+00  0.14482662068E+04  0.14482662068E+04  0.25500000920E-02 0. -1.
       -2   -1    0    0    0  501  0.00000000000E+00  0.00000000000E+00 -0.91875479597E+03  0.91875479597E+03  0.25500000920E-02 0.  1.
    10030    2    1    2    0    0  0.00000000000E+00  0.00000000000E+00  0.52951141086E+03  0.23670210028E+04  0.23070340469E+04 0.  0.
        3    1    3    3  502    0  0.18499744948E+03 -0.11385081353E+04  0.25111788117E+03  0.11804596693E+04  0.10100000352E+00 0. -1.
       -3    1    3    3    0  502 -0.18499744948E+03  0.11385081353E+04  0.27839352968E+03  0.11865613335E+04  0.10100000352E+00 0.  1.
</event>
<event>
 5   0  0.7003852E-06  0.2304257E+04  0.7818609E-02  0.8476244E-01
        2   -1    0    0  501    0  0.00000000000E+00  0.00000000000E+00  0.10787206595E+04  0.10787206595E+04  0.25500000920E-02 0. -1.
       -2   -1    0    0    0  501  0.00000000000E+00  0.00000000000E+00 -0.12305322521E+04  0.12305322521E+04  0.25500000920E-02 0.  1.
    10030    2    1    2    0    0  0.00000000000E+00  0.00000000000E+00 -0.15181159260E+03  0.23092529116E+04  0.23042574183E+04 0.  0.
        2    1    3    3  502    0  0.81026890991E+02  0.30585303439E+03 -0.11861383282E+04  0.12276137704E+04  0.25500000920E-02 0.  1.
       -2    1    3    3    0  502 -0.81026890991E+02 -0.30585303439E+03  0.10343267356E+04  0.10816391412E+04  0.25500000920E-02 0. -1.
</event>
<event>
 5   0  0.7242214E-06  0.2302146E+04  0.7818609E-02  0.8477075E-01
       -2   -1    0    0    0  501  0.00000000000E+00  0.00000000000E+00  0.13852844125E+04  0.13852844125E+04  0.25500000920E-02 0. -1.
        2   -1    0    0  501    0  0.00000000000E+00  0.00000000000E+00 -0.95646012080E+03  0.95646012080E+03  0.25500000920E-02 0.  1.
    10030    2    1    2    0    0  0.00000000000E+00  0.00000000000E+00  0.42882429166E+03  0.23417445333E+04  0.23021462130E+04 0.  0.
        1    1    3    3  502    0  0.39432320233E+03  0.10696649033E+04  0.37619342840E+03  0.12004979337E+04  0.50400001928E-02 0. -1.
       -1    1    3    3    0  502 -0.39432320233E+03 -0.10696649033E+04  0.52630863254E+02  0.11412465996E+04  0.50400001928E-02 0.  1.
</event>
<event>
 5   0  0.7348107E-06  0.2299641E+04  0.7818609E-02  0.8478063E-01
       -2   -1    0    0    0  501  0.00000000000E+00  0.00000000000E+00  0.10662608559E+04  0.10662608559E+04  0.25500000920E-02 0. -1.
        2   -1    0    0  501    0  0.00000000000E+00  0.00000000000E+00 -0.12399282679E+04  0.12399282679E+04  0.25500000920E-02 0.  1.
    10030    2    1    2    0    0  0.00000000000E+00  0.00000000000E+00 -0.17366741200E+03  0.23061891238E+04  0.22996408208E+04 0.  0.
        3    1    3    3  502    0 -0.24079995524E+03  0.19631350530E+03  0.10233703098E+04  0.10694907255E+04  0.10100000352E+00 0. -1.
       -3    1    3    3    0  502  0.24079995524E+03 -0.19631350530E+03 -0.11970377218E+04  0.12366983983E+04  0.10100000352E+00 0.  1.
</event>
<event>
 5   0  0.7003852E-06  0.2301010E+04  0.7818609E-02  0.8477523E-01
       -2   -1    0    0    0  501  0.00000000000E+00  0.00000000000E+00  0.15662122471E+04  0.15662122471E+04  0.25500000920E-02 0.  1.
        2   -1    0    0  501    0  0.00000000000E+00  0.00000000000E+00 -0.84513556359E+03  0.84513556359E+03  0.25500000920E-02 0. -1.
    10030    2    1    2    0    0  0.00000000000E+00  0.00000000000E+00  0.72107668348E+03  0.24113478107E+04  0.23010099262E+04 0.  0.
        2    1    3    3  502    0 -0.11135203704E+04 -0.52224451103E+02  0.62273727459E+02  0.11164824341E+04  0.25500000920E-02 0. -1.
       -2    1    3    3    0  502  0.11135203704E+04  0.52224451103E+02  0.65880295602E+03  0.12948653766E+04  0.25500000920E-02 0.  1.
</event>
<event>
 5   0  0.3238713E-06  0.2315600E+04  0.7818609E-02  0.8471796E-01
        1   -1    0    0  501    0  0.00000000000E+00  0.00000000000E+00  0.13076427520E+04  0.13076427520E+04  0.50400001928E-02 0. -1.
       -1   -1    0    0    0  501  0.00000000000E+00  0.00000000000E+00 -0.10251276216E+04  0.10251276216E+04  0.50400001928E-02 0.  1.
    10030    2    1    2    0    0  0.00000000000E+00  0.00000000000E+00  0.28251513040E+03  0.23327703736E+04  0.23155998827E+04 0.  0.
        3    1    3    3  502    0 -0.32546463640E+03  0.70955285085E+03  0.10026465315E+04  0.12707055343E+04  0.10100000352E+00 0. -1.
       -3    1    3    3    0  502  0.32546463640E+03 -0.70955285085E+03 -0.72013140108E+03  0.10620648392E+04  0.10100000352E+00 0.  1.
</event>
<event>
 5   0  0.3184492E-06  0.2308531E+04  0.7818609E-02  0.8474565E-01
       -1   -1    0    0    0  501  0.00000000000E+00  0.00000000000E+00  0.12865202777E+04  0.12865202777E+04  0.50400001928E-02 0.  1.
        1   -1    0    0  501    0  0.00000000000E+00  0.00000000000E+00 -0.10356066646E+04  0.10356066646E+04  0.50400001928E-02 0. -1.
    10030    2    1    2    0    0  0.00000000000E+00  0.00000000000E+00  0.25091361305E+03  0.23221269423E+04  0.23085311120E+04 0.  0.
        1    1    3    3  502    0 -0.47725449422E+03 -0.89158999121E+02  0.11788145439E+04  0.12748823115E+04  0.50400001928E-02 0.  1.
       -1    1    3    3    0  502  0.47725449422E+03  0.89158999121E+02 -0.92790093080E+03  0.10472446308E+04  0.50400001928E-02 0. -1.
</event>
<event>
 5   0  0.7003852E-06  0.2296825E+04  0.7818609E-02  0.8479174E-01
       -2   -1    0    0    0  501  0.00000000000E+00  0.00000000000E+00  0.72803248310E+03  0.72803248310E+03  0.25500000920E-02 0.  1.
        2   -1    0    0  501    0  0.00000000000E+00  0.00000000000E+00 -0.18115284320E+04  0.18115284320E+04  0.25500000920E-02 0. -1.
    10030    2    1    2    0    0  0.00000000000E+00  0.00000000000E+00 -0.10834959489E+04  0.25395609151E+04  0.22968252372E+04 0.  0.
        2    1    3    3  502    0 -0.50486760354E+03 -0.91014699633E+03 -0.50726976447E+01  0.10408095812E+04  0.25500000920E-02 0.  1.
       -2    1    3    3    0  502  0.50486760354E+03  0.91014699633E+03 -0.10784232513E+04  0.14987513339E+04  0.25500000920E-02 0. -1.
</event>
<event>
 5   0  0.7497344E-06  0.2321682E+04  0.7818609E-02  0.8469421E-01
       -2   -1    0    0    0  501  0.00000000000E+00  0.00000000000E+00  0.43885702373E+03  0.43885702374E+03  0.25500000920E-02 0.  1.
        2   -1    0    0  501    0  0.00000000000E+00  0.00000000000E+00 -0.30705940575E+04  0.30705940575E+04  0.25500000920E-02 0. -1.
    10030    2    1    2    0    0  0.00000000000E+00  0.00000000000E+00 -0.26317370338E+04  0.35094510812E+04  0.23216819499E+04 0.  0.
        5    1    3    3  502    0  0.87851500489E+02  0.90693030391E+03 -0.22868419499E+03  0.93944612050E+03  0.46999998093E+01 0.  1.
       -5    1    3    3    0  502 -0.87851500489E+02 -0.90693030391E+03 -0.24030528388E+04  0.25700049607E+04  0.46999998093E+01 0. -1.
</event>
<event>
 5   0  0.7497344E-06  0.2273040E+04  0.7818609E-02  0.8488627E-01
       -2   -1    0    0    0  501  0.00000000000E+00  0.00000000000E+00  0.90405308218E+03  0.90405308219E+03  0.25500000920E-02 0. -1.
        2   -1    0    0  501    0  0.00000000000E+00  0.00000000000E+00 -0.14287632750E+04  0.14287632750E+04  0.25500000920E-02 0.  1.
    10030    2    1    2    0    0  0.00000000000E+00  0.00000000000E+00 -0.52471019284E+03  0.23328163572E+04  0.22730401162E+04 0.  0.
        5    1    3    3  502    0  0.76705812640E+03  0.18248786931E+03  0.57769076501E+03  0.97746033255E+03  0.46999998093E+01 0. -1.
       -5    1    3    3    0  502 -0.76705812640E+03 -0.18248786931E+03 -0.11024009579E+04  0.13553560247E+04  0.46999998093E+01 0.  1.
</event>
<event>
 5   0  0.3226427E-06  0.2313921E+04  0.7818609E-02  0.8472453E-01
        1   -1    0    0  501    0  0.00000000000E+00  0.00000000000E+00  0.24372197069E+04  0.24372197069E+04  0.50400001928E-02 0.  1.
       -1   -1    0    0    0  501  0.00000000000E+00  0.00000000000E+00 -0.54921477631E+03  0.54921477633E+03  0.50400001928E-02 0. -1.
    10030    2    1    2    0    0  0.00000000000E+00  0.00000000000E+00  0.18880049305E+04  0.29864344832E+04  0.23139205485E+04 0.  0.
        4    1    3    3  502    0 -0.78116464767E+03  0.45861805399E+03  0.18729095021E+04  0.20804663761E+04  0.12699999809E+01 0.  1.
       -4    1    3    3    0  502  0.78116464767E+03 -0.45861805399E+03  0.15095428463E+02  0.90596810709E+03  0.12699999809E+01 0. -1.
</event>
<event>
 5   0  0.3338758E-06  0.2303963E+04  0.7818609E-02  0.8476360E-01
       -1   -1    0    0    0  501  0.00000000000E+00  0.00000000000E+00  0.74439365882E+03  0.74439365883E+03  0.50400001928E-02 0. -1.
        1   -1    0    0  501    0  0.00000000000E+00  0.00000000000E+00 -0.17827407898E+04  0.17827407898E+04  0.50400001928E-02 0.  1.
    10030    2    1    2    0    0  0.00000000000E+00  0.00000000000E+00 -0.10383471310E+04  0.25271344487E+04  0.23039626206E+04 0.  0.
        5    1    3    3  502    0 -0.37434982042E+03  0.66834836142E+03  0.42451966913E+03  0.87582324686E+03  0.46999998093E+01 0. -1.
       -5    1    3    3    0  502  0.37434982042E+03 -0.66834836142E+03 -0.14628668001E+04  0.16513112018E+04  0.46999998093E+01 0.  1.
</event>
<event>
 5   0  0.7242214E-06  0.2297593E+04  0.7818609E-02  0.8478871E-01
       -2   -1    0    0    0  501  0.00000000000E+00  0.00000000000E+00  0.67269397221E+03  0.67269397222E+03  0.25500000920E-02 0.  1.
        2   -1    0    0  501    0  0.00000000000E+00  0.00000000000E+00 -0.19618622409E+04  0.19618622409E+04  0.25500000920E-02 0. -1.
    10030    2    1    2    0    0  0.00000000000E+00  0.00000000000E+00 -0.12891682687E+04  0.26345562131E+04  0.22975925694E+04 0.  0.
        1    1    3    3  502    0 -0.78347373562E+03  0.73753717284E+03 -0.18314704937E+03  0.10914829442E+04  0.50400001928E-02 0.  1.
       -1    1    3    3    0  502  0.78347373562E+03 -0.73753717284E+03 -0.11060212193E+04  0.15430732690E+04  0.50400001928E-02 0. -1.
</event>
<event>
 5   0  0.7044981E-06  0.2299809E+04  0.7818609E-02  0.8477996E-01
       -2   -1    0    0    0  501  0.00000000000E+00  0.00000000000E+00  0.89768351761E+03  0.89768351761E+03  0.25500000920E-02 0.  1.
        2   -1    0    0  501    0  0.00000000000E+00  0.00000000000E+00 -0.14729918997E+04  0.14729918997E+04  0.25500000920E-02 0. -1.
    10030    2    1    2    0    0  0.00000000000E+00  0.00000000000E+00 -0.57530838205E+03  0.23706754173E+04  0.22998091659E+04 0.  0.
        4    1    3    3  502    0 -0.84419413986E+03 -0.47879788226E+03  0.34808964228E+03  0.10310573067E+04  0.12699999809E+01 0.  1.
       -4    1    3    3    0  502  0.84419413986E+03  0.47879788226E+03 -0.92339802433E+03  0.13396181105E+04  0.12699999809E+01 0. -1.
</event>
<event>
 5   0  0.7003852E-06  0.2307917E+04  0.7818609E-02  0.8474806E-01
        2   -1    0    0  501    0  0.00000000000E+00  0.00000000000E+00  0.16704999100E+04  0.16704999100E+04  0.25500000920E-02 0. -1.
       -2   -1    0    0    0  501  0.00000000000E+00  0.00000000000E+00 -0.79713851847E+03  0.79713851848E+03  0.25500000920E-02 0.  1.
    10030    2    1    2    0    0  0.00000000000E+00  0.00000000000E+00  0.87336139156E+03  0.24676384285E+04  0.23079166566E+04 0.  0.
        2    1    3    3  502    0 -0.63896128704E+03  0.91789765112E+03  0.74062909889E+03  0.13413944559E+04  0.25500000920E-02 0. -1.
       -2    1    3    3    0  502  0.63896128704E+03 -0.91789765112E+03  0.13273229267E+03  0.11262439726E+04  0.25500000920E-02 0.  1.
</event>
<event>
 5   0  0.7003852E-06  0.2299319E+04  0.7818609E-02  0.8478190E-01
       -2   -1    0    0    0  501  0.00000000000E+00  0.00000000000E+00  0.72841965210E+03  0.72841965210E+03  0.25500000920E-02 0. -1.
        2   -1    0    0  501    0  0.00000000000E+00  0.00000000000E+00 -0.18144989999E+04  0.18144989999E+04  0.25500000920E-02 0.  1.
    10030    2    1    2    0    0  0.00000000000E+00  0.00000000000E+00 -0.10860793478E+04  0.25429186520E+04  0.22993187950E+04 0.  0.
        2    1    3    3  502    0  0.78574492782E+03 -0.81360752453E+03 -0.77067202591E+03  0.13686809954E+04  0.25500000920E-02 0.  1.
       -2    1    3    3    0  502 -0.78574492782E+03  0.81360752453E+03 -0.31540732190E+03  0.11742376566E+04  0.25500000920E-02 0. -1.
</event>
<event>
 5   0  0.3195296E-06  0.2304258E+04  0.7818609E-02  0.8476244E-01
        1   -1    0    0  501    0  0.00000000000E+00  0.00000000000E+00  0.15616343294E+04  0.15616343295E+04  0.50400001928E-02 0.  1.
       -1   -1    0    0    0  501  0.00000000000E+00  0.00000000000E+00 -0.85000738396E+03  0.85000738398E+03  0.50400001928E-02 0. -1.
    10030    2    1    2    0    0  0.00000000000E+00  0.00000000000E+00  0.71162694548E+03  0.24116417134E+04  0.23042575473E+04 0.  0.
        2    1    3    3  502    0  0.99418609742E+03  0.39648793188E+03 -0.90427243182E+02  0.10741442002E+04  0.25500000920E-02 0. -1.
       -2    1    3    3    0  502 -0.99418609742E+03 -0.39648793188E+03  0.80205418866E+03  0.13374975133E+04  0.25500000920E-02 0.  1.
</event>
<event>
 5   0  0.3238713E-06  0.2288757E+04  0.7818609E-02  0.8482367E-01
        1   -1    0    0  501    0  0.00000000000E+00  0.00000000000E+00  0.87648142950E+03  0.87648142951E+03  0.50400001928E-02 0. -1.
       -1   -1    0    0    0  501  0.00000000000E+00  0.00000000000E+00 -0.14941581315E+04  0.14941581316E+04  0.50400001928E-02 0.  1.
    10030    2    1    2    0    0  0.00000000000E+00  0.00000000000E+00 -0.61767670204E+03  0.23706395611E+04  0.22887567412E+04 0.  0.
        3    1    3    3  502    0 -0.89509377236E+03  0.59419155823E+03 -0.71707788164E+03  0.12916877207E+04  0.10100000352E+00 0. -1.
       -3    1    3    3    0  502  0.89509377236E+03 -0.59419155823E+03  0.99401179600E+02  0.10789518404E+04  0.10100000352E+00 0.  1.
</event>
<event>
 5   0  0.7497344E-06  0.2304520E+04  0.7818609E-02  0.8476141E-01
        2   -1    0    0  501    0  0.00000000000E+00  0.00000000000E+00  0.12409912054E+04  0.12409912054E+04  0.25500000920E-02 0.  1.
       -2   -1    0    0    0  501  0.00000000000E+00  0.00000000000E+00 -0.10698730320E+04  0.10698730320E+04  0.25500000920E-02 0. -1.
    10030    2    1    2    0    0  0.00000000000E+00  0.00000000000E+00  0.17111817336E+03  0.23108642374E+04  0.23045199271E+04 0.  0.
        5    1    3    3  502    0  0.58328226896E+03  0.98310055221E+03 -0.59670679649E+02  0.11446779377E+04  0.46999998093E+01 0.  1.
       -5    1    3    3    0  502 -0.58328226896E+03 -0.98310055221E+03  0.23078885301E+03  0.11661862997E+04  0.46999998093E+01 0. -1.
</event>
<event>
 5   0  0.7242214E-06  0.2314883E+04  0.7818609E-02  0.8472076E-01
       -2   -1    0    0    0  501  0.00000000000E+00  0.00000000000E+00  0.11012200243E+04  0.11012200243E+04  0.25500000920E-02 0.  1.
        2   -1    0    0  501    0  0.00000000000E+00  0.00000000000E+00 -0.12165333775E+04  0.12165333775E+04  0.25500000920E-02 0. -1.
    10030    2    1    2    0    0  0.00000000000E+00  0.00000000000E+00 -0.11531335319E+03  0.23177534017E+04  0.23148830773E+04 0.  0.
        1    1    3    3  502    0 -0.56838770507E+03  0.29552801062E+03  0.90752488112E+03  0.11108567856E+04  0.50400001928E-02 0.  1.
       -1    1    3    3    0  502  0.56838770507E+03 -0.29552801062E+03 -0.10228382343E+04  0.12068966161E+04  0.50400001928E-02 0. -1.
</event>
<event>
 5   0  0.3226427E-06  0.2299056E+04  0.7818609E-02  0.8478293E-01
       -1   -1    0    0    0  501  0.00000000000E+00  0.00000000000E+00  0.15071934729E+04  0.15071934729E+04  0.50400001928E-02 0. -1.
        1   -1    0    0  501    0  0.00000000000E+00  0.00000000000E+00 -0.87673860947E+03  0.87673860949E+03  0.50400001928E-02 0.  1.
    10030    2    1    2    0    0  0.00000000000E+00  0.00000000000E+00  0.63045486345E+03  0.23839320824E+04  0.22990560756E+04 0.  0.
        4    1    3    3  502    0 -0.60350290826E+03 -0.72028165862E+03 -0.37132776731E+03  0.10103996000E+04  0.12699999809E+01 0.  1.
       -4    1    3    3    0  502  0.60350290826E+03  0.72028165862E+03  0.10017826308E+04  0.13735324824E+04  0.12699999809E+01 0. -1.
</event>
<event>
 5   0  0.3238713E-06  0.2300030E+04  0.7818609E-02  0.8477909E-01
       -1   -1    0    0    0  501  0.00000000000E+00  0.00000000000E+00  0.76946887780E+03  0.76946887781E+03  0.50400001928E-02 0.  1.
        1   -1    0    0  501    0  0.00000000000E+00  0.00000000000E+00 -0.17187627843E+04  0.17187627843E+04  0.50400001928E-02 0. -1.
    10030    2    1    2    0    0  0.00000000000E+00  0.00000000000E+00 -0.94929390655E+03  0.24882316622E+04  0.23000299745E+04 0.  0.
        3    1    3    3  502    0 -0.10178515499E+04 -0.33279513326E+03 -0.92818887913E+03  0.14171481870E+04  0.10100000352E+00 0. -1.
       -3    1    3    3    0  502  0.10178515499E+04  0.33279513326E+03 -0.21105027417E+02  0.10710834752E+04  0.10100000352E+00 0.  1.
</event>
<event>
 5   0  0.7497344E-06  0.2262108E+04  0.7818609E-02  0.8493013E-01
       -2   -1    0    0    0  501  0.00000000000E+00  0.00000000000E+00  0.59066177333E+03  0.59066177334E+03  0.25500000920E-02 0.  1.
        2   -1    0    0  501    0  0.00000000000E+00  0.00000000000E+00 -0.21658471801E+04  0.21658471801E+04  0.25500000920E-02 0. -1.
    10030    2    1    2    0    0  0.00000000000E+00  0.00000000000E+00 -0.15751854068E+04  0.27565089534E+04  0.22621079870E+04 0.  0.
        5    1    3    3  502    0  0.96867415178E+03 -0.51189455245E+03 -0.44532027326E+03  0.11826655829E+04  0.46999998093E+01 0. -1.
       -5    1    3    3    0  502 -0.96867415178E+03  0.51189455245E+03 -0.11298651335E+04  0.15738433706E+04  0.46999998093E+01 0.  1.
</event>
<event>
 5   0  0.7497344E-06  0.2301345E+04  0.7818609E-02  0.8477391E-01
       -2   -1    0    0    0  501  0.00000000000E+00  0.00000000000E+00  0.16378849293E+04  0.16378849293E+04  0.25500000920E-02 0. -1.
        2   -1    0    0  501    0  0.00000000000E+00  0.00000000000E+00 -0.80838836606E+03  0.80838836606E+03  0.25500000920E-02 0.  1.
    10030    2    1    2    0    0  0.00000000000E+00  0.00000000000E+00  0.82949656326E+03  0.24462732954E+04  0.23013449301E+04 0.  0.
        5    1    3    3  502    0 -0.69669871424E+03  0.79571400658E+03  0.89658835279E+03  0.13865217788E+04  0.46999998093E+01 0. -1.
       -5    1    3    3    0  502  0.69669871424E+03 -0.79571400658E+03 -0.67091789536E+02  0.10597515166E+04  0.46999998093E+01 0.  1.
</event>
<event>
 5   0  0.7003852E-06  0.2300885E+04  0.7818609E-02  0.8477572E-01
       -2   -1    0    0    0  501  0.00000000000E+00  0.00000000000E+00  0.17054585867E+04  0.17054585867E+04  0.25500000920E-02 0.  1.
        2   -1    0    0  501    0  0.00000000000E+00  0.00000000000E+00 -0.77604819888E+03  0.77604819888E+03  0.25500000920E-02 0. -1.
    10030    2    1    2    0    0  0.00000000000E+00  0.00000000000E+00  0.92941038779E+03  0.24815067856E+04  0.23008851031E+04 0.  0.
        2    1    3    3  502    0  0.64023261188E+03  0.91289890846E+03  0.77020065625E+03  0.13551720427E+04  0.25500000920E-02 0.  1.
       -2    1    3    3    0  502 -0.64023261188E+03 -0.91289890846E+03  0.15920973154E+03  0.11263347429E+04  0.25500000920E-02 0. -1.
</event>
<event>
 5   0  0.7044981E-06  0.2296544E+04  0.7818609E-02  0.8479285E-01
        2   -1    0    0  501    0  0.00000000000E+00  0.00000000000E+00  0.13538559402E+04  0.13538559402E+04  0.25500000920E-02 0.  1.
       -2   -1    0    0    0  501  0.00000000000E+00  0.00000000000E+00 -0.97390622177E+03  0.97390622177E+03  0.25500000920E-02 0. -1.
    10030    2    1    2    0    0  0.00000000000E+00  0.00000000000E+00  0.37994971845E+03  0.23277621620E+04  0.22965441198E+04 0.  0.
        4    1    3    3  502    0  0.20082603475E+03  0.39312687687E+03 -0.88445683830E+03  0.98850662581E+03  0.12699999809E+01 0. -1.
       -4    1    3    3    0  502 -0.20082603475E+03 -0.39312687687E+03  0.12644065568E+04  0.13392555362E+04  0.12699999809E+01 0.  1.
</event>
<event>
 5   0  0.3184492E-06  0.2295087E+04  0.7818609E-02  0.8479861E-01
        1   -1    0    0  501    0  0.00000000000E+00  0.00000000000E+00  0.97215868139E+03  0.97215868141E+03  0.50400001928E-02 0.  1.
       -1   -1    0    0    0  501  0.00000000000E+00  0.00000000000E+00 -0.13545691487E+04  0.13545691487E+04  0.50400001928E-02 0. -1.
    10030    2    1    2    0    0  0.00000000000E+00  0.00000000000E+00 -0.38241046726E+03  0.23267278301E+04  0.22950870637E+04 0.  0.
        1    1    3    3  502    0 -0.58852300586E+01  0.10889114962E+04  0.17585439924E+03  0.11030356532E+04  0.50400001928E-02 0.  1.
       -1    1    3    3    0  502  0.58852300586E+01 -0.10889114962E+04 -0.55826486650E+03  0.12236921769E+04  0.50400001928E-02 0. -1.
</event>
<event>
 5   0  0.3184492E-06  0.2298854E+04  0.7818609E-02  0.8478373E-01
        1   -1    0    0  501    0  0.00000000000E+00  0.00000000000E+00  0.18449429347E+04  0.18449429347E+04  0.50400001928E-02 0.  1.
       -1   -1    0    0    0  501  0.00000000000E+00  0.00000000000E+00 -0.71611005969E+03  0.71611005971E+03  0.50400001928E-02 0. -1.
    10030    2    1    2    0    0  0.00000000000E+00  0.00000000000E+00  0.11288328750E+04  0.25610529944E+04  0.22988537971E+04 0.  0.
        1    1    3    3  502    0 -0.94013838823E+03 -0.26581013350E+03  0.12390114306E+04  0.15778670861E+04  0.50400001928E-02 0.  1.
       -1    1    3    3    0  502  0.94013838823E+03  0.26581013350E+03 -0.11017855568E+03  0.98318590828E+03  0.50400001928E-02 0. -1.
</event>
<event>
 5   0  0.3338758E-06  0.2297758E+04  0.7818609E-02  0.8478806E-01
       -1   -1    0    0    0  501  0.00000000000E+00  0.00000000000E+00  0.10019359603E+04  0.10019359603E+04  0.50400001928E-02 0.  1.
        1   -1    0    0  501    0  0.00000000000E+00  0.00000000000E+00 -0.13173727378E+04  0.13173727378E+04  0.50400001928E-02 0. -1.
    10030    2    1    2    0    0  0.00000000000E+00  0.00000000000E+00 -0.31543677754E+03  0.23193086981E+04  0.22977581414E+04 0.  0.
        5    1    3    3  502    0 -0.11470414210E+04 -0.60869021146E+02 -0.13532996579E+03  0.11566094193E+04  0.46999998093E+01 0. -1.
       -5    1    3    3    0  502  0.11470414210E+04  0.60869021146E+02 -0.18010681176E+03  0.11626992788E+04  0.46999998093E+01 0.  1.
</event>
<event>
 5   0  0.7242214E-06  0.2300132E+04  0.7818609E-02  0.8477869E-01
       -2   -1    0    0    0  501  0.00000000000E+00  0.00000000000E+00  0.58309941998E+03  0.58309941999E+03  0.25500000920E-02 0.  1.
        2   -1    0    0  501    0  0.00000000000E+00  0.00000000000E+00 -0.22683129895E+04  0.22683129895E+04  0.25500000920E-02 0. -1.
    10030    2    1    2    0    0  0.00000000000E+00  0.00000000000E+00 -0.16852135695E+04  0.28514124095E+04  0.23001321601E+04 0.  0.
        1    1    3    3  502    0  0.47345436988E+03  0.17630203535E+03 -0.21233822177E+04  0.21826574377E+04  0.50400001928E-02 0. -1.
       -1    1    3    3    0  502 -0.47345436988E+03 -0.17630203535E+03  0.43816864816E+03  0.66875497178E+03  0.50400001928E-02 0.  1.
</event>
<event>
 5   0  0.7003852E-06  0.2298785E+04  0.7818609E-02  0.8478400E-01
        2   -1    0    0  501    0  0.00000000000E+00  0.00000000000E+00  0.10388415028E+04  0.10388415028E+04  0.25500000920E-02 0.  1.
       -2   -1    0    0    0  501  0.00000000000E+00  0.00000000000E+00 -0.12717086110E+04  0.12717086110E+04  0.25500000920E-02 0. -1.
    10030    2    1    2    0    0  0.00000000000E+00  0.00000000000E+00 -0.23286710823E+03  0.23105501137E+04  0.22987854919E+04 0.  0.
        2    1    3    3  502    0 -0.73284456909E+03 -0.10394551492E+03  0.76740613073E+03  0.10661979188E+04  0.25500000920E-02 0.  1.
       -2    1    3    3    0  502  0.73284456909E+03  0.10394551492E+03 -0.10002732390E+04  0.12443521950E+04  0.25500000920E-02 0. -1.
</event>
<event>
 5   0  0.3226427E-06  0.2299149E+04  0.7818609E-02  0.8478257E-01
       -1   -1    0    0    0  501  0.00000000000E+00  0.00000000000E+00  0.55664525416E+03  0.55664525419E+03  0.50400001928E-02 0.  1.
        1   -1    0    0  501    0  0.00000000000E+00  0.00000000000E+00 -0.23740821595E+04  0.23740821595E+04  0.50400001928E-02 0. -1.
    10030    2    1    2    0    0  0.00000000000E+00  0.00000000000E+00 -0.18174369053E+04  0.29307274137E+04  0.22991490314E+04 0.  0.
        4    1    3    3  502    0 -0.64108487297E+03  0.19186211131E+03  0.28278199780E+03  0.72647653457E+03  0.12699999809E+01 0.  1.
       -4    1    3    3    0  502  0.64108487297E+03 -0.19186211131E+03 -0.21002189031E+04  0.22042508791E+04  0.12699999809E+01 0. -1.
</event>
<event>
 5   0  0.3338758E-06  0.2300295E+04  0.7818609E-02  0.8477805E-01
        1   -1    0    0  501    0  0.00000000000E+00  0.00000000000E+00  0.20956929716E+04  0.20956929716E+04  0.50400001928E-02 0. -1.
       -1   -1    0    0    0  501  0.00000000000E+00  0.00000000000E+00 -0.63121785079E+03  0.63121785081E+03  0.50400001928E-02 0.  1.
    10030    2    1    2    0    0  0.00000000000E+00  0.00000000000E+00  0.14644751208E+04  0.27269108224E+04  0.23002946016E+04 0.  0.
        5    1    3    3  502    0  0.52357016923E+03 -0.76268928624E+03  0.15423477239E+04  0.17985214097E+04  0.46999998093E+01 0. -1.
       -5    1    3    3    0  502 -0.52357016923E+03  0.76268928624E+03 -0.77872603105E+02  0.92838941279E+03  0.46999998093E+01 0.  1.
</event>
<event>
 5   0  0.7242214E-06  0.2311580E+04  0.7818609E-02  0.8473369E-01
        2   -1    0    0  501    0  0.00000000000E+00  0.00000000000E+00  0.17694319393E+04  0.17694319393E+04  0.25500000920E-02 0.  1.
       -2   -1    0    0    0  501  0.00000000000E+00  0.00000000000E+00 -0.75496028151E+03  0.75496028151E+03  0.25500000920E-02 0. -1.
    10030    2    1    2    0    0  0.00000000000E+00  0.00000000000E+00  0.10144716578E+04  0.25243922209E+04  0.23115802690E+04 0.  0.
        1    1    3    3  502    0 -0.62527065654E+03 -0.85478518792E+03  0.10126969056E+04  0.14653245832E+04  0.50400001928E-02 0.  1.
       -1    1    3    3    0  502  0.62527065654E+03  0.85478518792E+03  0.17747522201E+01  0.10590676377E+04  0.50400001928E-02 0. -1.
</event>
<event>
 5   0  0.3238713E-06  0.2298868E+04  0.7818609E-02  0.8478367E-01
       -1   -1    0    0    0  501  0.00000000000E+00  0.00000000000E+00  0.14600041546E+04  0.14600041546E+04  0.50400001928E-02 0. -1.
        1   -1    0    0  501    0  0.00000000000E+00  0.00000000000E+00 -0.90492809966E+03  0.90492809967E+03  0.50400001928E-02 0.  1.
    10030    2    1    2    0    0  0.00000000000E+00  0.00000000000E+00  0.55507605492E+03  0.23649322543E+04  0.22988682303E+04 0.  0.
        3    1    3    3  502    0 -0.33773281020E+03  0.69127434286E+03 -0.60097927772E+03  0.97626828824E+03  0.10100000352E+00 0.  1.
       -3    1    3    3    0  502  0.33773281020E+03 -0.69127434286E+03  0.11560553326E+04  0.13886639660E+04  0.10100000352E+00 0. -1.
</event>
<event>
 5   0  0.7003852E-06  0.2301211E+04  0.7818609E-02  0.8477444E-01
       -2   -1    0    0    0  501  0.00000000000E+00  0.00000000000E+00  0.11130046159E+04  0.11130046159E+04  0.25500000920E-02 0.  1.
        2   -1    0    0  501    0  0.00000000000E+00  0.00000000000E+00 -0.11894763218E+04  0.11894763218E+04  0.25500000920E-02 0. -1.
    10030    2    1    2    0    0  0.00000000000E+00  0.00000000000E+00 -0.76471705964E+02  0.23024809377E+04  0.23012106698E+04 0.  0.
        2    1    3    3  502    0  0.15065623724E+03 -0.73895105501E+03 -0.90770729295E+03  0.11801179997E+04  0.25500000920E-02 0. -1.
       -2    1    3    3    0  502 -0.15065623724E+03  0.73895105501E+03  0.83123558698E+03  0.11223629380E+04  0.25500000920E-02 0.  1.
</event>
<event>
 5   0  0.7003852E-06  0.2298282E+04  0.7818609E-02  0.8478599E-01
       -2   -1    0    0    0  501  0.00000000000E+00  0.00000000000E+00  0.64290576354E+03  0.64290576355E+03  0.25500000920E-02 0. -1.
        2   -1    0    0  501    0  0.00000000000E+00  0.00000000000E+00 -0.20539950130E+04  0.20539950130E+04  0.25500000920E-02 0.  1.
    10030    2    1    2    0    0  0.00000000000E+00  0.00000000000E+00 -0.14110892494E+04  0.26969007765E+04  0.22982821691E+04 0.  0.
        2    1    3    3  502    0 -0.65239136056E+03  0.94556134613E+03 -0.67185058097E+03  0.13308207805E+04  0.25500000920E-02 0.  1.
       -2    1    3    3    0  502  0.65239136056E+03 -0.94556134613E+03 -0.73923866847E+03  0.13660799960E+04  0.25500000920E-02 0. -1.
</event>
<event>
 5   0  0.7003852E-06  0.2300470E+04  0.7818609E-02  0.8477736E-01
       -2   -1    0    0    0  501  0.00000000000E+00  0.00000000000E+00  0.10108289068E+04  0.10108289068E+04  0.25500000920E-02 0. -1.
        2   -1    0    0  501    0  0.00000000000E+00  0.00000000000E+00 -0.13088663920E+04  0.13088663920E+04  0.25500000920E-02 0.  1.
    10030    2    1    2    0    0  0.00000000000E+00  0.00000000000E+00 -0.29803748522E+03  0.23196952989E+04  0.23004695036E+04 0.  0.
        2    1    3    3  502    0  0.36159698572E+03 -0.24023509448E+02  0.95175950870E+03  0.10184182203E+04  0.25500000920E-02 0. -1.
       -2    1    3    3    0  502 -0.36159698572E+03  0.24023509448E+02 -0.12497969939E+04  0.13012770785E+04  0.25500000920E-02 0.  1.
</event>
<event>
 5   0  0.7348107E-06  0.2299453E+04  0.7818609E-02  0.8478137E-01
       -2   -1    0    0    0  501  0.00000000000E+00  0.00000000000E+00  0.92992626298E+03  0.92992626298E+03  0.25500000920E-02 0. -1.
        2   -1    0    0  501    0  0.00000000000E+00  0.00000000000E+00 -0.14214798060E+04  0.14214798060E+04  0.25500000920E-02 0.  1.
    10030    2    1    2    0    0  0.00000000000E+00  0.00000000000E+00 -0.49155354301E+03  0.23514060690E+04  0.22994533297E+04 0.  0.
        3    1    3    3  502    0  0.88429678371E+03 -0.45402381670E+03  0.34498937747E+03  0.10522053548E+04  0.10100000352E+00 0. -1.
       -3    1    3    3    0  502 -0.88429678371E+03  0.45402381670E+03 -0.83654292048E+03  0.12992007142E+04  0.10100000352E+00 0.  1.
</event>
<event>
 5   0  0.7242214E-06  0.2294133E+04  0.7818609E-02  0.8480238E-01
       -2   -1    0    0    0  501  0.00000000000E+00  0.00000000000E+00  0.82770030229E+03  0.82770030230E+03  0.25500000920E-02 0. -1.
        2   -1    0    0  501    0  0.00000000000E+00  0.00000000000E+00 -0.15896593281E+04  0.15896593281E+04  0.25500000920E-02 0.  1.
    10030    2    1    2    0    0  0.00000000000E+00  0.00000000000E+00 -0.76195902585E+03  0.24173596304E+04  0.22941329573E+04 0.  0.
        1    1    3    3  502    0 -0.20879919696E+03  0.89409162044E+03  0.34353175636E+03  0.98031168413E+03  0.50400001928E-02 0. -1.
       -1    1    3    3    0  502  0.20879919696E+03 -0.89409162044E+03 -0.11054907822E+04  0.14370479463E+04  0.50400001928E-02 0.  1.
</event>
<event>
 5   0  0.7497344E-06  0.2300548E+04  0.7818609E-02  0.8477705E-01
        2   -1    0    0  501    0  0.00000000000E+00  0.00000000000E+00  0.17253838909E+04  0.17253838909E+04  0.25500000920E-02 0.  1.
       -2   -1    0    0    0  501  0.00000000000E+00  0.00000000000E+00 -0.76686119697E+03  0.76686119697E+03  0.25500000920E-02 0. -1.
    10030    2    1    2    0    0  0.00000000000E+00  0.00000000000E+00  0.95852269392E+03  0.24922450879E+04  0.23005477224E+04 0.  0.
        5    1    3    3  502    0  0.21153169721E+03  0.66515006391E+03  0.14697429919E+04  0.16270638643E+04  0.46999998093E+01 0.  1.
       -5    1    3    3    0  502 -0.21153169721E+03 -0.66515006391E+03 -0.51122029798E+03  0.86518122351E+03  0.46999998093E+01 0. -1.
</event>
<event>
 5   0  0.3226427E-06  0.2300935E+04  0.7818609E-02  0.8477553E-01
        1   -1    0    0  501    0  0.00000000000E+00  0.00000000000E+00  0.19321286486E+04  0.19321286486E+04  0.50400001928E-02 0. -1.
       -1   -1    0    0    0  501  0.00000000000E+00  0.00000000000E+00 -0.68503481743E+03  0.68503481745E+03  0.50400001928E-02 0.  1.
    10030    2    1    2    0    0  0.00000000000E+00  0.00000000000E+00  0.12470938312E+04  0.26171634661E+04  0.23009349370E+04 0.  0.
        4    1    3    3  502    0  0.98450075121E+03 -0.58938261566E+03  0.71844052080E+03  0.13537990957E+04  0.12699999809E+01 0. -1.
       -4    1    3    3    0  502 -0.98450075121E+03  0.58938261566E+03  0.52865331040E+03  0.12633643704E+04  0.12699999809E+01 0.  1.
</event>
<event>
 5   0  0.3338758E-06  0.2305035E+04  0.7818609E-02  0.8475939E-01
        1   -1    0    0  501    0  0.00000000000E+00  0.00000000000E+00  0.92804738783E+03  0.92804738784E+03  0.50400001928E-02 0.  1.
       -1   -1    0    0    0  501  0.00000000000E+00  0.00000000000E+00 -0.14312806289E+04  0.14312806289E+04  0.50400001928E-02 0. -1.
    10030    2    1    2    0    0  0.00000000000E+00  0.00000000000E+00 -0.50323324108E+03  0.23593280168E+04  0.23050347060E+04 0.  0.
        5    1    3    3  502    0  0.12875811288E+03  0.76991741785E+03  0.61624792671E+03  0.99455270303E+03  0.46999998093E+01 0.  1.
       -5    1    3    3    0  502 -0.12875811288E+03 -0.76991741785E+03 -0.11194811678E+04  0.13647753137E+04  0.46999998093E+01 0. -1.
</event>
<event>
 5   0  0.7044981E-06  0.2331441E+04  0.7818609E-02  0.8465626E-01
       -2   -1    0    0    0  501  0.00000000000E+00  0.00000000000E+00  0.11254273385E+04  0.11254273385E+04  0.25500000920E-02 0. -1.
        2   -1    0    0  501    0  0.00000000000E+00  0.00000000000E+00 -0.12074565382E+04  0.12074565382E+04  0.25500000920E-02 0.  1.
    10030    2    1    2    0    0  0.00000000000E+00  0.00000000000E+00 -0.82029199703E+02  0.23328838768E+04  0.23314412694E+04 0.  0.
        4    1    3    3  502    0  0.43815033321E+02 -0.56253519015E+03 -0.10617131236E+04  0.12023318872E+04  0.12699999809E+01 0.  1.
       -4    1    3    3    0  502 -0.43815033321E+02  0.56253519015E+03  0.97968392393E+03  0.11305519895E+04  0.12699999809E+01 0. -1.
</event>
<event>
 5   0  0.7003852E-06  0.2293079E+04  0.7818609E-02  0.8480655E-01
        2   -1    0    0  501    0  0.00000000000E+00  0.00000000000E+00  0.10728400981E+04  0.10728400981E+04  0.25500000920E-02 0.  1.
       -2   -1    0    0    0  501  0.00000000000E+00  0.00000000000E+00 -0.12253019276E+04  0.12253019276E+04  0.25500000920E-02 0. -1.
    10030    2    1    2    0    0  0.00000000000E+00  0.00000000000E+00 -0.15246182945E+03  0.22981420257E+04  0.22930791877E+04 0.  0.
        2    1    3    3  502    0  0.96205281367E+03 -0.62222072795E+03 -0.33138427542E+02  0.11462121994E+04  0.25500000920E-02 0. -1.
       -2    1    3    3    0  502 -0.96205281367E+03  0.62222072795E+03 -0.11932340190E+03  0.11519298264E+04  0.25500000920E-02 0.  1.
</event>
<event>
 5   0  0.3338758E-06  0.2304667E+04  0.7818609E-02  0.8476083E-01
       -1   -1    0    0    0  501  0.00000000000E+00  0.00000000000E+00  0.67315727951E+03  0.67315727953E+03  0.50400001928E-02 0. -1.
        1   -1    0    0  501    0  0.00000000000E+00  0.00000000000E+00 -0.19726039480E+04  0.19726039480E+04  0.50400001928E-02 0.  1.
    10030    2    1    2    0    0  0.00000000000E+00  0.00000000000E+00 -0.12994466685E+04  0.26457612276E+04  0.23046671840E+04 0.  0.
        5    1    3    3  502    0 -0.63113067322E+03  0.55824200188E+03 -0.15521215110E+04  0.17660870121E+04  0.46999998093E+01 0.  1.
       -5    1    3    3    0  502  0.63113067322E+03 -0.55824200188E+03  0.25267484249E+03  0.87967421547E+03  0.46999998093E+01 0. -1.
</event>
<event>
 5   0  0.3195296E-06  0.2300368E+04  0.7818609E-02  0.8477776E-01
       -1   -1    0    0    0  501  0.00000000000E+00  0.00000000000E+00  0.11928995120E+04  0.11928995120E+04  0.50400001928E-02 0. -1.
        1   -1    0    0  501    0  0.00000000000E+00  0.00000000000E+00 -0.11089983081E+04  0.11089983081E+04  0.50400001928E-02 0.  1.
    10030    2    1    2    0    0  0.00000000000E+00  0.00000000000E+00  0.83901203885E+02  0.23018978202E+04  0.23003682667E+04 0.  0.
        2    1    3    3  502    0  0.91402489438E+02  0.54217024622E+03 -0.96897880030E+03  0.11141018384E+04  0.25500000920E-02 0.  1.
       -2    1    3    3    0  502 -0.91402489438E+02 -0.54217024622E+03  0.10528800042E+04  0.11877959817E+04  0.25500000920E-02 0. -1.
</event>
<event>
 5   0  0.7497344E-06  0.2300138E+04  0.7818609E-02  0.8477867E-01
        2   -1    0    0  501    0  0.00000000000E+00  0.00000000000E+00  0.69586086679E+03  0.69586086679E+03  0.25500000920E-02 0. -1.
       -2   -1    0    0    0  501  0.00000000000E+00  0.00000000000E+00 -0.19007518562E+04  0.19007518562E+04  0.25500000920E-02 0.  1.
    10030    2    1    2    0    0  0.00000000000E+00  0.00000000000E+00 -0.12048909894E+04  0.25966127230E+04  0.23001381126E+04 0.  0.
        5    1    3    3  502    0 -0.56914719250E+03  0.62845705153E+03 -0.14796115585E+04  0.17053325912E+04  0.46999998093E+01 0.  1.
       -5    1    3    3    0  502  0.56914719250E+03 -0.62845705153E+03  0.27472056910E+03  0.89128013185E+03  0.46999998093E+01 0. -1.
</event>
<event>
 5   0  0.3195296E-06  0.2301907E+04  0.7818609E-02  0.8477170E-01
       -1   -1    0    0    0  501  0.00000000000E+00  0.00000000000E+00  0.22795371986E+04  0.22795371986E+04  0.50400001928E-02 0.  1.
        1   -1    0    0  501    0  0.00000000000E+00  0.00000000000E+00 -0.58112409001E+03  0.58112409003E+03  0.50400001928E-02 0. -1.
    10030    2    1    2    0    0  0.00000000000E+00  0.00000000000E+00  0.16984131086E+04  0.28606612886E+04  0.23019070183E+04 0.  0.
        2    1    3    3  502    0 -0.26265798222E+03  0.88090113632E+03  0.17099458842E+04  0.19413631691E+04  0.25500000920E-02 0.  1.
       -2    1    3    3    0  502  0.26265798222E+03 -0.88090113632E+03 -0.11532775593E+02  0.91929811950E+03  0.25500000920E-02 0. -1.
</event>
<event>
 5   0  0.3238713E-06  0.2304274E+04  0.7818609E-02  0.8476238E-01
        1   -1    0    0  501    0  0.00000000000E+00  0.00000000000E+00  0.14922114300E+04  0.14922114300E+04  0.50400001928E-02 0.  1.
       -1   -1    0    0    0  501  0.00000000000E+00  0.00000000000E+00 -0.88956542725E+03  0.88956542726E+03  0.50400001928E-02 0. -1.
    10030    2    1    2    0    0  0.00000000000E+00  0.00000000000E+00  0.60264600273E+03  0.23817768572E+04  0.23042740273E+04 0.  0.
        3    1    3    3  502    0  0.73676342486E+03  0.83198089607E+03  0.61553277737E+03  0.12703909500E+04  0.10100000352E+00 0.  1.
       -3    1    3    3    0  502 -0.73676342486E+03 -0.83198089607E+03 -0.12886774643E+02  0.11113859072E+04  0.10100000352E+00 0. -1.
</event>
<event>
 5   0  0.3184492E-06  0.2299733E+04  0.7818609E-02  0.8478026E-01
       -1   -1    0    0    0  501  0.00000000000E+00  0.00000000000E+00  0.85974269735E+03  0.85974269737E+03  0.50400001928E-02 0. -1.
        1   -1    0    0  501    0  0.00000000000E+00  0.00000000000E+00 -0.15378941294E+04  0.15378941294E+04  0.50400001928E-02 0.  1.
    10030    2    1    2    0    0  0.00000000000E+00  0.00000000000E+00 -0.67815143204E+03  0.23976368268E+04  0.22997332429E+04 0.  0.
        1    1    3    3  502    0  0.54109332403E+03  0.47875084979E+03  0.59355050654E+03  0.93503292205E+03  0.50400001928E-02 0. -1.
       -1    1    3    3    0  502 -0.54109332403E+03 -0.47875084979E+03 -0.12717019386E+04  0.14626039047E+04  0.50400001928E-02 0.  1.
</event>
<event>
 5   0  0.7242214E-06  0.2310166E+04  0.7818609E-02  0.8473924E-01
        2   -1    0    0  501    0  0.00000000000E+00  0.00000000000E+00  0.10604074475E+04  0.10604074475E+04  0.25500000920E-02 0. -1.
       -2   -1    0    0    0  501  0.00000000000E+00  0.00000000000E+00 -0.12582115647E+04  0.12582115647E+04  0.25500000920E-02 0.  1.
    10030    2    1    2    0    0  0.00000000000E+00  0.00000000000E+00 -0.19780411716E+03  0.23186190122E+04  0.23101661531E+04 0.  0.
        1    1    3    3  502    0  0.58829519593E+03 -0.23663881379E+03  0.87009820299E+03  0.10766429532E+04  0.50400001928E-02 0. -1.
       -1    1    3    3    0  502 -0.58829519593E+03  0.23663881379E+03 -0.10679023201E+04  0.12419760590E+04  0.50400001928E-02 0.  1.
</event>
<event>
 5   0  0.7348107E-06  0.2299342E+04  0.7818609E-02  0.8478181E-01
        2   -1    0    0  501    0  0.00000000000E+00  0.00000000000E+00  0.17746480830E+04  0.17746480830E+04  0.25500000920E-02 0.  1.
       -2   -1    0    0    0  501  0.00000000000E+00  0.00000000000E+00 -0.74479156416E+03  0.74479156417E+03  0.25500000920E-02 0. -1.
    10030    2    1    2    0    0  0.00000000000E+00  0.00000000000E+00  0.10298565188E+04  0.25194396472E+04  0.22993415767E+04 0.  0.
        3    1    3    3  502    0  0.10650851102E+04 -0.41160696719E+03  0.36826378838E+03  0.11997686508E+04  0.10100000352E+00 0. -1.
       -3    1    3    3    0  502 -0.10650851102E+04  0.41160696719E+03  0.66159273046E+03  0.13196709964E+04  0.10100000352E+00 0.  1.
</event>
<event>
 5   0  0.7497344E-06  0.2299003E+04  0.7818609E-02  0.8478314E-01
       -2   -1    0    0    0  501  0.00000000000E+00  0.00000000000E+00  0.11003606699E+04  0.11003606699E+04  0.25500000920E-02 0. -1.
        2   -1    0    0  501    0  0.00000000000E+00  0.00000000000E+00 -0.12008367057E+04  0.12008367057E+04  0.25500000920E-02 0.  1.
    10030    2    1    2    0    0  0.00000000000E+00  0.00000000000E+00 -0.10047603574E+03  0.23011973756E+04  0.22990028116E+04 0.  0.
        5    1    3    3  502    0 -0.11198097507E+04  0.24981386636E+03 -0.12066530060E+03  0.11536737192E+04  0.46999998093E+01 0.  1.
       -5    1    3    3    0  502  0.11198097507E+04 -0.24981386636E+03  0.20189264856E+02  0.11475236564E+04  0.46999998093E+01 0. -1.
</event>
<event>
 5   0  0.7044981E-06  0.2300785E+04  0.7818609E-02  0.8477612E-01
       -2   -1    0    0    0  501  0.00000000000E+00  0.00000000000E+00  0.94039785302E+03  0.94039785303E+03  0.25500000920E-02 0.  1.
        2   -1    0    0  501    0  0.00000000000E+00  0.00000000000E+00 -0.14072797633E+04  0.14072797633E+04  0.25500000920E-02 0. -1.
    10030    2    1    2    0    0  0.00000000000E+00  0.00000000000E+00 -0.46688191026E+03  0.23476776163E+04  0.23007849687E+04 0.  0.
        4    1    3    3  502    0  0.74641909358E+03 -0.74474406623E+03 -0.70283410542E+03  0.12671868765E+04  0.12699999809E+01 0. -1.
       -4    1    3    3    0  502 -0.74641909358E+03  0.74474406623E+03  0.23595219516E+03  0.10804907398E+04  0.12699999809E+01 0.  1.
</event>
<event>
 5   0  0.7242214E-06  0.2301683E+04  0.7818609E-02  0.8477258E-01
        2   -1    0    0  501    0  0.00000000000E+00  0.00000000000E+00  0.10529805506E+04  0.10529805506E+04  0.25500000920E-02 0. -1.
       -2   -1    0    0    0  501  0.00000000000E+00  0.00000000000E+00 -0.12577969017E+04  0.12577969017E+04  0.25500000920E-02 0.  1.
    10030    2    1    2    0    0  0.00000000000E+00  0.00000000000E+00 -0.20481635112E+03  0.23107774523E+04  0.23016825794E+04 0.  0.
        1    1    3    3  502    0 -0.73502961782E+03 -0.15631560571E+03 -0.97747871325E+03  0.12329508273E+04  0.50400001928E-02 0.  1.
       -1    1    3    3    0  502  0.73502961782E+03  0.15631560571E+03  0.77266236213E+03  0.10778266250E+04  0.50400001928E-02 0. -1.
</event>
<event>
 5   0  0.3195296E-06  0.2302304E+04  0.7818609E-02  0.8477013E-01
       -1   -1    0    0    0  501  0.00000000000E+00  0.00000000000E+00  0.45992500853E+03  0.45992500856E+03  0.50400001928E-02 0.  1.
        1   -1    0    0  501    0  0.00000000000E+00  0.00000000000E+00 -0.28812318175E+04  0.28812318175E+04  0.50400001928E-02 0. -1.
    10030    2    1    2    0    0  0.00000000000E+00  0.00000000000E+00 -0.24213068090E+04  0.33411568261E+04  0.23023036883E+04 0.  0.
        2    1    3    3  502    0  0.44295908081E+03  0.10600322693E+04 -0.11053080931E+04  0.15942355973E+04  0.25500000920E-02 0.  1.
       -2    1    3    3    0  502 -0.44295908081E+03 -0.10600322693E+04 -0.13159987159E+04  0.17469212287E+04  0.25500000920E-02 0. -1.
</event>
<event>
 5   0  0.3238713E-06  0.2296407E+04  0.7818609E-02  0.8479339E-01
        1   -1    0    0  501    0  0.00000000000E+00  0.00000000000E+00  0.17152596468E+04  0.17152596468E+04  0.50400001928E-02 0.  1.
       -1   -1    0    0    0  501  0.00000000000E+00  0.00000000000E+00 -0.76861300771E+03  0.76861300773E+03  0.50400001928E-02 0. -1.
    10030    2    1    2    0    0  0.00000000000E+00  0.00000000000E+00  0.94664663911E+03  0.24838726546E+04  0.22964066506E+04 0.  0.
        3    1    3    3  502    0 -0.79388290989E+03  0.66319560008E+03 -0.65643751915E+02  0.10365266957E+04  0.10100000352E+00 0. -1.
       -3    1    3    3    0  502  0.79388290989E+03 -0.66319560008E+03  0.10122903910E+04  0.14473459588E+04  0.10100000352E+00 0.  1.
</event>
<event>
 5   0  0.7348107E-06  0.2303918E+04  0.7818609E-02  0.8476378E-01
        2   -1    0    0  501    0  0.00000000000E+00  0.00000000000E+00  0.13391548201E+04  0.13391548201E+04  0.25500000920E-02 0.  1.
       -2   -1    0    0    0  501  0.00000000000E+00  0.00000000000E+00 -0.99093102893E+03  0.99093102893E+03  0.25500000920E-02 0. -1.
    10030    2    1    2    0    0  0.00000000000E+00  0.00000000000E+00  0.34822379121E+03  0.23300858491E+04  0.23039184567E+04 0.  0.
        3    1    3    3  502    0 -0.15576410425E+03  0.11705006296E+02  0.13283944205E+04  0.13375467132E+04  0.10100000352E+00 0.  1.
       -3    1    3    3    0  502  0.15576410425E+03 -0.11705006296E+02 -0.98017062934E+03  0.99253913583E+03  0.10100000352E+00 0. -1.
</event>
<event>
 5   0  0.7348107E-06  0.2294328E+04  0.7818609E-02  0.8480161E-01
       -2   -1    0    0    0  501  0.00000000000E+00  0.00000000000E+00  0.87056664182E+03  0.87056664182E+03  0.25500000920E-02 0.  1.
        2   -1    0    0  501    0  0.00000000000E+00  0.00000000000E+00 -0.15116426089E+04  0.15116426089E+04  0.25500000920E-02 0. -1.
    10030    2    1    2    0    0  0.00000000000E+00  0.00000000000E+00 -0.64107596711E+03  0.23822092508E+04  0.22943283372E+04 0.  0.
        3    1    3    3  502    0 -0.12286011678E+03 -0.70238770878E+03  0.61251656950E+03  0.94001045731E+03  0.10100000352E+00 0.  1.
       -3    1    3    3    0  502  0.12286011678E+03  0.70238770878E+03 -0.12535925366E+04  0.14421987934E+04  0.10100000352E+00 0. -1.
</event>
<event>
 5   0  0.3195296E-06  0.2301354E+04  0.7818609E-02  0.8477387E-01
       -1   -1    0    0    0  501  0.00000000000E+00  0.00000000000E+00  0.11522236949E+04  0.11522236949E+04  0.50400001928E-02 0. -1.
        1   -1    0    0  501    0  0.00000000000E+00  0.00000000000E+00 -0.11491328122E+04  0.11491328122E+04  0.50400001928E-02 0.  1.
    10030    2    1    2    0    0  0.00000000000E+00  0.00000000000E+00  0.30908826547E+01  0.23013565071E+04  0.23013544314E+04 0.  0.
        2    1    3    3  502    0 -0.53911284136E+03  0.60002812664E+03 -0.81905364529E+03  0.11495761316E+04  0.25500000920E-02 0.  1.
       -2    1    3    3    0  502  0.53911284136E+03 -0.60002812664E+03  0.82214452795E+03  0.11517803755E+04  0.25500000920E-02 0. -1.
</event>
<event>
 5   0  0.3184492E-06  0.2300715E+04  0.7818609E-02  0.8477639E-01
        1   -1    0    0  501    0  0.00000000000E+00  0.00000000000E+00  0.16975673316E+04  0.16975673316E+04  0.50400001928E-02 0. -1.
       -1   -1    0    0    0  501  0.00000000000E+00  0.00000000000E+00 -0.77954074000E+03  0.77954074001E+03  0.50400001928E-02 0.  1.
    10030    2    1    2    0    0  0.00000000000E+00  0.00000000000E+00  0.91802659156E+03  0.24771080716E+04  0.23007154486E+04 0.  0.
        1    1    3    3  502    0 -0.47824417971E+02 -0.11299149159E+04  0.23232916252E+03  0.11545439498E+04  0.50400001928E-02 0.  1.
       -1    1    3    3    0  502  0.47824417971E+02  0.11299149159E+04  0.68569742905E+03  0.13225641218E+04  0.50400001928E-02 0. -1.
</event>
<event>
 5   0  0.7497344E-06  0.2302009E+04  0.7818609E-02  0.8477129E-01
       -2   -1    0    0    0  501  0.00000000000E+00  0.00000000000E+00  0.10332290027E+04  0.10332290027E+04  0.25500000920E-02 0.  1.
        2   -1    0    0  501    0  0.00000000000E+00  0.00000000000E+00 -0.12822051767E+04  0.12822051767E+04  0.25500000920E-02 0. -1.
    10030    2    1    2    0    0  0.00000000000E+00  0.00000000000E+00 -0.24897617400E+03  0.23154341793E+04  0.23020091884E+04 0.  0.
        5    1    3    3  502    0  0.62210466746E+03 -0.12921167395E+03  0.84083784218E+03  0.10539166195E+04  0.46999998093E+01 0.  1.
       -5    1    3    3    0  502 -0.62210466746E+03  0.12921167395E+03 -0.10898140162E+04  0.12615175599E+04  0.46999998093E+01 0. -1.
</event>
<event>
 5   0  0.3226427E-06  0.2299453E+04  0.7818609E-02  0.8478137E-01
        1   -1    0    0  501    0  0.00000000000E+00  0.00000000000E+00  0.20497464402E+04  0.20497464402E+04  0.50400001928E-02 0. -1.
       -1   -1    0    0    0  501  0.00000000000E+00  0.00000000000E+00 -0.64489502681E+03  0.64489502683E+03  0.50400001928E-02 0.  1.
    10030    2    1    2    0    0  0.00000000000E+00  0.00000000000E+00  0.14048514134E+04  0.26946414671E+04  0.22994532268E+04 0.  0.
        4    1    3    3  502    0 -0.72459893032E+02 -0.68307674372E+03 -0.37799365910E+03  0.78404406326E+03  0.12699999809E+01 0.  1.
       -4    1    3    3    0  502  0.72459893032E+02  0.68307674372E+03  0.17828450725E+04  0.19105974038E+04  0.12699999809E+01 0. -1.
</event>
<event>
 5   0  0.3184492E-06  0.2300426E+04  0.7818609E-02  0.8477753E-01
       -1   -1    0    0    0  501  0.00000000000E+00  0.00000000000E+00  0.97290379341E+03  0.97290379342E+03  0.50400001928E-02 0.  1.
        1   -1    0    0  501    0  0.00000000000E+00  0.00000000000E+00 -0.13598368813E+04  0.13598368813E+04  0.50400001928E-02 0. -1.
    10030    2    1    2    0    0  0.00000000000E+00  0.00000000000E+00 -0.38693308786E+03  0.23327406747E+04  0.23004264476E+04 0.  0.
        1    1    3    3  502    0 -0.94850393015E+03  0.25312800860E+03 -0.80126656237E+03  0.12671864891E+04  0.50400001928E-02 0. -1.
       -1    1    3    3    0  502  0.94850393015E+03 -0.25312800860E+03  0.41433347451E+03  0.10655541856E+04  0.50400001928E-02 0.  1.
</event>
<event>
 5   0  0.7044981E-06  0.2299434E+04  0.7818609E-02  0.8478144E-01
        2   -1    0    0  501    0  0.00000000000E+00  0.00000000000E+00  0.26224559566E+04  0.26224559566E+04  0.25500000920E-02 0. -1.
       -2   -1    0    0    0  501  0.00000000000E+00  0.00000000000E+00 -0.50404997951E+03  0.50404997952E+03  0.25500000920E-02 0.  1.
    10030    2    1    2    0    0  0.00000000000E+00  0.00000000000E+00  0.21184059771E+04  0.31265059361E+04  0.22994337313E+04 0.  0.
        4    1    3    3  502    0 -0.30230285126E+02 -0.25709468007E+03  0.25823148314E+04  0.25952577995E+04  0.12699999809E+01 0. -1.
       -4    1    3    3    0  502  0.30230285126E+02  0.25709468007E+03 -0.46390885429E+03  0.53124813661E+03  0.12699999809E+01 0.  1.
</event>
<event>
 5   0  0.3238713E-06  0.2300423E+04  0.7818609E-02  0.8477754E-01
       -1   -1    0    0    0  501  0.00000000000E+00  0.00000000000E+00  0.89099904518E+03  0.89099904519E+03  0.50400001928E-02 0.  1.
        1   -1    0    0  501    0  0.00000000000E+00  0.00000000000E+00 -0.14848347290E+04  0.14848347290E+04  0.50400001928E-02 0. -1.
    10030    2    1    2    0    0  0.00000000000E+00  0.00000000000E+00 -0.59383568385E+03  0.23758337742E+04  0.23004228532E+04 0.  0.
        3    1    3    3  502    0 -0.48088525769E+03  0.30083420528E+03 -0.13303364419E+04  0.14462181402E+04  0.10100000352E+00 0. -1.
       -3    1    3    3    0  502  0.48088525769E+03 -0.30083420528E+03  0.73650075809E+03  0.92961563401E+03  0.10100000352E+00 0.  1.
</event>
<event>
 5   0  0.3184492E-06  0.2298126E+04  0.7818609E-02  0.8478660E-01
       -1   -1    0    0    0  501  0.00000000000E+00  0.00000000000E+00  0.59168906051E+03  0.59168906053E+03  0.50400001928E-02 0.  1.
        1   -1    0    0  501    0  0.00000000000E+00  0.00000000000E+00 -0.22314853928E+04  0.22314853928E+04  0.50400001928E-02 0. -1.
    10030    2    1    2    0    0  0.00000000000E+00  0.00000000000E+00 -0.16397963323E+04  0.28231744534E+04  0.22981257543E+04 0.  0.
        1    1    3    3  502    0  0.10487636035E+04  0.43129468525E+03 -0.59196750263E+03  0.12791972975E+04  0.50400001928E-02 0. -1.
       -1    1    3    3    0  502 -0.10487636035E+04 -0.43129468525E+03 -0.10478288297E+04  0.15439771559E+04  0.50400001928E-02 0.  1.
</event>
<event>
 5   0  0.3184492E-06  0.2309110E+04  0.7818609E-02  0.8474338E-01
        1   -1    0    0  501    0  0.00000000000E+00  0.00000000000E+00  0.13509496951E+04  0.13509496951E+04  0.50400001928E-02 0. -1.
       -1   -1    0    0    0  501  0.00000000000E+00  0.00000000000E+00 -0.98671120830E+03  0.98671120831E+03  0.50400001928E-02 0.  1.
    10030    2    1    2    0    0  0.00000000000E+00  0.00000000000E+00  0.36423848683E+03  0.23376609034E+04  0.23091099636E+04 0.  0.
        1    1    3    3  502    0 -0.28872837951E+03  0.11047117192E+04  0.35524584259E+03  0.11958058657E+04  0.50400001928E-02 0. -1.
       -1    1    3    3    0  502  0.28872837951E+03 -0.11047117192E+04  0.89926442315E+01  0.11418550378E+04  0.50400001928E-02 0.  1.
</event>
<event>
 5   0  0.3338758E-06  0.2298673E+04  0.7818609E-02  0.8478445E-01
        1   -1    0    0  501    0  0.00000000000E+00  0.00000000000E+00  0.98893338674E+03  0.98893338675E+03  0.50400001928E-02 0. -1.
       -1   -1    0    0    0  501  0.00000000000E+00  0.00000000000E+00 -0.13357563908E+04  0.13357563908E+04  0.50400001928E-02 0.  1.
    10030    2    1    2    0    0  0.00000000000E+00  0.00000000000E+00 -0.34682300402E+03  0.23246897775E+04  0.22986727400E+04 0.  0.
        5    1    3    3  502    0  0.80225910338E+02  0.99149704325E+03 -0.75564406467E+03  0.12492088000E+04  0.46999998093E+01 0.  1.
       -5    1    3    3    0  502 -0.80225910338E+02 -0.99149704325E+03  0.40882106065E+03  0.10754809776E+04  0.46999998093E+01 0. -1.
</event>
<event>
 5   0  0.3338758E-06  0.2300962E+04  0.7818609E-02  0.8477542E-01
        1   -1    0    0  501    0  0.00000000000E+00  0.00000000000E+00  0.82244678816E+03  0.82244678818E+03  0.50400001928E-02 0.  1.
       -1   -1    0    0    0  501  0.00000000000E+00  0.00000000000E+00 -0.16093516789E+04  0.16093516789E+04  0.50400001928E-02 0. -1.
    10030    2    1    2    0    0  0.00000000000E+00  0.00000000000E+00 -0.78690489077E+03  0.24317984671E+04  0.23009616419E+04 0.  0.
        5    1    3    3  502    0 -0.44736241146E+03  0.10124070828E+04 -0.72511649347E+03  0.13232222972E+04  0.46999998093E+01 0. -1.
       -5    1    3    3    0  502  0.44736241146E+03 -0.10124070828E+04 -0.61788397302E+02  0.11085761700E+04  0.46999998093E+01 0.  1.
</event>
<event>
 5   0  0.3195296E-06  0.2287851E+04  0.7818609E-02  0.8482727E-01
        1   -1    0    0  501    0  0.00000000000E+00  0.00000000000E+00  0.12352431159E+04  0.12352431159E+04  0.50400001928E-02 0. -1.
       -1   -1    0    0    0  501  0.00000000000E+00  0.00000000000E+00 -0.10593587672E+04  0.10593587672E+04  0.50400001928E-02 0.  1.
    10030    2    1    2    0    0  0.00000000000E+00  0.00000000000E+00  0.17588434874E+03  0.22946018831E+04  0.22878510654E+04 0.  0.
        2    1    3    3  502    0 -0.38429296155E+03  0.67330398658E+03  0.93158190445E+03  0.12119670719E+04  0.25500000920E-02 0. -1.
       -2    1    3    3    0  502  0.38429296155E+03 -0.67330398658E+03 -0.75569755571E+03  0.10826348112E+04  0.25500000920E-02 0.  1.
</event>
<event>
 5   0  0.3195296E-06  0.2301896E+04  0.7818609E-02  0.8477174E-01
        1   -1    0    0  501    0  0.00000000000E+00  0.00000000000E+00  0.16207887952E+04  0.16207887952E+04  0.50400001928E-02 0.  1.
       -1   -1    0    0    0  501  0.00000000000E+00  0.00000000000E+00 -0.81730654946E+03  0.81730654948E+03  0.50400001928E-02 0. -1.
    10030    2    1    2    0    0  0.00000000000E+00  0.00000000000E+00  0.80348224578E+03  0.24380953447E+04  0.23018959991E+04 0.  0.
        2    1    3    3  502    0  0.94527469865E+03  0.25590091541E+03  0.10422111689E+04  0.14301166579E+04  0.25500000920E-02 0.  1.
       -2    1    3    3    0  502 -0.94527469865E+03 -0.25590091541E+03 -0.23872892317E+03  0.10079786869E+04  0.25500000920E-02 0. -1.
</event>
<event>
 5   0  0.3195296E-06  0.2297624E+04  0.7818609E-02  0.8478858E-01
       -1   -1    0    0    0  501  0.00000000000E+00  0.00000000000E+00  0.12422324485E+04  0.12422324485E+04  0.50400001928E-02 0. -1.
        1   -1    0    0  501    0  0.00000000000E+00  0.00000000000E+00 -0.10624175169E+04  0.10624175169E+04  0.50400001928E-02 0.  1.
    10030    2    1    2    0    0  0.00000000000E+00  0.00000000000E+00  0.17981493162E+03  0.23046499654E+04  0.22976244370E+04 0.  0.
        2    1    3    3  502    0 -0.64209511580E+02  0.11463734142E+04  0.51388910699E+02  0.11493196624E+04  0.25500000920E-02 0.  1.
       -2    1    3    3    0  502  0.64209511580E+02 -0.11463734142E+04  0.12842602092E+03  0.11553303030E+04  0.25500000920E-02 0. -1.
</event>
<event>
 5   0  0.7497344E-06  0.2301129E+04  0.7818609E-02  0.8477476E-01
       -2   -1    0    0    0  501  0.00000000000E+00  0.00000000000E+00  0.15364399457E+04  0.15364399457E+04  0.25500000920E-02 0.  1.
        2   -1    0    0  501    0  0.00000000000E+00  0.00000000000E+00 -0.86160122279E+03  0.86160122279E+03  0.25500000920E-02 0. -1.
    10030    2    1    2    0    0  0.00000000000E+00  0.00000000000E+00  0.67483872289E+03  0.23980411685E+04  0.23011288847E+04 0.  0.
        5    1    3    3  502    0  0.96153317167E+03  0.63115260746E+03  0.36827708870E+03  0.12077043339E+04  0.46999998093E+01 0.  1.
       -5    1    3    3    0  502 -0.96153317167E+03 -0.63115260746E+03  0.30656163420E+03  0.11903368345E+04  0.46999998093E+01 0. -1.
</event>
<event>
 5   0  0.3184492E-06  0.2299709E+04  0.7818609E-02  0.8478036E-01
       -1   -1    0    0    0  501  0.00000000000E+00  0.00000000000E+00  0.87343361955E+03  0.87343361957E+03  0.50400001928E-02 0.  1.
        1   -1    0    0  501    0  0.00000000000E+00  0.00000000000E+00 -0.15137563034E+04  0.15137563034E+04  0.50400001928E-02 0. -1.
    10030    2    1    2    0    0  0.00000000000E+00  0.00000000000E+00 -0.64032268382E+03  0.23871899229E+04  0.22997092401E+04 0.  0.
        1    1    3    3  502    0  0.71413173211E+03  0.56377646077E+03 -0.10499983355E+04  0.13893611961E+04  0.50400001928E-02 0. -1.
       -1    1    3    3    0  502 -0.71413173211E+03 -0.56377646077E+03  0.40967565172E+03  0.99782872686E+03  0.50400001928E-02 0.  1.
</event>
<event>
 5   0  0.2519625E-06  0.2304341E+04  0.7818609E-02  0.8476212E-01
       -3   -1    0    0    0  501  0.00000000000E+00  0.00000000000E+00  0.12100357494E+04  0.12100357537E+04  0.10100000352E+00 0.  1.
        3   -1    0    0  501    0  0.00000000000E+00  0.00000000000E+00 -0.10970723316E+04  0.10970723363E+04  0.10100000352E+00 0. -1.
    10030    2    1    2    0    0  0.00000000000E+00  0.00000000000E+00  0.11296341780E+03  0.23071080899E+04  0.23043409047E+04 0.  0.
        5    1    3    3  502    0  0.25576897421E+03  0.57089556738E+03 -0.91222094113E+03  0.11061232537E+04  0.46999998093E+01 0. -1.
       -5    1    3    3    0  502 -0.25576897421E+03 -0.57089556738E+03  0.10251843589E+04  0.12009848362E+04  0.46999998093E+01 0.  1.
</event>
<event>
 5   0  0.7348107E-06  0.2296243E+04  0.7818609E-02  0.8479404E-01
        2   -1    0    0  501    0  0.00000000000E+00  0.00000000000E+00  0.11931005846E+04  0.11931005846E+04  0.25500000920E-02 0. -1.
       -2   -1    0    0    0  501  0.00000000000E+00  0.00000000000E+00 -0.11048376423E+04  0.11048376423E+04  0.25500000920E-02 0.  1.
    10030    2    1    2    0    0  0.00000000000E+00  0.00000000000E+00  0.88262942234E+02  0.22979382269E+04  0.22962425281E+04 0.  0.
        3    1    3    3  502    0 -0.65384644150E+03  0.62324953113E+03  0.75333476341E+03  0.11762093449E+04  0.10100000352E+00 0. -1.
       -3    1    3    3    0  502  0.65384644150E+03 -0.62324953113E+03 -0.66507182118E+03  0.11217288820E+04  0.10100000352E+00 0.  1.
</event>
<event>
 5   0  0.3226427E-06  0.2302459E+04  0.7818609E-02  0.8476952E-01
       -1   -1    0    0    0  501  0.00000000000E+00  0.00000000000E+00  0.84663636007E+03  0.84663636008E+03  0.50400001928E-02 0. -1.
        1   -1    0    0  501    0  0.00000000000E+00  0.00000000000E+00 -0.15654056162E+04  0.15654056162E+04  0.50400001928E-02 0.  1.
    10030    2    1    2    0    0  0.00000000000E+00  0.00000000000E+00 -0.71876925616E+03  0.24120419763E+04  0.23024589577E+04 0.  0.
        4    1    3    3  502    0  0.42954785572E+03 -0.34318912637E+03 -0.14189768316E+04  0.15217710072E+04  0.12699999809E+01 0.  1.
       -4    1    3    3    0  502 -0.42954785572E+03  0.34318912637E+03  0.70020757546E+03  0.89027096911E+03  0.12699999809E+01 0. -1.
</event>
<event>
 5   0  0.7044981E-06  0.2300978E+04  0.7818609E-02  0.8477536E-01
        2   -1    0    0  501    0  0.00000000000E+00  0.00000000000E+00  0.23281781675E+04  0.23281781675E+04  0.25500000920E-02 0.  1.
       -2   -1    0    0    0  501  0.00000000000E+00  0.00000000000E+00 -0.56852395794E+03  0.56852395794E+03  0.25500000920E-02 0. -1.
    10030    2    1    2    0    0  0.00000000000E+00  0.00000000000E+00  0.17596542096E+04  0.28967021255E+04  0.23009781108E+04 0.  0.
        4    1    3    3  502    0 -0.57638524275E+03 -0.99260477080E+03  0.97846638201E+03  0.15082712795E+04  0.12699999809E+01 0. -1.
       -4    1    3    3    0  502  0.57638524275E+03  0.99260477080E+03  0.78118782758E+03  0.13884308459E+04  0.12699999809E+01 0.  1.
</event>
<event>
 5   0  0.7242214E-06  0.2289474E+04  0.7818609E-02  0.8482083E-01
        2   -1    0    0  501    0  0.00000000000E+00  0.00000000000E+00  0.11951927236E+04  0.11951927236E+04  0.25500000920E-02 0. -1.
       -2   -1    0    0    0  501  0.00000000000E+00  0.00000000000E+00 -0.10964110373E+04  0.10964110373E+04  0.25500000920E-02 0.  1.
    10030    2    1    2    0    0  0.00000000000E+00  0.00000000000E+00  0.98781686314E+02  0.22916037608E+04  0.22894737332E+04 0.  0.
        1    1    3    3  502    0 -0.48644094346E+03 -0.45437964836E+03 -0.88278481290E+03  0.11056195920E+04  0.50400001928E-02 0.  1.
       -1    1    3    3    0  502  0.48644094346E+03  0.45437964836E+03  0.98156649921E+03  0.11859841688E+04  0.50400001928E-02 0. -1.
</event>
<event>
 5   0  0.3238713E-06  0.2300661E+04  0.7818609E-02  0.8477660E-01
        1   -1    0    0  501    0  0.00000000000E+00  0.00000000000E+00  0.13844008913E+04  0.13844008913E+04  0.50400001928E-02 0.  1.
       -1   -1    0    0    0  501  0.00000000000E+00  0.00000000000E+00 -0.95583622331E+03  0.95583622332E+03  0.50400001928E-02 0. -1.
    10030    2    1    2    0    0  0.00000000000E+00  0.00000000000E+00  0.42856466801E+03  0.23402371147E+04  0.23006612263E+04 0.  0.
        3    1    3    3  502    0 -0.11371794065E+03  0.10712938281E+04  0.62452919634E+03  0.12452465472E+04  0.10100000352E+00 0.  1.
       -3    1    3    3    0  502  0.11371794065E+03 -0.10712938281E+04 -0.19596452832E+03  0.10949905674E+04  0.10100000352E+00 0. -1.
</event>
<event>
 5   0  0.7348107E-06  0.2290993E+04  0.7818609E-02  0.8481481E-01
       -2   -1    0    0    0  501  0.00000000000E+00  0.00000000000E+00  0.47731060346E+03  0.47731060347E+03  0.25500000920E-02 0.  1.
        2   -1    0    0  501    0  0.00000000000E+00  0.00000000000E+00 -0.27490751752E+04  0.27490751752E+04  0.25500000920E-02 0. -1.
    10030    2    1    2    0    0  0.00000000000E+00  0.00000000000E+00 -0.22717645717E+04  0.32263857787E+04  0.22909934359E+04 0.  0.
        3    1    3    3  502    0  0.10022157295E+04  0.54752085324E+03 -0.10103367241E+04  0.15247936776E+04  0.10100000352E+00 0. -1.
       -3    1    3    3    0  502 -0.10022157295E+04 -0.54752085324E+03 -0.12614278477E+04  0.17015921010E+04  0.10100000352E+00 0.  1.
</event>
<event>
 5   0  0.3226427E-06  0.2306070E+04  0.7818609E-02  0.8475532E-01
        1   -1    0    0  501    0  0.00000000000E+00  0.00000000000E+00  0.10536105041E+04  0.10536105041E+04  0.50400001928E-02 0. -1.
       -1   -1    0    0    0  501  0.00000000000E+00  0.00000000000E+00 -0.12618416168E+04  0.12618416168E+04  0.50400001928E-02 0.  1.
    10030    2    1    2    0    0  0.00000000000E+00  0.00000000000E+00 -0.20823111267E+03  0.23154521209E+04  0.23060698879E+04 0.  0.
        4    1    3    3  502    0 -0.42427135632E+03  0.10597887905E+04  0.58808301815E+02  0.11430741417E+04  0.12699999809E+01 0. -1.
       -4    1    3    3    0  502  0.42427135632E+03 -0.10597887905E+04 -0.26703941448E+03  0.11723779792E+04  0.12699999809E+01 0.  1.
</event>
<event>
 5   0  0.7003852E-06  0.2297228E+04  0.7818609E-02  0.8479015E-01
        2   -1    0    0  501    0  0.00000000000E+00  0.00000000000E+00  0.20195431717E+04  0.20195431717E+04  0.25500000920E-02 0. -1.
       -2   -1    0    0    0  501  0.00000000000E+00  0.00000000000E+00 -0.65327363081E+03  0.65327363081E+03  0.25500000920E-02 0.  1.
    10030    2    1    2    0    0  0.00000000000E+00  0.00000000000E+00  0.13662695409E+04  0.26728168026E+04  0.22972281562E+04 0.  0.
        2    1    3    3  502    0  0.10149753743E+04 -0.47479024127E+03  0.97681915178E+03  0.14865316811E+04  0.25500000920E-02 0. -1.
       -2    1    3    3    0  502 -0.10149753743E+04  0.47479024127E+03  0.38945038915E+03  0.11862851214E+04  0.25500000920E-02 0.  1.
</event>
<event>
 5   0  0.3226427E-06  0.2300093E+04  0.7818609E-02  0.8477885E-01
       -1   -1    0    0    0  501  0.00000000000E+00  0.00000000000E+00  0.11847451097E+04  0.11847451097E+04  0.50400001928E-02 0. -1.
        1   -1    0    0  501    0  0.00000000000E+00  0.00000000000E+00 -0.11163639743E+04  0.11163639743E+04  0.50400001928E-02 0.  1.
    10030    2    1    2    0    0  0.00000000000E+00  0.00000000000E+00  0.68381135384E+02  0.23011090840E+04  0.23000928322E+04 0.  0.
        4    1    3    3  502    0 -0.50822969735E+03  0.10244689713E+04 -0.87399330100E+02  0.11469413038E+04  0.12699999809E+01 0. -1.
       -4    1    3    3    0  502  0.50822969735E+03 -0.10244689713E+04  0.15578046548E+03  0.11541677802E+04  0.12699999809E+01 0.  1.
</event>
<event>
 5   0  0.3226427E-06  0.2306328E+04  0.7818609E-02  0.8475430E-01
        1   -1    0    0  501    0  0.00000000000E+00  0.00000000000E+00  0.30507717576E+04  0.30507717576E+04  0.50400001928E-02 0.  1.
       -1   -1    0    0    0  501  0.00000000000E+00  0.00000000000E+00 -0.43588539869E+03  0.43588539872E+03  0.50400001928E-02 0. -1.
    10030    2    1    2    0    0  0.00000000000E+00  0.00000000000E+00  0.26148863589E+04  0.34866571563E+04  0.23063276991E+04 0.  0.
        4    1    3    3  502    0 -0.89455548426E+03 -0.48118060461E+03  0.48214357554E+03  0.11243790860E+04  0.12699999809E+01 0. -1.
       -4    1    3    3    0  502  0.89455548426E+03  0.48118060461E+03  0.21327427833E+04  0.23622780703E+04  0.12699999809E+01 0.  1.
</event>
<event>
 5   0  0.3195296E-06  0.2313700E+04  0.7818609E-02  0.8472539E-01
       -1   -1    0    0    0  501  0.00000000000E+00  0.00000000000E+00  0.11318740827E+04  0.11318740827E+04  0.50400001928E-02 0.  1.
        1   -1    0    0  501    0  0.00000000000E+00  0.00000000000E+00 -0.11823769917E+04  0.11823769917E+04  0.50400001928E-02 0. -1.
    10030    2    1    2    0    0  0.00000000000E+00  0.00000000000E+00 -0.50502909032E+02  0.23142510744E+04  0.23136999571E+04 0.  0.
        2    1    3    3  502    0  0.44767880950E+03 -0.10024558611E+04 -0.38998581754E+03  0.11650849788E+04  0.25500000920E-02 0. -1.
       -2    1    3    3    0  502 -0.44767880950E+03  0.10024558611E+04  0.33948290851E+03  0.11491660955E+04  0.25500000920E-02 0.  1.
</event>
<event>
 5   0  0.7003852E-06  0.2298925E+04  0.7818609E-02  0.8478345E-01
        2   -1    0    0  501    0  0.00000000000E+00  0.00000000000E+00  0.12776042353E+04  0.12776042354E+04  0.25500000920E-02 0.  1.
       -2   -1    0    0    0  501  0.00000000000E+00  0.00000000000E+00 -0.10341727391E+04  0.10341727391E+04  0.25500000920E-02 0. -1.
    10030    2    1    2    0    0  0.00000000000E+00  0.00000000000E+00  0.24343149623E+03  0.23117769745E+04  0.22989245064E+04 0.  0.
        2    1    3    3  502    0 -0.81862891722E+03 -0.40494186778E+03  0.82356633224E+03  0.12297937730E+04  0.25500000920E-02 0.  1.
       -2    1    3    3    0  502  0.81862891722E+03  0.40494186778E+03 -0.58013483601E+03  0.10819832015E+04  0.25500000920E-02 0. -1.
</event>
<event>
 5   0  0.7242214E-06  0.2301127E+04  0.7818609E-02  0.8477477E-01
       -2   -1    0    0    0  501  0.00000000000E+00  0.00000000000E+00  0.22147308392E+04  0.22147308392E+04  0.25500000920E-02 0.  1.
        2   -1    0    0  501    0  0.00000000000E+00  0.00000000000E+00 -0.59772360265E+03  0.59772360266E+03  0.25500000920E-02 0. -1.
    10030    2    1    2    0    0  0.00000000000E+00  0.00000000000E+00  0.16170072366E+04  0.28124544419E+04  0.23011274594E+04 0.  0.
        1    1    3    3  502    0 -0.83867029709E+03  0.97463967032E+02 -0.14679792105E+03  0.85698116767E+03  0.50400001928E-02 0. -1.
       -1    1    3    3    0  502  0.83867029709E+03 -0.97463967032E+02  0.17638051576E+04  0.19554732742E+04  0.50400001928E-02 0.  1.
</event>
<event>
 5   0  0.7497344E-06  0.2301285E+04  0.7818609E-02  0.8477415E-01
        2   -1    0    0  501    0  0.00000000000E+00  0.00000000000E+00  0.19856326481E+04  0.19856326481E+04  0.25500000920E-02 0. -1.
       -2   -1    0    0    0  501  0.00000000000E+00  0.00000000000E+00 -0.66677908196E+03  0.66677908196E+03  0.25500000920E-02 0.  1.
    10030    2    1    2    0    0  0.00000000000E+00  0.00000000000E+00  0.13188535662E+04  0.26524117301E+04  0.23012851316E+04 0.  0.
        5    1    3    3  502    0 -0.90767543222E+03 -0.12142561296E+03 -0.14353036311E+03  0.92695303272E+03  0.46999998093E+01 0.  1.
       -5    1    3    3    0  502  0.90767543222E+03  0.12142561296E+03  0.14623839293E+04  0.17254586974E+04  0.46999998093E+01 0. -1.
</event>
<event>
 5   0  0.7242214E-06  0.2295706E+04  0.7818609E-02  0.8479616E-01
       -2   -1    0    0    0  501  0.00000000000E+00  0.00000000000E+00  0.11930885318E+04  0.11930885318E+04  0.25500000920E-02 0. -1.
        2   -1    0    0  501    0  0.00000000000E+00  0.00000000000E+00 -0.11043325112E+04  0.11043325112E+04  0.25500000920E-02 0.  1.
    10030    2    1    2    0    0  0.00000000000E+00  0.00000000000E+00  0.88756020604E+02  0.22974210431E+04  0.22957059520E+04 0.  0.
        1    1    3    3  502    0 -0.56555231269E+03  0.61792988005E+03  0.82974434145E+03  0.11790514947E+04  0.50400001928E-02 0. -1.
       -1    1    3    3    0  502  0.56555231269E+03 -0.61792988005E+03 -0.74098832084E+03  0.11183695484E+04  0.50400001928E-02 0.  1.
</event>
<event>
 5   0  0.3184492E-06  0.2300489E+04  0.7818609E-02  0.8477728E-01
       -1   -1    0    0    0  501  0.00000000000E+00  0.00000000000E+00  0.72019459071E+03  0.72019459073E+03  0.50400001928E-02 0.  1.
        1   -1    0    0  501    0  0.00000000000E+00  0.00000000000E+00 -0.18370901502E+04  0.18370901502E+04  0.50400001928E-02 0. -1.
    10030    2    1    2    0    0  0.00000000000E+00  0.00000000000E+00 -0.11168955594E+04  0.25572847409E+04  0.23004889818E+04 0.  0.
        1    1    3    3  502    0 -0.73706820178E+03 -0.87381595086E+03 -0.70010294087E+03  0.13405103423E+04  0.50400001928E-02 0. -1.
       -1    1    3    3    0  502  0.73706820178E+03  0.87381595086E+03 -0.41679261857E+03  0.12167743986E+04  0.50400001928E-02 0.  1.
</event>
<event>
 5   0  0.7497344E-06  0.2297693E+04  0.7818609E-02  0.8478831E-01
        2   -1    0    0  501    0  0.00000000000E+00  0.00000000000E+00  0.12027020113E+04  0.12027020113E+04  0.25500000920E-02 0. -1.
       -2   -1    0    0    0  501  0.00000000000E+00  0.00000000000E+00 -0.10974021352E+04  0.10974021352E+04  0.25500000920E-02 0.  1.
    10030    2    1    2    0    0  0.00000000000E+00  0.00000000000E+00  0.10529987619E+03  0.23001041465E+04  0.22976925427E+04 0.  0.
        5    1    3    3  502    0  0.54464506509E+03 -0.46986234067E+03  0.94936732862E+03  0.11911042275E+04  0.46999998093E+01 0. -1.
       -5    1    3    3    0  502 -0.54464506509E+03  0.46986234067E+03 -0.84406745244E+03  0.11089999190E+04  0.46999998093E+01 0.  1.
</event>
<event>
 5   0  0.7044981E-06  0.2302527E+04  0.7818609E-02  0.8476925E-01
        2   -1    0    0  501    0  0.00000000000E+00  0.00000000000E+00  0.23478529645E+04  0.23478529645E+04  0.25500000920E-02 0.  1.
       -2   -1    0    0    0  501  0.00000000000E+00  0.00000000000E+00 -0.56451910413E+03  0.56451910414E+03  0.25500000920E-02 0. -1.
    10030    2    1    2    0    0  0.00000000000E+00  0.00000000000E+00  0.17833338603E+04  0.29123720686E+04  0.23025271787E+04 0.  0.
        4    1    3    3  502    0  0.36909978869E+03 -0.34034313148E+03 -0.41875264667E+03  0.65377633267E+03  0.12699999809E+01 0. -1.
       -4    1    3    3    0  502 -0.36909978869E+03  0.34034313148E+03  0.22020865070E+04  0.22585957360E+04  0.12699999809E+01 0.  1.
</event>
<event>
 5   0  0.7044981E-06  0.2300953E+04  0.7818609E-02  0.8477545E-01
        2   -1    0    0  501    0  0.00000000000E+00  0.00000000000E+00  0.20698339320E+04  0.20698339320E+04  0.25500000920E-02 0.  1.
       -2   -1    0    0    0  501  0.00000000000E+00  0.00000000000E+00 -0.63946979787E+03  0.63946979787E+03  0.25500000920E-02 0. -1.
    10030    2    1    2    0    0  0.00000000000E+00  0.00000000000E+00  0.14303641341E+04  0.27093037299E+04  0.23009530948E+04 0.  0.
        4    1    3    3  502    0 -0.27207365352E+03  0.16935916516E+03 -0.58584956253E+03  0.66777834839E+03  0.12699999809E+01 0. -1.
       -4    1    3    3    0  502  0.27207365352E+03 -0.16935916516E+03  0.20162136967E+04  0.20415253815E+04  0.12699999809E+01 0.  1.
</event>
<event>
 5   0  0.3195296E-06  0.2298379E+04  0.7818609E-02  0.8478561E-01
       -1   -1    0    0    0  501  0.00000000000E+00  0.00000000000E+00  0.16829788869E+04  0.16829788869E+04  0.50400001928E-02 0. -1.
        1   -1    0    0  501    0  0.00000000000E+00  0.00000000000E+00 -0.78470157822E+03  0.78470157823E+03  0.50400001928E-02 0.  1.
    10030    2    1    2    0    0  0.00000000000E+00  0.00000000000E+00  0.89827730869E+03  0.24676804651E+04  0.22983787231E+04 0.  0.
        2    1    3    3  502    0 -0.41730268949E+03 -0.16796844250E+03  0.15845228728E+04  0.16471392373E+04  0.25500000920E-02 0. -1.
       -2    1    3    3    0  502  0.41730268949E+03  0.16796844250E+03 -0.68624556416E+03  0.82054122789E+03  0.25500000920E-02 0.  1.
</event>
<event>
 5   0  0.3238713E-06  0.2300706E+04  0.7818609E-02  0.8477643E-01
       -1   -1    0    0    0  501  0.00000000000E+00  0.00000000000E+00  0.76719074212E+03  0.76719074214E+03  0.50400001928E-02 0.  1.
        1   -1    0    0  501    0  0.00000000000E+00  0.00000000000E+00 -0.17248807776E+04  0.17248807776E+04  0.50400001928E-02 0. -1.
    10030    2    1    2    0    0  0.00000000000E+00  0.00000000000E+00 -0.95769003544E+03  0.24920715197E+04  0.23007064688E+04 0.  0.
        3    1    3    3  502    0 -0.29215516082E+03 -0.61491150482E+03 -0.14832492972E+04  0.16320230649E+04  0.10100000352E+00 0. -1.
       -3    1    3    3    0  502  0.29215516082E+03  0.61491150482E+03  0.52555926173E+03  0.86004845477E+03  0.10100000352E+00 0.  1.
</event>
<event>
 5   0  0.3338758E-06  0.2299080E+04  0.7818609E-02  0.8478284E-01
        1   -1    0    0  501    0  0.00000000000E+00  0.00000000000E+00  0.20079994857E+04  0.20079994857E+04  0.50400001928E-02 0.  1.
       -1   -1    0    0    0  501  0.00000000000E+00  0.00000000000E+00 -0.65808882794E+03  0.65808882796E+03  0.50400001928E-02 0. -1.
    10030    2    1    2    0    0  0.00000000000E+00  0.00000000000E+00  0.13499106577E+04  0.26660883136E+04  0.22990798403E+04 0.  0.
        5    1    3    3  502    0  0.95072894990E+02 -0.57125518002E+03 -0.47655977501E+03  0.75000176347E+03  0.46999998093E+01 0. -1.
       -5    1    3    3    0  502 -0.95072894990E+02  0.57125518002E+03  0.18264704327E+04  0.19160865502E+04  0.46999998093E+01 0.  1.
</event>
<event>
 5   0  0.7044981E-06  0.2300063E+04  0.7818609E-02  0.8477896E-01
        2   -1    0    0  501    0  0.00000000000E+00  0.00000000000E+00  0.18008087275E+04  0.18008087275E+04  0.25500000920E-02 0. -1.
       -2   -1    0    0    0  501  0.00000000000E+00  0.00000000000E+00 -0.73443266580E+03  0.73443266580E+03  0.25500000920E-02 0.  1.
    10030    2    1    2    0    0  0.00000000000E+00  0.00000000000E+00  0.10663760617E+04  0.25352413933E+04  0.23000632638E+04 0.  0.
        4    1    3    3  502    0  0.84915303651E+03  0.43017704241E+03  0.12445082058E+04  0.15668169818E+04  0.12699999809E+01 0. -1.
       -4    1    3    3    0  502 -0.84915303651E+03 -0.43017704241E+03 -0.17813214406E+03  0.96842441154E+03  0.12699999809E+01 0.  1.
</event>
<event>
 5   0  0.7497344E-06  0.2343300E+04  0.7818609E-02  0.8461042E-01
       -2   -1    0    0    0  501  0.00000000000E+00  0.00000000000E+00  0.64353298318E+03  0.64353298319E+03  0.25500000920E-02 0. -1.
        2   -1    0    0  501    0  0.00000000000E+00  0.00000000000E+00 -0.21331667985E+04  0.21331667985E+04  0.25500000920E-02 0.  1.
    10030    2    1    2    0    0  0.00000000000E+00  0.00000000000E+00 -0.14896338153E+04  0.27766997817E+04  0.23432995485E+04 0.  0.
        5    1    3    3  502    0 -0.14556635606E+03  0.70372909720E+03 -0.18413414947E+04  0.19766094193E+04  0.46999998093E+01 0.  1.
       -5    1    3    3    0  502  0.14556635606E+03 -0.70372909720E+03  0.35170767939E+03  0.80009036240E+03  0.46999998093E+01 0. -1.
</event>
<event>
 5   0  0.7242214E-06  0.2299814E+04  0.7818609E-02  0.8477995E-01
       -2   -1    0    0    0  501  0.00000000000E+00  0.00000000000E+00  0.81265697095E+03  0.81265697096E+03  0.25500000920E-02 0.  1.
        2   -1    0    0  501    0  0.00000000000E+00  0.00000000000E+00 -0.16271144638E+04  0.16271144638E+04  0.25500000920E-02 0. -1.
    10030    2    1    2    0    0  0.00000000000E+00  0.00000000000E+00 -0.81445749281E+03  0.24397714347E+04  0.22998138286E+04 0.  0.
        1    1    3    3  502    0 -0.26287981400E+03  0.99366320690E+03  0.13971796550E+03  0.10373010533E+04  0.50400001928E-02 0.  1.
       -1    1    3    3    0  502  0.26287981400E+03 -0.99366320690E+03 -0.95417545832E+03  0.14024703814E+04  0.50400001928E-02 0. -1.
</event>
<event>
 5   0  0.7242214E-06  0.2298565E+04  0.7818609E-02  0.8478487E-01
       -2   -1    0    0    0  501  0.00000000000E+00  0.00000000000E+00  0.72788700958E+03  0.72788700958E+03  0.25500000920E-02 0.  1.
        2   -1    0    0  501    0  0.00000000000E+00  0.00000000000E+00 -0.18146357930E+04  0.18146357930E+04  0.25500000920E-02 0. -1.
    10030    2    1    2    0    0  0.00000000000E+00  0.00000000000E+00 -0.10867487834E+04  0.25425228026E+04  0.22985646137E+04 0.  0.
        1    1    3    3  502    0 -0.52248647591E+02 -0.11366770982E+04 -0.72202486791E+03  0.13476218522E+04  0.50400001928E-02 0. -1.
       -1    1    3    3    0  502  0.52248647591E+02  0.11366770982E+04 -0.36472391551E+03  0.11949009504E+04  0.50400001928E-02 0.  1.
</event>
<event>
 5   0  0.2519625E-06  0.2297665E+04  0.7818609E-02  0.8478842E-01
       -3   -1    0    0    0  501  0.00000000000E+00  0.00000000000E+00  0.17342454396E+04  0.17342454425E+04  0.10100000352E+00 0. -1.
        3   -1    0    0  501    0  0.00000000000E+00  0.00000000000E+00 -0.76103208670E+03  0.76103209340E+03  0.10100000352E+00 0.  1.
    10030    2    1    2    0    0  0.00000000000E+00  0.00000000000E+00  0.97321335290E+03  0.24952775359E+04  0.22976652826E+04 0.  0.
        4    1    3    3  502    0 -0.96700625096E+03  0.53840125555E+03  0.82105027206E+03  0.13780791572E+04  0.12699999809E+01 0. -1.
       -4    1    3    3    0  502  0.96700625096E+03 -0.53840125555E+03  0.15216308083E+03  0.11171983787E+04  0.12699999809E+01 0.  1.
</event>
<event>
 5   0  0.2519625E-06  0.2303716E+04  0.7818609E-02  0.8476457E-01
        3   -1    0    0  501    0  0.00000000000E+00  0.00000000000E+00  0.14323945984E+04  0.14323946019E+04  0.10100000352E+00 0.  1.
       -3   -1    0    0    0  501  0.00000000000E+00  0.00000000000E+00 -0.92626469917E+03  0.92626470468E+03  0.10100000352E+00 0. -1.
    10030    2    1    2    0    0  0.00000000000E+00  0.00000000000E+00  0.50612989922E+03  0.23586593066E+04  0.23037157485E+04 0.  0.
        4    1    3    3  502    0 -0.71699877070E+03  0.76505311032E+03  0.74128300850E+03  0.12840933028E+04  0.12699999809E+01 0.  1.
       -4    1    3    3    0  502  0.71699877070E+03 -0.76505311032E+03 -0.23515310929E+03  0.10745660038E+04  0.12699999809E+01 0. -1.
</event>
<event>
 5   0  0.7044981E-06  0.2298588E+04  0.7818609E-02  0.8478478E-01
        2   -1    0    0  501    0  0.00000000000E+00  0.00000000000E+00  0.16300225608E+04  0.16300225608E+04  0.25500000920E-02 0.  1.
       -2   -1    0    0    0  501  0.00000000000E+00  0.00000000000E+00 -0.81034254181E+03  0.81034254181E+03  0.25500000920E-02 0. -1.
    10030    2    1    2    0    0  0.00000000000E+00  0.00000000000E+00  0.81968001902E+03  0.24403651026E+04  0.22985879362E+04 0.  0.
        4    1    3    3  502    0 -0.10584457670E+04 -0.13001878448E+03  0.86483241629E+03  0.13730073005E+04  0.12699999809E+01 0.  1.
       -4    1    3    3    0  502  0.10584457670E+04  0.13001878448E+03 -0.45152397275E+02  0.10673578022E+04  0.12699999809E+01 0. -1.
</event>
<event>
 5   0  0.3226427E-06  0.2300205E+04  0.7818609E-02  0.8477840E-01
        1   -1    0    0  501    0  0.00000000000E+00  0.00000000000E+00  0.17907058378E+04  0.17907058378E+04  0.50400001928E-02 0.  1.
       -1   -1    0    0    0  501  0.00000000000E+00  0.00000000000E+00 -0.73866721099E+03  0.73866721100E+03  0.50400001928E-02 0. -1.
    10030    2    1    2    0    0  0.00000000000E+00  0.00000000000E+00  0.10520386268E+04  0.25293730488E+04  0.23002049360E+04 0.  0.
        4    1    3    3  502    0  0.11447334432E+04  0.10130374862E+03  0.57589170440E+03  0.12854298789E+04  0.12699999809E+01 0.  1.
       -4    1    3    3    0  502 -0.11447334432E+04 -0.10130374862E+03  0.47614692243E+03  0.12439431699E+04  0.12699999809E+01 0. -1.
</event>
<event>
 5   0  0.7044981E-06  0.2299311E+04  0.7818609E-02  0.8478193E-01
        2   -1    0    0  501    0  0.00000000000E+00  0.00000000000E+00  0.17119429264E+04  0.17119429264E+04  0.25500000920E-02 0. -1.
       -2   -1    0    0    0  501  0.00000000000E+00  0.00000000000E+00 -0.77205142790E+03  0.77205142790E+03  0.25500000920E-02 0.  1.
    10030    2    1    2    0    0  0.00000000000E+00  0.00000000000E+00  0.93989149847E+03  0.24839943543E+04  0.22993111845E+04 0.  0.
        4    1    3    3  502    0  0.84510596076E+03  0.46991999446E+03 -0.20183459624E+03  0.98780954806E+03  0.12699999809E+01 0.  1.
       -4    1    3    3    0  502 -0.84510596076E+03 -0.46991999446E+03  0.11417260947E+04  0.14961848062E+04  0.12699999809E+01 0. -1.
</event>
<event>
 5   0  0.3238713E-06  0.2296893E+04  0.7818609E-02  0.8479147E-01
        1   -1    0    0  501    0  0.00000000000E+00  0.00000000000E+00  0.98211363680E+03  0.98211363681E+03  0.50400001928E-02 0.  1.
       -1   -1    0    0    0  501  0.00000000000E+00  0.00000000000E+00 -0.13429495471E+04  0.13429495471E+04  0.50400001928E-02 0. -1.
    10030    2    1    2    0    0  0.00000000000E+00  0.00000000000E+00 -0.36083591033E+03  0.23250631839E+04  0.22968927391E+04 0.  0.
        3    1    3    3  502    0  0.77671237089E+02 -0.10245245863E+04  0.33894935240E+03  0.10819288899E+04  0.10100000352E+00 0.  1.
       -3    1    3    3    0  502 -0.77671237089E+02  0.10245245863E+04 -0.69978526273E+03  0.12431342941E+04  0.10100000352E+00 0. -1.
</event>
<event>
 5   0  0.3226427E-06  0.2306185E+04  0.7818609E-02  0.8475487E-01
        1   -1    0    0  501    0  0.00000000000E+00  0.00000000000E+00  0.13008622576E+04  0.13008622576E+04  0.50400001928E-02 0.  1.
       -1   -1    0    0    0  501  0.00000000000E+00  0.00000000000E+00 -0.10221082309E+04  0.10221082309E+04  0.50400001928E-02 0. -1.
    10030    2    1    2    0    0  0.00000000000E+00  0.00000000000E+00  0.27875402677E+03  0.23229704885E+04  0.23061847461E+04 0.  0.
        4    1    3    3  502    0 -0.99270610448E+02  0.11488099931E+04  0.13820513504E+03  0.11613446201E+04  0.12699999809E+01 0.  1.
       -4    1    3    3    0  502  0.99270610448E+02 -0.11488099931E+04  0.14054889174E+03  0.11616258684E+04  0.12699999809E+01 0. -1.
</event>
<event>
 5   0  0.3195296E-06  0.2302926E+04  0.7818609E-02  0.8476768E-01
       -1   -1    0    0    0  501  0.00000000000E+00  0.00000000000E+00  0.90025804114E+03  0.90025804115E+03  0.50400001928E-02 0.  1.
        1   -1    0    0  501    0  0.00000000000E+00  0.00000000000E+00 -0.14727638856E+04  0.14727638856E+04  0.50400001928E-02 0. -1.
    10030    2    1    2    0    0  0.00000000000E+00  0.00000000000E+00 -0.57250584446E+03  0.23730219268E+04  0.23029264259E+04 0.  0.
        2    1    3    3  502    0  0.62845196936E+03  0.17016926979E+03  0.69236882546E+03  0.95041256760E+03  0.25500000920E-02 0.  1.
       -2    1    3    3    0  502 -0.62845196936E+03 -0.17016926979E+03 -0.12648746699E+04  0.14226093592E+04  0.25500000920E-02 0. -1.
</event>
<event>
 5   0  0.7242214E-06  0.2294205E+04  0.7818609E-02  0.8480209E-01
       -2   -1    0    0    0  501  0.00000000000E+00  0.00000000000E+00  0.46040721547E+03  0.46040721547E+03  0.25500000920E-02 0. -1.
        2   -1    0    0  501    0  0.00000000000E+00  0.00000000000E+00 -0.28580016104E+04  0.28580016104E+04  0.25500000920E-02 0.  1.
    10030    2    1    2    0    0  0.00000000000E+00  0.00000000000E+00 -0.23975943949E+04  0.33184088258E+04  0.22942053642E+04 0.  0.
        1    1    3    3  502    0  0.81946985164E+03 -0.79072505714E+03 -0.13985283109E+04  0.18035127918E+04  0.50400001928E-02 0. -1.
       -1    1    3    3    0  502 -0.81946985164E+03  0.79072505714E+03 -0.99906608401E+03  0.15148960340E+04  0.50400001928E-02 0.  1.
</event>
<event>
 5   0  0.3184492E-06  0.2299375E+04  0.7818609E-02  0.8478168E-01
       -1   -1    0    0    0  501  0.00000000000E+00  0.00000000000E+00  0.68258880921E+03  0.68258880923E+03  0.50400001928E-02 0. -1.
        1   -1    0    0  501    0  0.00000000000E+00  0.00000000000E+00 -0.19364234863E+04  0.19364234863E+04  0.50400001928E-02 0.  1.
    10030    2    1    2    0    0  0.00000000000E+00  0.00000000000E+00 -0.12538346771E+04  0.26190122955E+04  0.22993746991E+04 0.  0.
        1    1    3    3  502    0 -0.82651454733E+02  0.48789491176E+03  0.55508177223E+03  0.74363195317E+03  0.50400001928E-02 0. -1.
       -1    1    3    3    0  502  0.82651454733E+02 -0.48789491176E+03 -0.18089164493E+04  0.18753803424E+04  0.50400001928E-02 0.  1.
</event>
<event>
 5   0  0.7242214E-06  0.2299408E+04  0.7818609E-02  0.8478154E-01
        2   -1    0    0  501    0  0.00000000000E+00  0.00000000000E+00  0.15577222691E+04  0.15577222691E+04  0.25500000920E-02 0.  1.
       -2   -1    0    0    0  501  0.00000000000E+00  0.00000000000E+00 -0.84855918847E+03  0.84855918848E+03  0.25500000920E-02 0. -1.
    10030    2    1    2    0    0  0.00000000000E+00  0.00000000000E+00  0.70916308058E+03  0.24062814575E+04  0.22994082234E+04 0.  0.
        1    1    3    3  502    0  0.35896605551E+03  0.10922149493E+04  0.36025766430E+03  0.12048135578E+04  0.50400001928E-02 0.  1.
       -1    1    3    3    0  502 -0.35896605551E+03 -0.10922149493E+04  0.34890541629E+03  0.12014678997E+04  0.50400001928E-02 0. -1.
</event>
<event>
 5   0  0.7003852E-06  0.2299836E+04  0.7818609E-02  0.8477986E-01
        2   -1    0    0  501    0  0.00000000000E+00  0.00000000000E+00  0.65055577957E+03  0.65055577958E+03  0.25500000920E-02 0. -1.
       -2   -1    0    0    0  501  0.00000000000E+00  0.00000000000E+00 -0.20325877136E+04  0.20325877136E+04  0.25500000920E-02 0.  1.
    10030    2    1    2    0    0  0.00000000000E+00  0.00000000000E+00 -0.13820319340E+04  0.26831434931E+04  0.22998362416E+04 0.  0.
        2    1    3    3  502    0  0.91494742427E+03 -0.50231926369E+02  0.11951102466E+03  0.92408599201E+03  0.25500000920E-02 0. -1.
       -2    1    3    3    0  502 -0.91494742427E+03  0.50231926369E+02 -0.15015429586E+04  0.17590575011E+04  0.25500000920E-02 0.  1.
</event>
<event>
 5   0  0.7044981E-06  0.2298567E+04  0.7818609E-02  0.8478487E-01
       -2   -1    0    0    0  501  0.00000000000E+00  0.00000000000E+00  0.72917035915E+03  0.72917035915E+03  0.25500000920E-02 0.  1.
        2   -1    0    0  501    0  0.00000000000E+00  0.00000000000E+00 -0.18114450906E+04  0.18114450906E+04  0.25500000920E-02 0. -1.
    10030    2    1    2    0    0  0.00000000000E+00  0.00000000000E+00 -0.10822747314E+04  0.25406154498E+04  0.22985665684E+04 0.  0.
        4    1    3    3  502    0  0.68410949216E+03  0.90054165679E+03 -0.31496990512E+03  0.11739628303E+04  0.12699999809E+01 0.  1.
       -4    1    3    3    0  502 -0.68410949216E+03 -0.90054165679E+03 -0.76730482633E+03  0.13666526195E+04  0.12699999809E+01 0. -1.
</event>
<event>
 5   0  0.3226427E-06  0.2298577E+04  0.7818609E-02  0.8478482E-01
        1   -1    0    0  501    0  0.00000000000E+00  0.00000000000E+00  0.13959443612E+04  0.13959443612E+04  0.50400001928E-02 0.  1.
       -1   -1    0    0    0  501  0.00000000000E+00  0.00000000000E+00 -0.94621520781E+03  0.94621520783E+03  0.50400001928E-02 0. -1.
    10030    2    1    2    0    0  0.00000000000E+00  0.00000000000E+00  0.44972915341E+03  0.23421595691E+04  0.22985767630E+04 0.  0.
        4    1    3    3  502    0  0.74507024748E+03 -0.34535503698E+01 -0.66678175026E+03  0.99987054966E+03  0.12699999809E+01 0. -1.
       -4    1    3    3    0  502 -0.74507024748E+03  0.34535503698E+01  0.11165109037E+04  0.13422890194E+04  0.12699999809E+01 0.  1.
</event>
<event>
 5   0  0.3184492E-06  0.2299098E+04  0.7818609E-02  0.8478277E-01
       -1   -1    0    0    0  501  0.00000000000E+00  0.00000000000E+00  0.71682852055E+03  0.71682852057E+03  0.50400001928E-02 0. -1.
        1   -1    0    0  501    0  0.00000000000E+00  0.00000000000E+00 -0.18434846574E+04  0.18434846574E+04  0.50400001928E-02 0.  1.
    10030    2    1    2    0    0  0.00000000000E+00  0.00000000000E+00 -0.11266561368E+04  0.25603131779E+04  0.22990975444E+04 0.  0.
        1    1    3    3  502    0  0.51631446463E+03 -0.37581187929E+03 -0.16277773032E+04  0.17485634515E+04  0.50400001928E-02 0.  1.
       -1    1    3    3    0  502 -0.51631446463E+03  0.37581187929E+03  0.50112116638E+03  0.81174972647E+03  0.50400001928E-02 0. -1.
</event>
<event>
 5   0  0.7044981E-06  0.2297176E+04  0.7818609E-02  0.8479036E-01
       -2   -1    0    0    0  501  0.00000000000E+00  0.00000000000E+00  0.10123743316E+04  0.10123743316E+04  0.25500000920E-02 0. -1.
        2   -1    0    0  501    0  0.00000000000E+00  0.00000000000E+00 -0.13031287016E+04  0.13031287016E+04  0.25500000920E-02 0.  1.
    10030    2    1    2    0    0  0.00000000000E+00  0.00000000000E+00 -0.29075436997E+03  0.23155030332E+04  0.22971756993E+04 0.  0.
        4    1    3    3  502    0  0.10426254270E+04 -0.43031145001E+03 -0.36394049585E+03  0.11851961957E+04  0.12699999809E+01 0. -1.
       -4    1    3    3    0  502 -0.10426254270E+04  0.43031145001E+03  0.73186125884E+02  0.11303068375E+04  0.12699999809E+01 0.  1.
</event>
<event>
 5   0  0.7348107E-06  0.2299319E+04  0.7818609E-02  0.8478190E-01
        2   -1    0    0  501    0  0.00000000000E+00  0.00000000000E+00  0.11935712315E+04  0.11935712315E+04  0.25500000920E-02 0. -1.
       -2   -1    0    0    0  501  0.00000000000E+00  0.00000000000E+00 -0.11073629256E+04  0.11073629256E+04  0.25500000920E-02 0.  1.
    10030    2    1    2    0    0  0.00000000000E+00  0.00000000000E+00  0.86208305890E+02  0.23009341571E+04  0.22993186216E+04 0.  0.
        3    1    3    3  502    0  0.79516986239E+03 -0.28093593666E+03 -0.73878752705E+03  0.11211722129E+04  0.10100000352E+00 0.  1.
       -3    1    3    3    0  502 -0.79516986239E+03  0.28093593666E+03  0.82499583294E+03  0.11797619443E+04  0.10100000352E+00 0. -1.
</event>
<event>
 5   0  0.3195296E-06  0.2303389E+04  0.7818609E-02  0.8476586E-01
       -1   -1    0    0    0  501  0.00000000000E+00  0.00000000000E+00  0.11166383274E+04  0.11166383274E+04  0.50400001928E-02 0.  1.
        1   -1    0    0  501    0  0.00000000000E+00  0.00000000000E+00 -0.11878513600E+04  0.11878513600E+04  0.50400001928E-02 0. -1.
    10030    2    1    2    0    0  0.00000000000E+00  0.00000000000E+00 -0.71213032604E+02  0.23044896875E+04  0.23033891168E+04 0.  0.
        2    1    3    3  502    0 -0.35628953498E+03  0.91424769931E+03  0.56768182194E+03  0.11336021081E+04  0.25500000920E-02 0.  1.
       -2    1    3    3    0  502  0.35628953498E+03 -0.91424769931E+03 -0.63889485454E+03  0.11708875794E+04  0.25500000920E-02 0. -1.
</event>
<event>
 5   0  0.3238713E-06  0.2304849E+04  0.7818609E-02  0.8476012E-01
       -1   -1    0    0    0  501  0.00000000000E+00  0.00000000000E+00  0.12333790228E+04  0.12333790228E+04  0.50400001928E-02 0.  1.
        1   -1    0    0  501    0  0.00000000000E+00  0.00000000000E+00 -0.10767839176E+04  0.10767839176E+04  0.50400001928E-02 0. -1.
    10030    2    1    2    0    0  0.00000000000E+00  0.00000000000E+00  0.15659510519E+03  0.23101629404E+04  0.23048494060E+04 0.  0.
        3    1    3    3  502    0 -0.78005541662E+03 -0.37461148835E+03  0.84114509619E+03  0.12067913255E+04  0.10100000352E+00 0.  1.
       -3    1    3    3    0  502  0.78005541662E+03  0.37461148835E+03 -0.68454999100E+03  0.11033716149E+04  0.10100000352E+00 0. -1.
</event>
<event>
 5   0  0.7003852E-06  0.2301522E+04  0.7818609E-02  0.8477321E-01
       -2   -1    0    0    0  501  0.00000000000E+00  0.00000000000E+00  0.10777462336E+04  0.10777462336E+04  0.25500000920E-02 0.  1.
        2   -1    0    0  501    0  0.00000000000E+00  0.00000000000E+00 -0.12287225031E+04  0.12287225031E+04  0.25500000920E-02 0. -1.
    10030    2    1    2    0    0  0.00000000000E+00  0.00000000000E+00 -0.15097626948E+03  0.23064687367E+04  0.23015221483E+04 0.  0.
        2    1    3    3  502    0 -0.56078384642E+03  0.86934399139E+03  0.42959266266E+03  0.11201729124E+04  0.25500000920E-02 0.  1.
       -2    1    3    3    0  502  0.56078384642E+03 -0.86934399139E+03 -0.58056893214E+03  0.11862958243E+04  0.25500000920E-02 0. -1.
</event>
<event>
 5   0  0.7044981E-06  0.2301040E+04  0.7818609E-02  0.8477511E-01
        2   -1    0    0  501    0  0.00000000000E+00  0.00000000000E+00  0.16655640123E+04  0.16655640123E+04  0.25500000920E-02 0. -1.
       -2   -1    0    0    0  501  0.00000000000E+00  0.00000000000E+00 -0.79474377843E+03  0.79474377844E+03  0.25500000920E-02 0.  1.
    10030    2    1    2    0    0  0.00000000000E+00  0.00000000000E+00  0.87082023389E+03  0.24603077908E+04  0.23010403181E+04 0.  0.
        4    1    3    3  502    0  0.38369439381E+02 -0.11349603122E+04  0.63281838256E+03  0.13000260929E+04  0.12699999809E+01 0.  1.
       -4    1    3    3    0  502 -0.38369439381E+02  0.11349603122E+04  0.23800185134E+03  0.11602816978E+04  0.12699999809E+01 0. -1.
</event>
<event>
 5   0  0.3184492E-06  0.2289821E+04  0.7818609E-02  0.8481945E-01
        1   -1    0    0  501    0  0.00000000000E+00  0.00000000000E+00  0.26477265207E+04  0.26477265207E+04  0.50400001928E-02 0. -1.
       -1   -1    0    0    0  501  0.00000000000E+00  0.00000000000E+00 -0.49507379862E+03  0.49507379865E+03  0.50400001928E-02 0.  1.
    10030    2    1    2    0    0  0.00000000000E+00  0.00000000000E+00  0.21526527221E+04  0.31428003194E+04  0.22898209767E+04 0.  0.
        1    1    3    3  502    0  0.91402746015E+02 -0.82896620102E+03 -0.26742959211E+00  0.83399010543E+03  0.50400001928E-02 0.  1.
       -1    1    3    3    0  502 -0.91402746015E+02  0.82896620102E+03  0.21529201517E+04  0.23088102139E+04  0.50400001928E-02 0. -1.
</event>
<event>
 5   0  0.3184492E-06  0.2308432E+04  0.7818609E-02  0.8474604E-01
        1   -1    0    0  501    0  0.00000000000E+00  0.00000000000E+00  0.15509514225E+04  0.15509514226E+04  0.50400001928E-02 0.  1.
       -1   -1    0    0    0  501  0.00000000000E+00  0.00000000000E+00 -0.85896598706E+03  0.85896598707E+03  0.50400001928E-02 0. -1.
    10030    2    1    2    0    0  0.00000000000E+00  0.00000000000E+00  0.69198543549E+03  0.24099174096E+04  0.23084319523E+04 0.  0.
        1    1    3    3  502    0  0.32272533027E+03 -0.10438394159E+04  0.73445658080E+03  0.13165025006E+04  0.50400001928E-02 0.  1.
       -1    1    3    3    0  502 -0.32272533027E+03  0.10438394159E+04 -0.42471145307E+02  0.10934149090E+04  0.50400001928E-02 0. -1.
</event>
<event>
 5   0  0.7348107E-06  0.2298366E+04  0.7818609E-02  0.8478566E-01
       -2   -1    0    0    0  501  0.00000000000E+00  0.00000000000E+00  0.85723483739E+03  0.85723483740E+03  0.25500000920E-02 0. -1.
        2   -1    0    0  501    0  0.00000000000E+00  0.00000000000E+00 -0.15405600608E+04  0.15405600608E+04  0.25500000920E-02 0.  1.
    10030    2    1    2    0    0  0.00000000000E+00  0.00000000000E+00 -0.68332522343E+03  0.23977948982E+04  0.22983661616E+04 0.  0.
        3    1    3    3  502    0  0.75274273401E+02 -0.65899952199E+02  0.85268295721E+03  0.85853203531E+03  0.10100000352E+00 0. -1.
       -3    1    3    3    0  502 -0.75274273401E+02  0.65899952199E+02 -0.15360081806E+04  0.15392628629E+04  0.10100000352E+00 0.  1.
</event>
<event>
 5   0  0.3226427E-06  0.2300195E+04  0.7818609E-02  0.8477844E-01
        1   -1    0    0  501    0  0.00000000000E+00  0.00000000000E+00  0.18573046579E+04  0.18573046579E+04  0.50400001928E-02 0.  1.
       -1   -1    0    0    0  501  0.00000000000E+00  0.00000000000E+00 -0.71217388462E+03  0.71217388464E+03  0.50400001928E-02 0. -1.
    10030    2    1    2    0    0  0.00000000000E+00  0.00000000000E+00  0.11451307733E+04  0.25694785426E+04  0.23001946641E+04 0.  0.
        4    1    3    3  502    0  0.21927094167E+03  0.45111304584E+03 -0.58355598120E+03  0.76949458873E+03  0.12699999809E+01 0. -1.
       -4    1    3    3    0  502 -0.21927094167E+03 -0.45111304584E+03  0.17286867545E+04  0.17999839538E+04  0.12699999809E+01 0.  1.
</event>
<event>
 5   0  0.3184492E-06  0.2301437E+04  0.7818609E-02  0.8477355E-01
        1   -1    0    0  501    0  0.00000000000E+00  0.00000000000E+00  0.65308353820E+03  0.65308353822E+03  0.50400001928E-02 0. -1.
       -1   -1    0    0    0  501  0.00000000000E+00  0.00000000000E+00 -0.20275401792E+04  0.20275401792E+04  0.50400001928E-02 0.  1.
    10030    2    1    2    0    0  0.00000000000E+00  0.00000000000E+00 -0.13744566410E+04  0.26806237175E+04  0.23014370416E+04 0.  0.
        1    1    3    3  502    0  0.14738610547E+03 -0.89599800523E+03  0.13606730149E+03  0.91817721603E+03  0.50400001928E-02 0. -1.
       -1    1    3    3    0  502 -0.14738610547E+03  0.89599800523E+03 -0.15105239425E+04  0.17624465014E+04  0.50400001928E-02 0.  1.
</event>
<event>
 5   0  0.3184492E-06  0.2286433E+04  0.7818609E-02  0.8483290E-01
       -1   -1    0    0    0  501  0.00000000000E+00  0.00000000000E+00  0.84851651109E+03  0.84851651110E+03  0.50400001928E-02 0. -1.
        1   -1    0    0  501    0  0.00000000000E+00  0.00000000000E+00 -0.15402694640E+04  0.15402694640E+04  0.50400001928E-02 0.  1.
    10030    2    1    2    0    0  0.00000000000E+00  0.00000000000E+00 -0.69175295291E+03  0.23887859751E+04  0.22864330926E+04 0.  0.
        1    1    3    3  502    0  0.43180416953E+03 -0.15397425553E+03  0.74827823335E+03  0.87754386028E+03  0.50400001928E-02 0. -1.
       -1    1    3    3    0  502 -0.43180416953E+03  0.15397425553E+03 -0.14400311863E+04  0.15112421148E+04  0.50400001928E-02 0.  1.
</event>
<event>
 5   0  0.3238713E-06  0.2335229E+04  0.7818609E-02  0.8464159E-01
       -1   -1    0    0    0  501  0.00000000000E+00  0.00000000000E+00  0.10783929509E+04  0.10783929509E+04  0.50400001928E-02 0. -1.
        1   -1    0    0  501    0  0.00000000000E+00  0.00000000000E+00 -0.12642175890E+04  0.12642175890E+04  0.50400001928E-02 0.  1.
    10030    2    1    2    0    0  0.00000000000E+00  0.00000000000E+00 -0.18582463805E+03  0.23426105399E+04  0.23352287566E+04 0.  0.
        3    1    3    3  502    0  0.10210548160E+04  0.22673244901E+03  0.42772999328E+03  0.11300059726E+04  0.10100000352E+00 0. -1.
       -3    1    3    3    0  502 -0.10210548160E+04 -0.22673244901E+03 -0.61355463133E+03  0.12126045673E+04  0.10100000352E+00 0.  1.
</event>
<event>
 5   0  0.7497344E-06  0.2300883E+04  0.7818609E-02  0.8477573E-01
        2   -1    0    0  501    0  0.00000000000E+00  0.00000000000E+00  0.18593006845E+04  0.18593006845E+04  0.25500000920E-02 0. -1.
       -2   -1    0    0    0  501  0.00000000000E+00  0.00000000000E+00 -0.71183541329E+03  0.71183541329E+03  0.25500000920E-02 0.  1.
    10030    2    1    2    0    0  0.00000000000E+00  0.00000000000E+00  0.11474652712E+04  0.25711360978E+04  0.23008833705E+04 0.  0.
        5    1    3    3  502    0 -0.39000728271E+03  0.11809210285E+03  0.17759422131E+04  0.18220988611E+04  0.46999998093E+01 0. -1.
       -5    1    3    3    0  502  0.39000728271E+03 -0.11809210285E+03 -0.62847694195E+03  0.74903723664E+03  0.46999998093E+01 0.  1.
</event>
<event>
 5   0  0.3226427E-06  0.2299211E+04  0.7818609E-02  0.8478232E-01
        1   -1    0    0  501    0  0.00000000000E+00  0.00000000000E+00  0.17658099699E+04  0.17658099699E+04  0.50400001928E-02 0. -1.
       -1   -1    0    0    0  501  0.00000000000E+00  0.00000000000E+00 -0.74843417599E+03  0.74843417601E+03  0.50400001928E-02 0.  1.
    10030    2    1    2    0    0  0.00000000000E+00  0.00000000000E+00  0.10173757939E+04  0.25142441460E+04  0.22992107601E+04 0.  0.
        4    1    3    3  502    0  0.36650748859E+03  0.10713525156E+04  0.72593076619E+03  0.13450282681E+04  0.12699999809E+01 0. -1.
       -4    1    3    3    0  502 -0.36650748859E+03 -0.10713525156E+04  0.29144502776E+03  0.11692158778E+04  0.12699999809E+01 0.  1.
</event>
<event>
 5   0  0.3184492E-06  0.2292465E+04  0.7818609E-02  0.8480898E-01
        1   -1    0    0  501    0  0.00000000000E+00  0.00000000000E+00  0.11589174976E+04  0.11589174976E+04  0.50400001928E-02 0. -1.
       -1   -1    0    0    0  501  0.00000000000E+00  0.00000000000E+00 -0.11336868089E+04  0.11336868089E+04  0.50400001928E-02 0.  1.
    10030    2    1    2    0    0  0.00000000000E+00  0.00000000000E+00  0.25230688632E+02  0.22926043065E+04  0.22924654673E+04 0.  0.
        1    1    3    3  502    0 -0.67788894778E+03  0.91669591037E+03 -0.10564858082E+03  0.11450006289E+04  0.50400001928E-02 0.  1.
       -1    1    3    3    0  502  0.67788894778E+03 -0.91669591037E+03  0.13087926945E+03  0.11476036776E+04  0.50400001928E-02 0. -1.
</event>
<event>
 5   0  0.3184492E-06  0.2299936E+04  0.7818609E-02  0.8477946E-01
       -1   -1    0    0    0  501  0.00000000000E+00  0.00000000000E+00  0.10335428413E+04  0.10335428413E+04  0.50400001928E-02 0. -1.
        1   -1    0    0  501    0  0.00000000000E+00  0.00000000000E+00 -0.12795081805E+04  0.12795081805E+04  0.50400001928E-02 0.  1.
    10030    2    1    2    0    0  0.00000000000E+00  0.00000000000E+00 -0.24596533919E+03  0.23130510218E+04  0.22999361038E+04 0.  0.
        1    1    3    3  502    0  0.35111635008E+03 -0.83777226088E+03  0.58622035537E+03  0.10811102430E+04  0.50400001928E-02 0. -1.
       -1    1    3    3    0  502 -0.35111635008E+03  0.83777226088E+03 -0.83218569456E+03  0.12319407789E+04  0.50400001928E-02 0.  1.
</event>
<event>
 5   0  0.7497344E-06  0.2304361E+04  0.7818609E-02  0.8476204E-01
       -2   -1    0    0    0  501  0.00000000000E+00  0.00000000000E+00  0.83046612556E+03  0.83046612557E+03  0.25500000920E-02 0.  1.
        2   -1    0    0  501    0  0.00000000000E+00  0.00000000000E+00 -0.15985240581E+04  0.15985240581E+04  0.25500000920E-02 0. -1.
    10030    2    1    2    0    0  0.00000000000E+00  0.00000000000E+00 -0.76805793252E+03  0.24289901837E+04  0.23043611532E+04 0.  0.
        5    1    3    3  502    0 -0.44715164431E+03 -0.83476189951E+03 -0.10758212966E+04  0.14332430269E+04  0.46999998093E+01 0.  1.
       -5    1    3    3    0  502  0.44715164431E+03  0.83476189951E+03  0.30776336411E+03  0.99574715675E+03  0.46999998093E+01 0. -1.
</event>
<event>
 5   0  0.7044981E-06  0.2296391E+04  0.7818609E-02  0.8479345E-01
       -2   -1    0    0    0  501  0.00000000000E+00  0.00000000000E+00  0.71818039557E+03  0.71818039558E+03  0.25500000920E-02 0.  1.
        2   -1    0    0  501    0  0.00000000000E+00  0.00000000000E+00 -0.18356852228E+04  0.18356852228E+04  0.25500000920E-02 0. -1.
    10030    2    1    2    0    0  0.00000000000E+00  0.00000000000E+00 -0.11175048272E+04  0.25538656184E+04  0.22963912031E+04 0.  0.
        4    1    3    3  502    0  0.22030490549E+03 -0.35566996729E+03 -0.17478988423E+04  0.17972721978E+04  0.12699999809E+01 0. -1.
       -4    1    3    3    0  502 -0.22030490549E+03  0.35566996729E+03  0.63039401506E+03  0.75659342063E+03  0.12699999809E+01 0.  1.
</event>
<event>
 5   0  0.3338758E-06  0.2299708E+04  0.7818609E-02  0.8478036E-01
        1   -1    0    0  501    0  0.00000000000E+00  0.00000000000E+00  0.96928865381E+03  0.96928865382E+03  0.50400001928E-02 0. -1.
       -1   -1    0    0    0  501  0.00000000000E+00  0.00000000000E+00 -0.13640564014E+04  0.13640564014E+04  0.50400001928E-02 0.  1.
    10030    2    1    2    0    0  0.00000000000E+00  0.00000000000E+00 -0.39476774756E+03  0.23333450552E+04  0.22997081493E+04 0.  0.
        5    1    3    3  502    0  0.59501721748E+02  0.61587477030E+03 -0.11807345725E+04  0.13330410377E+04  0.46999998093E+01 0.  1.
       -5    1    3    3    0  502 -0.59501721748E+02 -0.61587477030E+03  0.78596682490E+03  0.10003040175E+04  0.46999998093E+01 0. -1.
</event>
<event>
 5   0  0.7044981E-06  0.2296613E+04  0.7818609E-02  0.8479258E-01
       -2   -1    0    0    0  501  0.00000000000E+00  0.00000000000E+00  0.68818731668E+03  0.68818731669E+03  0.25500000920E-02 0. -1.
        2   -1    0    0  501    0  0.00000000000E+00  0.00000000000E+00 -0.19160596867E+04  0.19160596867E+04  0.25500000920E-02 0.  1.
    10030    2    1    2    0    0  0.00000000000E+00  0.00000000000E+00 -0.12278723700E+04  0.26042470034E+04  0.22966131363E+04 0.  0.
        4    1    3    3  502    0 -0.65676980199E+03 -0.73923491910E+03  0.48034443417E+02  0.99001199946E+03  0.12699999809E+01 0. -1.
       -4    1    3    3    0  502  0.65676980199E+03  0.73923491910E+03 -0.12759068134E+04  0.16142350039E+04  0.12699999809E+01 0.  1.
</event>
<event>
 5   0  0.3238713E-06  0.2291414E+04  0.7818609E-02  0.8481314E-01
       -1   -1    0    0    0  501  0.00000000000E+00  0.00000000000E+00  0.27789289446E+04  0.27789289446E+04  0.50400001928E-02 0. -1.
        1   -1    0    0  501    0  0.00000000000E+00  0.00000000000E+00 -0.47235642756E+03  0.47235642758E+03  0.50400001928E-02 0.  1.
    10030    2    1    2    0    0  0.00000000000E+00  0.00000000000E+00  0.23065725170E+04  0.32512853722E+04  0.22914143656E+04 0.  0.
        3    1    3    3  502    0 -0.31303929801E+02  0.10677465331E+04  0.56554286480E+03  0.12086775158E+04  0.10100000352E+00 0.  1.
       -3    1    3    3    0  502  0.31303929801E+02 -0.10677465331E+04  0.17410296522E+04  0.20426078564E+04  0.10100000352E+00 0. -1.
</event>
<event>
 5   0  0.7003852E-06  0.2302793E+04  0.7818609E-02  0.8476821E-01
       -2   -1    0    0    0  501  0.00000000000E+00  0.00000000000E+00  0.14314017887E+04  0.14314017887E+04  0.25500000920E-02 0.  1.
        2   -1    0    0  501    0  0.00000000000E+00  0.00000000000E+00 -0.92616509170E+03  0.92616509170E+03  0.25500000920E-02 0. -1.
    10030    2    1    2    0    0  0.00000000000E+00  0.00000000000E+00  0.50523669697E+03  0.23575668804E+04  0.23027934070E+04 0.  0.
        2    1    3    3  502    0 -0.70280346014E+03 -0.23425572762E+03 -0.64976954394E+03  0.98539784339E+03  0.25500000920E-02 0. -1.
       -2    1    3    3    0  502  0.70280346014E+03  0.23425572762E+03  0.11550062409E+04  0.13721690370E+04  0.25500000920E-02 0.  1.
</event>
<event>
 5   0  0.7242214E-06  0.2298339E+04  0.7818609E-02  0.8478576E-01
        2   -1    0    0  501    0  0.00000000000E+00  0.00000000000E+00  0.17556829814E+04  0.17556829814E+04  0.25500000920E-02 0. -1.
       -2   -1    0    0    0  501  0.00000000000E+00  0.00000000000E+00 -0.75218061129E+03  0.75218061129E+03  0.25500000920E-02 0.  1.
    10030    2    1    2    0    0  0.00000000000E+00  0.00000000000E+00  0.10035023701E+04  0.25078635927E+04  0.22983391379E+04 0.  0.
        1    1    3    3  502    0  0.79636956804E+03  0.82847026917E+03  0.49649291205E+03  0.12518277388E+04  0.50400001928E-02 0.  1.
       -1    1    3    3    0  502 -0.79636956804E+03 -0.82847026917E+03  0.50700945807E+03  0.12560358539E+04  0.50400001928E-02 0. -1.
</event>
<event>
 5   0  0.3226427E-06  0.2298573E+04  0.7818609E-02  0.8478484E-01
        1   -1    0    0  501    0  0.00000000000E+00  0.00000000000E+00  0.68246634470E+03  0.68246634472E+03  0.50400001928E-02 0. -1.
       -1   -1    0    0    0  501  0.00000000000E+00  0.00000000000E+00 -0.19354209409E+04  0.19354209409E+04  0.50400001928E-02 0.  1.
    10030    2    1    2    0    0  0.00000000000E+00  0.00000000000E+00 -0.12529545962E+04  0.26178872857E+04  0.22985731705E+04 0.  0.
        4    1    3    3  502    0 -0.85837442459E+02  0.35455172781E+03 -0.18677327585E+04  0.19030245044E+04  0.12699999809E+01 0.  1.
       -4    1    3    3    0  502  0.85837442459E+02 -0.35455172781E+03  0.61477816232E+03  0.71486278123E+03  0.12699999809E+01 0. -1.
</event>
<event>
 5   0  0.7242214E-06  0.2299605E+04  0.7818609E-02  0.8478077E-01
        2   -1    0    0  501    0  0.00000000000E+00  0.00000000000E+00  0.24352746415E+04  0.24352746415E+04  0.25500000920E-02 0. -1.
       -2   -1    0    0    0  501  0.00000000000E+00  0.00000000000E+00 -0.54287325219E+03  0.54287325220E+03  0.25500000920E-02 0.  1.
    10030    2    1    2    0    0  0.00000000000E+00  0.00000000000E+00  0.18924013893E+04  0.29781478937E+04  0.22996047179E+04 0.  0.
        1    1    3    3  502    0 -0.37602114531E+03  0.63082944871E+03 -0.19955728954E+03  0.76102615390E+03  0.50400001928E-02 0.  1.
       -1    1    3    3    0  502  0.37602114531E+03 -0.63082944871E+03  0.20919586788E+04  0.22171217398E+04  0.50400001928E-02 0. -1.
</event>
<event>
 5   0  0.3195296E-06  0.2300343E+04  0.7818609E-02  0.8477786E-01
       -1   -1    0    0    0  501  0.00000000000E+00  0.00000000000E+00  0.17473145728E+04  0.17473145728E+04  0.50400001928E-02 0.  1.
        1   -1    0    0  501    0  0.00000000000E+00  0.00000000000E+00 -0.75710128424E+03  0.75710128426E+03  0.50400001928E-02 0. -1.
    10030    2    1    2    0    0  0.00000000000E+00  0.00000000000E+00  0.99021328854E+03  0.25044158570E+04  0.23003426763E+04 0.  0.
        2    1    3    3  502    0  0.24733424977E+03 -0.52261969470E+03 -0.58737786986E+03  0.82420770344E+03  0.25500000920E-02 0. -1.
       -2    1    3    3    0  502 -0.24733424977E+03  0.52261969470E+03  0.15775911584E+04  0.16802081536E+04  0.25500000920E-02 0.  1.
</event>
<event>
 5   0  0.7044981E-06  0.2269227E+04  0.7818609E-02  0.8490154E-01
       -2   -1    0    0    0  501  0.00000000000E+00  0.00000000000E+00  0.10755047486E+04  0.10755047486E+04  0.25500000920E-02 0. -1.
        2   -1    0    0  501    0  0.00000000000E+00  0.00000000000E+00 -0.11969706227E+04  0.11969706227E+04  0.25500000920E-02 0.  1.
    10030    2    1    2    0    0  0.00000000000E+00  0.00000000000E+00 -0.12146587406E+03  0.22724753714E+04  0.22692268187E+04 0.  0.
        4    1    3    3  502    0 -0.16573022472E+03 -0.53237043357E+03  0.92884219014E+03  0.10833439957E+04  0.12699999809E+01 0. -1.
       -4    1    3    3    0  502  0.16573022472E+03  0.53237043357E+03 -0.10503080642E+04  0.11891313757E+04  0.12699999809E+01 0.  1.
</event>
<event>
 5   0  0.7348107E-06  0.2301243E+04  0.7818609E-02  0.8477431E-01
        2   -1    0    0  501    0  0.00000000000E+00  0.00000000000E+00  0.14253367707E+04  0.14253367707E+04  0.25500000920E-02 0.  1.
       -2   -1    0    0    0  501  0.00000000000E+00  0.00000000000E+00 -0.92885435165E+03  0.92885435166E+03  0.25500000920E-02 0. -1.
    10030    2    1    2    0    0  0.00000000000E+00  0.00000000000E+00  0.49648241903E+03  0.23541911223E+04  0.23012433700E+04 0.  0.
        3    1    3    3  502    0 -0.44762589808E+03 -0.17956522829E+02  0.13324557552E+04  0.14057488150E+04  0.10100000352E+00 0.  1.
       -3    1    3    3    0  502  0.44762589808E+03  0.17956522829E+02 -0.83597333613E+03  0.94844230730E+03  0.10100000352E+00 0. -1.
</event>
<event>
 5   0  0.3195296E-06  0.2303260E+04  0.7818609E-02  0.8476637E-01
        1   -1    0    0  501    0  0.00000000000E+00  0.00000000000E+00  0.16906366182E+04  0.16906366182E+04  0.50400001928E-02 0. -1.
       -1   -1    0    0    0  501  0.00000000000E+00  0.00000000000E+00 -0.78446873966E+03  0.78446873968E+03  0.50400001928E-02 0.  1.
    10030    2    1    2    0    0  0.00000000000E+00  0.00000000000E+00  0.90616787857E+03  0.24751053579E+04  0.23032599308E+04 0.  0.
        2    1    3    3  502    0 -0.90821941129E+02 -0.11402994509E+04  0.31003521195E+03  0.11851807016E+04  0.25500000920E-02 0. -1.
       -2    1    3    3    0  502  0.90821941129E+02  0.11402994509E+04  0.59613266662E+03  0.12899246563E+04  0.25500000920E-02 0.  1.
</event>
<event>
 5   0  0.3226427E-06  0.2300290E+04  0.7818609E-02  0.8477807E-01
        1   -1    0    0  501    0  0.00000000000E+00  0.00000000000E+00  0.96597700072E+03  0.96597700074E+03  0.50400001928E-02 0. -1.
       -1   -1    0    0    0  501  0.00000000000E+00  0.00000000000E+00 -0.13694251314E+04  0.13694251314E+04  0.50400001928E-02 0.  1.
    10030    2    1    2    0    0  0.00000000000E+00  0.00000000000E+00 -0.40344813065E+03  0.23354021321E+04  0.23002897045E+04 0.  0.
        4    1    3    3  502    0 -0.43142553543E+03 -0.94596498866E+03 -0.70101721625E+03  0.12539555426E+04  0.12699999809E+01 0. -1.
       -4    1    3    3    0  502  0.43142553543E+03  0.94596498866E+03  0.29756908561E+03  0.10814465895E+04  0.12699999809E+01 0.  1.
</event>
<event>
 5   0  0.3238713E-06  0.2300694E+04  0.7818609E-02  0.8477648E-01
       -1   -1    0    0    0  501  0.00000000000E+00  0.00000000000E+00  0.12154953455E+04  0.12154953455E+04  0.50400001928E-02 0. -1.
        1   -1    0    0  501    0  0.00000000000E+00  0.00000000000E+00 -0.10886901273E+04  0.10886901273E+04  0.50400001928E-02 0.  1.
    10030    2    1    2    0    0  0.00000000000E+00  0.00000000000E+00  0.12680521821E+03  0.23041854727E+04  0.23006936192E+04 0.  0.
        3    1    3    3  502    0 -0.58918488875E+03  0.84521464976E+03 -0.44900966496E+03  0.11238933787E+04  0.10100000352E+00 0.  1.
       -3    1    3    3    0  502  0.58918488875E+03 -0.84521464976E+03  0.57581488318E+03  0.11802920940E+04  0.10100000352E+00 0. -1.
</event>
<event>
 5   0  0.3238713E-06  0.2297006E+04  0.7818609E-02  0.8479102E-01
       -1   -1    0    0    0  501  0.00000000000E+00  0.00000000000E+00  0.17870684981E+04  0.17870684981E+04  0.50400001928E-02 0. -1.
        1   -1    0    0  501    0  0.00000000000E+00  0.00000000000E+00 -0.73811347307E+03  0.73811347309E+03  0.50400001928E-02 0.  1.
    10030    2    1    2    0    0  0.00000000000E+00  0.00000000000E+00  0.10489550251E+04  0.25251819712E+04  0.22970061696E+04 0.  0.
        3    1    3    3  502    0 -0.33053897647E+03  0.63129979863E+03  0.15146516690E+04  0.16739071478E+04  0.10100000352E+00 0. -1.
       -3    1    3    3    0  502  0.33053897647E+03 -0.63129979863E+03 -0.46569664393E+03  0.85127482348E+03  0.10100000352E+00 0.  1.
</event>
<event>
 5   0  0.7242214E-06  0.2298575E+04  0.7818609E-02  0.8478483E-01
       -2   -1    0    0    0  501  0.00000000000E+00  0.00000000000E+00  0.13305511680E+04  0.13305511680E+04  0.25500000920E-02 0. -1.
        2   -1    0    0  501    0  0.00000000000E+00  0.00000000000E+00 -0.99271775055E+03  0.99271775055E+03  0.25500000920E-02 0.  1.
    10030    2    1    2    0    0  0.00000000000E+00  0.00000000000E+00  0.33783341750E+03  0.23232689186E+04  0.22985750042E+04 0.  0.
        1    1    3    3  502    0  0.21196076987E+03 -0.23028946525E+03 -0.94881219219E+03  0.99910218789E+03  0.50400001928E-02 0.  1.
       -1    1    3    3    0  502 -0.21196076987E+03  0.23028946525E+03  0.12866456097E+04  0.13241667307E+04  0.50400001928E-02 0. -1.
</event>
<event>
 5   0  0.7497344E-06  0.2299846E+04  0.7818609E-02  0.8477982E-01
        2   -1    0    0  501    0  0.00000000000E+00  0.00000000000E+00  0.14499731116E+04  0.14499731116E+04  0.25500000920E-02 0. -1.
       -2   -1    0    0    0  501  0.00000000000E+00  0.00000000000E+00 -0.91196370816E+03  0.91196370816E+03  0.25500000920E-02 0.  1.
    10030    2    1    2    0    0  0.00000000000E+00  0.00000000000E+00  0.53800940342E+03  0.23619368197E+04  0.22998459562E+04 0.  0.
        5    1    3    3  502    0 -0.37000668718E+03 -0.66972252362E+03 -0.61258040901E+03  0.98015817841E+03  0.46999998093E+01 0.  1.
       -5    1    3    3    0  502  0.37000668718E+03  0.66972252362E+03  0.11505898124E+04  0.13817786413E+04  0.46999998093E+01 0. -1.
</event>
<event>
 5   0  0.7003852E-06  0.2299131E+04  0.7818609E-02  0.8478264E-01
        2   -1    0    0  501    0  0.00000000000E+00  0.00000000000E+00  0.18788070783E+04  0.18788070783E+04  0.25500000920E-02 0.  1.
       -2   -1    0    0    0  501  0.00000000000E+00  0.00000000000E+00 -0.70337207603E+03  0.70337207603E+03  0.25500000920E-02 0. -1.
    10030    2    1    2    0    0  0.00000000000E+00  0.00000000000E+00  0.11754350023E+04  0.25821791543E+04  0.22991306489E+04 0.  0.
        2    1    3    3  502    0  0.87183454658E+03 -0.71887830215E+03  0.82495447167E+03  0.13990823315E+04  0.25500000920E-02 0. -1.
       -2    1    3    3    0  502 -0.87183454658E+03  0.71887830215E+03  0.35048053060E+03  0.11830968229E+04  0.25500000920E-02 0.  1.
</event>
<event>
 5   0  0.3184492E-06  0.2294261E+04  0.7818609E-02  0.8480187E-01
        1   -1    0    0  501    0  0.00000000000E+00  0.00000000000E+00  0.10439023382E+04  0.10439023382E+04  0.50400001928E-02 0.  1.
       -1   -1    0    0    0  501  0.00000000000E+00  0.00000000000E+00 -0.12605664711E+04  0.12605664711E+04  0.50400001928E-02 0. -1.
    10030    2    1    2    0    0  0.00000000000E+00  0.00000000000E+00 -0.21666413285E+03  0.23044688093E+04  0.22942609151E+04 0.  0.
        1    1    3    3  502    0 -0.21504599901E+03 -0.11216995550E+04 -0.83433858650E+00  0.11421275627E+04  0.50400001928E-02 0.  1.
       -1    1    3    3    0  502  0.21504599901E+03  0.11216995550E+04 -0.21582979426E+03  0.11623412466E+04  0.50400001928E-02 0. -1.
</event>
<event>
 5   0  0.7003852E-06  0.2300654E+04  0.7818609E-02  0.8477663E-01
       -2   -1    0    0    0  501  0.00000000000E+00  0.00000000000E+00  0.12685155812E+04  0.12685155812E+04  0.25500000920E-02 0.  1.
        2   -1    0    0  501    0  0.00000000000E+00  0.00000000000E+00 -0.10431502901E+04  0.10431502901E+04  0.25500000920E-02 0. -1.
    10030    2    1    2    0    0  0.00000000000E+00  0.00000000000E+00  0.22536529112E+03  0.23116658714E+04  0.23006541649E+04 0.  0.
        2    1    3    3  502    0 -0.63225838603E+02 -0.11480044696E+04  0.75892811525E+02  0.11522462791E+04  0.25500000920E-02 0. -1.
       -2    1    3    3    0  502  0.63225838603E+02  0.11480044696E+04  0.14947247959E+03  0.11594195923E+04  0.25500000920E-02 0.  1.
</event>
<event>
 5   0  0.3184492E-06  0.2298737E+04  0.7818609E-02  0.8478419E-01
       -1   -1    0    0    0  501  0.00000000000E+00  0.00000000000E+00  0.12935937862E+04  0.12935937862E+04  0.50400001928E-02 0.  1.
        1   -1    0    0  501    0  0.00000000000E+00  0.00000000000E+00 -0.10212231701E+04  0.10212231702E+04  0.50400001928E-02 0. -1.
    10030    2    1    2    0    0  0.00000000000E+00  0.00000000000E+00  0.27237061607E+03  0.23148169564E+04  0.22987369987E+04 0.  0.
        1    1    3    3  502    0  0.40470665026E+03 -0.10476780943E+04 -0.10971763434E+03  0.11284745551E+04  0.50400001928E-02 0. -1.
       -1    1    3    3    0  502 -0.40470665026E+03  0.10476780943E+04  0.38208825041E+03  0.11863424013E+04  0.50400001928E-02 0.  1.
</event>
<event>
 5   0  0.3338758E-06  0.2304470E+04  0.7818609E-02  0.8476161E-01
        1   -1    0    0  501    0  0.00000000000E+00  0.00000000000E+00  0.22234601073E+04  0.22234601073E+04  0.50400001928E-02 0. -1.
       -1   -1    0    0    0  501  0.00000000000E+00  0.00000000000E+00 -0.59710806424E+03  0.59710806426E+03  0.50400001928E-02 0.  1.
    10030    2    1    2    0    0  0.00000000000E+00  0.00000000000E+00  0.16263520430E+04  0.28205681716E+04  0.23044704039E+04 0.  0.
        5    1    3    3  502    0  0.92319517215E+03  0.56761066833E+03  0.33418457544E+03  0.11340955062E+04  0.46999998093E+01 0.  1.
       -5    1    3    3    0  502 -0.92319517215E+03 -0.56761066833E+03  0.12921674676E+04  0.16864726654E+04  0.46999998093E+01 0. -1.
</event>
<event>
 5   0  0.7044981E-06  0.2257847E+04  0.7818609E-02  0.8494729E-01
        2   -1    0    0  501    0  0.00000000000E+00  0.00000000000E+00  0.23319289874E+04  0.23319289874E+04  0.25500000920E-02 0. -1.
       -2   -1    0    0    0  501  0.00000000000E+00  0.00000000000E+00 -0.54652948432E+03  0.54652948433E+03  0.25500000920E-02 0.  1.
    10030    2    1    2    0    0  0.00000000000E+00  0.00000000000E+00  0.17853995031E+04  0.28784584717E+04  0.22578467149E+04 0.  0.
        4    1    3    3  502    0 -0.48485503612E+03  0.28409178229E+03  0.21409479277E+04  0.22134706208E+04  0.12699999809E+01 0. -1.
       -4    1    3    3    0  502  0.48485503612E+03 -0.28409178229E+03 -0.35554842463E+03  0.66498785100E+03  0.12699999809E+01 0.  1.
</event>
<event>
 5   0  0.3238713E-06  0.2299462E+04  0.7818609E-02  0.8478133E-01
        1   -1    0    0  501    0  0.00000000000E+00  0.00000000000E+00  0.98790165050E+03  0.98790165051E+03  0.50400001928E-02 0. -1.
       -1   -1    0    0    0  501  0.00000000000E+00  0.00000000000E+00 -0.13380693261E+04  0.13380693261E+04  0.50400001928E-02 0.  1.
    10030    2    1    2    0    0  0.00000000000E+00  0.00000000000E+00 -0.35016767556E+03  0.23259709766E+04  0.22994615854E+04 0.  0.
        3    1    3    3  502    0 -0.86713146482E+03  0.75343853667E+03 -0.22353467819E+03  0.11702796112E+04  0.10100000352E+00 0. -1.
       -3    1    3    3    0  502  0.86713146482E+03 -0.75343853667E+03 -0.12663299737E+03  0.11556913654E+04  0.10100000352E+00 0.  1.
</event>
<event>
 5   0  0.2519625E-06  0.2297807E+04  0.7818609E-02  0.8478786E-01
       -3   -1    0    0    0  501  0.00000000000E+00  0.00000000000E+00  0.96980762797E+03  0.96980763323E+03  0.10100000352E+00 0. -1.
        3   -1    0    0  501    0  0.00000000000E+00  0.00000000000E+00 -0.13610737687E+04  0.13610737725E+04  0.10100000352E+00 0.  1.
    10030    2    1    2    0    0  0.00000000000E+00  0.00000000000E+00 -0.39126614076E+03  0.23308814057E+04  0.22978074190E+04 0.  0.
        5    1    3    3  502    0  0.35535529205E+03  0.27559015335E+03  0.87681202514E+03  0.98541805019E+03  0.46999998093E+01 0. -1.
       -5    1    3    3    0  502 -0.35535529205E+03 -0.27559015335E+03 -0.12680781659E+04  0.13454633555E+04  0.46999998093E+01 0.  1.
</event>
<event>
 5   0  0.3184492E-06  0.2324798E+04  0.7818609E-02  0.8468207E-01
        1   -1    0    0  501    0  0.00000000000E+00  0.00000000000E+00  0.11163027026E+04  0.11163027026E+04  0.50400001928E-02 0.  1.
       -1   -1    0    0    0  501  0.00000000000E+00  0.00000000000E+00 -0.12103990013E+04  0.12103990013E+04  0.50400001928E-02 0. -1.
    10030    2    1    2    0    0  0.00000000000E+00  0.00000000000E+00 -0.94096298721E+02  0.23267017039E+04  0.23247982074E+04 0.  0.
        1    1    3    3  502    0 -0.65827258310E+03  0.51482531506E+03 -0.85567242525E+03  0.11960531753E+04  0.50400001928E-02 0. -1.
       -1    1    3    3    0  502  0.65827258310E+03 -0.51482531506E+03  0.76157612653E+03  0.11306485286E+04  0.50400001928E-02 0.  1.
</event>
<event>
 5   0  0.3195296E-06  0.2297555E+04  0.7818609E-02  0.8478886E-01
       -1   -1    0    0    0  501  0.00000000000E+00  0.00000000000E+00  0.83570999436E+03  0.83570999437E+03  0.50400001928E-02 0.  1.
        1   -1    0    0  501    0  0.00000000000E+00  0.00000000000E+00 -0.15791236418E+04  0.15791236418E+04  0.50400001928E-02 0. -1.
    10030    2    1    2    0    0  0.00000000000E+00  0.00000000000E+00 -0.74341364742E+03  0.24148336362E+04  0.22975547086E+04 0.  0.
        2    1    3    3  502    0  0.68606142891E+03 -0.82978678802E+03  0.49319088000E+02  0.10778027511E+04  0.25500000920E-02 0.  1.
       -2    1    3    3    0  502 -0.68606142891E+03  0.82978678802E+03 -0.79273273542E+03  0.13370308851E+04  0.25500000920E-02 0. -1.
</event>
<event>
 5   0  0.3226427E-06  0.2296371E+04  0.7818609E-02  0.8479353E-01
       -1   -1    0    0    0  501  0.00000000000E+00  0.00000000000E+00  0.41282881523E+03  0.41282881526E+03  0.50400001928E-02 0. -1.
        1   -1    0    0  501    0  0.00000000000E+00  0.00000000000E+00 -0.31934068868E+04  0.31934068868E+04  0.50400001928E-02 0.  1.
    10030    2    1    2    0    0  0.00000000000E+00  0.00000000000E+00 -0.27805780716E+04  0.36062357021E+04  0.22963713826E+04 0.  0.
        4    1    3    3  502    0  0.46051918759E+03  0.33191621014E+02 -0.30411953635E+04  0.30760446124E+04  0.12699999809E+01 0.  1.
       -4    1    3    3    0  502 -0.46051918759E+03 -0.33191621014E+02  0.26061729187E+03  0.53019108967E+03  0.12699999809E+01 0. -1.
</event>
<event>
 5   0  0.2519625E-06  0.2300910E+04  0.7818609E-02  0.8477563E-01
        3   -1    0    0  501    0  0.00000000000E+00  0.00000000000E+00  0.98391422832E+03  0.98391423350E+03  0.10100000352E+00 0.  1.
       -3   -1    0    0    0  501  0.00000000000E+00  0.00000000000E+00 -0.13451846458E+04  0.13451846496E+04  0.10100000352E+00 0. -1.
    10030    2    1    2    0    0  0.00000000000E+00  0.00000000000E+00 -0.36127041750E+03  0.23290988831E+04  0.23009096664E+04 0.  0.
        4    1    3    3  502    0 -0.44017195114E+03  0.33804023984E+03  0.83944203871E+03  0.10063235561E+04  0.12699999809E+01 0.  1.
       -4    1    3    3    0  502  0.44017195114E+03 -0.33804023984E+03 -0.12007124562E+04  0.13227753270E+04  0.12699999809E+01 0. -1.
</event>
<event>
 5   0  0.7242214E-06  0.2303144E+04  0.7818609E-02  0.8476682E-01
       -2   -1    0    0    0  501  0.00000000000E+00  0.00000000000E+00  0.88258208109E+03  0.88258208110E+03  0.25500000920E-02 0. -1.
        2   -1    0    0  501    0  0.00000000000E+00  0.00000000000E+00 -0.15025441051E+04  0.15025441051E+04  0.25500000920E-02 0.  1.
    10030    2    1    2    0    0  0.00000000000E+00  0.00000000000E+00 -0.61996202403E+03  0.23851261862E+04  0.23031443752E+04 0.  0.
        1    1    3    3  502    0 -0.72240415253E+01  0.51624486962E+03  0.75600737365E+03  0.91548244179E+03  0.50400001928E-02 0. -1.
       -1    1    3    3    0  502  0.72240415253E+01 -0.51624486962E+03 -0.13759693977E+04  0.14696437444E+04  0.50400001928E-02 0.  1.
</event>
<event>
 5   0  0.3195296E-06  0.2297838E+04  0.7818609E-02  0.8478774E-01
        1   -1    0    0  501    0  0.00000000000E+00  0.00000000000E+00  0.84055506272E+03  0.84055506274E+03  0.50400001928E-02 0.  1.
       -1   -1    0    0    0  501  0.00000000000E+00  0.00000000000E+00 -0.15704084647E+04  0.15704084647E+04  0.50400001928E-02 0. -1.
    10030    2    1    2    0    0  0.00000000000E+00  0.00000000000E+00 -0.72985340201E+03  0.24109635275E+04  0.22978379278E+04 0.  0.
        2    1    3    3  502    0  0.63982480970E+03  0.82835211343E+03 -0.86203626306E+03  0.13559681153E+04  0.25500000920E-02 0. -1.
       -2    1    3    3    0  502 -0.63982480970E+03 -0.82835211343E+03  0.13218286105E+03  0.10549954122E+04  0.25500000920E-02 0.  1.
</event>
<event>
 5   0  0.7348107E-06  0.2299174E+04  0.7818609E-02  0.8478247E-01
       -2   -1    0    0    0  501  0.00000000000E+00  0.00000000000E+00  0.55184375919E+03  0.55184375919E+03  0.25500000920E-02 0.  1.
        2   -1    0    0  501    0  0.00000000000E+00  0.00000000000E+00 -0.23947903374E+04  0.23947903374E+04  0.25500000920E-02 0. -1.
    10030    2    1    2    0    0  0.00000000000E+00  0.00000000000E+00 -0.18429465782E+04  0.29466340965E+04  0.22991738536E+04 0.  0.
        3    1    3    3  502    0  0.68080215020E+02 -0.10471721387E+04 -0.15230716943E+04  0.18495815202E+04  0.10100000352E+00 0. -1.
       -3    1    3    3    0  502 -0.68080215020E+02  0.10471721387E+04 -0.31987488391E+03  0.10970525764E+04  0.10100000352E+00 0.  1.
</event>
<event>
 5   0  0.3226427E-06  0.2300785E+04  0.7818609E-02  0.8477612E-01
       -1   -1    0    0    0  501  0.00000000000E+00  0.00000000000E+00  0.11660593351E+04  0.11660593352E+04  0.50400001928E-02 0. -1.
        1   -1    0    0  501    0  0.00000000000E+00  0.00000000000E+00 -0.11349364870E+04  0.11349364870E+04  0.50400001928E-02 0.  1.
    10030    2    1    2    0    0  0.00000000000E+00  0.00000000000E+00  0.31122848132E+02  0.23009958222E+04  0.23007853316E+04 0.  0.
        4    1    3    3  502    0  0.60545592682E+02 -0.29945833548E+03  0.11247438649E+04  0.11655005097E+04  0.12699999809E+01 0. -1.
       -4    1    3    3    0  502 -0.60545592682E+02  0.29945833548E+03 -0.10936210168E+04  0.11354953125E+04  0.12699999809E+01 0.  1.
</event>
<event>
 5   0  0.7242214E-06  0.2299472E+04  0.7818609E-02  0.8478129E-01
        2   -1    0    0  501    0  0.00000000000E+00  0.00000000000E+00  0.83700116430E+03  0.83700116431E+03  0.25500000920E-02 0. -1.
       -2   -1    0    0    0  501  0.00000000000E+00  0.00000000000E+00 -0.15793200580E+04  0.15793200580E+04  0.25500000920E-02 0.  1.
    10030    2    1    2    0    0  0.00000000000E+00  0.00000000000E+00 -0.74231889374E+03  0.24163212224E+04  0.22994718762E+04 0.  0.
        1    1    3    3  502    0  0.65880700049E+03 -0.88150271441E+03 -0.72097066616E+03  0.13156262391E+04  0.50400001928E-02 0.  1.
       -1    1    3    3    0  502 -0.65880700049E+03  0.88150271441E+03 -0.21348227574E+02  0.11006949833E+04  0.50400001928E-02 0. -1.
</event>
<event>
 5   0  0.3238713E-06  0.2278450E+04  0.7818609E-02  0.8486467E-01
       -1   -1    0    0    0  501  0.00000000000E+00  0.00000000000E+00  0.11595510156E+04  0.11595510156E+04  0.50400001928E-02 0. -1.
        1   -1    0    0  501    0  0.00000000000E+00  0.00000000000E+00 -0.11192552647E+04  0.11192552648E+04  0.50400001928E-02 0.  1.
    10030    2    1    2    0    0  0.00000000000E+00  0.00000000000E+00  0.40295750853E+02  0.22788062804E+04  0.22784499810E+04 0.  0.
        3    1    3    3  502    0 -0.88872424843E+03  0.69036809008E+03  0.19736102077E+03  0.11425367706E+04  0.10100000352E+00 0.  1.
       -3    1    3    3    0  502  0.88872424843E+03 -0.69036809008E+03 -0.15706526992E+03  0.11362695097E+04  0.10100000352E+00 0. -1.
</event>
<event>
 5   0  0.7044981E-06  0.2281400E+04  0.7818609E-02  0.8485291E-01
       -2   -1    0    0    0  501  0.00000000000E+00  0.00000000000E+00  0.12386183403E+04  0.12386183403E+04  0.25500000920E-02 0. -1.
        2   -1    0    0  501    0  0.00000000000E+00  0.00000000000E+00 -0.10505229501E+04  0.10505229501E+04  0.25500000920E-02 0.  1.
    10030    2    1    2    0    0  0.00000000000E+00  0.00000000000E+00  0.18809539016E+03  0.22891412904E+04  0.22814004409E+04 0.  0.
        4    1    3    3  502    0  0.83040317172E+03  0.78128769495E+03  0.59065521226E+02  0.11416962112E+04  0.12699999809E+01 0. -1.
       -4    1    3    3    0  502 -0.83040317172E+03 -0.78128769495E+03  0.12902986893E+03  0.11474450792E+04  0.12699999809E+01 0.  1.
</event>
<event>
 5   0  0.7003852E-06  0.2304456E+04  0.7818609E-02  0.8476166E-01
        2   -1    0    0  501    0  0.00000000000E+00  0.00000000000E+00  0.17637762920E+04  0.17637762920E+04  0.25500000920E-02 0. -1.
       -2   -1    0    0    0  501  0.00000000000E+00  0.00000000000E+00 -0.75272013646E+03  0.75272013647E+03  0.25500000920E-02 0.  1.
    10030    2    1    2    0    0  0.00000000000E+00  0.00000000000E+00  0.10110561556E+04  0.25164964285E+04  0.23044564923E+04 0.  0.
        2    1    3    3  502    0  0.10579598958E+04  0.44803065301E+03  0.41020764038E+03  0.12199511939E+04  0.25500000920E-02 0. -1.
       -2    1    3    3    0  502 -0.10579598958E+04 -0.44803065301E+03  0.60084851519E+03  0.12965452346E+04  0.25500000920E-02 0.  1.
</event>
<event>
 5   0  0.7497344E-06  0.2298803E+04  0.7818609E-02  0.8478393E-01
        2   -1    0    0  501    0  0.00000000000E+00  0.00000000000E+00  0.14531898857E+04  0.14531898857E+04  0.25500000920E-02 0. -1.
       -2   -1    0    0    0  501  0.00000000000E+00  0.00000000000E+00 -0.90911968554E+03  0.90911968554E+03  0.25500000920E-02 0.  1.
    10030    2    1    2    0    0  0.00000000000E+00  0.00000000000E+00  0.54407020016E+03  0.23623095712E+04  0.22988027596E+04 0.  0.
        5    1    3    3  502    0  0.89880267803E+03 -0.69161729288E+03  0.80001766835E+02  0.11369270454E+04  0.46999998093E+01 0.  1.
       -5    1    3    3    0  502 -0.89880267803E+03  0.69161729288E+03  0.46406843332E+03  0.12253825258E+04  0.46999998093E+01 0. -1.
</event>
<event>
 5   0  0.7003852E-06  0.2296706E+04  0.7818609E-02  0.8479221E-01
       -2   -1    0    0    0  501  0.00000000000E+00  0.00000000000E+00  0.63291949712E+03  0.63291949713E+03  0.25500000920E-02 0.  1.
        2   -1    0    0  501    0  0.00000000000E+00  0.00000000000E+00 -0.20835422322E+04  0.20835422322E+04  0.25500000920E-02 0. -1.
    10030    2    1    2    0    0  0.00000000000E+00  0.00000000000E+00 -0.14506227350E+04  0.27164617293E+04  0.22967059035E+04 0.  0.
        2    1    3    3  502    0 -0.22224231351E+03 -0.11020847197E+04 -0.44860486468E+03  0.12104663150E+04  0.25500000920E-02 0. -1.
       -2    1    3    3    0  502  0.22224231351E+03  0.11020847197E+04 -0.10020178704E+04  0.15059954143E+04  0.25500000920E-02 0.  1.
</event>
<event>
 5   0  0.7348107E-06  0.2301614E+04  0.7818609E-02  0.8477285E-01
       -2   -1    0    0    0  501  0.00000000000E+00  0.00000000000E+00  0.11617891725E+04  0.11617891725E+04  0.25500000920E-02 0. -1.
        2   -1    0    0  501    0  0.00000000000E+00  0.00000000000E+00 -0.11399288244E+04  0.11399288244E+04  0.25500000920E-02 0.  1.
    10030    2    1    2    0    0  0.00000000000E+00  0.00000000000E+00  0.21860348034E+02  0.23017179969E+04  0.23016141863E+04 0.  0.
        3    1    3    3  502    0  0.51615992146E+03  0.27953488699E+03  0.10008213418E+04  0.11602603958E+04  0.10100000352E+00 0. -1.
       -3    1    3    3    0  502 -0.51615992146E+03 -0.27953488699E+03 -0.97896099378E+03  0.11414576011E+04  0.10100000352E+00 0.  1.
</event>
<event>
 5   0  0.7348107E-06  0.2341268E+04  0.7818609E-02  0.8461825E-01
        2   -1    0    0  501    0  0.00000000000E+00  0.00000000000E+00  0.16302872689E+04  0.16302872689E+04  0.25500000920E-02 0. -1.
       -2   -1    0    0    0  501  0.00000000000E+00  0.00000000000E+00 -0.84057797855E+03  0.84057797855E+03  0.25500000920E-02 0.  1.
    10030    2    1    2    0    0  0.00000000000E+00  0.00000000000E+00  0.78970929037E+03  0.24708652475E+04  0.23412676711E+04 0.  0.
        3    1    3    3  502    0  0.60104270734E+03 -0.31775028520E+03  0.14005828021E+04  0.15568717916E+04  0.10100000352E+00 0. -1.
       -3    1    3    3    0  502 -0.60104270734E+03  0.31775028520E+03 -0.61087351174E+03  0.91399345585E+03  0.10100000352E+00 0.  1.
</event>
<event>
 5   0  0.7003852E-06  0.2303405E+04  0.7818609E-02  0.8476580E-01
        2   -1    0    0  501    0  0.00000000000E+00  0.00000000000E+00  0.74590681987E+03  0.74590681988E+03  0.25500000920E-02 0.  1.
       -2   -1    0    0    0  501  0.00000000000E+00  0.00000000000E+00 -0.17782631147E+04  0.17782631147E+04  0.25500000920E-02 0. -1.
    10030    2    1    2    0    0  0.00000000000E+00  0.00000000000E+00 -0.10323562948E+04  0.25241699346E+04  0.23034049447E+04 0.  0.
        2    1    3    3  502    0  0.63979139037E+03 -0.46603967514E+03  0.40059944585E+03  0.88713354013E+03  0.25500000920E-02 0.  1.
       -2    1    3    3    0  502 -0.63979139037E+03  0.46603967514E+03 -0.14329557407E+04  0.16370363944E+04  0.25500000920E-02 0. -1.
</event>
<event>
 5   0  0.7497344E-06  0.2325478E+04  0.7818609E-02  0.8467943E-01
       -2   -1    0    0    0  501  0.00000000000E+00  0.00000000000E+00  0.87831291849E+03  0.87831291849E+03  0.25500000920E-02 0.  1.
        2   -1    0    0  501    0  0.00000000000E+00  0.00000000000E+00 -0.15392712097E+04  0.15392712097E+04  0.25500000920E-02 0. -1.
    10030    2    1    2    0    0  0.00000000000E+00  0.00000000000E+00 -0.66095829124E+03  0.24175841282E+04  0.23254778335E+04 0.  0.
        5    1    3    3  502    0 -0.91164095206E+03 -0.59556751606E+03  0.93280222253E+02  0.10929378672E+04  0.46999998093E+01 0.  1.
       -5    1    3    3    0  502  0.91164095206E+03  0.59556751606E+03 -0.75423851349E+03  0.13246462610E+04  0.46999998093E+01 0. -1.
</event>
<event>
 5   0  0.7348107E-06  0.2322256E+04  0.7818609E-02  0.8469197E-01
       -2   -1    0    0    0  501  0.00000000000E+00  0.00000000000E+00  0.70140069054E+03  0.70140069054E+03  0.25500000920E-02 0. -1.
        2   -1    0    0  501    0  0.00000000000E+00  0.00000000000E+00 -0.19221794609E+04  0.19221794609E+04  0.25500000920E-02 0.  1.
    10030    2    1    2    0    0  0.00000000000E+00  0.00000000000E+00 -0.12207787704E+04  0.26235801514E+04  0.23222558009E+04 0.  0.
        3    1    3    3  502    0 -0.25159120298E+03 -0.53757322105E+02  0.66879566605E+03  0.71657214307E+03  0.10100000352E+00 0. -1.
       -3    1    3    3    0  502  0.25159120298E+03  0.53757322105E+02 -0.18895744364E+04  0.19070080084E+04  0.10100000352E+00 0.  1.
</event>
<event>
 5   0  0.3226427E-06  0.2295508E+04  0.7818609E-02  0.8479694E-01
       -1   -1    0    0    0  501  0.00000000000E+00  0.00000000000E+00  0.83273681331E+03  0.83273681333E+03  0.50400001928E-02 0.  1.
        1   -1    0    0  501    0  0.00000000000E+00  0.00000000000E+00 -0.15819392370E+04  0.15819392370E+04  0.50400001928E-02 0. -1.
    10030    2    1    2    0    0  0.00000000000E+00  0.00000000000E+00 -0.74920242369E+03  0.24146760503E+04  0.22955078210E+04 0.  0.
        4    1    3    3  502    0  0.81569775083E+03  0.40345997117E+03  0.36113299847E+03  0.97906150191E+03  0.12699999809E+01 0.  1.
       -4    1    3    3    0  502 -0.81569775083E+03 -0.40345997117E+03 -0.11103354222E+04  0.14356145484E+04  0.12699999809E+01 0. -1.
</event>
<event>
 5   0  0.7242214E-06  0.2302117E+04  0.7818609E-02  0.8477087E-01
       -2   -1    0    0    0  501  0.00000000000E+00  0.00000000000E+00  0.77229625861E+03  0.77229625861E+03  0.25500000920E-02 0. -1.
        2   -1    0    0  501    0  0.00000000000E+00  0.00000000000E+00 -0.17155791157E+04  0.17155791157E+04  0.25500000920E-02 0.  1.
    10030    2    1    2    0    0  0.00000000000E+00  0.00000000000E+00 -0.94328285711E+03  0.24878753743E+04  0.23021167064E+04 0.  0.
        1    1    3    3  502    0 -0.27651470937E+03 -0.61961584667E+03 -0.14764807727E+04  0.16249245072E+04  0.50400001928E-02 0.  1.
       -1    1    3    3    0  502  0.27651470937E+03  0.61961584667E+03  0.53319791555E+03  0.86295086715E+03  0.50400001928E-02 0. -1.
</event>
<event>
 5   0  0.7003852E-06  0.2302963E+04  0.7818609E-02  0.8476754E-01
        2   -1    0    0  501    0  0.00000000000E+00  0.00000000000E+00  0.13665539817E+04  0.13665539817E+04  0.25500000920E-02 0.  1.
       -2   -1    0    0    0  501  0.00000000000E+00  0.00000000000E+00 -0.97025770107E+03  0.97025770107E+03  0.25500000920E-02 0. -1.
    10030    2    1    2    0    0  0.00000000000E+00  0.00000000000E+00  0.39629628060E+03  0.23368116827E+04  0.23029628956E+04 0.  0.
        2    1    3    3  502    0  0.12096287032E+03 -0.11287629008E+04  0.39378185473E+03  0.12015830606E+04  0.25500000920E-02 0.  1.
       -2    1    3    3    0  502 -0.12096287032E+03  0.11287629008E+04  0.25144258778E+01  0.11352286222E+04  0.25500000920E-02 0. -1.
</event>
<event>
 5   0  0.3195296E-06  0.2299559E+04  0.7818609E-02  0.8478095E-01
        1   -1    0    0  501    0  0.00000000000E+00  0.00000000000E+00  0.13627381894E+04  0.13627381894E+04  0.50400001928E-02 0.  1.
       -1   -1    0    0    0  501  0.00000000000E+00  0.00000000000E+00 -0.97010065207E+03  0.97010065208E+03  0.50400001928E-02 0. -1.
    10030    2    1    2    0    0  0.00000000000E+00  0.00000000000E+00  0.39263753733E+03  0.23328388415E+04  0.22995592675E+04 0.  0.
        2    1    3    3  502    0  0.43702851415E+03 -0.95541442206E+03  0.67017888094E+03  0.12461742946E+04  0.25500000920E-02 0.  1.
       -2    1    3    3    0  502 -0.43702851415E+03  0.95541442206E+03 -0.27754134361E+03  0.10866645469E+04  0.25500000920E-02 0. -1.
</event>
<event>
 5   0  0.7497344E-06  0.2298299E+04  0.7818609E-02  0.8478592E-01
        2   -1    0    0  501    0  0.00000000000E+00  0.00000000000E+00  0.39086262278E+03  0.39086262279E+03  0.25500000920E-02 0.  1.
       -2   -1    0    0    0  501  0.00000000000E+00  0.00000000000E+00 -0.33785379406E+04  0.33785379406E+04  0.25500000920E-02 0. -1.
    10030    2    1    2    0    0  0.00000000000E+00  0.00000000000E+00 -0.29876753178E+04  0.37694005633E+04  0.22982986757E+04 0.  0.
        5    1    3    3  502    0  0.46150734625E+03  0.90818849982E+03 -0.62177185187E+03  0.11934897183E+04  0.46999998093E+01 0.  1.
       -5    1    3    3    0  502 -0.46150734625E+03 -0.90818849982E+03 -0.23659034659E+04  0.25759108451E+04  0.46999998093E+01 0. -1.
</event>
<event>
 5   0  0.3238713E-06  0.2250106E+04  0.7818609E-02  0.8497858E-01
       -1   -1    0    0    0  501  0.00000000000E+00  0.00000000000E+00  0.49524032979E+03  0.49524032982E+03  0.50400001928E-02 0.  1.
        1   -1    0    0  501    0  0.00000000000E+00  0.00000000000E+00 -0.25558177115E+04  0.25558177115E+04  0.50400001928E-02 0. -1.
    10030    2    1    2    0    0  0.00000000000E+00  0.00000000000E+00 -0.20605773817E+04  0.30510580413E+04  0.22501057809E+04 0.  0.
        3    1    3    3  502    0 -0.66539672220E+03 -0.89430923523E+03 -0.82374495705E+03  0.13860366411E+04  0.10100000352E+00 0. -1.
       -3    1    3    3    0  502  0.66539672220E+03  0.89430923523E+03 -0.12368324246E+04  0.16650214001E+04  0.10100000352E+00 0.  1.
</event>
<event>
 5   0  0.3238713E-06  0.2300566E+04  0.7818609E-02  0.8477698E-01
        1   -1    0    0  501    0  0.00000000000E+00  0.00000000000E+00  0.14452088054E+04  0.14452088054E+04  0.50400001928E-02 0.  1.
       -1   -1    0    0    0  501  0.00000000000E+00  0.00000000000E+00 -0.91554350888E+03  0.91554350890E+03  0.50400001928E-02 0. -1.
    10030    2    1    2    0    0  0.00000000000E+00  0.00000000000E+00  0.52966529654E+03  0.23607523143E+04  0.23005664875E+04 0.  0.
        3    1    3    3  502    0  0.73729494031E+03 -0.30962232945E+03  0.11133146168E+04  0.13707440542E+04  0.10100000352E+00 0.  1.
       -3    1    3    3    0  502 -0.73729494031E+03  0.30962232945E+03 -0.58364932027E+03  0.99000826014E+03  0.10100000352E+00 0. -1.
</event>
<event>
 5   0  0.3226427E-06  0.2298215E+04  0.7818609E-02  0.8478625E-01
       -1   -1    0    0    0  501  0.00000000000E+00  0.00000000000E+00  0.11158027538E+04  0.11158027538E+04  0.50400001928E-02 0.  1.
        1   -1    0    0  501    0  0.00000000000E+00  0.00000000000E+00 -0.11834068059E+04  0.11834068060E+04  0.50400001928E-02 0. -1.
    10030    2    1    2    0    0  0.00000000000E+00  0.00000000000E+00 -0.67604052160E+02  0.22992095598E+04  0.22982154581E+04 0.  0.
        4    1    3    3  502    0  0.71831018727E+03 -0.88302678076E+03 -0.19116322759E+03  0.11542316982E+04  0.12699999809E+01 0.  1.
       -4    1    3    3    0  502 -0.71831018727E+03  0.88302678076E+03  0.12355917543E+03  0.11449778615E+04  0.12699999809E+01 0. -1.
</event>
<event>
 5   0  0.7044981E-06  0.2299302E+04  0.7818609E-02  0.8478196E-01
       -2   -1    0    0    0  501  0.00000000000E+00  0.00000000000E+00  0.50958230930E+03  0.50958230930E+03  0.25500000920E-02 0. -1.
        2   -1    0    0  501    0  0.00000000000E+00  0.00000000000E+00 -0.25936873505E+04  0.25936873505E+04  0.25500000920E-02 0.  1.
    10030    2    1    2    0    0  0.00000000000E+00  0.00000000000E+00 -0.20841050412E+04  0.31032696598E+04  0.22993017981E+04 0.  0.
        4    1    3    3  502    0 -0.44094038876E+03 -0.10535364385E+04 -0.86438857704E+03  0.14323186373E+04  0.12699999809E+01 0. -1.
       -4    1    3    3    0  502  0.44094038876E+03  0.10535364385E+04 -0.12197164642E+04  0.16709510225E+04  0.12699999809E+01 0.  1.
</event>
<event>
 5   0  0.7003852E-06  0.2297975E+04  0.7818609E-02  0.8478720E-01
       -2   -1    0    0    0  501  0.00000000000E+00  0.00000000000E+00  0.10270769980E+04  0.10270769980E+04  0.25500000920E-02 0. -1.
        2   -1    0    0  501    0  0.00000000000E+00  0.00000000000E+00 -0.12853686479E+04  0.12853686479E+04  0.25500000920E-02 0.  1.
    10030    2    1    2    0    0  0.00000000000E+00  0.00000000000E+00 -0.25829164993E+03  0.23124456458E+04  0.22979752585E+04 0.  0.
        2    1    3    3  502    0 -0.70823037146E+03 -0.57028750540E+03  0.57766911486E+03  0.10772742010E+04  0.25500000920E-02 0. -1.
       -2    1    3    3    0  502  0.70823037146E+03  0.57028750540E+03 -0.83596076479E+03  0.12351714448E+04  0.25500000920E-02 0.  1.
</event>
<event>
 5   0  0.7044981E-06  0.2296620E+04  0.7818609E-02  0.8479255E-01
        2   -1    0    0  501    0  0.00000000000E+00  0.00000000000E+00  0.15459302393E+04  0.15459302393E+04  0.25500000920E-02 0.  1.
       -2   -1    0    0    0  501  0.00000000000E+00  0.00000000000E+00 -0.85295917792E+03  0.85295917793E+03  0.25500000920E-02 0. -1.
    10030    2    1    2    0    0  0.00000000000E+00  0.00000000000E+00  0.69297106139E+03  0.23988894172E+04  0.22966195907E+04 0.  0.
        4    1    3    3  502    0 -0.85758527374E+03  0.26076311438E+03 -0.40322543265E+03  0.98287449148E+03  0.12699999809E+01 0. -1.
       -4    1    3    3    0  502  0.85758527374E+03 -0.26076311438E+03  0.10961964940E+04  0.14160149258E+04  0.12699999809E+01 0.  1.
</event>
<event>
 5   0  0.7242214E-06  0.2300032E+04  0.7818609E-02  0.8477908E-01
        2   -1    0    0  501    0  0.00000000000E+00  0.00000000000E+00  0.21837323806E+04  0.21837323806E+04  0.25500000920E-02 0.  1.
       -2   -1    0    0    0  501  0.00000000000E+00  0.00000000000E+00 -0.60563143404E+03  0.60563143405E+03  0.25500000920E-02 0. -1.
    10030    2    1    2    0    0  0.00000000000E+00  0.00000000000E+00  0.15781009465E+04  0.27893638146E+04  0.23000321504E+04 0.  0.
        1    1    3    3  502    0 -0.99736414767E+03 -0.29007186098E+03  0.13876872813E+04  0.17333646236E+04  0.50400001928E-02 0.  1.
       -1    1    3    3    0  502  0.99736414767E+03  0.29007186098E+03  0.19041366526E+03  0.10559991911E+04  0.50400001928E-02 0. -1.
</event>
<event>
 5   0  0.7348107E-06  0.2299057E+04  0.7818609E-02  0.8478293E-01
       -2   -1    0    0    0  501  0.00000000000E+00  0.00000000000E+00  0.69840767172E+03  0.69840767172E+03  0.25500000920E-02 0. -1.
        2   -1    0    0  501    0  0.00000000000E+00  0.00000000000E+00 -0.18920408147E+04  0.18920408147E+04  0.25500000920E-02 0.  1.
    10030    2    1    2    0    0  0.00000000000E+00  0.00000000000E+00 -0.11936331430E+04  0.25904484865E+04  0.22990570417E+04 0.  0.
        3    1    3    3  502    0 -0.67454112577E+03  0.80456722688E+03 -0.69431026282E+02  0.10522142512E+04  0.10100000352E+00 0. -1.
       -3    1    3    3    0  502  0.67454112577E+03 -0.80456722688E+03 -0.11242021167E+04  0.15382342352E+04  0.10100000352E+00 0.  1.
</event>
<event>
 5   0  0.3184492E-06  0.2290309E+04  0.7818609E-02  0.8481752E-01
        1   -1    0    0  501    0  0.00000000000E+00  0.00000000000E+00  0.80158963026E+03  0.80158963028E+03  0.50400001928E-02 0.  1.
       -1   -1    0    0    0  501  0.00000000000E+00  0.00000000000E+00 -0.16359725939E+04  0.16359725939E+04  0.50400001928E-02 0. -1.
    10030    2    1    2    0    0  0.00000000000E+00  0.00000000000E+00 -0.83438296361E+03  0.24375622242E+04  0.22903088584E+04 0.  0.
        1    1    3    3  502    0  0.28195869203E+03  0.97203928636E+03 -0.98737664658E+03  0.14139567605E+04  0.50400001928E-02 0. -1.
       -1    1    3    3    0  502 -0.28195869203E+03 -0.97203928636E+03  0.15299368298E+03  0.10236054637E+04  0.50400001928E-02 0.  1.
</event>
<event>
 5   0  0.7003852E-06  0.2283849E+04  0.7818609E-02  0.8484317E-01
       -2   -1    0    0    0  501  0.00000000000E+00  0.00000000000E+00  0.59560146123E+03  0.59560146123E+03  0.25500000920E-02 0. -1.
        2   -1    0    0  501    0  0.00000000000E+00  0.00000000000E+00 -0.21893693758E+04  0.21893693758E+04  0.25500000920E-02 0.  1.
    10030    2    1    2    0    0  0.00000000000E+00  0.00000000000E+00 -0.15937679146E+04  0.27849708370E+04  0.22838490313E+04 0.  0.
        2    1    3    3  502    0  0.28812784919E+03  0.74488395349E+03 -0.17921291651E+04  0.19620389156E+04  0.25500000920E-02 0.  1.
       -2    1    3    3    0  502 -0.28812784919E+03 -0.74488395349E+03  0.19836125056E+03  0.82293192147E+03  0.25500000920E-02 0. -1.
</event>
<event>
 5   0  0.3195296E-06  0.2302262E+04  0.7818609E-02  0.8477030E-01
        1   -1    0    0  501    0  0.00000000000E+00  0.00000000000E+00  0.90533975754E+03  0.90533975755E+03  0.50400001928E-02 0. -1.
       -1   -1    0    0    0  501  0.00000000000E+00  0.00000000000E+00 -0.14636526590E+04  0.14636526590E+04  0.50400001928E-02 0.  1.
    10030    2    1    2    0    0  0.00000000000E+00  0.00000000000E+00 -0.55831290148E+03  0.23689924166E+04  0.23022623165E+04 0.  0.
        2    1    3    3  502    0  0.72894553998E+03  0.26234068340E+03  0.59694322516E+03  0.97802119021E+03  0.25500000920E-02 0. -1.
       -2    1    3    3    0  502 -0.72894553998E+03 -0.26234068340E+03 -0.11552561266E+04  0.13909712264E+04  0.25500000920E-02 0.  1.
</event>
<event>
 5   0  0.7003852E-06  0.2301429E+04  0.7818609E-02  0.8477358E-01
        2   -1    0    0  501    0  0.00000000000E+00  0.00000000000E+00  0.63596468962E+03  0.63596468962E+03  0.25500000920E-02 0. -1.
       -2   -1    0    0    0  501  0.00000000000E+00  0.00000000000E+00 -0.20821030794E+04  0.20821030794E+04  0.25500000920E-02 0.  1.
    10030    2    1    2    0    0  0.00000000000E+00  0.00000000000E+00 -0.14461383897E+04  0.27180677690E+04  0.23014291548E+04 0.  0.
        2    1    3    3  502    0  0.77415185662E+02  0.40152945996E+03 -0.19933954581E+04  0.20349065017E+04  0.25500000920E-02 0.  1.
       -2    1    3    3    0  502 -0.77415185662E+02 -0.40152945996E+03  0.54725706839E+03  0.68316126727E+03  0.25500000920E-02 0. -1.
</event>
<event>
 5   0  0.7044981E-06  0.2300776E+04  0.7818609E-02  0.8477615E-01
       -2   -1    0    0    0  501  0.00000000000E+00  0.00000000000E+00  0.50060314957E+03  0.50060314957E+03  0.25500000920E-02 0. -1.
        2   -1    0    0  501    0  0.00000000000E+00  0.00000000000E+00 -0.26435954372E+04  0.26435954372E+04  0.25500000920E-02 0.  1.
    10030    2    1    2    0    0  0.00000000000E+00  0.00000000000E+00 -0.21429922877E+04  0.31441985868E+04  0.23007756971E+04 0.  0.
        4    1    3    3  502    0 -0.22045423020E+03  0.25380772789E+03 -0.25749674693E+04  0.25968206545E+04  0.12699999809E+01 0.  1.
       -4    1    3    3    0  502  0.22045423020E+03 -0.25380772789E+03  0.43197518167E+03  0.54737793235E+03  0.12699999809E+01 0. -1.
</event>
<event>
 5   0  0.3184492E-06  0.2300157E+04  0.7818609E-02  0.8477859E-01
       -1   -1    0    0    0  501  0.00000000000E+00  0.00000000000E+00  0.90383295853E+03  0.90383295855E+03  0.50400001928E-02 0.  1.
        1   -1    0    0  501    0  0.00000000000E+00  0.00000000000E+00 -0.14634126271E+04  0.14634126271E+04  0.50400001928E-02 0. -1.
    10030    2    1    2    0    0  0.00000000000E+00  0.00000000000E+00 -0.55957966859E+03  0.23672455857E+04  0.23001570071E+04 0.  0.
        1    1    3    3  502    0  0.71019931655E+02 -0.12305905020E+03  0.89476573010E+03  0.90597630891E+03  0.50400001928E-02 0.  1.
       -1    1    3    3    0  502 -0.71019931655E+02  0.12305905020E+03 -0.14543453987E+04  0.14612692768E+04  0.50400001928E-02 0. -1.
</event>
<event>
 5   0  0.3238713E-06  0.2290108E+04  0.7818609E-02  0.8481831E-01
       -1   -1    0    0    0  501  0.00000000000E+00  0.00000000000E+00  0.98066230037E+03  0.98066230038E+03  0.50400001928E-02 0.  1.
        1   -1    0    0  501    0  0.00000000000E+00  0.00000000000E+00 -0.13370037743E+04  0.13370037743E+04  0.50400001928E-02 0. -1.
    10030    2    1    2    0    0  0.00000000000E+00  0.00000000000E+00 -0.35634147390E+03  0.23176660747E+04  0.22901084663E+04 0.  0.
        3    1    3    3  502    0 -0.60523677296E+03 -0.33128398612E+03  0.74665749210E+03  0.10166405714E+04  0.10100000352E+00 0.  1.
       -3    1    3    3    0  502  0.60523677296E+03  0.33128398612E+03 -0.11029989660E+04  0.13010255032E+04  0.10100000352E+00 0. -1.
</event>
<event>
 5   0  0.7348107E-06  0.2297331E+04  0.7818609E-02  0.8478974E-01
       -2   -1    0    0    0  501  0.00000000000E+00  0.00000000000E+00  0.92925427994E+03  0.92925427994E+03  0.25500000920E-02 0.  1.
        2   -1    0    0  501    0  0.00000000000E+00  0.00000000000E+00 -0.14198827789E+04  0.14198827789E+04  0.25500000920E-02 0. -1.
    10030    2    1    2    0    0  0.00000000000E+00  0.00000000000E+00 -0.49062849894E+03  0.23491370588E+04  0.22973307549E+04 0.  0.
        3    1    3    3  502    0  0.62091544179E+03  0.67079479919E+03  0.46602426338E+03  0.10260020822E+04  0.10100000352E+00 0.  1.
       -3    1    3    3    0  502 -0.62091544179E+03 -0.67079479919E+03 -0.95665276232E+03  0.13231349766E+04  0.10100000352E+00 0. -1.
</event>
<event>
 5   0  0.3338758E-06  0.2305317E+04  0.7818609E-02  0.8475827E-01
       -1   -1    0    0    0  501  0.00000000000E+00  0.00000000000E+00  0.13256972968E+04  0.13256972968E+04  0.50400001928E-02 0.  1.
        1   -1    0    0  501    0  0.00000000000E+00  0.00000000000E+00 -0.10022062580E+04  0.10022062580E+04  0.50400001928E-02 0. -1.
    10030    2    1    2    0    0  0.00000000000E+00  0.00000000000E+00  0.32349103882E+03  0.23279035549E+04  0.23053174420E+04 0.  0.
        5    1    3    3  502    0 -0.15347653103E+03 -0.49591122780E+03 -0.87747144160E+03  0.10195397061E+04  0.46999998093E+01 0. -1.
       -5    1    3    3    0  502  0.15347653103E+03  0.49591122780E+03  0.12009624804E+04  0.13083638488E+04  0.46999998093E+01 0.  1.
</event>
<event>
 5   0  0.3226427E-06  0.2288061E+04  0.7818609E-02  0.8482643E-01
       -1   -1    0    0    0  501  0.00000000000E+00  0.00000000000E+00  0.16975566651E+04  0.16975566651E+04  0.50400001928E-02 0.  1.
        1   -1    0    0  501    0  0.00000000000E+00  0.00000000000E+00 -0.77099417764E+03  0.77099417766E+03  0.50400001928E-02 0. -1.
    10030    2    1    2    0    0  0.00000000000E+00  0.00000000000E+00  0.92656248745E+03  0.24685508428E+04  0.22880614546E+04 0.  0.
        4    1    3    3  502    0 -0.37627635181E+03  0.68729745077E+03  0.13626084651E+04  0.15718349534E+04  0.12699999809E+01 0.  1.
       -4    1    3    3    0  502  0.37627635181E+03 -0.68729745077E+03 -0.43604597760E+03  0.89671588937E+03  0.12699999809E+01 0. -1.
</event>
<event>
 5   0  0.7044981E-06  0.2304719E+04  0.7818609E-02  0.8476063E-01
       -2   -1    0    0    0  501  0.00000000000E+00  0.00000000000E+00  0.78649788720E+03  0.78649788721E+03  0.25500000920E-02 0.  1.
        2   -1    0    0  501    0  0.00000000000E+00  0.00000000000E+00 -0.16884113964E+04  0.16884113964E+04  0.25500000920E-02 0. -1.
    10030    2    1    2    0    0  0.00000000000E+00  0.00000000000E+00 -0.90191350916E+03  0.24749092836E+04  0.23047186344E+04 0.  0.
        4    1    3    3  502    0  0.68212802720E+02 -0.11036861490E+04 -0.10273584064E+03  0.11105549818E+04  0.12699999809E+01 0.  1.
       -4    1    3    3    0  502 -0.68212802720E+02  0.11036861490E+04 -0.79917766852E+03  0.13643543017E+04  0.12699999809E+01 0. -1.
</event>
<event>
 5   0  0.7242214E-06  0.2301216E+04  0.7818609E-02  0.8477442E-01
       -2   -1    0    0    0  501  0.00000000000E+00  0.00000000000E+00  0.63060135330E+03  0.63060135330E+03  0.25500000920E-02 0.  1.
        2   -1    0    0  501    0  0.00000000000E+00  0.00000000000E+00 -0.20994219672E+04  0.20994219672E+04  0.25500000920E-02 0. -1.
    10030    2    1    2    0    0  0.00000000000E+00  0.00000000000E+00 -0.14688206139E+04  0.27300233205E+04  0.23012156211E+04 0.  0.
        1    1    3    3  502    0  0.63360228347E+03 -0.77009906185E+03 -0.53536183044E+02  0.99868440541E+03  0.50400001928E-02 0.  1.
       -1    1    3    3    0  502 -0.63360228347E+03  0.77009906185E+03 -0.14152844309E+04  0.17313389151E+04  0.50400001928E-02 0. -1.
</event>
<event>
 5   0  0.3195296E-06  0.2300219E+04  0.7818609E-02  0.8477835E-01
       -1   -1    0    0    0  501  0.00000000000E+00  0.00000000000E+00  0.10689611618E+04  0.10689611618E+04  0.50400001928E-02 0.  1.
        1   -1    0    0  501    0  0.00000000000E+00  0.00000000000E+00 -0.12374180237E+04  0.12374180237E+04  0.50400001928E-02 0. -1.
    10030    2    1    2    0    0  0.00000000000E+00  0.00000000000E+00 -0.16845686193E+03  0.23063791855E+04  0.23002189533E+04 0.  0.
        2    1    3    3  502    0 -0.31045167914E+03  0.11071934048E+04 -0.61935409800E+02  0.11515613209E+04  0.25500000920E-02 0. -1.
       -2    1    3    3    0  502  0.31045167914E+03 -0.11071934048E+04 -0.10652145213E+03  0.11548178646E+04  0.25500000920E-02 0.  1.
</event>
<event>
 5   0  0.7003852E-06  0.2302135E+04  0.7818609E-02  0.8477080E-01
        2   -1    0    0  501    0  0.00000000000E+00  0.00000000000E+00  0.13378992711E+04  0.13378992711E+04  0.25500000920E-02 0.  1.
       -2   -1    0    0    0  501  0.00000000000E+00  0.00000000000E+00 -0.99032598479E+03  0.99032598479E+03  0.25500000920E-02 0. -1.
    10030    2    1    2    0    0  0.00000000000E+00  0.00000000000E+00  0.34757328631E+03  0.23282252559E+04  0.23021350205E+04 0.  0.
        2    1    3    3  502    0  0.67452307239E+03 -0.41371612354E+03  0.10192114857E+04  0.12903233930E+04  0.25500000920E-02 0.  1.
       -2    1    3    3    0  502 -0.67452307239E+03  0.41371612354E+03 -0.67163819937E+03  0.10379018629E+04  0.25500000920E-02 0. -1.
</event>
<event>
 5   0  0.7242214E-06  0.2306496E+04  0.7818609E-02  0.8475364E-01
        2   -1    0    0  501    0  0.00000000000E+00  0.00000000000E+00  0.10207921715E+04  0.10207921716E+04  0.25500000920E-02 0. -1.
       -2   -1    0    0    0  501  0.00000000000E+00  0.00000000000E+00 -0.13028906706E+04  0.13028906706E+04  0.25500000920E-02 0.  1.
    10030    2    1    2    0    0  0.00000000000E+00  0.00000000000E+00 -0.28209849908E+03  0.23236828422E+04  0.23064956943E+04 0.  0.
        1    1    3    3  502    0  0.49656308182E+03 -0.99927393114E+03  0.15242421665E+03  0.11262133126E+04  0.50400001928E-02 0. -1.
       -1    1    3    3    0  502 -0.49656308182E+03  0.99927393114E+03 -0.43452271573E+03  0.11974695296E+04  0.50400001928E-02 0.  1.
</event>
<event>
 5   0  0.7348107E-06  0.2303547E+04  0.7818609E-02  0.8476524E-01
        2   -1    0    0  501    0  0.00000000000E+00  0.00000000000E+00  0.15254973324E+04  0.15254973324E+04  0.25500000920E-02 0. -1.
       -2   -1    0    0    0  501  0.00000000000E+00  0.00000000000E+00 -0.86960636067E+03  0.86960636067E+03  0.25500000920E-02 0.  1.
    10030    2    1    2    0    0  0.00000000000E+00  0.00000000000E+00  0.65589097173E+03  0.23951036931E+04  0.23035469897E+04 0.  0.
        3    1    3    3  502    0 -0.20799374734E+03 -0.77902306699E+03  0.11830970930E+04  0.14317321955E+04  0.10100000352E+00 0. -1.
       -3    1    3    3    0  502  0.20799374734E+03  0.77902306699E+03 -0.52720612130E+03  0.96337149759E+03  0.10100000352E+00 0.  1.
</event>
<event>
 5   0  0.7003852E-06  0.2300432E+04  0.7818609E-02  0.8477751E-01
       -2   -1    0    0    0  501  0.00000000000E+00  0.00000000000E+00  0.13417407311E+04  0.13417407311E+04  0.25500000920E-02 0. -1.
        2   -1    0    0  501    0  0.00000000000E+00  0.00000000000E+00 -0.98603032721E+03  0.98603032721E+03  0.25500000920E-02 0.  1.
    10030    2    1    2    0    0  0.00000000000E+00  0.00000000000E+00  0.35571040393E+03  0.23277710584E+04  0.23004321787E+04 0.  0.
        2    1    3    3  502    0  0.21154706572E+03 -0.10349656123E+04 -0.28262558962E+03  0.10935187258E+04  0.25500000920E-02 0.  1.
       -2    1    3    3    0  502 -0.21154706572E+03  0.10349656123E+04  0.63833599355E+03  0.12342523326E+04  0.25500000920E-02 0. -1.
</event>
<event>
 5   0  0.3338758E-06  0.2302635E+04  0.7818609E-02  0.8476883E-01
       -1   -1    0    0    0  501  0.00000000000E+00  0.00000000000E+00  0.61136523607E+03  0.61136523609E+03  0.50400001928E-02 0. -1.
        1   -1    0    0  501    0  0.00000000000E+00  0.00000000000E+00 -0.21681510744E+04  0.21681510744E+04  0.50400001928E-02 0.  1.
    10030    2    1    2    0    0  0.00000000000E+00  0.00000000000E+00 -0.15567858384E+04  0.27795163105E+04  0.23026351804E+04 0.  0.
        5    1    3    3  502    0  0.10664964442E+04  0.35062186933E+03 -0.10865227683E+04  0.15623393284E+04  0.46999998093E+01 0. -1.
       -5    1    3    3    0  502 -0.10664964442E+04 -0.35062186933E+03 -0.47026307001E+03  0.12171769821E+04  0.46999998093E+01 0.  1.
</event>
<event>
 5   0  0.7044981E-06  0.2300972E+04  0.7818609E-02  0.8477538E-01
       -2   -1    0    0    0  501  0.00000000000E+00  0.00000000000E+00  0.14873684166E+04  0.14873684166E+04  0.25500000920E-02 0. -1.
        2   -1    0    0  501    0  0.00000000000E+00  0.00000000000E+00 -0.88990611076E+03  0.88990611076E+03  0.25500000920E-02 0.  1.
    10030    2    1    2    0    0  0.00000000000E+00  0.00000000000E+00  0.59746230588E+03  0.23772745274E+04  0.23009721797E+04 0.  0.
        4    1    3    3  502    0  0.14873337323E+03  0.57396866234E+03 -0.71989163049E+03  0.93263455556E+03  0.12699999809E+01 0.  1.
       -4    1    3    3    0  502 -0.14873337323E+03 -0.57396866234E+03  0.13173539364E+04  0.14446399718E+04  0.12699999809E+01 0. -1.
</event>
<event>
 5   0  0.3238713E-06  0.2312584E+04  0.7818609E-02  0.8472976E-01
       -1   -1    0    0    0  501  0.00000000000E+00  0.00000000000E+00  0.51866465857E+03  0.51866465860E+03  0.50400001928E-02 0. -1.
        1   -1    0    0  501    0  0.00000000000E+00  0.00000000000E+00 -0.25777951621E+04  0.25777951621E+04  0.50400001928E-02 0.  1.
    10030    2    1    2    0    0  0.00000000000E+00  0.00000000000E+00 -0.20591305035E+04  0.30964598207E+04  0.23125840505E+04 0.  0.
        3    1    3    3  502    0 -0.95224118260E+03  0.18906177018E+03 -0.18857024673E+03  0.98897238128E+03  0.10100000352E+00 0. -1.
       -3    1    3    3    0  502  0.95224118260E+03 -0.18906177018E+03 -0.18705602568E+04  0.21074874394E+04  0.10100000352E+00 0.  1.
</event>
<event>
 5   0  0.3184492E-06  0.2301209E+04  0.7818609E-02  0.8477444E-01
       -1   -1    0    0    0  501  0.00000000000E+00  0.00000000000E+00  0.88011947865E+03  0.88011947866E+03  0.50400001928E-02 0. -1.
        1   -1    0    0  501    0  0.00000000000E+00  0.00000000000E+00 -0.15042174871E+04  0.15042174871E+04  0.50400001928E-02 0.  1.
    10030    2    1    2    0    0  0.00000000000E+00  0.00000000000E+00 -0.62409800844E+03  0.23843369658E+04  0.23012093434E+04 0.  0.
        1    1    3    3  502    0  0.65826418203E+02  0.49182219076E+03 -0.13876573998E+04  0.14737079914E+04  0.50400001928E-02 0.  1.
       -1    1    3    3    0  502 -0.65826418203E+02 -0.49182219076E+03  0.76355939140E+03  0.91062897433E+03  0.50400001928E-02 0. -1.
</event>
<event>
 5   0  0.7348107E-06  0.2296415E+04  0.7818609E-02  0.8479336E-01
        2   -1    0    0  501    0  0.00000000000E+00  0.00000000000E+00  0.17729614041E+04  0.17729614041E+04  0.25500000920E-02 0.  1.
       -2   -1    0    0    0  501  0.00000000000E+00  0.00000000000E+00 -0.74360334434E+03  0.74360334434E+03  0.25500000920E-02 0. -1.
    10030    2    1    2    0    0  0.00000000000E+00  0.00000000000E+00  0.10293580597E+04  0.25165647484E+04  0.22964146224E+04 0.  0.
        3    1    3    3  502    0 -0.11388827330E+04  0.14008373078E+03  0.55989848844E+03  0.12767786256E+04  0.10100000352E+00 0. -1.
       -3    1    3    3    0  502  0.11388827330E+04 -0.14008373078E+03  0.46945957127E+03  0.12397861228E+04  0.10100000352E+00 0.  1.
</event>
<event>
 5   0  0.2519625E-06  0.2308524E+04  0.7818609E-02  0.8474568E-01
        3   -1    0    0  501    0  0.00000000000E+00  0.00000000000E+00  0.12602208724E+04  0.12602208764E+04  0.10100000352E+00 0.  1.
       -3   -1    0    0    0  501  0.00000000000E+00  0.00000000000E+00 -0.10572125403E+04  0.10572125451E+04  0.10100000352E+00 0. -1.
    10030    2    1    2    0    0  0.00000000000E+00  0.00000000000E+00  0.20300833210E+03  0.23174334215E+04  0.23085244812E+04 0.  0.
        5    1    3    3  502    0 -0.18568445924E+03  0.11117265171E+04 -0.14822214170E+03  0.11368405607E+04  0.46999998093E+01 0. -1.
       -5    1    3    3    0  502  0.18568445924E+03 -0.11117265171E+04  0.35123047379E+03  0.11805928608E+04  0.46999998093E+01 0.  1.
</event>
<event>
 5   0  0.3238713E-06  0.2297802E+04  0.7818609E-02  0.8478788E-01
       -1   -1    0    0    0  501  0.00000000000E+00  0.00000000000E+00  0.63649061109E+03  0.63649061111E+03  0.50400001928E-02 0. -1.
        1   -1    0    0  501    0  0.00000000000E+00  0.00000000000E+00 -0.20738298956E+04  0.20738298956E+04  0.50400001928E-02 0.  1.
    10030    2    1    2    0    0  0.00000000000E+00  0.00000000000E+00 -0.14373392845E+04  0.27103205067E+04  0.22978017822E+04 0.  0.
        3    1    3    3  502    0 -0.42086307966E+03  0.55632377023E+03  0.35809842629E+03  0.78412777164E+03  0.10100000352E+00 0. -1.
       -3    1    3    3    0  502  0.42086307966E+03 -0.55632377023E+03 -0.17954377108E+04  0.19261927351E+04  0.10100000352E+00 0.  1.
</event>
<event>
 5   0  0.3226427E-06  0.2293412E+04  0.7818609E-02  0.8480523E-01
       -1   -1    0    0    0  501  0.00000000000E+00  0.00000000000E+00  0.10996765667E+04  0.10996765667E+04  0.50400001928E-02 0.  1.
        1   -1    0    0  501    0  0.00000000000E+00  0.00000000000E+00 -0.11957466005E+04  0.11957466005E+04  0.50400001928E-02 0. -1.
    10030    2    1    2    0    0  0.00000000000E+00  0.00000000000E+00 -0.96070033791E+02  0.22954231672E+04  0.22934118830E+04 0.  0.
        4    1    3    3  502    0 -0.70646806180E+03  0.85822474245E+03  0.23378974889E+03  0.11359164100E+04  0.12699999809E+01 0.  1.
       -4    1    3    3    0  502  0.70646806180E+03 -0.85822474245E+03 -0.32985978268E+03  0.11595067572E+04  0.12699999809E+01 0. -1.
</event>
<event>
 5   0  0.3338758E-06  0.2299506E+04  0.7818609E-02  0.8478116E-01
       -1   -1    0    0    0  501  0.00000000000E+00  0.00000000000E+00  0.94437619264E+03  0.94437619265E+03  0.50400001928E-02 0. -1.
        1   -1    0    0  501    0  0.00000000000E+00  0.00000000000E+00 -0.13997933802E+04  0.13997933802E+04  0.50400001928E-02 0.  1.
    10030    2    1    2    0    0  0.00000000000E+00  0.00000000000E+00 -0.45541718760E+03  0.23441695729E+04  0.22995056364E+04 0.  0.
        5    1    3    3  502    0 -0.55370498923E+03 -0.80240866624E+02  0.79623175219E+03  0.97315718410E+03  0.46999998093E+01 0. -1.
       -5    1    3    3    0  502  0.55370498923E+03  0.80240866624E+02 -0.12516489398E+04  0.13710123888E+04  0.46999998093E+01 0.  1.
</event>
<event>
 5   0  0.3226427E-06  0.2299372E+04  0.7818609E-02  0.8478169E-01
        1   -1    0    0  501    0  0.00000000000E+00  0.00000000000E+00  0.27147606409E+04  0.27147606409E+04  0.50400001928E-02 0.  1.
       -1   -1    0    0    0  501  0.00000000000E+00  0.00000000000E+00 -0.48688581112E+03  0.48688581115E+03  0.50400001928E-02 0. -1.
    10030    2    1    2    0    0  0.00000000000E+00  0.00000000000E+00  0.22278748297E+04  0.32016464520E+04  0.22993724680E+04 0.  0.
        4    1    3    3  502    0  0.28139843707E+03 -0.62292098213E+03  0.24011065847E+04  0.24965035699E+04  0.12699999809E+01 0.  1.
       -4    1    3    3    0  502 -0.28139843707E+03  0.62292098213E+03 -0.17323175499E+03  0.70514288212E+03  0.12699999809E+01 0. -1.
</event>
<event>
 5   0  0.7242214E-06  0.2300218E+04  0.7818609E-02  0.8477835E-01
       -2   -1    0    0    0  501  0.00000000000E+00  0.00000000000E+00  0.11860944172E+04  0.11860944172E+04  0.25500000920E-02 0.  1.
        2   -1    0    0  501    0  0.00000000000E+00  0.00000000000E+00 -0.11152150129E+04  0.11152150129E+04  0.25500000920E-02 0. -1.
    10030    2    1    2    0    0  0.00000000000E+00  0.00000000000E+00  0.70879404303E+02  0.23013094302E+04  0.23002176426E+04 0.  0.
        1    1    3    3  502    0  0.61383507292E+03  0.72139217421E+02 -0.93494475625E+03  0.11207672643E+04  0.50400001928E-02 0. -1.
       -1    1    3    3    0  502 -0.61383507292E+03 -0.72139217421E+02  0.10058241606E+04  0.11805421659E+04  0.50400001928E-02 0.  1.
</event>
<event>
 5   0  0.3184492E-06  0.2304535E+04  0.7818609E-02  0.8476135E-01
       -1   -1    0    0    0  501  0.00000000000E+00  0.00000000000E+00  0.13437578496E+04  0.13437578496E+04  0.50400001928E-02 0.  1.
        1   -1    0    0  501    0  0.00000000000E+00  0.00000000000E+00 -0.98806511204E+03  0.98806511205E+03  0.50400001928E-02 0. -1.
    10030    2    1    2    0    0  0.00000000000E+00  0.00000000000E+00  0.35569273755E+03  0.23318229616E+04  0.23045348774E+04 0.  0.
        1    1    3    3  502    0  0.11329287449E+04  0.19582295908E+03  0.10048135845E+03  0.11541103395E+04  0.50400001928E-02 0.  1.
       -1    1    3    3    0  502 -0.11329287449E+04 -0.19582295908E+03  0.25521137910E+03  0.11777126221E+04  0.50400001928E-02 0. -1.
</event>
<event>
 5   0  0.7348107E-06  0.2300265E+04  0.7818609E-02  0.8477817E-01
        2   -1    0    0  501    0  0.00000000000E+00  0.00000000000E+00  0.16091795678E+04  0.16091795678E+04  0.25500000920E-02 0. -1.
       -2   -1    0    0    0  501  0.00000000000E+00  0.00000000000E+00 -0.82203659726E+03  0.82203659726E+03  0.25500000920E-02 0.  1.
    10030    2    1    2    0    0  0.00000000000E+00  0.00000000000E+00  0.78714297054E+03  0.24312161651E+04  0.23002647641E+04 0.  0.
        3    1    3    3  502    0  0.35551465210E+02  0.63597792201E+03  0.14057278758E+04  0.15433090082E+04  0.10100000352E+00 0. -1.
       -3    1    3    3    0  502 -0.35551465210E+02 -0.63597792201E+03 -0.61858490523E+03  0.88790715683E+03  0.10100000352E+00 0.  1.
</event>
<event>
 5   0  0.7044981E-06  0.2302332E+04  0.7818609E-02  0.8477002E-01
       -2   -1    0    0    0  501  0.00000000000E+00  0.00000000000E+00  0.66447969027E+03  0.66447969028E+03  0.25500000920E-02 0.  1.
        2   -1    0    0  501    0  0.00000000000E+00  0.00000000000E+00 -0.19943178687E+04  0.19943178687E+04  0.25500000920E-02 0. -1.
    10030    2    1    2    0    0  0.00000000000E+00  0.00000000000E+00 -0.13298381784E+04  0.26587975590E+04  0.23023324866E+04 0.  0.
        4    1    3    3  502    0 -0.10067354156E+03  0.65198767112E+03  0.42451819635E+03  0.78450009382E+03  0.12699999809E+01 0.  1.
       -4    1    3    3    0  502  0.10067354156E+03 -0.65198767112E+03 -0.17543563748E+04  0.18742974652E+04  0.12699999809E+01 0. -1.
</event>
<event>
 5   0  0.3226427E-06  0.2296027E+04  0.7818609E-02  0.8479489E-01
        1   -1    0    0  501    0  0.00000000000E+00  0.00000000000E+00  0.81764144778E+03  0.81764144779E+03  0.50400001928E-02 0.  1.
       -1   -1    0    0    0  501  0.00000000000E+00  0.00000000000E+00 -0.16118739458E+04  0.16118739458E+04  0.50400001928E-02 0. -1.
    10030    2    1    2    0    0  0.00000000000E+00  0.00000000000E+00 -0.79423249803E+03  0.24295153936E+04  0.22960269569E+04 0.  0.
        4    1    3    3  502    0 -0.13956453838E+03  0.46355009794E+03 -0.14985856511E+04  0.15748388871E+04  0.12699999809E+01 0. -1.
       -4    1    3    3    0  502  0.13956453838E+03 -0.46355009794E+03  0.70435315307E+03  0.85467650653E+03  0.12699999809E+01 0.  1.
</event>
<event>
 5   0  0.3184492E-06  0.2293195E+04  0.7818609E-02  0.8480609E-01
       -1   -1    0    0    0  501  0.00000000000E+00  0.00000000000E+00  0.53201139171E+03  0.53201139173E+03  0.50400001928E-02 0.  1.
        1   -1    0    0  501    0  0.00000000000E+00  0.00000000000E+00 -0.24711618382E+04  0.24711618382E+04  0.50400001928E-02 0. -1.
    10030    2    1    2    0    0  0.00000000000E+00  0.00000000000E+00 -0.19391504465E+04  0.30031732299E+04  0.22931953678E+04 0.  0.
        1    1    3    3  502    0  0.88757908613E+03 -0.28933573369E+03 -0.97755511202E+02  0.93865219380E+03  0.50400001928E-02 0.  1.
       -1    1    3    3    0  502 -0.88757908613E+03  0.28933573369E+03 -0.18413949353E+04  0.20645210361E+04  0.50400001928E-02 0. -1.
</event>
<event>
 5   0  0.7003852E-06  0.2304593E+04  0.7818609E-02  0.8476112E-01
       -2   -1    0    0    0  501  0.00000000000E+00  0.00000000000E+00  0.18824921704E+04  0.18824921704E+04  0.25500000920E-02 0.  1.
        2   -1    0    0  501    0  0.00000000000E+00  0.00000000000E+00 -0.70533474544E+03  0.70533474544E+03  0.25500000920E-02 0. -1.
    10030    2    1    2    0    0  0.00000000000E+00  0.00000000000E+00  0.11771574250E+04  0.25878269159E+04  0.23045929236E+04 0.  0.
        2    1    3    3  502    0 -0.43885063622E+03  0.96880496863E+03  0.90671487480E+02  0.10674241270E+04  0.25500000920E-02 0. -1.
       -2    1    3    3    0  502  0.43885063622E+03 -0.96880496863E+03  0.10864859375E+04  0.15204027889E+04  0.25500000920E-02 0.  1.
</event>
<event>
 5   0  0.7348107E-06  0.2352169E+04  0.7818609E-02  0.8457631E-01
        2   -1    0    0  501    0  0.00000000000E+00  0.00000000000E+00  0.14928564169E+04  0.14928564169E+04  0.25500000920E-02 0.  1.
       -2   -1    0    0    0  501  0.00000000000E+00  0.00000000000E+00 -0.92652927263E+03  0.92652927263E+03  0.25500000920E-02 0. -1.
    10030    2    1    2    0    0  0.00000000000E+00  0.00000000000E+00  0.56632714427E+03  0.24193856895E+04  0.23521693562E+04 0.  0.
        3    1    3    3  502    0 -0.25924676815E+03 -0.69072815855E+02  0.14609599064E+04  0.14853901168E+04  0.10100000352E+00 0.  1.
       -3    1    3    3    0  502  0.25924676815E+03  0.69072815855E+02 -0.89463276212E+03  0.93399557277E+03  0.10100000352E+00 0. -1.
</event>
<event>
 5   0  0.3226427E-06  0.2343204E+04  0.7818609E-02  0.8461079E-01
       -1   -1    0    0    0  501  0.00000000000E+00  0.00000000000E+00  0.89557567647E+03  0.89557567649E+03  0.50400001928E-02 0.  1.
        1   -1    0    0  501    0  0.00000000000E+00  0.00000000000E+00 -0.15327026537E+04  0.15327026537E+04  0.50400001928E-02 0. -1.
    10030    2    1    2    0    0  0.00000000000E+00  0.00000000000E+00 -0.63712697721E+03  0.24282783302E+04  0.23432039740E+04 0.  0.
        4    1    3    3  502    0  0.43901278616E+03  0.35604457019E+03  0.74492651237E+03  0.93510271313E+03  0.12699999809E+01 0.  1.
       -4    1    3    3    0  502 -0.43901278616E+03 -0.35604457019E+03 -0.13820534896E+04  0.14931756170E+04  0.12699999809E+01 0. -1.
</event>
<event>
 5   0  0.3195296E-06  0.2301033E+04  0.7818609E-02  0.8477514E-01
       -1   -1    0    0    0  501  0.00000000000E+00  0.00000000000E+00  0.64656339784E+03  0.64656339786E+03  0.50400001928E-02 0. -1.
        1   -1    0    0  501    0  0.00000000000E+00  0.00000000000E+00 -0.20472673403E+04  0.20472673404E+04  0.50400001928E-02 0.  1.
    10030    2    1    2    0    0  0.00000000000E+00  0.00000000000E+00 -0.14007039425E+04  0.26938307382E+04  0.23010329228E+04 0.  0.
        2    1    3    3  502    0  0.12752338423E+03 -0.29499851427E+03  0.59294687398E+03  0.67444223794E+03  0.25500000920E-02 0. -1.
       -2    1    3    3    0  502 -0.12752338423E+03  0.29499851427E+03 -0.19936508165E+04  0.20193885003E+04  0.25500000920E-02 0.  1.
</event>
<event>
 5   0  0.3184492E-06  0.2312380E+04  0.7818609E-02  0.8473056E-01
       -1   -1    0    0    0  501  0.00000000000E+00  0.00000000000E+00  0.52167272373E+03  0.52167272376E+03  0.50400001928E-02 0. -1.
        1   -1    0    0  501    0  0.00000000000E+00  0.00000000000E+00 -0.25624799000E+04  0.25624799000E+04  0.50400001928E-02 0.  1.
    10030    2    1    2    0    0  0.00000000000E+00  0.00000000000E+00 -0.20408071763E+04  0.30841526238E+04  0.23123804782E+04 0.  0.
        1    1    3    3  502    0 -0.50371638261E+03  0.20062072292E+03 -0.23824015383E+04  0.24433206827E+04  0.50400001928E-02 0.  1.
       -1    1    3    3    0  502  0.50371638261E+03 -0.20062072292E+03  0.34159436202E+03  0.64083194112E+03  0.50400001928E-02 0. -1.
</event>
<event>
 5   0  0.7003852E-06  0.2303731E+04  0.7818609E-02  0.8476451E-01
       -2   -1    0    0    0  501  0.00000000000E+00  0.00000000000E+00  0.14366749936E+04  0.14366749936E+04  0.25500000920E-02 0.  1.
        2   -1    0    0  501    0  0.00000000000E+00  0.00000000000E+00 -0.92351735454E+03  0.92351735454E+03  0.25500000920E-02 0. -1.
    10030    2    1    2    0    0  0.00000000000E+00  0.00000000000E+00  0.51315763908E+03  0.23601923482E+04  0.23037311383E+04 0.  0.
        2    1    3    3  502    0  0.78410770175E+03 -0.17223936712E+03 -0.58968202403E+03  0.99610048539E+03  0.25500000920E-02 0. -1.
       -2    1    3    3    0  502 -0.78410770175E+03  0.17223936712E+03  0.11028396631E+04  0.13640918628E+04  0.25500000920E-02 0.  1.
</event>
<event>
 5   0  0.3338758E-06  0.2311215E+04  0.7818609E-02  0.8473512E-01
       -1   -1    0    0    0  501  0.00000000000E+00  0.00000000000E+00  0.12378502575E+04  0.12378502575E+04  0.50400001928E-02 0. -1.
        1   -1    0    0  501    0  0.00000000000E+00  0.00000000000E+00 -0.10788291624E+04  0.10788291624E+04  0.50400001928E-02 0.  1.
    10030    2    1    2    0    0  0.00000000000E+00  0.00000000000E+00  0.15902109509E+03  0.23166794198E+04  0.23112152270E+04 0.  0.
        5    1    3    3  502    0 -0.69880840325E+03 -0.15323291331E+03  0.98917655833E+03  0.12207808418E+04  0.46999998093E+01 0. -1.
       -5    1    3    3    0  502  0.69880840325E+03  0.15323291331E+03 -0.83015546325E+03  0.10958985780E+04  0.46999998093E+01 0.  1.
</event>
<event>
 5   0  0.3238713E-06  0.2307325E+04  0.7818609E-02  0.8475039E-01
       -1   -1    0    0    0  501  0.00000000000E+00  0.00000000000E+00  0.64387486411E+03  0.64387486413E+03  0.50400001928E-02 0. -1.
        1   -1    0    0  501    0  0.00000000000E+00  0.00000000000E+00 -0.20670736421E+04  0.20670736421E+04  0.50400001928E-02 0.  1.
    10030    2    1    2    0    0  0.00000000000E+00  0.00000000000E+00 -0.14231987780E+04  0.27109485062E+04  0.23073246503E+04 0.  0.
        3    1    3    3  502    0  0.76702943871E+03 -0.36729081484E+03 -0.16275186621E+04  0.18363152529E+04  0.10100000352E+00 0.  1.
       -3    1    3    3    0  502 -0.76702943871E+03  0.36729081484E+03  0.20431988411E+03  0.87463325329E+03  0.10100000352E+00 0. -1.
</event>
<event>
 5   0  0.7348107E-06  0.2305595E+04  0.7818609E-02  0.8475718E-01
       -2   -1    0    0    0  501  0.00000000000E+00  0.00000000000E+00  0.82637567528E+03  0.82637567529E+03  0.25500000920E-02 0. -1.
        2   -1    0    0  501    0  0.00000000000E+00  0.00000000000E+00 -0.16081579370E+04  0.16081579370E+04  0.25500000920E-02 0.  1.
    10030    2    1    2    0    0  0.00000000000E+00  0.00000000000E+00 -0.78178226168E+03  0.24345336122E+04  0.23055954555E+04 0.  0.
        3    1    3    3  502    0  0.12827572120E+03  0.88252342422E+03  0.38046865223E+03  0.96956622284E+03  0.10100000352E+00 0. -1.
       -3    1    3    3    0  502 -0.12827572120E+03 -0.88252342422E+03 -0.11622509139E+04  0.14649673894E+04  0.10100000352E+00 0.  1.
</event>
<event>
 5   0  0.7348107E-06  0.2304023E+04  0.7818609E-02  0.8476337E-01
       -2   -1    0    0    0  501  0.00000000000E+00  0.00000000000E+00  0.81316396644E+03  0.81316396644E+03  0.25500000920E-02 0. -1.
        2   -1    0    0  501    0  0.00000000000E+00  0.00000000000E+00 -0.16320577431E+04  0.16320577431E+04  0.25500000920E-02 0.  1.
    10030    2    1    2    0    0  0.00000000000E+00  0.00000000000E+00 -0.81889377668E+03  0.24452217096E+04  0.23040230449E+04 0.  0.
        3    1    3    3  502    0  0.88822729005E+03  0.49870016435E+03  0.16156010884E+03  0.10313831740E+04  0.10100000352E+00 0.  1.
       -3    1    3    3    0  502 -0.88822729005E+03 -0.49870016435E+03 -0.98045388552E+03  0.14138385355E+04  0.10100000352E+00 0. -1.
</event>
<event>
 5   0  0.3184492E-06  0.2303240E+04  0.7818609E-02  0.8476645E-01
        1   -1    0    0  501    0  0.00000000000E+00  0.00000000000E+00  0.13318887686E+04  0.13318887686E+04  0.50400001928E-02 0. -1.
       -1   -1    0    0    0  501  0.00000000000E+00  0.00000000000E+00 -0.99575063951E+03  0.99575063953E+03  0.50400001928E-02 0.  1.
    10030    2    1    2    0    0  0.00000000000E+00  0.00000000000E+00  0.33613812908E+03  0.23276394081E+04  0.23032404070E+04 0.  0.
        1    1    3    3  502    0  0.86721593165E+03  0.71865413445E+03 -0.74687689506E+02  0.11287628130E+04  0.50400001928E-02 0.  1.
       -1    1    3    3    0  502 -0.86721593165E+03 -0.71865413445E+03  0.41082581859E+03  0.11988765951E+04  0.50400001928E-02 0. -1.
</event>
<event>
 5   0  0.7242214E-06  0.2301757E+04  0.7818609E-02  0.8477229E-01
       -2   -1    0    0    0  501  0.00000000000E+00  0.00000000000E+00  0.97337304301E+03  0.97337304301E+03  0.25500000920E-02 0.  1.
        2   -1    0    0  501    0  0.00000000000E+00  0.00000000000E+00 -0.13607545682E+04  0.13607545682E+04  0.25500000920E-02 0. -1.
    10030    2    1    2    0    0  0.00000000000E+00  0.00000000000E+00 -0.38738152519E+03  0.23341276112E+04  0.23017574284E+04 0.  0.
        1    1    3    3  502    0 -0.26819059943E+03 -0.75381003967E+03  0.64520744862E+03  0.10278367698E+04  0.50400001928E-02 0.  1.
       -1    1    3    3    0  502  0.26819059943E+03  0.75381003967E+03 -0.10325889738E+04  0.13062908414E+04  0.50400001928E-02 0. -1.
</event>
<event>
 5   0  0.3195296E-06  0.2305083E+04  0.7818609E-02  0.8475920E-01
       -1   -1    0    0    0  501  0.00000000000E+00  0.00000000000E+00  0.16389252782E+04  0.16389252782E+04  0.50400001928E-02 0. -1.
        1   -1    0    0  501    0  0.00000000000E+00  0.00000000000E+00 -0.81050206656E+03  0.81050206658E+03  0.50400001928E-02 0.  1.
    10030    2    1    2    0    0  0.00000000000E+00  0.00000000000E+00  0.82842321162E+03  0.24494273448E+04  0.23050833607E+04 0.  0.
        2    1    3    3  502    0  0.15056593203E+03 -0.38410502958E+03  0.15577730324E+04  0.16114786980E+04  0.25500000920E-02 0. -1.
       -2    1    3    3    0  502 -0.15056593203E+03  0.38410502958E+03 -0.72934982075E+03  0.83794864680E+03  0.25500000920E-02 0.  1.
</event>
<event>
 5   0  0.3184492E-06  0.2298097E+04  0.7818609E-02  0.8478672E-01
       -1   -1    0    0    0  501  0.00000000000E+00  0.00000000000E+00  0.17053628491E+04  0.17053628491E+04  0.50400001928E-02 0.  1.
        1   -1    0    0  501    0  0.00000000000E+00  0.00000000000E+00 -0.77421187835E+03  0.77421187837E+03  0.50400001928E-02 0. -1.
    10030    2    1    2    0    0  0.00000000000E+00  0.00000000000E+00  0.93115097076E+03  0.24795747275E+04  0.22980967558E+04 0.  0.
        1    1    3    3  502    0 -0.80419527866E+03 -0.79872849359E+03  0.26195339556E+03  0.11633214664E+04  0.50400001928E-02 0.  1.
       -1    1    3    3    0  502  0.80419527866E+03  0.79872849359E+03  0.66919757520E+03  0.13162532611E+04  0.50400001928E-02 0. -1.
</event>
<event>
 5   0  0.2519625E-06  0.2301670E+04  0.7818609E-02  0.8477263E-01
        4   -1    0    0  501    0  0.00000000000E+00  0.00000000000E+00  0.88547428721E+03  0.88547519797E+03  0.12699999809E+01 0.  1.
       -4   -1    0    0    0  501  0.00000000000E+00  0.00000000000E+00 -0.14957179372E+04  0.14957184764E+04  0.12699999809E+01 0. -1.
    10030    2    1    2    0    0  0.00000000000E+00  0.00000000000E+00 -0.61024364997E+03  0.23811936743E+04  0.23016702636E+04 0.  0.
        1    1    3    3  502    0  0.10219268799E+04 -0.41037888978E+03 -0.65084760937E+03  0.12791981831E+04  0.50400001928E-02 0. -1.
       -1    1    3    3    0  502 -0.10219268799E+04  0.41037888978E+03  0.40603959399E+02  0.11019954912E+04  0.50400001928E-02 0.  1.
</event>
<event>
 5   0  0.7242214E-06  0.2290541E+04  0.7818609E-02  0.8481660E-01
       -2   -1    0    0    0  501  0.00000000000E+00  0.00000000000E+00  0.10520746746E+04  0.10520746746E+04  0.25500000920E-02 0.  1.
        2   -1    0    0  501    0  0.00000000000E+00  0.00000000000E+00 -0.12467219656E+04  0.12467219656E+04  0.25500000920E-02 0. -1.
    10030    2    1    2    0    0  0.00000000000E+00  0.00000000000E+00 -0.19464729101E+03  0.22987966402E+04  0.22905410769E+04 0.  0.
        1    1    3    3  502    0 -0.63601970403E+03  0.66758964978E+03  0.58442403003E+03  0.10916723186E+04  0.50400001928E-02 0.  1.
       -1    1    3    3    0  502  0.63601970403E+03 -0.66758964978E+03 -0.77907132104E+03  0.12071243216E+04  0.50400001928E-02 0. -1.
</event>
<event>
 5   0  0.3226427E-06  0.2302149E+04  0.7818609E-02  0.8477074E-01
        1   -1    0    0  501    0  0.00000000000E+00  0.00000000000E+00  0.10320762074E+04  0.10320762074E+04  0.50400001928E-02 0.  1.
       -1   -1    0    0    0  501  0.00000000000E+00  0.00000000000E+00 -0.12837934053E+04  0.12837934053E+04  0.50400001928E-02 0. -1.
    10030    2    1    2    0    0  0.00000000000E+00  0.00000000000E+00 -0.25171719788E+03  0.23158696127E+04  0.23021491079E+04 0.  0.
        4    1    3    3  502    0 -0.65788516240E+03 -0.83261207818E+03 -0.57451586131E+03  0.12067003967E+04  0.12699999809E+01 0. -1.
       -4    1    3    3    0  502  0.65788516240E+03  0.83261207818E+03  0.32279866343E+03  0.11091692160E+04  0.12699999809E+01 0.  1.
</event>
<event>
 5   0  0.3195296E-06  0.2303620E+04  0.7818609E-02  0.8476495E-01
        1   -1    0    0  501    0  0.00000000000E+00  0.00000000000E+00  0.10700357672E+04  0.10700357672E+04  0.50400001928E-02 0. -1.
       -1   -1    0    0    0  501  0.00000000000E+00  0.00000000000E+00 -0.12398340298E+04  0.12398340298E+04  0.50400001928E-02 0.  1.
    10030    2    1    2    0    0  0.00000000000E+00  0.00000000000E+00 -0.16979826257E+03  0.23098697970E+04  0.23036204178E+04 0.  0.
        2    1    3    3  502    0  0.76859927842E+03  0.79588357995E+03 -0.40591015122E+03  0.11785323816E+04  0.25500000920E-02 0.  1.
       -2    1    3    3    0  502 -0.76859927842E+03 -0.79588357995E+03  0.23611188865E+03  0.11313374154E+04  0.25500000920E-02 0. -1.
</event>
<event>
 5   0  0.7003852E-06  0.2302598E+04  0.7818609E-02  0.8476898E-01
       -2   -1    0    0    0  501  0.00000000000E+00  0.00000000000E+00  0.63454270641E+03  0.63454270641E+03  0.25500000920E-02 0. -1.
        2   -1    0    0  501    0  0.00000000000E+00  0.00000000000E+00 -0.20888885436E+04  0.20888885436E+04  0.25500000920E-02 0.  1.
    10030    2    1    2    0    0  0.00000000000E+00  0.00000000000E+00 -0.14543458372E+04  0.27234312500E+04  0.23025976547E+04 0.  0.
        2    1    3    3  502    0  0.46938258134E+03 -0.80363563523E+03 -0.15287861917E+04  0.17897869878E+04  0.25500000920E-02 0. -1.
       -2    1    3    3    0  502 -0.46938258134E+03  0.80363563523E+03  0.74440354518E+02  0.93364426216E+03  0.25500000920E-02 0.  1.
</event>
<event>
 5   0  0.3238713E-06  0.2273738E+04  0.7818609E-02  0.8488349E-01
       -1   -1    0    0    0  501  0.00000000000E+00  0.00000000000E+00  0.74279628668E+03  0.74279628669E+03  0.50400001928E-02 0. -1.
        1   -1    0    0  501    0  0.00000000000E+00  0.00000000000E+00 -0.17400069104E+04  0.17400069104E+04  0.50400001928E-02 0.  1.
    10030    2    1    2    0    0  0.00000000000E+00  0.00000000000E+00 -0.99721062369E+03  0.24828031971E+04  0.22737376030E+04 0.  0.
        3    1    3    3  502    0 -0.13447669881E+03 -0.10828403366E+04 -0.84707786453E+03  0.13813645775E+04  0.10100000352E+00 0.  1.
       -3    1    3    3    0  502  0.13447669881E+03  0.10828403366E+04 -0.15013275916E+03  0.11014386196E+04  0.10100000352E+00 0. -1.
</event>
<event>
 5   0  0.7497344E-06  0.2286442E+04  0.7818609E-02  0.8483286E-01
        2   -1    0    0  501    0  0.00000000000E+00  0.00000000000E+00  0.19005832143E+04  0.19005832143E+04  0.25500000920E-02 0. -1.
       -2   -1    0    0    0  501  0.00000000000E+00  0.00000000000E+00 -0.68765979574E+03  0.68765979575E+03  0.25500000920E-02 0.  1.
    10030    2    1    2    0    0  0.00000000000E+00  0.00000000000E+00  0.12129234185E+04  0.25882430100E+04  0.22864423587E+04 0.  0.
        5    1    3    3  502    0  0.93278671870E+03 -0.66091822451E+03  0.60040655354E+03  0.12912838889E+04  0.46999998093E+01 0. -1.
       -5    1    3    3    0  502 -0.93278671870E+03  0.66091822451E+03  0.61251686497E+03  0.12969591212E+04  0.46999998093E+01 0.  1.
</event>
<event>
 5   0  0.3238713E-06  0.2299324E+04  0.7818609E-02  0.8478188E-01
       -1   -1    0    0    0  501  0.00000000000E+00  0.00000000000E+00  0.52858989435E+03  0.52858989437E+03  0.50400001928E-02 0. -1.
        1   -1    0    0  501    0  0.00000000000E+00  0.00000000000E+00 -0.25004684793E+04  0.25004684793E+04  0.50400001928E-02 0.  1.
    10030    2    1    2    0    0  0.00000000000E+00  0.00000000000E+00 -0.19718785849E+04  0.30290583736E+04  0.22993237000E+04 0.  0.
        3    1    3    3  502    0  0.20604570031E+01 -0.84381646212E+03 -0.20145777017E+04  0.21841597454E+04  0.10100000352E+00 0.  1.
       -3    1    3    3    0  502 -0.20604570031E+01  0.84381646212E+03  0.42699116743E+02  0.84489862824E+03  0.10100000352E+00 0. -1.
</event>
<event>
 5   0  0.7003852E-06  0.2312886E+04  0.7818609E-02  0.8472858E-01
       -2   -1    0    0    0  501  0.00000000000E+00  0.00000000000E+00  0.90987247388E+03  0.90987247388E+03  0.25500000920E-02 0. -1.
        2   -1    0    0  501    0  0.00000000000E+00  0.00000000000E+00 -0.14698331508E+04  0.14698331508E+04  0.25500000920E-02 0.  1.
    10030    2    1    2    0    0  0.00000000000E+00  0.00000000000E+00 -0.55996067696E+03  0.23797056247E+04  0.23128862706E+04 0.  0.
        2    1    3    3  502    0  0.10097515627E+04 -0.11959158196E+03 -0.84676742056E+03  0.13232216101E+04  0.25500000920E-02 0.  1.
       -2    1    3    3    0  502 -0.10097515627E+04  0.11959158196E+03  0.28680674360E+03  0.10564840146E+04  0.25500000920E-02 0. -1.
</event>
<event>
 5   0  0.7003852E-06  0.2302023E+04  0.7818609E-02  0.8477124E-01
       -2   -1    0    0    0  501  0.00000000000E+00  0.00000000000E+00  0.10029641777E+04  0.10029641777E+04  0.25500000920E-02 0.  1.
        2   -1    0    0  501    0  0.00000000000E+00  0.00000000000E+00 -0.13209123008E+04  0.13209123008E+04  0.25500000920E-02 0. -1.
    10030    2    1    2    0    0  0.00000000000E+00  0.00000000000E+00 -0.31794812302E+03  0.23238764785E+04  0.23020232141E+04 0.  0.
        2    1    3    3  502    0  0.32111594856E+03 -0.68439905303E+03  0.71719974624E+03  0.10420618946E+04  0.25500000920E-02 0. -1.
       -2    1    3    3    0  502 -0.32111594856E+03  0.68439905303E+03 -0.10351478693E+04  0.12818145839E+04  0.25500000920E-02 0.  1.
</event>
<event>
 5   0  0.3184492E-06  0.2302917E+04  0.7818609E-02  0.8476772E-01
       -1   -1    0    0    0  501  0.00000000000E+00  0.00000000000E+00  0.61675095270E+03  0.61675095273E+03  0.50400001928E-02 0.  1.
        1   -1    0    0  501    0  0.00000000000E+00  0.00000000000E+00 -0.21497443872E+04  0.21497443872E+04  0.50400001928E-02 0. -1.
    10030    2    1    2    0    0  0.00000000000E+00  0.00000000000E+00 -0.15329934345E+04  0.27664953399E+04  0.23029171925E+04 0.  0.
        1    1    3    3  502    0 -0.50878784491E+03  0.85373067662E+03 -0.14650461945E+04  0.17703337231E+04  0.50400001928E-02 0. -1.
       -1    1    3    3    0  502  0.50878784491E+03 -0.85373067662E+03 -0.67947240039E+02  0.99616161680E+03  0.50400001928E-02 0.  1.
</event>
<event>
 5   0  0.7348107E-06  0.2301342E+04  0.7818609E-02  0.8477392E-01
       -2   -1    0    0    0  501  0.00000000000E+00  0.00000000000E+00  0.13222360833E+04  0.13222360833E+04  0.25500000920E-02 0.  1.
        2   -1    0    0  501    0  0.00000000000E+00  0.00000000000E+00 -0.10013670935E+04  0.10013670935E+04  0.25500000920E-02 0. -1.
    10030    2    1    2    0    0  0.00000000000E+00  0.00000000000E+00  0.32086898974E+03  0.23236031768E+04  0.23013419595E+04 0.  0.
        3    1    3    3  502    0 -0.67972964034E+03 -0.85372932104E+03  0.52887189852E+03  0.12126795260E+04  0.10100000352E+00 0.  1.
       -3    1    3    3    0  502  0.67972964034E+03  0.85372932104E+03 -0.20800290878E+03  0.11109236508E+04  0.10100000352E+00 0. -1.
</event>
<event>
 5   0  0.7003852E-06  0.2299795E+04  0.7818609E-02  0.8478002E-01
       -2   -1    0    0    0  501  0.00000000000E+00  0.00000000000E+00  0.13829699337E+04  0.13829699337E+04  0.25500000920E-02 0. -1.
        2   -1    0    0  501    0  0.00000000000E+00  0.00000000000E+00 -0.95610463123E+03  0.95610463124E+03  0.25500000920E-02 0.  1.
    10030    2    1    2    0    0  0.00000000000E+00  0.00000000000E+00  0.42686530246E+03  0.23390745649E+04  0.22997947373E+04 0.  0.
        2    1    3    3  502    0  0.99309450822E+02  0.10152080295E+04  0.75330393438E+03  0.12680601436E+04  0.25500000920E-02 0. -1.
       -2    1    3    3    0  502 -0.99309450822E+02 -0.10152080295E+04 -0.32643863192E+03  0.10710144213E+04  0.25500000920E-02 0.  1.
</event>
<event>
 5   0  0.3238713E-06  0.2294499E+04  0.7818609E-02  0.8480093E-01
        1   -1    0    0  501    0  0.00000000000E+00  0.00000000000E+00  0.13174790316E+04  0.13174790316E+04  0.50400001928E-02 0.  1.
       -1   -1    0    0    0  501  0.00000000000E+00  0.00000000000E+00 -0.99901492679E+03  0.99901492680E+03  0.50400001928E-02 0. -1.
    10030    2    1    2    0    0  0.00000000000E+00  0.00000000000E+00  0.31846410484E+03  0.23164939584E+04  0.22944988284E+04 0.  0.
        3    1    3    3  502    0  0.94633224626E+03  0.32658113045E+03 -0.40647968655E+03  0.10804747572E+04  0.10100000352E+00 0. -1.
       -3    1    3    3    0  502 -0.94633224626E+03 -0.32658113045E+03  0.72494379139E+03  0.12360192013E+04  0.10100000352E+00 0.  1.
</event>
<event>
 5   0  0.3238713E-06  0.2318544E+04  0.7818609E-02  0.8470645E-01
       -1   -1    0    0    0  501  0.00000000000E+00  0.00000000000E+00  0.85623151191E+03  0.85623151193E+03  0.50400001928E-02 0. -1.
        1   -1    0    0  501    0  0.00000000000E+00  0.00000000000E+00 -0.15695651395E+04  0.15695651395E+04  0.50400001928E-02 0.  1.
    10030    2    1    2    0    0  0.00000000000E+00  0.00000000000E+00 -0.71333362755E+03  0.24257966514E+04  0.23185436226E+04 0.  0.
        3    1    3    3  502    0  0.94608541182E+03  0.48695932680E+03 -0.83806426423E+03  0.13544588268E+04  0.10100000352E+00 0.  1.
       -3    1    3    3    0  502 -0.94608541182E+03 -0.48695932680E+03  0.12473063667E+03  0.10713378246E+04  0.10100000352E+00 0. -1.
</event>
<event>
 5   0  0.3226427E-06  0.2298187E+04  0.7818609E-02  0.8478636E-01
        1   -1    0    0  501    0  0.00000000000E+00  0.00000000000E+00  0.69894966805E+03  0.69894966807E+03  0.50400001928E-02 0. -1.
       -1   -1    0    0    0  501  0.00000000000E+00  0.00000000000E+00 -0.18891432332E+04  0.18891432332E+04  0.50400001928E-02 0.  1.
    10030    2    1    2    0    0  0.00000000000E+00  0.00000000000E+00 -0.11901935651E+04  0.25880929012E+04  0.22981871427E+04 0.  0.
        4    1    3    3  502    0 -0.10054640689E+03  0.16665193112E+03  0.68025082527E+03  0.70754875752E+03  0.12699999809E+01 0. -1.
       -4    1    3    3    0  502  0.10054640689E+03 -0.16665193112E+03 -0.18704443904E+04  0.18805441437E+04  0.12699999809E+01 0.  1.
</event>
<event>
 5   0  0.7348107E-06  0.2302988E+04  0.7818609E-02  0.8476744E-01
       -2   -1    0    0    0  501  0.00000000000E+00  0.00000000000E+00  0.12433760921E+04  0.12433760921E+04  0.25500000920E-02 0.  1.
        2   -1    0    0  501    0  0.00000000000E+00  0.00000000000E+00 -0.10664015056E+04  0.10664015056E+04  0.25500000920E-02 0. -1.
    10030    2    1    2    0    0  0.00000000000E+00  0.00000000000E+00  0.17697458649E+03  0.23097775977E+04  0.23029877434E+04 0.  0.
        3    1    3    3  502    0  0.56609453116E+03 -0.80112558827E+03  0.69331824546E+03  0.12012307963E+04  0.10100000352E+00 0.  1.
       -3    1    3    3    0  502 -0.56609453116E+03  0.80112558827E+03 -0.51634365897E+03  0.11085468013E+04  0.10100000352E+00 0. -1.
</event>
<event>
 5   0  0.7003852E-06  0.2293058E+04  0.7818609E-02  0.8480663E-01
        2   -1    0    0  501    0  0.00000000000E+00  0.00000000000E+00  0.15819351642E+04  0.15819351642E+04  0.25500000920E-02 0.  1.
       -2   -1    0    0    0  501  0.00000000000E+00  0.00000000000E+00 -0.83096228162E+03  0.83096228163E+03  0.25500000920E-02 0. -1.
    10030    2    1    2    0    0  0.00000000000E+00  0.00000000000E+00  0.75097288259E+03  0.24128974458E+04  0.22930577432E+04 0.  0.
        2    1    3    3  502    0  0.19504290069E+03 -0.10758227791E+04  0.12353797757E+02  0.10934299253E+04  0.25500000920E-02 0. -1.
       -2    1    3    3    0  502 -0.19504290069E+03  0.10758227791E+04  0.73861908483E+03  0.13194675205E+04  0.25500000920E-02 0.  1.
</event>
<event>
 5   0  0.7044981E-06  0.2304162E+04  0.7818609E-02  0.8476282E-01
        2   -1    0    0  501    0  0.00000000000E+00  0.00000000000E+00  0.13898924983E+04  0.13898924983E+04  0.25500000920E-02 0.  1.
       -2   -1    0    0    0  501  0.00000000000E+00  0.00000000000E+00 -0.95495928511E+03  0.95495928511E+03  0.25500000920E-02 0. -1.
    10030    2    1    2    0    0  0.00000000000E+00  0.00000000000E+00  0.43493321319E+03  0.23448517834E+04  0.23041621007E+04 0.  0.
        4    1    3    3  502    0  0.14230123380E+03 -0.48023853857E+03  0.12732900914E+04  0.13682645814E+04  0.12699999809E+01 0.  1.
       -4    1    3    3    0  502 -0.14230123380E+03  0.48023853857E+03 -0.83835687816E+03  0.97658720201E+03  0.12699999809E+01 0. -1.
</event>
<event>
 5   0  0.3195296E-06  0.2302976E+04  0.7818609E-02  0.8476749E-01
        1   -1    0    0  501    0  0.00000000000E+00  0.00000000000E+00  0.20656729492E+04  0.20656729492E+04  0.50400001928E-02 0. -1.
       -1   -1    0    0    0  501  0.00000000000E+00  0.00000000000E+00 -0.64188501783E+03  0.64188501785E+03  0.50400001928E-02 0.  1.
    10030    2    1    2    0    0  0.00000000000E+00  0.00000000000E+00  0.14237879313E+04  0.27075579670E+04  0.23029759164E+04 0.  0.
        2    1    3    3  502    0 -0.67745002680E+02 -0.42943247891E+03  0.19654792057E+04  0.20129853818E+04  0.25500000920E-02 0. -1.
       -2    1    3    3    0  502  0.67745002680E+02  0.42943247891E+03 -0.54169127440E+03  0.69457258519E+03  0.25500000920E-02 0.  1.
</event>
<event>
 5   0  0.7242214E-06  0.2301564E+04  0.7818609E-02  0.8477305E-01
        2   -1    0    0  501    0  0.00000000000E+00  0.00000000000E+00  0.12876929590E+04  0.12876929590E+04  0.25500000920E-02 0.  1.
       -2   -1    0    0    0  501  0.00000000000E+00  0.00000000000E+00 -0.10284278186E+04  0.10284278187E+04  0.25500000920E-02 0. -1.
    10030    2    1    2    0    0  0.00000000000E+00  0.00000000000E+00  0.25926514032E+03  0.23161207776E+04  0.23015640429E+04 0.  0.
        1    1    3    3  502    0  0.88440886656E+03 -0.56755492842E+03 -0.34237729848E+03  0.11052238934E+04  0.50400001928E-02 0. -1.
       -1    1    3    3    0  502 -0.88440886656E+03  0.56755492842E+03  0.60164243880E+03  0.12108968842E+04  0.50400001928E-02 0.  1.
</event>
<event>
 5   0  0.7003852E-06  0.2298226E+04  0.7818609E-02  0.8478621E-01
       -2   -1    0    0    0  501  0.00000000000E+00  0.00000000000E+00  0.73741513504E+03  0.73741513504E+03  0.25500000920E-02 0.  1.
        2   -1    0    0  501    0  0.00000000000E+00  0.00000000000E+00 -0.17906615931E+04  0.17906615931E+04  0.25500000920E-02 0. -1.
    10030    2    1    2    0    0  0.00000000000E+00  0.00000000000E+00 -0.10532464580E+04  0.25280767281E+04  0.22982262382E+04 0.  0.
        2    1    3    3  502    0  0.19993639040E+03  0.81381263253E+03  0.33826573715E+03  0.90370862008E+03  0.25500000920E-02 0.  1.
       -2    1    3    3    0  502 -0.19993639040E+03 -0.81381263253E+03 -0.13915121952E+04  0.16243681080E+04  0.25500000920E-02 0. -1.
</event>
<event>
 5   0  0.3184492E-06  0.2297463E+04  0.7818609E-02  0.8478922E-01
       -1   -1    0    0    0  501  0.00000000000E+00  0.00000000000E+00  0.72849068632E+03  0.72849068633E+03  0.50400001928E-02 0. -1.
        1   -1    0    0  501    0  0.00000000000E+00  0.00000000000E+00 -0.18113947602E+04  0.18113947602E+04  0.50400001928E-02 0.  1.
    10030    2    1    2    0    0  0.00000000000E+00  0.00000000000E+00 -0.10829040739E+04  0.25398854465E+04  0.22974631332E+04 0.  0.
        1    1    3    3  502    0 -0.25820114359E+03 -0.10447648075E+04 -0.97338197020E+02  0.10805906062E+04  0.50400001928E-02 0. -1.
       -1    1    3    3    0  502  0.25820114359E+03  0.10447648075E+04 -0.98556587687E+03  0.14592948404E+04  0.50400001928E-02 0.  1.
</event>
<event>
 5   0  0.3238713E-06  0.2304734E+04  0.7818609E-02  0.8476057E-01
       -1   -1    0    0    0  501  0.00000000000E+00  0.00000000000E+00  0.10495215059E+04  0.10495215059E+04  0.50400001928E-02 0. -1.
        1   -1    0    0  501    0  0.00000000000E+00  0.00000000000E+00 -0.12652901181E+04  0.12652901181E+04  0.50400001928E-02 0.  1.
    10030    2    1    2    0    0  0.00000000000E+00  0.00000000000E+00 -0.21576861223E+03  0.23148116241E+04  0.23047335553E+04 0.  0.
        3    1    3    3  502    0 -0.29641789098E+03  0.11476119763E+03 -0.12203900269E+04  0.12611048832E+04  0.10100000352E+00 0.  1.
       -3    1    3    3    0  502  0.29641789098E+03 -0.11476119763E+03  0.10046214147E+04  0.10537067408E+04  0.10100000352E+00 0. -1.
</event>
<event>
 5   0  0.3226427E-06  0.2298877E+04  0.7818609E-02  0.8478364E-01
        1   -1    0    0  501    0  0.00000000000E+00  0.00000000000E+00  0.14304107762E+04  0.14304107762E+04  0.50400001928E-02 0.  1.
       -1   -1    0    0    0  501  0.00000000000E+00  0.00000000000E+00 -0.92365728628E+03  0.92365728630E+03  0.50400001928E-02 0. -1.
    10030    2    1    2    0    0  0.00000000000E+00  0.00000000000E+00  0.50675348992E+03  0.23540680625E+04  0.22988774094E+04 0.  0.
        4    1    3    3  502    0  0.29838187300E+03 -0.65703977055E+03  0.11695487421E+04  0.13742557532E+04  0.12699999809E+01 0.  1.
       -4    1    3    3    0  502 -0.29838187300E+03  0.65703977055E+03 -0.66279525218E+03  0.97981230929E+03  0.12699999809E+01 0. -1.
</event>
<event>
 5   0  0.3238713E-06  0.2299576E+04  0.7818609E-02  0.8478088E-01
        1   -1    0    0  501    0  0.00000000000E+00  0.00000000000E+00  0.13341335545E+04  0.13341335545E+04  0.50400001928E-02 0. -1.
       -1   -1    0    0    0  501  0.00000000000E+00  0.00000000000E+00 -0.99091490758E+03  0.99091490760E+03  0.50400001928E-02 0.  1.
    10030    2    1    2    0    0  0.00000000000E+00  0.00000000000E+00  0.34321864693E+03  0.23250484621E+04  0.22995763331E+04 0.  0.
        3    1    3    3  502    0 -0.39519435367E+03 -0.84289463221E+03  0.85388987457E+03  0.12632410167E+04  0.10100000352E+00 0. -1.
       -3    1    3    3    0  502  0.39519435367E+03  0.84289463221E+03 -0.51067122765E+03  0.10618074454E+04  0.10100000352E+00 0.  1.
</event>
<event>
 5   0  0.7348107E-06  0.2301115E+04  0.7818609E-02  0.8477481E-01
       -2   -1    0    0    0  501  0.00000000000E+00  0.00000000000E+00  0.90017885385E+03  0.90017885386E+03  0.25500000920E-02 0.  1.
        2   -1    0    0  501    0  0.00000000000E+00  0.00000000000E+00 -0.14705777794E+04  0.14705777794E+04  0.25500000920E-02 0. -1.
    10030    2    1    2    0    0  0.00000000000E+00  0.00000000000E+00 -0.57039892551E+03  0.23707566332E+04  0.23011153990E+04 0.  0.
        3    1    3    3  502    0 -0.45014005227E+03 -0.54346980327E+02  0.80425471824E+03  0.92325799370E+03  0.10100000352E+00 0.  1.
       -3    1    3    3    0  502  0.45014005227E+03  0.54346980327E+02 -0.13746536438E+04  0.14474986395E+04  0.10100000352E+00 0. -1.
</event>
<event>
 5   0  0.3195296E-06  0.2292878E+04  0.7818609E-02  0.8480734E-01
       -1   -1    0    0    0  501  0.00000000000E+00  0.00000000000E+00  0.75816236108E+03  0.75816236109E+03  0.50400001928E-02 0.  1.
        1   -1    0    0  501    0  0.00000000000E+00  0.00000000000E+00 -0.17335633565E+04  0.17335633565E+04  0.50400001928E-02 0. -1.
    10030    2    1    2    0    0  0.00000000000E+00  0.00000000000E+00 -0.97540099539E+03  0.24917257176E+04  0.22928780931E+04 0.  0.
        2    1    3    3  502    0  0.46251911563E+03  0.89581155144E+03 -0.10808569504E+04  0.14780575142E+04  0.25500000920E-02 0. -1.
       -2    1    3    3    0  502 -0.46251911563E+03 -0.89581155144E+03  0.10545595505E+03  0.10136682033E+04  0.25500000920E-02 0.  1.
</event>
<event>
 5   0  0.7242214E-06  0.2294498E+04  0.7818609E-02  0.8480094E-01
        2   -1    0    0  501    0  0.00000000000E+00  0.00000000000E+00  0.22389607721E+04  0.22389607721E+04  0.25500000920E-02 0. -1.
       -2   -1    0    0    0  501  0.00000000000E+00  0.00000000000E+00 -0.58785335453E+03  0.58785335454E+03  0.25500000920E-02 0.  1.
    10030    2    1    2    0    0  0.00000000000E+00  0.00000000000E+00  0.16511074175E+04  0.28268141266E+04  0.22944982899E+04 0.  0.
        1    1    3    3  502    0  0.82402880927E+03 -0.51768988265E+03  0.15740910750E+04  0.18506185468E+04  0.50400001928E-02 0. -1.
       -1    1    3    3    0  502 -0.82402880927E+03  0.51768988265E+03  0.77016342517E+02  0.97619557986E+03  0.50400001928E-02 0.  1.
</event>
<event>
 5   0  0.3195296E-06  0.2300988E+04  0.7818609E-02  0.8477531E-01
       -1   -1    0    0    0  501  0.00000000000E+00  0.00000000000E+00  0.67849637186E+03  0.67849637188E+03  0.50400001928E-02 0.  1.
        1   -1    0    0  501    0  0.00000000000E+00  0.00000000000E+00 -0.19508387337E+04  0.19508387337E+04  0.50400001928E-02 0. -1.
    10030    2    1    2    0    0  0.00000000000E+00  0.00000000000E+00 -0.12723423618E+04  0.26293351056E+04  0.23009884858E+04 0.  0.
        2    1    3    3  502    0  0.69078934499E+02  0.58558147302E+03 -0.17650501430E+04  0.18609351327E+04  0.25500000920E-02 0. -1.
       -2    1    3    3    0  502 -0.69078934499E+02 -0.58558147302E+03  0.49270778116E+03  0.76839997291E+03  0.25500000920E-02 0.  1.
</event>
<event>
 5   0  0.3238713E-06  0.2300361E+04  0.7818609E-02  0.8477779E-01
        1   -1    0    0  501    0  0.00000000000E+00  0.00000000000E+00  0.17590399854E+04  0.17590399854E+04  0.50400001928E-02 0.  1.
       -1   -1    0    0    0  501  0.00000000000E+00  0.00000000000E+00 -0.75206672421E+03  0.75206672423E+03  0.50400001928E-02 0. -1.
    10030    2    1    2    0    0  0.00000000000E+00  0.00000000000E+00  0.10069732612E+04  0.25111067096E+04  0.23003612235E+04 0.  0.
        3    1    3    3  502    0  0.48636976170E+03  0.10301506386E+04  0.67660143357E+03  0.13249737331E+04  0.10100000352E+00 0.  1.
       -3    1    3    3    0  502 -0.48636976170E+03 -0.10301506386E+04  0.33037182760E+03  0.11861329765E+04  0.10100000352E+00 0. -1.
</event>
<event>
 5   0  0.7044981E-06  0.2303985E+04  0.7818609E-02  0.8476352E-01
        2   -1    0    0  501    0  0.00000000000E+00  0.00000000000E+00  0.17119712658E+04  0.17119712658E+04  0.25500000920E-02 0. -1.
       -2   -1    0    0    0  501  0.00000000000E+00  0.00000000000E+00 -0.77518048150E+03  0.77518048151E+03  0.25500000920E-02 0.  1.
    10030    2    1    2    0    0  0.00000000000E+00  0.00000000000E+00  0.93679078432E+03  0.24871517473E+04  0.23039849914E+04 0.  0.
        4    1    3    3  502    0  0.63394610359E+03  0.96103800340E+03  0.51162112465E+03  0.12598569341E+04  0.12699999809E+01 0.  1.
       -4    1    3    3    0  502 -0.63394610359E+03 -0.96103800340E+03  0.42516965968E+03  0.12272948133E+04  0.12699999809E+01 0. -1.
</event>
<event>
 5   0  0.3226427E-06  0.2302589E+04  0.7818609E-02  0.8476901E-01
        1   -1    0    0  501    0  0.00000000000E+00  0.00000000000E+00  0.94745704187E+03  0.94745704188E+03  0.50400001928E-02 0.  1.
       -1   -1    0    0    0  501  0.00000000000E+00  0.00000000000E+00 -0.13989855470E+04  0.13989855470E+04  0.50400001928E-02 0. -1.
    10030    2    1    2    0    0  0.00000000000E+00  0.00000000000E+00 -0.45152850517E+03  0.23464425889E+04  0.23025887240E+04 0.  0.
        4    1    3    3  502    0 -0.62592842544E+03  0.77684442031E+03  0.35981322022E+03  0.10605379830E+04  0.12699999809E+01 0.  1.
       -4    1    3    3    0  502  0.62592842544E+03 -0.77684442031E+03 -0.81134172539E+03  0.12859046059E+04  0.12699999809E+01 0. -1.
</event>
<event>
 5   0  0.7003852E-06  0.2299823E+04  0.7818609E-02  0.8477991E-01
       -2   -1    0    0    0  501  0.00000000000E+00  0.00000000000E+00  0.11862764666E+04  0.11862764666E+04  0.25500000920E-02 0. -1.
        2   -1    0    0  501    0  0.00000000000E+00  0.00000000000E+00 -0.11146608975E+04  0.11146608975E+04  0.25500000920E-02 0.  1.
    10030    2    1    2    0    0  0.00000000000E+00  0.00000000000E+00  0.71615569027E+02  0.23009373641E+04  0.22998225940E+04 0.  0.
        2    1    3    3  502    0  0.29023060981E+03  0.12257202767E+03  0.11422544537E+04  0.11849063026E+04  0.25500000920E-02 0. -1.
       -2    1    3    3    0  502 -0.29023060981E+03 -0.12257202767E+03 -0.10706388847E+04  0.11160310615E+04  0.25500000920E-02 0.  1.
</event>
<event>
 5   0  0.3338758E-06  0.2298124E+04  0.7818609E-02  0.8478661E-01
        1   -1    0    0  501    0  0.00000000000E+00  0.00000000000E+00  0.19085451266E+04  0.19085451266E+04  0.50400001928E-02 0. -1.
       -1   -1    0    0    0  501  0.00000000000E+00  0.00000000000E+00 -0.69180635817E+03  0.69180635819E+03  0.50400001928E-02 0.  1.
    10030    2    1    2    0    0  0.00000000000E+00  0.00000000000E+00  0.12167387685E+04  0.26003514848E+04  0.22981241511E+04 0.  0.
        5    1    3    3  502    0 -0.38035159203E+03  0.30202251149E+03  0.17866823534E+04  0.18515239272E+04  0.46999998093E+01 0. -1.
       -5    1    3    3    0  502  0.38035159203E+03 -0.30202251149E+03 -0.56994358496E+03  0.74882755761E+03  0.46999998093E+01 0.  1.
</event>
<event>
 5   0  0.7348107E-06  0.2301335E+04  0.7818609E-02  0.8477395E-01
       -2   -1    0    0    0  501  0.00000000000E+00  0.00000000000E+00  0.13203701070E+04  0.13203701070E+04  0.25500000920E-02 0. -1.
        2   -1    0    0  501    0  0.00000000000E+00  0.00000000000E+00 -0.10027762946E+04  0.10027762946E+04  0.25500000920E-02 0.  1.
    10030    2    1    2    0    0  0.00000000000E+00  0.00000000000E+00  0.31759381240E+03  0.23231464016E+04  0.23013351285E+04 0.  0.
        3    1    3    3  502    0  0.13209523324E+02  0.15381260370E+03 -0.99227458702E+03  0.10042119671E+04  0.10100000352E+00 0.  1.
       -3    1    3    3    0  502 -0.13209523324E+02 -0.15381260370E+03  0.13098683994E+04  0.13189344345E+04  0.10100000352E+00 0. -1.
</event>
<event>
 5   0  0.3195296E-06  0.2309583E+04  0.7818609E-02  0.8474152E-01
       -1   -1    0    0    0  501  0.00000000000E+00  0.00000000000E+00  0.72697706538E+03  0.72697706539E+03  0.50400001928E-02 0.  1.
        1   -1    0    0  501    0  0.00000000000E+00  0.00000000000E+00 -0.18343685306E+04  0.18343685306E+04  0.50400001928E-02 0. -1.
    10030    2    1    2    0    0  0.00000000000E+00  0.00000000000E+00 -0.11073914652E+04  0.25613455960E+04  0.23095833834E+04 0.  0.
        2    1    3    3  502    0  0.18252952136E+03 -0.72124549809E+03 -0.15331646902E+04  0.17041437914E+04  0.25500000920E-02 0. -1.
       -2    1    3    3    0  502 -0.18252952136E+03  0.72124549809E+03  0.42577322494E+03  0.85720180457E+03  0.25500000920E-02 0.  1.
</event>
<event>
 5   0  0.7003852E-06  0.2299776E+04  0.7818609E-02  0.8478009E-01
        2   -1    0    0  501    0  0.00000000000E+00  0.00000000000E+00  0.11361378324E+04  0.11361378324E+04  0.25500000920E-02 0.  1.
       -2   -1    0    0    0  501  0.00000000000E+00  0.00000000000E+00 -0.11638050746E+04  0.11638050746E+04  0.25500000920E-02 0. -1.
    10030    2    1    2    0    0  0.00000000000E+00  0.00000000000E+00 -0.27667242280E+02  0.22999429070E+04  0.22997764889E+04 0.  0.
        2    1    3    3  502    0  0.16750988365E+03  0.47890465394E+03  0.10181488691E+04  0.11375571846E+04  0.25500000920E-02 0.  1.
       -2    1    3    3    0  502 -0.16750988365E+03 -0.47890465394E+03 -0.10458161114E+04  0.11623857223E+04  0.25500000920E-02 0. -1.
</event>
<event>
 5   0  0.7242214E-06  0.2301300E+04  0.7818609E-02  0.8477409E-01
        2   -1    0    0  501    0  0.00000000000E+00  0.00000000000E+00  0.11036529019E+04  0.11036529019E+04  0.25500000920E-02 0.  1.
       -2   -1    0    0    0  501  0.00000000000E+00  0.00000000000E+00 -0.11996479233E+04  0.11996479233E+04  0.25500000920E-02 0. -1.
    10030    2    1    2    0    0  0.00000000000E+00  0.00000000000E+00 -0.95995021441E+02  0.23033008252E+04  0.23012995562E+04 0.  0.
        1    1    3    3  502    0 -0.21742860700E+03  0.73312302452E+03 -0.90854189931E+03  0.11875154530E+04  0.50400001928E-02 0. -1.
       -1    1    3    3    0  502  0.21742860700E+03 -0.73312302452E+03  0.81254687787E+03  0.11157853723E+04  0.50400001928E-02 0.  1.
</event>
<event>
 5   0  0.3238713E-06  0.2306666E+04  0.7818609E-02  0.8475298E-01
        1   -1    0    0  501    0  0.00000000000E+00  0.00000000000E+00  0.12042295643E+04  0.12042295644E+04  0.50400001928E-02 0.  1.
       -1   -1    0    0    0  501  0.00000000000E+00  0.00000000000E+00 -0.11045871774E+04  0.11045871774E+04  0.50400001928E-02 0. -1.
    10030    2    1    2    0    0  0.00000000000E+00  0.00000000000E+00  0.99642386948E+02  0.23088167418E+04  0.23066655895E+04 0.  0.
        3    1    3    3  502    0  0.31748418049E+02 -0.43168009726E+03 -0.10202037579E+04  0.11082289413E+04  0.10100000352E+00 0. -1.
       -3    1    3    3    0  502 -0.31748418049E+02  0.43168009726E+03  0.11198461448E+04  0.12005878005E+04  0.10100000352E+00 0.  1.
</event>
<event>
 5   0  0.3226427E-06  0.2300617E+04  0.7818609E-02  0.8477678E-01
       -1   -1    0    0    0  501  0.00000000000E+00  0.00000000000E+00  0.10125271936E+04  0.10125271936E+04  0.50400001928E-02 0. -1.
        1   -1    0    0  501    0  0.00000000000E+00  0.00000000000E+00 -0.13068389257E+04  0.13068389257E+04  0.50400001928E-02 0.  1.
    10030    2    1    2    0    0  0.00000000000E+00  0.00000000000E+00 -0.29431173205E+03  0.23193661193E+04  0.23006172650E+04 0.  0.
        4    1    3    3  502    0  0.38855395525E+03  0.37724809806E+03  0.87596340625E+03  0.10298562063E+04  0.12699999809E+01 0. -1.
       -4    1    3    3    0  502 -0.38855395525E+03 -0.37724809806E+03 -0.11702751383E+04  0.12895099130E+04  0.12699999809E+01 0.  1.
</event>
<event>
 5   0  0.7003852E-06  0.2299194E+04  0.7818609E-02  0.8478239E-01
       -2   -1    0    0    0  501  0.00000000000E+00  0.00000000000E+00  0.39474942724E+03  0.39474942725E+03  0.25500000920E-02 0. -1.
        2   -1    0    0  501    0  0.00000000000E+00  0.00000000000E+00 -0.33478788805E+04  0.33478788805E+04  0.25500000920E-02 0.  1.
    10030    2    1    2    0    0  0.00000000000E+00  0.00000000000E+00 -0.29531294532E+04  0.37426283077E+04  0.22991940071E+04 0.  0.
        2    1    3    3  502    0 -0.10647801044E+04 -0.32785338980E+03 -0.19379211761E+04  0.22353485188E+04  0.25500000920E-02 0.  1.
       -2    1    3    3    0  502  0.10647801044E+04  0.32785338980E+03 -0.10152082771E+04  0.15072797889E+04  0.25500000920E-02 0. -1.
</event>
<event>
 5   0  0.7044981E-06  0.2300284E+04  0.7818609E-02  0.8477809E-01
       -2   -1    0    0    0  501  0.00000000000E+00  0.00000000000E+00  0.13559434822E+04  0.13559434822E+04  0.25500000920E-02 0.  1.
        2   -1    0    0  501    0  0.00000000000E+00  0.00000000000E+00 -0.97557644275E+03  0.97557644275E+03  0.25500000920E-02 0. -1.
    10030    2    1    2    0    0  0.00000000000E+00  0.00000000000E+00  0.38036703946E+03  0.23315199250E+04  0.23002839120E+04 0.  0.
        4    1    3    3  502    0 -0.59181307742E+03 -0.29151098580E+03  0.11451039834E+04  0.13215468660E+04  0.12699999809E+01 0.  1.
       -4    1    3    3    0  502  0.59181307742E+03  0.29151098580E+03 -0.76473694393E+03  0.10099730589E+04  0.12699999809E+01 0. -1.
</event>
<event>
 5   0  0.7348107E-06  0.2288583E+04  0.7818609E-02  0.8482436E-01
        2   -1    0    0  501    0  0.00000000000E+00  0.00000000000E+00  0.94901239316E+03  0.94901239317E+03  0.25500000920E-02 0. -1.
       -2   -1    0    0    0  501  0.00000000000E+00  0.00000000000E+00 -0.13797530593E+04  0.13797530593E+04  0.25500000920E-02 0.  1.
    10030    2    1    2    0    0  0.00000000000E+00  0.00000000000E+00 -0.43074066612E+03  0.23287654525E+04  0.22885827516E+04 0.  0.
        3    1    3    3  502    0  0.11145915664E+02  0.85877480708E+03 -0.98481121633E+03  0.13067025456E+04  0.10100000352E+00 0.  1.
       -3    1    3    3    0  502 -0.11145915664E+02 -0.85877480708E+03  0.55407055021E+03  0.10220629068E+04  0.10100000352E+00 0. -1.
</event>
<event>
 5   0  0.7497344E-06  0.2302061E+04  0.7818609E-02  0.8477109E-01
       -2   -1    0    0    0  501  0.00000000000E+00  0.00000000000E+00  0.66089488712E+03  0.66089488713E+03  0.25500000920E-02 0. -1.
        2   -1    0    0  501    0  0.00000000000E+00  0.00000000000E+00 -0.20046623528E+04  0.20046623528E+04  0.25500000920E-02 0.  1.
    10030    2    1    2    0    0  0.00000000000E+00  0.00000000000E+00 -0.13437674657E+04  0.26655572400E+04  0.23020609022E+04 0.  0.
        5    1    3    3  502    0  0.90433525858E+03  0.31310690284E+03 -0.14123887110E+04  0.17060838647E+04  0.46999998093E+01 0.  1.
       -5    1    3    3    0  502 -0.90433525858E+03 -0.31310690284E+03  0.68621245273E+02  0.95947337525E+03  0.46999998093E+01 0. -1.
</event>
<event>
 5   0  0.3226427E-06  0.2303442E+04  0.7818609E-02  0.8476565E-01
        1   -1    0    0  501    0  0.00000000000E+00  0.00000000000E+00  0.13201169975E+04  0.13201169975E+04  0.50400001928E-02 0.  1.
       -1   -1    0    0    0  501  0.00000000000E+00  0.00000000000E+00 -0.10048055868E+04  0.10048055868E+04  0.50400001928E-02 0. -1.
    10030    2    1    2    0    0  0.00000000000E+00  0.00000000000E+00  0.31531141071E+03  0.23249225843E+04  0.23034417156E+04 0.  0.
        4    1    3    3  502    0  0.56315053499E+03  0.98195108714E+03 -0.56675375070E+02  0.11333932123E+04  0.12699999809E+01 0. -1.
       -4    1    3    3    0  502 -0.56315053499E+03 -0.98195108714E+03  0.37198678578E+03  0.11915293720E+04  0.12699999809E+01 0.  1.
</event>
<event>
 5   0  0.3338758E-06  0.2302544E+04  0.7818609E-02  0.8476919E-01
       -1   -1    0    0    0  501  0.00000000000E+00  0.00000000000E+00  0.15783440586E+04  0.15783440586E+04  0.50400001928E-02 0. -1.
        1   -1    0    0  501    0  0.00000000000E+00  0.00000000000E+00 -0.83975785767E+03  0.83975785769E+03  0.50400001928E-02 0.  1.
    10030    2    1    2    0    0  0.00000000000E+00  0.00000000000E+00  0.73858620093E+03  0.24181019163E+04  0.23025436590E+04 0.  0.
        5    1    3    3  502    0  0.86912211880E+03 -0.67968968006E+03  0.24081024337E+02  0.11036092172E+04  0.46999998093E+01 0.  1.
       -5    1    3    3    0  502 -0.86912211880E+03  0.67968968006E+03  0.71450517659E+03  0.13144926991E+04  0.46999998093E+01 0. -1.
</event>
<event>
 5   0  0.3184492E-06  0.2321095E+04  0.7818609E-02  0.8469650E-01
        1   -1    0    0  501    0  0.00000000000E+00  0.00000000000E+00  0.10458260126E+04  0.10458260126E+04  0.50400001928E-02 0. -1.
       -1   -1    0    0    0  501  0.00000000000E+00  0.00000000000E+00 -0.12878537861E+04  0.12878537861E+04  0.50400001928E-02 0.  1.
    10030    2    1    2    0    0  0.00000000000E+00  0.00000000000E+00 -0.24202777347E+03  0.23336797987E+04  0.23210954223E+04 0.  0.
        1    1    3    3  502    0 -0.91334998550E+03  0.38471779352E+03 -0.72815461327E+03  0.12298069432E+04  0.50400001928E-02 0.  1.
       -1    1    3    3    0  502  0.91334998550E+03 -0.38471779352E+03  0.48612683980E+03  0.11038728555E+04  0.50400001928E-02 0. -1.
</event>
<event>
 5   0  0.7044981E-06  0.2302138E+04  0.7818609E-02  0.8477079E-01
        2   -1    0    0  501    0  0.00000000000E+00  0.00000000000E+00  0.15906065780E+04  0.15906065780E+04  0.25500000920E-02 0.  1.
       -2   -1    0    0    0  501  0.00000000000E+00  0.00000000000E+00 -0.83299017350E+03  0.83299017350E+03  0.25500000920E-02 0. -1.
    10030    2    1    2    0    0  0.00000000000E+00  0.00000000000E+00  0.75761640453E+03  0.24235967515E+04  0.23021378320E+04 0.  0.
        4    1    3    3  502    0 -0.68060046665E+03  0.68832536790E+03 -0.27690886308E+03  0.10068212049E+04  0.12699999809E+01 0. -1.
       -4    1    3    3    0  502  0.68060046665E+03 -0.68832536790E+03  0.10345252676E+04  0.14167755466E+04  0.12699999809E+01 0.  1.
</event>
<event>
 5   0  0.7044981E-06  0.2292939E+04  0.7818609E-02  0.8480710E-01
        2   -1    0    0  501    0  0.00000000000E+00  0.00000000000E+00  0.10714175577E+04  0.10714175577E+04  0.25500000920E-02 0. -1.
       -2   -1    0    0    0  501  0.00000000000E+00  0.00000000000E+00 -0.12267786954E+04  0.12267786954E+04  0.25500000920E-02 0.  1.
    10030    2    1    2    0    0  0.00000000000E+00  0.00000000000E+00 -0.15536113771E+03  0.22981962531E+04  0.22929389295E+04 0.  0.
        4    1    3    3  502    0 -0.58857465551E+03 -0.23995866759E+03  0.87865089224E+03  0.10844488419E+04  0.12699999809E+01 0. -1.
       -4    1    3    3    0  502  0.58857465551E+03  0.23995866759E+03 -0.10340120300E+04  0.12137474112E+04  0.12699999809E+01 0.  1.
</event>
<event>
 5   0  0.2519625E-06  0.2300265E+04  0.7818609E-02  0.8477817E-01
       -3   -1    0    0    0  501  0.00000000000E+00  0.00000000000E+00  0.92615587313E+03  0.92615587863E+03  0.10100000352E+00 0. -1.
        3   -1    0    0  501    0  0.00000000000E+00  0.00000000000E+00 -0.14282745636E+04  0.14282745672E+04  0.10100000352E+00 0.  1.
    10030    2    1    2    0    0  0.00000000000E+00  0.00000000000E+00 -0.50211869051E+03  0.23544304458E+04  0.23002651032E+04 0.  0.
        1    1    3    3  502    0  0.72870379623E+03  0.75661026017E+03 -0.73042123719E+03  0.12794465570E+04  0.50400001928E-02 0.  1.
       -1    1    3    3    0  502 -0.72870379623E+03 -0.75661026017E+03  0.22830254668E+03  0.10749838888E+04  0.50400001928E-02 0. -1.
</event>
<event>
 5   0  0.7003852E-06  0.2307118E+04  0.7818609E-02  0.8475120E-01
       -2   -1    0    0    0  501  0.00000000000E+00  0.00000000000E+00  0.28459603967E+04  0.28459603967E+04  0.25500000920E-02 0.  1.
        2   -1    0    0  501    0  0.00000000000E+00  0.00000000000E+00 -0.46757435242E+03  0.46757435242E+03  0.25500000920E-02 0. -1.
    10030    2    1    2    0    0  0.00000000000E+00  0.00000000000E+00  0.23783860443E+04  0.33135347491E+04  0.23071177599E+04 0.  0.
        2    1    3    3  502    0 -0.30912953950E+03 -0.45530126593E+03  0.26452690582E+04  0.27019083451E+04  0.25500000920E-02 0.  1.
       -2    1    3    3    0  502  0.30912953950E+03  0.45530126593E+03 -0.26688301395E+03  0.61162640402E+03  0.25500000920E-02 0. -1.
</event>
<event>
 5   0  0.3195296E-06  0.2296980E+04  0.7818609E-02  0.8479113E-01
       -1   -1    0    0    0  501  0.00000000000E+00  0.00000000000E+00  0.10571015695E+04  0.10571015695E+04  0.50400001928E-02 0.  1.
        1   -1    0    0  501    0  0.00000000000E+00  0.00000000000E+00 -0.12477790767E+04  0.12477790767E+04  0.50400001928E-02 0. -1.
    10030    2    1    2    0    0  0.00000000000E+00  0.00000000000E+00 -0.19067750717E+03  0.23048806462E+04  0.22969799480E+04 0.  0.
        2    1    3    3  502    0  0.19253932868E+03  0.10534923078E+04  0.32095178576E+03  0.11180015584E+04  0.25500000920E-02 0. -1.
       -2    1    3    3    0  502 -0.19253932868E+03 -0.10534923078E+04 -0.51162929294E+03  0.11868790878E+04  0.25500000920E-02 0.  1.
</event>
<event>
 5   0  0.3238713E-06  0.2299326E+04  0.7818609E-02  0.8478187E-01
       -1   -1    0    0    0  501  0.00000000000E+00  0.00000000000E+00  0.11462491577E+04  0.11462491577E+04  0.50400001928E-02 0.  1.
        1   -1    0    0  501    0  0.00000000000E+00  0.00000000000E+00 -0.11530868819E+04  0.11530868819E+04  0.50400001928E-02 0. -1.
    10030    2    1    2    0    0  0.00000000000E+00  0.00000000000E+00 -0.68377241985E+01  0.22993360396E+04  0.22993258727E+04 0.  0.
        3    1    3    3  502    0  0.46354703029E+03 -0.10426149591E+04 -0.14414281158E+03  0.11500865022E+04  0.10100000352E+00 0. -1.
       -3    1    3    3    0  502 -0.46354703029E+03  0.10426149591E+04  0.13730508738E+03  0.11492495375E+04  0.10100000352E+00 0.  1.
</event>
<event>
 5   0  0.7497344E-06  0.2301059E+04  0.7818609E-02  0.8477504E-01
        2   -1    0    0  501    0  0.00000000000E+00  0.00000000000E+00  0.96920768716E+03  0.96920768716E+03  0.25500000920E-02 0.  1.
       -2   -1    0    0    0  501  0.00000000000E+00  0.00000000000E+00 -0.13657731807E+04  0.13657731807E+04  0.25500000920E-02 0. -1.
    10030    2    1    2    0    0  0.00000000000E+00  0.00000000000E+00 -0.39656549351E+03  0.23349808678E+04  0.23010587699E+04 0.  0.
        5    1    3    3  502    0  0.34112494397E+03 -0.55440477333E+03  0.76436722033E+03  0.10039971203E+04  0.46999998093E+01 0.  1.
       -5    1    3    3    0  502 -0.34112494397E+03  0.55440477333E+03 -0.11609327138E+04  0.13309837475E+04  0.46999998093E+01 0. -1.
</event>
<event>
 5   0  0.7242214E-06  0.2301622E+04  0.7818609E-02  0.8477282E-01
        2   -1    0    0  501    0  0.00000000000E+00  0.00000000000E+00  0.22712541086E+04  0.22712541086E+04  0.25500000920E-02 0.  1.
       -2   -1    0    0    0  501  0.00000000000E+00  0.00000000000E+00 -0.58309904224E+03  0.58309904225E+03  0.25500000920E-02 0. -1.
    10030    2    1    2    0    0  0.00000000000E+00  0.00000000000E+00  0.16881550663E+04  0.28543531508E+04  0.23016221196E+04 0.  0.
        1    1    3    3  502    0 -0.77386832402E+03 -0.84451298931E+03  0.70658469705E+03  0.13458589473E+04  0.50400001928E-02 0.  1.
       -1    1    3    3    0  502  0.77386832402E+03  0.84451298931E+03  0.98157036926E+03  0.15084942035E+04  0.50400001928E-02 0. -1.
</event>
<event>
 5   0  0.3226427E-06  0.2293292E+04  0.7818609E-02  0.8480571E-01
        1   -1    0    0  501    0  0.00000000000E+00  0.00000000000E+00  0.23209591417E+04  0.23209591417E+04  0.50400001928E-02 0.  1.
       -1   -1    0    0    0  501  0.00000000000E+00  0.00000000000E+00 -0.56648850630E+03  0.56648850632E+03  0.50400001928E-02 0. -1.
    10030    2    1    2    0    0  0.00000000000E+00  0.00000000000E+00  0.17544706354E+04  0.28874476480E+04  0.22932916756E+04 0.  0.
        4    1    3    3  502    0  0.48868904023E+03 -0.75754672309E+03  0.17694110139E+04  0.19858275265E+04  0.12699999809E+01 0.  1.
       -4    1    3    3    0  502 -0.48868904023E+03  0.75754672309E+03 -0.14940378583E+02  0.90162012152E+03  0.12699999809E+01 0. -1.
</event>
<event>
 5   0  0.3226427E-06  0.2298826E+04  0.7818609E-02  0.8478384E-01
       -1   -1    0    0    0  501  0.00000000000E+00  0.00000000000E+00  0.14336069645E+04  0.14336069645E+04  0.50400001928E-02 0. -1.
        1   -1    0    0  501    0  0.00000000000E+00  0.00000000000E+00 -0.92155675151E+03  0.92155675152E+03  0.50400001928E-02 0.  1.
    10030    2    1    2    0    0  0.00000000000E+00  0.00000000000E+00  0.51205021299E+03  0.23551637160E+04  0.22988259414E+04 0.  0.
        4    1    3    3  502    0  0.30393168444E+03  0.51442278937E+01  0.13916799555E+04  0.14244913630E+04  0.12699999809E+01 0. -1.
       -4    1    3    3    0  502 -0.30393168444E+03 -0.51442278937E+01 -0.87962974249E+03  0.93067235302E+03  0.12699999809E+01 0.  1.
</event>
<event>
 5   0  0.3338758E-06  0.2300699E+04  0.7818609E-02  0.8477645E-01
        1   -1    0    0  501    0  0.00000000000E+00  0.00000000000E+00  0.19166703976E+04  0.19166703976E+04  0.50400001928E-02 0.  1.
       -1   -1    0    0    0  501  0.00000000000E+00  0.00000000000E+00 -0.69041830947E+03  0.69041830949E+03  0.50400001928E-02 0. -1.
    10030    2    1    2    0    0  0.00000000000E+00  0.00000000000E+00  0.12262520881E+04  0.26070887071E+04  0.23006993161E+04 0.  0.
        5    1    3    3  502    0  0.12519710557E+03  0.98315306296E+03  0.12748617778E+04  0.16147937649E+04  0.46999998093E+01 0.  1.
       -5    1    3    3    0  502 -0.12519710557E+03 -0.98315306296E+03 -0.48609689714E+02  0.99229494223E+03  0.46999998093E+01 0. -1.
</event>
<event>
 5   0  0.7044981E-06  0.2302270E+04  0.7818609E-02  0.8477027E-01
        2   -1    0    0  501    0  0.00000000000E+00  0.00000000000E+00  0.22353246346E+04  0.22353246346E+04  0.25500000920E-02 0. -1.
       -2   -1    0    0    0  501  0.00000000000E+00  0.00000000000E+00 -0.59280484758E+03  0.59280484758E+03  0.25500000920E-02 0.  1.
    10030    2    1    2    0    0  0.00000000000E+00  0.00000000000E+00  0.16425197870E+04  0.28281294822E+04  0.23022695579E+04 0.  0.
        4    1    3    3  502    0 -0.51115167339E+03 -0.45596782791E+03  0.19577390487E+04  0.20741086011E+04  0.12699999809E+01 0. -1.
       -4    1    3    3    0  502  0.51115167339E+03  0.45596782791E+03 -0.31521926169E+03  0.75402088110E+03  0.12699999809E+01 0.  1.
</event>
<event>
 5   0  0.3338758E-06  0.2300195E+04  0.7818609E-02  0.8477844E-01
       -1   -1    0    0    0  501  0.00000000000E+00  0.00000000000E+00  0.12299361023E+04  0.12299361023E+04  0.50400001928E-02 0. -1.
        1   -1    0    0  501    0  0.00000000000E+00  0.00000000000E+00 -0.10754414927E+04  0.10754414927E+04  0.50400001928E-02 0.  1.
    10030    2    1    2    0    0  0.00000000000E+00  0.00000000000E+00  0.15449460957E+03  0.23053775950E+04  0.23001950507E+04 0.  0.
        5    1    3    3  502    0 -0.30097705441E+03  0.76354626519E+03  0.88473752237E+03  0.12068026599E+04  0.46999998093E+01 0. -1.
       -5    1    3    3    0  502  0.30097705441E+03 -0.76354626519E+03 -0.73024291280E+03  0.10985749351E+04  0.46999998093E+01 0.  1.
</event>
<event>
 5   0  0.7348107E-06  0.2272946E+04  0.7818609E-02  0.8488665E-01
       -2   -1    0    0    0  501  0.00000000000E+00  0.00000000000E+00  0.63121066231E+03  0.63121066232E+03  0.25500000920E-02 0. -1.
        2   -1    0    0  501    0  0.00000000000E+00  0.00000000000E+00 -0.20461798548E+04  0.20461798548E+04  0.25500000920E-02 0.  1.
    10030    2    1    2    0    0  0.00000000000E+00  0.00000000000E+00 -0.14149691925E+04  0.26773905172E+04  0.22729457023E+04 0.  0.
        3    1    3    3  502    0 -0.26711909592E+03 -0.74399132861E+03 -0.16692877594E+04  0.18469968442E+04  0.10100000352E+00 0.  1.
       -3    1    3    3    0  502  0.26711909592E+03  0.74399132861E+03  0.25431856690E+03  0.83039367298E+03  0.10100000352E+00 0. -1.
</event>
<event>
 5   0  0.7348107E-06  0.2297962E+04  0.7818609E-02  0.8478725E-01
        2   -1    0    0  501    0  0.00000000000E+00  0.00000000000E+00  0.14307659605E+04  0.14307659605E+04  0.25500000920E-02 0.  1.
       -2   -1    0    0    0  501  0.00000000000E+00  0.00000000000E+00 -0.92269304813E+03  0.92269304814E+03  0.25500000920E-02 0. -1.
    10030    2    1    2    0    0  0.00000000000E+00  0.00000000000E+00  0.50807291241E+03  0.23534590087E+04  0.22979624064E+04 0.  0.
        3    1    3    3  502    0 -0.91096346716E+03 -0.69156695184E+03  0.14166654265E+03  0.11524706968E+04  0.10100000352E+00 0.  1.
       -3    1    3    3    0  502  0.91096346716E+03  0.69156695184E+03  0.36640636976E+03  0.12009883119E+04  0.10100000352E+00 0. -1.
</event>
<event>
 5   0  0.2519625E-06  0.2299299E+04  0.7818609E-02  0.8478198E-01
        3   -1    0    0  501    0  0.00000000000E+00  0.00000000000E+00  0.15735575501E+04  0.15735575533E+04  0.10100000352E+00 0. -1.
       -3   -1    0    0    0  501  0.00000000000E+00  0.00000000000E+00 -0.83993976122E+03  0.83993976729E+03  0.10100000352E+00 0.  1.
    10030    2    1    2    0    0  0.00000000000E+00  0.00000000000E+00  0.73361778886E+03  0.24134973206E+04  0.22992986445E+04 0.  0.
        5    1    3    3  502    0  0.43933878469E+03  0.98512470220E+03  0.78428370967E+03  0.13336462327E+04  0.46999998093E+01 0.  1.
       -5    1    3    3    0  502 -0.43933878469E+03 -0.98512470220E+03 -0.50665920816E+02  0.10798510879E+04  0.46999998093E+01 0. -1.
</event>
<event>
 5   0  0.3338758E-06  0.2299397E+04  0.7818609E-02  0.8478159E-01
       -1   -1    0    0    0  501  0.00000000000E+00  0.00000000000E+00  0.10483284823E+04  0.10483284823E+04  0.50400001928E-02 0. -1.
        1   -1    0    0  501    0  0.00000000000E+00  0.00000000000E+00 -0.12608710934E+04  0.12608710934E+04  0.50400001928E-02 0.  1.
    10030    2    1    2    0    0  0.00000000000E+00  0.00000000000E+00 -0.21254261106E+03  0.23091995757E+04  0.22993973817E+04 0.  0.
        5    1    3    3  502    0 -0.28355274138E+03  0.22409702446E+02 -0.12249682209E+04  0.12575665326E+04  0.46999998093E+01 0.  1.
       -5    1    3    3    0  502  0.28355274138E+03 -0.22409702446E+02  0.10124256098E+04  0.10516330431E+04  0.46999998093E+01 0. -1.
</event>
<event>
 5   0  0.7348107E-06  0.2304545E+04  0.7818609E-02  0.8476131E-01
        2   -1    0    0  501    0  0.00000000000E+00  0.00000000000E+00  0.11794737459E+04  0.11794737459E+04  0.25500000920E-02 0. -1.
       -2   -1    0    0    0  501  0.00000000000E+00  0.00000000000E+00 -0.11256988953E+04  0.11256988953E+04  0.25500000920E-02 0.  1.
    10030    2    1    2    0    0  0.00000000000E+00  0.00000000000E+00  0.53774850562E+02  0.23051726413E+04  0.23045453286E+04 0.  0.
        3    1    3    3  502    0  0.36127221549E+03  0.85831717054E+03 -0.65190344359E+03  0.11367515511E+04  0.10100000352E+00 0.  1.
       -3    1    3    3    0  502 -0.36127221549E+03 -0.85831717054E+03  0.70567829415E+03  0.11684210902E+04  0.10100000352E+00 0. -1.
</event>
<event>
 5   0  0.7003852E-06  0.2301953E+04  0.7818609E-02  0.8477151E-01
       -2   -1    0    0    0  501  0.00000000000E+00  0.00000000000E+00  0.89666313826E+03  0.89666313826E+03  0.25500000920E-02 0.  1.
        2   -1    0    0  501    0  0.00000000000E+00  0.00000000000E+00 -0.14774191450E+04  0.14774191450E+04  0.25500000920E-02 0. -1.
    10030    2    1    2    0    0  0.00000000000E+00  0.00000000000E+00 -0.58075600677E+03  0.23740822833E+04  0.23019533332E+04 0.  0.
        2    1    3    3  502    0 -0.95412352860E+03  0.64336991318E+03 -0.31275424168E+03  0.11925148924E+04  0.25500000920E-02 0.  1.
       -2    1    3    3    0  502  0.95412352860E+03 -0.64336991318E+03 -0.26800176508E+03  0.11815673908E+04  0.25500000920E-02 0. -1.
</event>
<event>
 5   0  0.7242214E-06  0.2311181E+04  0.7818609E-02  0.8473526E-01
       -2   -1    0    0    0  501  0.00000000000E+00  0.00000000000E+00  0.79024475600E+03  0.79024475600E+03  0.25500000920E-02 0. -1.
        2   -1    0    0  501    0  0.00000000000E+00  0.00000000000E+00 -0.16898425652E+04  0.16898425652E+04  0.25500000920E-02 0.  1.
    10030    2    1    2    0    0  0.00000000000E+00  0.00000000000E+00 -0.89959780917E+03  0.24800873212E+04  0.23111808459E+04 0.  0.
        1    1    3    3  502    0 -0.18339786630E+03  0.94678781432E+03 -0.11329970451E+04  0.14878589472E+04  0.50400001928E-02 0.  1.
       -1    1    3    3    0  502  0.18339786630E+03 -0.94678781432E+03  0.23339923590E+03  0.99222837394E+03  0.50400001928E-02 0. -1.
</event>
<event>
 5   0  0.3184492E-06  0.2300370E+04  0.7818609E-02  0.8477775E-01
       -1   -1    0    0    0  501  0.00000000000E+00  0.00000000000E+00  0.84794434126E+03  0.84794434127E+03  0.50400001928E-02 0. -1.
        1   -1    0    0  501    0  0.00000000000E+00  0.00000000000E+00 -0.15601557615E+04  0.15601557615E+04  0.50400001928E-02 0.  1.
    10030    2    1    2    0    0  0.00000000000E+00  0.00000000000E+00 -0.71221142024E+03  0.24081001028E+04  0.23003697524E+04 0.  0.
        1    1    3    3  502    0 -0.76756315043E+03  0.44216578330E+03  0.41191607355E+03  0.97690256500E+03  0.50400001928E-02 0. -1.
       -1    1    3    3    0  502  0.76756315043E+03 -0.44216578330E+03 -0.11241274938E+04  0.14311975378E+04  0.50400001928E-02 0.  1.
</event>
<event>
 5   0  0.7044981E-06  0.2302357E+04  0.7818609E-02  0.8476992E-01
       -2   -1    0    0    0  501  0.00000000000E+00  0.00000000000E+00  0.16345026788E+04  0.16345026788E+04  0.25500000920E-02 0.  1.
        2   -1    0    0  501    0  0.00000000000E+00  0.00000000000E+00 -0.81077372085E+03  0.81077372086E+03  0.25500000920E-02 0. -1.
    10030    2    1    2    0    0  0.00000000000E+00  0.00000000000E+00  0.82372895792E+03  0.24452763996E+04  0.23023568956E+04 0.  0.
        4    1    3    3  502    0  0.20501822058E+03 -0.10117868689E+04 -0.12913239780E+03  0.10403950826E+04  0.12699999809E+01 0. -1.
       -4    1    3    3    0  502 -0.20501822058E+03  0.10117868689E+04  0.95286135573E+03  0.14048813170E+04  0.12699999809E+01 0.  1.
</event>
<event>
 5   0  0.7044981E-06  0.2293758E+04  0.7818609E-02  0.8480386E-01
        2   -1    0    0  501    0  0.00000000000E+00  0.00000000000E+00  0.12963725481E+04  0.12963725481E+04  0.25500000920E-02 0.  1.
       -2   -1    0    0    0  501  0.00000000000E+00  0.00000000000E+00 -0.10146244625E+04  0.10146244625E+04  0.25500000920E-02 0. -1.
    10030    2    1    2    0    0  0.00000000000E+00  0.00000000000E+00  0.28174808559E+03  0.23109970105E+04  0.22937578772E+04 0.  0.
        4    1    3    3  502    0  0.49846375999E+03  0.94183470964E+03 -0.28635412068E+03  0.11034124504E+04  0.12699999809E+01 0. -1.
       -4    1    3    3    0  502 -0.49846375999E+03 -0.94183470964E+03  0.56810220627E+03  0.12075845602E+04  0.12699999809E+01 0.  1.
</event>
<event>
 5   0  0.7348107E-06  0.2304501E+04  0.7818609E-02  0.8476148E-01
       -2   -1    0    0    0  501  0.00000000000E+00  0.00000000000E+00  0.12418486506E+04  0.12418486507E+04  0.25500000920E-02 0. -1.
        2   -1    0    0  501    0  0.00000000000E+00  0.00000000000E+00 -0.10691169698E+04  0.10691169698E+04  0.25500000920E-02 0.  1.
    10030    2    1    2    0    0  0.00000000000E+00  0.00000000000E+00  0.17273168080E+03  0.23109656205E+04  0.23045012184E+04 0.  0.
        3    1    3    3  502    0 -0.70871219568E+03 -0.68126666428E+03  0.68912113560E+03  0.12005353780E+04  0.10100000352E+00 0. -1.
       -3    1    3    3    0  502  0.70871219568E+03  0.68126666428E+03 -0.51638945480E+03  0.11104302425E+04  0.10100000352E+00 0.  1.
</event>
<event>
 5   0  0.3226427E-06  0.2330537E+04  0.7818609E-02  0.8465977E-01
       -1   -1    0    0    0  501  0.00000000000E+00  0.00000000000E+00  0.10597627222E+04  0.10597627222E+04  0.50400001928E-02 0. -1.
        1   -1    0    0  501    0  0.00000000000E+00  0.00000000000E+00 -0.12812774772E+04  0.12812774772E+04  0.50400001928E-02 0.  1.
    10030    2    1    2    0    0  0.00000000000E+00  0.00000000000E+00 -0.22151475505E+03  0.23410401994E+04  0.23305365109E+04 0.  0.
        4    1    3    3  502    0 -0.41876458794E+03 -0.63781061280E+03  0.77394034878E+03  0.10868079105E+04  0.12699999809E+01 0. -1.
       -4    1    3    3    0  502  0.41876458794E+03  0.63781061280E+03 -0.99545510383E+03  0.12542322889E+04  0.12699999809E+01 0.  1.
</event>
<event>
 5   0  0.3195296E-06  0.2323375E+04  0.7818609E-02  0.8468761E-01
       -1   -1    0    0    0  501  0.00000000000E+00  0.00000000000E+00  0.10035851923E+04  0.10035851923E+04  0.50400001928E-02 0. -1.
        1   -1    0    0  501    0  0.00000000000E+00  0.00000000000E+00 -0.13446964591E+04  0.13446964591E+04  0.50400001928E-02 0.  1.
    10030    2    1    2    0    0  0.00000000000E+00  0.00000000000E+00 -0.34111126678E+03  0.23482816514E+04  0.23233746616E+04 0.  0.
        2    1    3    3  502    0  0.10908056040E+04 -0.17417320079E+03  0.19291638169E+03  0.11213429003E+04  0.25500000920E-02 0.  1.
       -2    1    3    3    0  502 -0.10908056040E+04  0.17417320079E+03 -0.53402764847E+03  0.12269387511E+04  0.25500000920E-02 0. -1.
</event>
<event>
 5   0  0.7348107E-06  0.2295764E+04  0.7818609E-02  0.8479593E-01
        2   -1    0    0  501    0  0.00000000000E+00  0.00000000000E+00  0.10881007078E+04  0.10881007078E+04  0.25500000920E-02 0. -1.
       -2   -1    0    0    0  501  0.00000000000E+00  0.00000000000E+00 -0.12109479524E+04  0.12109479524E+04  0.25500000920E-02 0.  1.
    10030    2    1    2    0    0  0.00000000000E+00  0.00000000000E+00 -0.12284724459E+03  0.22990486603E+04  0.22957642076E+04 0.  0.
        3    1    3    3  502    0 -0.26645044639E+03  0.85809409116E+03 -0.77680688490E+03  0.11877500816E+04  0.10100000352E+00 0.  1.
       -3    1    3    3    0  502  0.26645044639E+03 -0.85809409116E+03  0.65395964031E+03  0.11112985787E+04  0.10100000352E+00 0. -1.
</event>
<event>
 5   0  0.7044981E-06  0.2299568E+04  0.7818609E-02  0.8478091E-01
        2   -1    0    0  501    0  0.00000000000E+00  0.00000000000E+00  0.18828478390E+04  0.18828478390E+04  0.25500000920E-02 0.  1.
       -2   -1    0    0    0  501  0.00000000000E+00  0.00000000000E+00 -0.70212965175E+03  0.70212965175E+03  0.25500000920E-02 0. -1.
    10030    2    1    2    0    0  0.00000000000E+00  0.00000000000E+00  0.11807181873E+04  0.25849774908E+04  0.22995680442E+04 0.  0.
        4    1    3    3  502    0 -0.83698527958E+03 -0.74097347523E+03  0.28785819186E+03  0.11543179808E+04  0.12699999809E+01 0. -1.
       -4    1    3    3    0  502  0.83698527958E+03  0.74097347523E+03  0.89285999540E+03  0.14306595100E+04  0.12699999809E+01 0.  1.
</event>
<event>
 5   0  0.7044981E-06  0.2301138E+04  0.7818609E-02  0.8477473E-01
        2   -1    0    0  501    0  0.00000000000E+00  0.00000000000E+00  0.12322554161E+04  0.12322554161E+04  0.25500000920E-02 0. -1.
       -2   -1    0    0    0  501  0.00000000000E+00  0.00000000000E+00 -0.10742974745E+04  0.10742974745E+04  0.25500000920E-02 0.  1.
    10030    2    1    2    0    0  0.00000000000E+00  0.00000000000E+00  0.15795794158E+03  0.23065528906E+04  0.23011378763E+04 0.  0.
        4    1    3    3  502    0  0.27102995134E+02  0.79925656843E+03 -0.75016867483E+03  0.10964945454E+04  0.12699999809E+01 0. -1.
       -4    1    3    3    0  502 -0.27102995134E+02 -0.79925656843E+03  0.90812661640E+03  0.12100583452E+04  0.12699999809E+01 0.  1.
</event>
<event>
 5   0  0.3238713E-06  0.2290159E+04  0.7818609E-02  0.8481811E-01
        1   -1    0    0  501    0  0.00000000000E+00  0.00000000000E+00  0.80744649361E+03  0.80744649362E+03  0.50400001928E-02 0.  1.
       -1   -1    0    0    0  501  0.00000000000E+00  0.00000000000E+00 -0.16238939125E+04  0.16238939126E+04  0.50400001928E-02 0. -1.
    10030    2    1    2    0    0  0.00000000000E+00  0.00000000000E+00 -0.81644741894E+03  0.24313404062E+04  0.22901593357E+04 0.  0.
        3    1    3    3  502    0  0.43096851185E+03  0.90439143955E+03 -0.99698293242E+03  0.14133763518E+04  0.10100000352E+00 0. -1.
       -3    1    3    3    0  502 -0.43096851185E+03 -0.90439143955E+03  0.18053551348E+03  0.10179640544E+04  0.10100000352E+00 0.  1.
</event>
<event>
 5   0  0.3184492E-06  0.2300344E+04  0.7818609E-02  0.8477786E-01
       -1   -1    0    0    0  501  0.00000000000E+00  0.00000000000E+00  0.19338424945E+04  0.19338424945E+04  0.50400001928E-02 0. -1.
        1   -1    0    0  501    0  0.00000000000E+00  0.00000000000E+00 -0.68407591488E+03  0.68407591489E+03  0.50400001928E-02 0.  1.
    10030    2    1    2    0    0  0.00000000000E+00  0.00000000000E+00  0.12497665796E+04  0.26179184094E+04  0.23003435167E+04 0.  0.
        1    1    3    3  502    0  0.29525009447E+02  0.10596843588E+04  0.11326810263E+04  0.15513764772E+04  0.50400001928E-02 0.  1.
       -1    1    3    3    0  502 -0.29525009447E+02 -0.10596843588E+04  0.11708555332E+03  0.10665419323E+04  0.50400001928E-02 0. -1.
</event>
<event>
 5   0  0.3195296E-06  0.2297739E+04  0.7818609E-02  0.8478813E-01
       -1   -1    0    0    0  501  0.00000000000E+00  0.00000000000E+00  0.59147994497E+03  0.59147994499E+03  0.50400001928E-02 0.  1.
        1   -1    0    0  501    0  0.00000000000E+00  0.00000000000E+00 -0.22315234945E+04  0.22315234946E+04  0.50400001928E-02 0. -1.
    10030    2    1    2    0    0  0.00000000000E+00  0.00000000000E+00 -0.16400435496E+04  0.28230034395E+04  0.22977392313E+04 0.  0.
        2    1    3    3  502    0 -0.92386466607E+03 -0.54392154448E+03 -0.13273680491E+04  0.17062480785E+04  0.25500000920E-02 0. -1.
       -2    1    3    3    0  502  0.92386466607E+03  0.54392154448E+03 -0.31267550051E+03  0.11167553610E+04  0.25500000920E-02 0.  1.
</event>
<event>
 5   0  0.7242214E-06  0.2297276E+04  0.7818609E-02  0.8478996E-01
       -2   -1    0    0    0  501  0.00000000000E+00  0.00000000000E+00  0.10929597984E+04  0.10929597984E+04  0.25500000920E-02 0. -1.
        2   -1    0    0  501    0  0.00000000000E+00  0.00000000000E+00 -0.12071521357E+04  0.12071521357E+04  0.25500000920E-02 0.  1.
    10030    2    1    2    0    0  0.00000000000E+00  0.00000000000E+00 -0.11419233734E+03  0.23001119341E+04  0.22972755646E+04 0.  0.
        1    1    3    3  502    0 -0.37965145453E+03 -0.31518712571E+03  0.98143595715E+03  0.10984965586E+04  0.50400001928E-02 0. -1.
       -1    1    3    3    0  502  0.37965145453E+03  0.31518712571E+03 -0.10956282945E+04  0.12016153756E+04  0.50400001928E-02 0.  1.
</event>
<event>
 5   0  0.7044981E-06  0.2294311E+04  0.7818609E-02  0.8480168E-01
       -2   -1    0    0    0  501  0.00000000000E+00  0.00000000000E+00  0.13821231439E+04  0.13821231439E+04  0.25500000920E-02 0.  1.
        2   -1    0    0  501    0  0.00000000000E+00  0.00000000000E+00 -0.95213354468E+03  0.95213354468E+03  0.25500000920E-02 0. -1.
    10030    2    1    2    0    0  0.00000000000E+00  0.00000000000E+00  0.42998959921E+03  0.23342566886E+04  0.22943110584E+04 0.  0.
        4    1    3    3  502    0 -0.26381959156E+03  0.65173711900E+03  0.11371990001E+04  0.13370060688E+04  0.12699999809E+01 0.  1.
       -4    1    3    3    0  502  0.26381959156E+03 -0.65173711900E+03 -0.70720940088E+03  0.99725061983E+03  0.12699999809E+01 0. -1.
</event>
<event>
 5   0  0.3338758E-06  0.2301912E+04  0.7818609E-02  0.8477168E-01
        1   -1    0    0  501    0  0.00000000000E+00  0.00000000000E+00  0.12994416032E+04  0.12994416032E+04  0.50400001928E-02 0. -1.
       -1   -1    0    0    0  501  0.00000000000E+00  0.00000000000E+00 -0.10194376763E+04  0.10194376763E+04  0.50400001928E-02 0.  1.
    10030    2    1    2    0    0  0.00000000000E+00  0.00000000000E+00  0.28000392690E+03  0.23188792795E+04  0.23019120126E+04 0.  0.
        5    1    3    3  502    0  0.20271578979E+03 -0.37640597562E+03 -0.93647299210E+03  0.10294556352E+04  0.46999998093E+01 0.  1.
       -5    1    3    3    0  502 -0.20271578979E+03  0.37640597562E+03  0.12164769190E+04  0.12894236443E+04  0.46999998093E+01 0. -1.
</event>
<event>
 5   0  0.7044981E-06  0.2272038E+04  0.7818609E-02  0.8489028E-01
        2   -1    0    0  501    0  0.00000000000E+00  0.00000000000E+00  0.16427539305E+04  0.16427539305E+04  0.25500000920E-02 0.  1.
       -2   -1    0    0    0  501  0.00000000000E+00  0.00000000000E+00 -0.78559512725E+03  0.78559512725E+03  0.25500000920E-02 0. -1.
    10030    2    1    2    0    0  0.00000000000E+00  0.00000000000E+00  0.85715880329E+03  0.24283490578E+04  0.22720382771E+04 0.  0.
        4    1    3    3  502    0  0.68268532912E+03  0.56933228950E+02 -0.53998785183E+03  0.87228959880E+03  0.12699999809E+01 0. -1.
       -4    1    3    3    0  502 -0.68268532912E+03 -0.56933228950E+02  0.13971466551E+04  0.15560594590E+04  0.12699999809E+01 0.  1.
</event>
<event>
 5   0  0.3238713E-06  0.2297584E+04  0.7818609E-02  0.8478874E-01
       -1   -1    0    0    0  501  0.00000000000E+00  0.00000000000E+00  0.11015381651E+04  0.11015381651E+04  0.50400001928E-02 0. -1.
        1   -1    0    0  501    0  0.00000000000E+00  0.00000000000E+00 -0.11980726845E+04  0.11980726845E+04  0.50400001928E-02 0.  1.
    10030    2    1    2    0    0  0.00000000000E+00  0.00000000000E+00 -0.96534519424E+02  0.22996108496E+04  0.22975837626E+04 0.  0.
        3    1    3    3  502    0 -0.10994946868E+04  0.50393108999E+02 -0.37763926696E+03  0.11636320113E+04  0.10100000352E+00 0.  1.
       -3    1    3    3    0  502  0.10994946868E+04 -0.50393108999E+02  0.28110474754E+03  0.11359788383E+04  0.10100000352E+00 0. -1.
</event>
<event>
 5   0  0.2519625E-06  0.2297542E+04  0.7818609E-02  0.8478891E-01
        3   -1    0    0  501    0  0.00000000000E+00  0.00000000000E+00  0.16387628938E+04  0.16387628969E+04  0.10100000352E+00 0. -1.
       -3   -1    0    0    0  501  0.00000000000E+00  0.00000000000E+00 -0.80528692874E+03  0.80528693508E+03  0.10100000352E+00 0.  1.
    10030    2    1    2    0    0  0.00000000000E+00  0.00000000000E+00  0.83347596509E+03  0.24440498320E+04  0.22975415985E+04 0.  0.
        4    1    3    3  502    0 -0.22333714833E+02  0.29636339005E+03  0.15971568436E+04  0.16245742980E+04  0.12699999809E+01 0. -1.
       -4    1    3    3    0  502  0.22333714833E+02 -0.29636339005E+03 -0.76368087850E+03  0.81947553403E+03  0.12699999809E+01 0.  1.
</event>
<event>
 5   0  0.3338758E-06  0.2337282E+04  0.7818609E-02  0.8463365E-01
       -1   -1    0    0    0  501  0.00000000000E+00  0.00000000000E+00  0.53701570834E+03  0.53701570836E+03  0.50400001928E-02 0. -1.
        1   -1    0    0  501    0  0.00000000000E+00  0.00000000000E+00 -0.25431699853E+04  0.25431699853E+04  0.50400001928E-02 0.  1.
    10030    2    1    2    0    0  0.00000000000E+00  0.00000000000E+00 -0.20061542770E+04  0.30801856937E+04  0.23372823802E+04 0.  0.
        5    1    3    3  502    0  0.39976639771E+03  0.37361882862E+01  0.44408270027E+03  0.59754386158E+03  0.46999998093E+01 0. -1.
       -5    1    3    3    0  502 -0.39976639771E+03 -0.37361882862E+01 -0.24502369773E+04  0.24826418321E+04  0.46999998093E+01 0.  1.
</event>
<event>
 5   0  0.7497344E-06  0.2303976E+04  0.7818609E-02  0.8476355E-01
       -2   -1    0    0    0  501  0.00000000000E+00  0.00000000000E+00  0.72182246844E+03  0.72182246845E+03  0.25500000920E-02 0. -1.
        2   -1    0    0  501    0  0.00000000000E+00  0.00000000000E+00 -0.18385072399E+04  0.18385072399E+04  0.25500000920E-02 0.  1.
    10030    2    1    2    0    0  0.00000000000E+00  0.00000000000E+00 -0.11166847714E+04  0.25603297083E+04  0.23039755503E+04 0.  0.
        5    1    3    3  502    0 -0.10581929073E+04  0.19111161713E+03 -0.99135504417E+02  0.10798823165E+04  0.46999998093E+01 0.  1.
       -5    1    3    3    0  502  0.10581929073E+04 -0.19111161713E+03 -0.10175492670E+04  0.14804473918E+04  0.46999998093E+01 0. -1.
</event>
<event>
 5   0  0.7497344E-06  0.2303541E+04  0.7818609E-02  0.8476526E-01
       -2   -1    0    0    0  501  0.00000000000E+00  0.00000000000E+00  0.67608848091E+03  0.67608848091E+03  0.25500000920E-02 0. -1.
        2   -1    0    0  501    0  0.00000000000E+00  0.00000000000E+00 -0.19621320792E+04  0.19621320792E+04  0.25500000920E-02 0.  1.
    10030    2    1    2    0    0  0.00000000000E+00  0.00000000000E+00 -0.12860435983E+04  0.26382205601E+04  0.23035406632E+04 0.  0.
        5    1    3    3  502    0 -0.12801509158E+03 -0.11359152569E+04 -0.80442826807E+03  0.13977904932E+04  0.46999998093E+01 0.  1.
       -5    1    3    3    0  502  0.12801509158E+03  0.11359152569E+04 -0.48161533025E+03  0.12404300669E+04  0.46999998093E+01 0. -1.
</event>
<event>
 5   0  0.7003852E-06  0.2304366E+04  0.7818609E-02  0.8476201E-01
       -2   -1    0    0    0  501  0.00000000000E+00  0.00000000000E+00  0.11997280801E+04  0.11997280801E+04  0.25500000920E-02 0. -1.
        2   -1    0    0  501    0  0.00000000000E+00  0.00000000000E+00 -0.11065225532E+04  0.11065225532E+04  0.25500000920E-02 0.  1.
    10030    2    1    2    0    0  0.00000000000E+00  0.00000000000E+00  0.93205526837E+02  0.23062506333E+04  0.23043664451E+04 0.  0.
        2    1    3    3  502    0  0.44887575553E+03  0.99811593256E+03  0.40717685156E+03  0.11676976694E+04  0.25500000920E-02 0. -1.
       -2    1    3    3    0  502 -0.44887575553E+03 -0.99811593256E+03 -0.31397132473E+03  0.11385529638E+04  0.25500000920E-02 0.  1.
</event>
<event>
 5   0  0.3184492E-06  0.2297190E+04  0.7818609E-02  0.8479030E-01
        1   -1    0    0  501    0  0.00000000000E+00  0.00000000000E+00  0.22556913711E+04  0.22556913711E+04  0.50400001928E-02 0.  1.
       -1   -1    0    0    0  501  0.00000000000E+00  0.00000000000E+00 -0.58486282145E+03  0.58486282147E+03  0.50400001928E-02 0. -1.
    10030    2    1    2    0    0  0.00000000000E+00  0.00000000000E+00  0.16708285496E+04  0.28405541925E+04  0.22971896044E+04 0.  0.
        1    1    3    3  502    0 -0.13764181741E+03 -0.15467004143E+03 -0.56159716580E+03  0.59854779949E+03  0.50400001928E-02 0. -1.
       -1    1    3    3    0  502  0.13764181741E+03  0.15467004143E+03  0.22324257154E+04  0.22420063930E+04  0.50400001928E-02 0.  1.
</event>
<event>
 5   0  0.7497344E-06  0.2255471E+04  0.7818609E-02  0.8495688E-01
        2   -1    0    0  501    0  0.00000000000E+00  0.00000000000E+00  0.21573466862E+04  0.21573466862E+04  0.25500000920E-02 0.  1.
       -2   -1    0    0    0  501  0.00000000000E+00  0.00000000000E+00 -0.58951479965E+03  0.58951479966E+03  0.25500000920E-02 0. -1.
    10030    2    1    2    0    0  0.00000000000E+00  0.00000000000E+00  0.15678318866E+04  0.27468614859E+04  0.22554713916E+04 0.  0.
        5    1    3    3  502    0 -0.45842438913E+03 -0.91485768764E+02  0.20337828162E+04  0.20868198772E+04  0.46999998093E+01 0.  1.
       -5    1    3    3    0  502  0.45842438913E+03  0.91485768764E+02 -0.46595092960E+03  0.66004160871E+03  0.46999998093E+01 0. -1.
</event>
<event>
 5   0  0.3338758E-06  0.2285549E+04  0.7818609E-02  0.8483641E-01
        1   -1    0    0  501    0  0.00000000000E+00  0.00000000000E+00  0.90415780298E+03  0.90415780299E+03  0.50400001928E-02 0. -1.
       -1   -1    0    0    0  501  0.00000000000E+00  0.00000000000E+00 -0.14443649328E+04  0.14443649329E+04  0.50400001928E-02 0.  1.
    10030    2    1    2    0    0  0.00000000000E+00  0.00000000000E+00 -0.54020712986E+03  0.23485227358E+04  0.22855492333E+04 0.  0.
        5    1    3    3  502    0  0.10353896038E+04  0.38266514928E+03 -0.57396658709E+03  0.12441559312E+04  0.46999998093E+01 0. -1.
       -5    1    3    3    0  502 -0.10353896038E+04 -0.38266514928E+03  0.33759457230E+02  0.11043668046E+04  0.46999998093E+01 0.  1.
</event>
<event>
 5   0  0.7348107E-06  0.2299216E+04  0.7818609E-02  0.8478230E-01
        2   -1    0    0  501    0  0.00000000000E+00  0.00000000000E+00  0.85623072591E+03  0.85623072591E+03  0.25500000920E-02 0. -1.
       -2   -1    0    0    0  501  0.00000000000E+00  0.00000000000E+00 -0.15435077176E+04  0.15435077176E+04  0.25500000920E-02 0.  1.
    10030    2    1    2    0    0  0.00000000000E+00  0.00000000000E+00 -0.68727699166E+03  0.23997384435E+04  0.22992161564E+04 0.  0.
        3    1    3    3  502    0 -0.90730291874E+03  0.52395519325E+03 -0.83747491577E+03  0.13413023058E+04  0.10100000352E+00 0.  1.
       -3    1    3    3    0  502  0.90730291874E+03 -0.52395519325E+03  0.15019792410E+03  0.10584361377E+04  0.10100000352E+00 0. -1.
</event>
<event>
 5   0  0.7497344E-06  0.2298869E+04  0.7818609E-02  0.8478367E-01
        2   -1    0    0  501    0  0.00000000000E+00  0.00000000000E+00  0.11690043745E+04  0.11690043745E+04  0.25500000920E-02 0. -1.
       -2   -1    0    0    0  501  0.00000000000E+00  0.00000000000E+00 -0.11301922433E+04  0.11301922433E+04  0.25500000920E-02 0.  1.
    10030    2    1    2    0    0  0.00000000000E+00  0.00000000000E+00  0.38812131248E+02  0.22991966178E+04  0.22988690058E+04 0.  0.
        5    1    3    3  502    0  0.59327388204E+03 -0.96608835968E+03 -0.17003309355E+03  0.11464004365E+04  0.46999998093E+01 0.  1.
       -5    1    3    3    0  502 -0.59327388204E+03  0.96608835968E+03  0.20884522480E+03  0.11527961814E+04  0.46999998093E+01 0. -1.
</event>
<event>
 5   0  0.3226427E-06  0.2298390E+04  0.7818609E-02  0.8478556E-01
        1   -1    0    0  501    0  0.00000000000E+00  0.00000000000E+00  0.98867507283E+03  0.98867507284E+03  0.50400001928E-02 0. -1.
       -1   -1    0    0    0  501  0.00000000000E+00  0.00000000000E+00 -0.13357769676E+04  0.13357769676E+04  0.50400001928E-02 0.  1.
    10030    2    1    2    0    0  0.00000000000E+00  0.00000000000E+00 -0.34710189475E+03  0.23244520404E+04  0.22983902112E+04 0.  0.
        4    1    3    3  502    0 -0.57753415825E+03  0.99147645081E+03 -0.23812256827E+03  0.11718682634E+04  0.12699999809E+01 0.  1.
       -4    1    3    3    0  502  0.57753415825E+03 -0.99147645081E+03 -0.10897932648E+03  0.11525837770E+04  0.12699999809E+01 0. -1.
</event>
<event>
 5   0  0.7348107E-06  0.2299905E+04  0.7818609E-02  0.8477958E-01
       -2   -1    0    0    0  501  0.00000000000E+00  0.00000000000E+00  0.12866229785E+04  0.12866229785E+04  0.25500000920E-02 0. -1.
        2   -1    0    0  501    0  0.00000000000E+00  0.00000000000E+00 -0.10277999439E+04  0.10277999439E+04  0.25500000920E-02 0.  1.
    10030    2    1    2    0    0  0.00000000000E+00  0.00000000000E+00  0.25882303466E+03  0.23144229224E+04  0.22999052373E+04 0.  0.
        3    1    3    3  502    0  0.58350623310E+03  0.85352558523E+03 -0.37716010207E+03  0.11005613120E+04  0.10100000352E+00 0.  1.
       -3    1    3    3    0  502 -0.58350623310E+03 -0.85352558523E+03  0.63598313673E+03  0.12138616104E+04  0.10100000352E+00 0. -1.
</event>
<event>
 5   0  0.7003852E-06  0.2298455E+04  0.7818609E-02  0.8478530E-01
        2   -1    0    0  501    0  0.00000000000E+00  0.00000000000E+00  0.25144585926E+04  0.25144585926E+04  0.25500000920E-02 0.  1.
       -2   -1    0    0    0  501  0.00000000000E+00  0.00000000000E+00 -0.52525198517E+03  0.52525198518E+03  0.25500000920E-02 0. -1.
    10030    2    1    2    0    0  0.00000000000E+00  0.00000000000E+00  0.19892066074E+04  0.30397105777E+04  0.22984554530E+04 0.  0.
        2    1    3    3  502    0  0.22086637767E+03  0.33837625579E+03  0.24174107282E+04  0.24509498314E+04  0.25500000920E-02 0.  1.
       -2    1    3    3    0  502 -0.22086637767E+03 -0.33837625579E+03 -0.42820412084E+03  0.58876074630E+03  0.25500000920E-02 0. -1.
</event>
<event>
 5   0  0.7044981E-06  0.2302124E+04  0.7818609E-02  0.8477084E-01
        2   -1    0    0  501    0  0.00000000000E+00  0.00000000000E+00  0.10233497325E+04  0.10233497325E+04  0.25500000920E-02 0. -1.
       -2   -1    0    0    0  501  0.00000000000E+00  0.00000000000E+00 -0.12947121737E+04  0.12947121737E+04  0.25500000920E-02 0.  1.
    10030    2    1    2    0    0  0.00000000000E+00  0.00000000000E+00 -0.27136244121E+03  0.23180619063E+04  0.23021236776E+04 0.  0.
        4    1    3    3  502    0  0.43933860429E+03 -0.60332627089E+03 -0.10180590318E+04  0.12623259498E+04  0.12699999809E+01 0.  1.
       -4    1    3    3    0  502 -0.43933860429E+03  0.60332627089E+03  0.74669659064E+03  0.10557359564E+04  0.12699999809E+01 0. -1.
</event>
<event>
 5   0  0.7348107E-06  0.2306929E+04  0.7818609E-02  0.8475194E-01
       -2   -1    0    0    0  501  0.00000000000E+00  0.00000000000E+00  0.15093403684E+04  0.15093403684E+04  0.25500000920E-02 0.  1.
        2   -1    0    0  501    0  0.00000000000E+00  0.00000000000E+00 -0.88149794424E+03  0.88149794424E+03  0.25500000920E-02 0. -1.
    10030    2    1    2    0    0  0.00000000000E+00  0.00000000000E+00  0.62784242415E+03  0.23908383126E+04  0.23069290686E+04 0.  0.
        3    1    3    3  502    0  0.70529527456E+03  0.36274549767E+03  0.11819133279E+04  0.14233568932E+04  0.10100000352E+00 0.  1.
       -3    1    3    3    0  502 -0.70529527456E+03 -0.36274549767E+03 -0.55407090378E+03  0.96748141947E+03  0.10100000352E+00 0. -1.
</event>
<event>
 5   0  0.7242214E-06  0.2296913E+04  0.7818609E-02  0.8479139E-01
       -2   -1    0    0    0  501  0.00000000000E+00  0.00000000000E+00  0.91238922092E+03  0.91238922093E+03  0.25500000920E-02 0. -1.
        2   -1    0    0  501    0  0.00000000000E+00  0.00000000000E+00 -0.14456023581E+04  0.14456023581E+04  0.25500000920E-02 0.  1.
    10030    2    1    2    0    0  0.00000000000E+00  0.00000000000E+00 -0.53321313717E+03  0.23579915790E+04  0.22969127187E+04 0.  0.
        1    1    3    3  502    0 -0.46033925570E+03  0.34143211421E+02  0.81296287812E+03  0.93487252097E+03  0.50400001928E-02 0. -1.
       -1    1    3    3    0  502  0.46033925570E+03 -0.34143211421E+02 -0.13461760153E+04  0.14231190581E+04  0.50400001928E-02 0.  1.
</event>
<event>
 5   0  0.7242214E-06  0.2304354E+04  0.7818609E-02  0.8476206E-01
       -2   -1    0    0    0  501  0.00000000000E+00  0.00000000000E+00  0.57279530672E+03  0.57279530673E+03  0.25500000920E-02 0. -1.
        2   -1    0    0  501    0  0.00000000000E+00  0.00000000000E+00 -0.23176023527E+04  0.23176023527E+04  0.25500000920E-02 0.  1.
    10030    2    1    2    0    0  0.00000000000E+00  0.00000000000E+00 -0.17448070460E+04  0.28903976595E+04  0.23043539229E+04 0.  0.
        1    1    3    3  502    0 -0.47526817823E+03  0.51382499510E+03 -0.20203743205E+04  0.21381787488E+04  0.50400001928E-02 0.  1.
       -1    1    3    3    0  502  0.47526817823E+03 -0.51382499510E+03  0.27556727446E+03  0.75221891070E+03  0.50400001928E-02 0. -1.
</event>
<event>
 5   0  0.3184492E-06  0.2299385E+04  0.7818609E-02  0.8478164E-01
        1   -1    0    0  501    0  0.00000000000E+00  0.00000000000E+00  0.21564478387E+04  0.21564478387E+04  0.50400001928E-02 0.  1.
       -1   -1    0    0    0  501  0.00000000000E+00  0.00000000000E+00 -0.61294902271E+03  0.61294902273E+03  0.50400001928E-02 0. -1.
    10030    2    1    2    0    0  0.00000000000E+00  0.00000000000E+00  0.15434988160E+04  0.27693968614E+04  0.22993847832E+04 0.  0.
        1    1    3    3  502    0  0.64660428401E+02 -0.89256270237E+03 -0.97548895812E+02  0.90020271926E+03  0.50400001928E-02 0. -1.
       -1    1    3    3    0  502 -0.64660428401E+02  0.89256270237E+03  0.16410477118E+04  0.18691941421E+04  0.50400001928E-02 0.  1.
</event>
<event>
 5   0  0.3195296E-06  0.2296852E+04  0.7818609E-02  0.8479163E-01
        1   -1    0    0  501    0  0.00000000000E+00  0.00000000000E+00  0.10419800131E+04  0.10419800131E+04  0.50400001928E-02 0.  1.
       -1   -1    0    0    0  501  0.00000000000E+00  0.00000000000E+00 -0.12657460828E+04  0.12657460828E+04  0.50400001928E-02 0. -1.
    10030    2    1    2    0    0  0.00000000000E+00  0.00000000000E+00 -0.22376606963E+03  0.23077260959E+04  0.22968518628E+04 0.  0.
        2    1    3    3  502    0  0.67518296780E+03  0.48350400509E+03 -0.90888125387E+03  0.12311430853E+04  0.25500000920E-02 0. -1.
       -2    1    3    3    0  502 -0.67518296780E+03 -0.48350400509E+03  0.68511518424E+03  0.10765830106E+04  0.25500000920E-02 0.  1.
</event>
<event>
 5   0  0.7242214E-06  0.2301995E+04  0.7818609E-02  0.8477135E-01
        2   -1    0    0  501    0  0.00000000000E+00  0.00000000000E+00  0.30548480757E+04  0.30548480757E+04  0.25500000920E-02 0.  1.
       -2   -1    0    0    0  501  0.00000000000E+00  0.00000000000E+00 -0.43366990680E+03  0.43366990681E+03  0.25500000920E-02 0. -1.
    10030    2    1    2    0    0  0.00000000000E+00  0.00000000000E+00  0.26211781689E+04  0.34885179825E+04  0.23019953782E+04 0.  0.
        1    1    3    3  502    0 -0.16990825463E+03 -0.57613331589E+03 -0.17731323275E+03  0.62628938615E+03  0.50400001928E-02 0. -1.
       -1    1    3    3    0  502  0.16990825463E+03  0.57613331589E+03  0.27984914016E+04  0.28622285963E+04  0.50400001928E-02 0.  1.
</event>
<event>
 5   0  0.3338758E-06  0.2297071E+04  0.7818609E-02  0.8479077E-01
        1   -1    0    0  501    0  0.00000000000E+00  0.00000000000E+00  0.15499665722E+04  0.15499665722E+04  0.50400001928E-02 0.  1.
       -1   -1    0    0    0  501  0.00000000000E+00  0.00000000000E+00 -0.85107266126E+03  0.85107266127E+03  0.50400001928E-02 0. -1.
    10030    2    1    2    0    0  0.00000000000E+00  0.00000000000E+00  0.69889391091E+03  0.24010392335E+04  0.22970713315E+04 0.  0.
        5    1    3    3  502    0 -0.43258015027E+03 -0.23292818159E+03 -0.73567850795E+03  0.88466156311E+03  0.46999998093E+01 0. -1.
       -5    1    3    3    0  502  0.43258015027E+03  0.23292818159E+03  0.14345724189E+04  0.15163776703E+04  0.46999998093E+01 0.  1.
</event>
<event>
 5   0  0.7497344E-06  0.2298243E+04  0.7818609E-02  0.8478614E-01
       -2   -1    0    0    0  501  0.00000000000E+00  0.00000000000E+00  0.11350462523E+04  0.11350462523E+04  0.25500000920E-02 0. -1.
        2   -1    0    0  501    0  0.00000000000E+00  0.00000000000E+00 -0.11633716261E+04  0.11633716261E+04  0.25500000920E-02 0.  1.
    10030    2    1    2    0    0  0.00000000000E+00  0.00000000000E+00 -0.28325373802E+02  0.22984178783E+04  0.22982433328E+04 0.  0.
        5    1    3    3  502    0  0.11150587354E+04  0.34696728433E+02 -0.28968073870E+03  0.11526043843E+04  0.46999998093E+01 0.  1.
       -5    1    3    3    0  502 -0.11150587354E+04 -0.34696728433E+02  0.26135536489E+03  0.11458134940E+04  0.46999998093E+01 0. -1.
</event>
<event>
 5   0  0.3238713E-06  0.2301699E+04  0.7818609E-02  0.8477252E-01
        1   -1    0    0  501    0  0.00000000000E+00  0.00000000000E+00  0.15592082360E+04  0.15592082360E+04  0.50400001928E-02 0.  1.
       -1   -1    0    0    0  501  0.00000000000E+00  0.00000000000E+00 -0.84944046180E+03  0.84944046181E+03  0.50400001928E-02 0. -1.
    10030    2    1    2    0    0  0.00000000000E+00  0.00000000000E+00  0.70976777423E+03  0.24086486979E+04  0.23016989934E+04 0.  0.
        3    1    3    3  502    0  0.29672665812E+03 -0.97294281237E+03 -0.20845110443E+03  0.10383237929E+04  0.10100000352E+00 0. -1.
       -3    1    3    3    0  502 -0.29672665812E+03  0.97294281237E+03  0.91821887866E+03  0.13703249049E+04  0.10100000352E+00 0.  1.
</event>
<event>
 5   0  0.7003852E-06  0.2304743E+04  0.7818609E-02  0.8476053E-01
        2   -1    0    0  501    0  0.00000000000E+00  0.00000000000E+00  0.16330072414E+04  0.16330072414E+04  0.25500000920E-02 0.  1.
       -2   -1    0    0    0  501  0.00000000000E+00  0.00000000000E+00 -0.81319928963E+03  0.81319928963E+03  0.25500000920E-02 0. -1.
    10030    2    1    2    0    0  0.00000000000E+00  0.00000000000E+00  0.81980795179E+03  0.24462065310E+04  0.23047432210E+04 0.  0.
        2    1    3    3  502    0  0.45674534472E+03  0.10579783742E+04  0.40451507842E+03  0.12212972606E+04  0.25500000920E-02 0. -1.
       -2    1    3    3    0  502 -0.45674534472E+03 -0.10579783742E+04  0.41529287337E+03  0.12249092704E+04  0.25500000920E-02 0.  1.
</event>
<event>
 5   0  0.3226427E-06  0.2300236E+04  0.7818609E-02  0.8477828E-01
       -1   -1    0    0    0  501  0.00000000000E+00  0.00000000000E+00  0.13578755015E+04  0.13578755015E+04  0.50400001928E-02 0. -1.
        1   -1    0    0  501    0  0.00000000000E+00  0.00000000000E+00 -0.97414752233E+03  0.97414752235E+03  0.50400001928E-02 0.  1.
    10030    2    1    2    0    0  0.00000000000E+00  0.00000000000E+00  0.38372797913E+03  0.23320230238E+04  0.23002356883E+04 0.  0.
        4    1    3    3  502    0  0.19355467462E+03 -0.98198439988E+03 -0.38254546911E+03  0.10714940142E+04  0.12699999809E+01 0.  1.
       -4    1    3    3    0  502 -0.19355467462E+03  0.98198439988E+03  0.76627344824E+03  0.12605290096E+04  0.12699999809E+01 0. -1.
</event>
<event>
 5   0  0.3338758E-06  0.2297913E+04  0.7818609E-02  0.8478744E-01
        1   -1    0    0  501    0  0.00000000000E+00  0.00000000000E+00  0.12315154137E+04  0.12315154138E+04  0.50400001928E-02 0. -1.
       -1   -1    0    0    0  501  0.00000000000E+00  0.00000000000E+00 -0.10719324146E+04  0.10719324146E+04  0.50400001928E-02 0.  1.
    10030    2    1    2    0    0  0.00000000000E+00  0.00000000000E+00  0.15958299918E+03  0.23034478283E+04  0.22979132195E+04 0.  0.
        5    1    3    3  502    0 -0.37425346957E+03  0.21947298869E+03  0.11462360112E+04  0.12256072518E+04  0.46999998093E+01 0. -1.
       -5    1    3    3    0  502  0.37425346957E+03 -0.21947298869E+03 -0.98665301204E+03  0.10778405765E+04  0.46999998093E+01 0.  1.
</event>
<event>
 5   0  0.3184492E-06  0.2283066E+04  0.7818609E-02  0.8484628E-01
        1   -1    0    0  501    0  0.00000000000E+00  0.00000000000E+00  0.16606884724E+04  0.16606884724E+04  0.50400001928E-02 0.  1.
       -1   -1    0    0    0  501  0.00000000000E+00  0.00000000000E+00 -0.78467287254E+03  0.78467287256E+03  0.50400001928E-02 0. -1.
    10030    2    1    2    0    0  0.00000000000E+00  0.00000000000E+00  0.87601559984E+03  0.24453613449E+04  0.22830656531E+04 0.  0.
        1    1    3    3  502    0 -0.86977354030E+03  0.54232264953E+03 -0.10018245994E+03  0.10298817373E+04  0.50400001928E-02 0. -1.
       -1    1    3    3    0  502  0.86977354030E+03 -0.54232264953E+03  0.97619805978E+03  0.14154796076E+04  0.50400001928E-02 0.  1.
</event>
<event>
 5   0  0.3195296E-06  0.2301946E+04  0.7818609E-02  0.8477154E-01
       -1   -1    0    0    0  501  0.00000000000E+00  0.00000000000E+00  0.83523716533E+03  0.83523716535E+03  0.50400001928E-02 0.  1.
        1   -1    0    0  501    0  0.00000000000E+00  0.00000000000E+00 -0.15860634530E+04  0.15860634530E+04  0.50400001928E-02 0. -1.
    10030    2    1    2    0    0  0.00000000000E+00  0.00000000000E+00 -0.75082628765E+03  0.24213006183E+04  0.23019462570E+04 0.  0.
        2    1    3    3  502    0  0.26509357691E+03 -0.75568652257E+03  0.49413130783E+03  0.94101141029E+03  0.25500000920E-02 0.  1.
       -2    1    3    3    0  502 -0.26509357691E+03  0.75568652257E+03 -0.12449575955E+04  0.14802892080E+04  0.25500000920E-02 0. -1.
</event>
<event>
 5   0  0.7348107E-06  0.2310645E+04  0.7818609E-02  0.8473736E-01
       -2   -1    0    0    0  501  0.00000000000E+00  0.00000000000E+00  0.64731104942E+03  0.64731104943E+03  0.25500000920E-02 0.  1.
        2   -1    0    0  501    0  0.00000000000E+00  0.00000000000E+00 -0.20620225995E+04  0.20620225995E+04  0.25500000920E-02 0. -1.
    10030    2    1    2    0    0  0.00000000000E+00  0.00000000000E+00 -0.14147115500E+04  0.27093336489E+04  0.23106449427E+04 0.  0.
        3    1    3    3  502    0 -0.26710832918E+03  0.87994197869E+03  0.11269231081E+03  0.92646873261E+03  0.10100000352E+00 0.  1.
       -3    1    3    3    0  502  0.26710832918E+03 -0.87994197869E+03 -0.15274038608E+04  0.17828649163E+04  0.10100000352E+00 0. -1.
</event>
<event>
 5   0  0.7242214E-06  0.2299891E+04  0.7818609E-02  0.8477964E-01
       -2   -1    0    0    0  501  0.00000000000E+00  0.00000000000E+00  0.11296370058E+04  0.11296370058E+04  0.25500000920E-02 0. -1.
        2   -1    0    0  501    0  0.00000000000E+00  0.00000000000E+00 -0.11706188269E+04  0.11706188269E+04  0.25500000920E-02 0.  1.
    10030    2    1    2    0    0  0.00000000000E+00  0.00000000000E+00 -0.40981821070E+02  0.23002558326E+04  0.22998907335E+04 0.  0.
        1    1    3    3  502    0 -0.93486470330E+03 -0.34857273576E+03  0.55135100578E+03  0.11399398656E+04  0.50400001928E-02 0. -1.
       -1    1    3    3    0  502  0.93486470330E+03  0.34857273576E+03 -0.59233282685E+03  0.11603159670E+04  0.50400001928E-02 0.  1.
</event>
<event>
 5   0  0.3195296E-06  0.2303626E+04  0.7818609E-02  0.8476493E-01
        1   -1    0    0  501    0  0.00000000000E+00  0.00000000000E+00  0.13340718141E+04  0.13340718141E+04  0.50400001928E-02 0.  1.
       -1   -1    0    0    0  501  0.00000000000E+00  0.00000000000E+00 -0.99445390053E+03  0.99445390054E+03  0.50400001928E-02 0. -1.
    10030    2    1    2    0    0  0.00000000000E+00  0.00000000000E+00  0.33961791357E+03  0.23285257147E+04  0.23036257675E+04 0.  0.
        2    1    3    3  502    0 -0.33628281846E+03 -0.39443620406E+03 -0.86990375470E+03  0.10126196697E+04  0.25500000920E-02 0. -1.
       -2    1    3    3    0  502  0.33628281846E+03  0.39443620406E+03  0.12095216683E+04  0.13159060449E+04  0.25500000920E-02 0.  1.
</event>
<event>
 5   0  0.3226427E-06  0.2300701E+04  0.7818609E-02  0.8477645E-01
        1   -1    0    0  501    0  0.00000000000E+00  0.00000000000E+00  0.51496021056E+03  0.51496021059E+03  0.50400001928E-02 0.  1.
       -1   -1    0    0    0  501  0.00000000000E+00  0.00000000000E+00 -0.25697244044E+04  0.25697244044E+04  0.50400001928E-02 0. -1.
    10030    2    1    2    0    0  0.00000000000E+00  0.00000000000E+00 -0.20547641938E+04  0.30846846150E+04  0.23007006067E+04 0.  0.
        4    1    3    3  502    0 -0.11920689439E+03  0.93441445250E+03 -0.14211208500E+03  0.95264794668E+03  0.12699999809E+01 0.  1.
       -4    1    3    3    0  502  0.11920689439E+03 -0.93441445250E+03 -0.19126521088E+04  0.21320366683E+04  0.12699999809E+01 0. -1.
</event>
<event>
 5   0  0.3238713E-06  0.2293778E+04  0.7818609E-02  0.8480378E-01
        1   -1    0    0  501    0  0.00000000000E+00  0.00000000000E+00  0.99815953867E+03  0.99815953868E+03  0.50400001928E-02 0.  1.
       -1   -1    0    0    0  501  0.00000000000E+00  0.00000000000E+00 -0.13177795697E+04  0.13177795697E+04  0.50400001928E-02 0. -1.
    10030    2    1    2    0    0  0.00000000000E+00  0.00000000000E+00 -0.31962003099E+03  0.23159391084E+04  0.22937778858E+04 0.  0.
        3    1    3    3  502    0 -0.65657906057E+03  0.16884896470E+03  0.77419406302E+03  0.10290687504E+04  0.10100000352E+00 0.  1.
       -3    1    3    3    0  502  0.65657906057E+03 -0.16884896470E+03 -0.10938140940E+04  0.12868703579E+04  0.10100000352E+00 0. -1.
</event>
<event>
 5   0  0.3226427E-06  0.2300346E+04  0.7818609E-02  0.8477785E-01
       -1   -1    0    0    0  501  0.00000000000E+00  0.00000000000E+00  0.96227781802E+03  0.96227781804E+03  0.50400001928E-02 0. -1.
        1   -1    0    0  501    0  0.00000000000E+00  0.00000000000E+00 -0.13747571862E+04  0.13747571862E+04  0.50400001928E-02 0.  1.
    10030    2    1    2    0    0  0.00000000000E+00  0.00000000000E+00 -0.41247936814E+03  0.23370350042E+04  0.23003463613E+04 0.  0.
        4    1    3    3  502    0  0.96196216653E+03 -0.51908880455E+03  0.15734003523E+03  0.11043468189E+04  0.12699999809E+01 0. -1.
       -4    1    3    3    0  502 -0.96196216653E+03  0.51908880455E+03 -0.56981940337E+03  0.12326881853E+04  0.12699999809E+01 0.  1.
</event>
<event>
 5   0  0.7003852E-06  0.2294497E+04  0.7818609E-02  0.8480094E-01
       -2   -1    0    0    0  501  0.00000000000E+00  0.00000000000E+00  0.63988136158E+03  0.63988136158E+03  0.25500000920E-02 0. -1.
        2   -1    0    0  501    0  0.00000000000E+00  0.00000000000E+00 -0.20569113032E+04  0.20569113032E+04  0.25500000920E-02 0.  1.
    10030    2    1    2    0    0  0.00000000000E+00  0.00000000000E+00 -0.14170299416E+04  0.26967926648E+04  0.22944970737E+04 0.  0.
        2    1    3    3  502    0 -0.40499654531E+03 -0.30394961745E+03 -0.19184615485E+04  0.19841628675E+04  0.25500000920E-02 0.  1.
       -2    1    3    3    0  502  0.40499654531E+03  0.30394961745E+03  0.50143160685E+03  0.71262979731E+03  0.25500000920E-02 0. -1.
</event>
<event>
 5   0  0.7242214E-06  0.2303383E+04  0.7818609E-02  0.8476589E-01
       -2   -1    0    0    0  501  0.00000000000E+00  0.00000000000E+00  0.77741457256E+03  0.77741457256E+03  0.25500000920E-02 0.  1.
        2   -1    0    0  501    0  0.00000000000E+00  0.00000000000E+00 -0.17061592697E+04  0.17061592697E+04  0.25500000920E-02 0. -1.
    10030    2    1    2    0    0  0.00000000000E+00  0.00000000000E+00 -0.92874469715E+03  0.24835738423E+04  0.23033827987E+04 0.  0.
        1    1    3    3  502    0  0.11035512187E+04 -0.10050788974E+02 -0.81947941032E+03  0.13745809597E+04  0.50400001928E-02 0. -1.
       -1    1    3    3    0  502 -0.11035512187E+04  0.10050788974E+02 -0.10926528683E+03  0.11089928826E+04  0.50400001928E-02 0.  1.
</event>
<event>
 5   0  0.3184492E-06  0.2297159E+04  0.7818609E-02  0.8479042E-01
       -1   -1    0    0    0  501  0.00000000000E+00  0.00000000000E+00  0.12243475699E+04  0.12243475699E+04  0.50400001928E-02 0.  1.
        1   -1    0    0  501    0  0.00000000000E+00  0.00000000000E+00 -0.10774998830E+04  0.10774998831E+04  0.50400001928E-02 0. -1.
    10030    2    1    2    0    0  0.00000000000E+00  0.00000000000E+00  0.14684768683E+03  0.23018474529E+04  0.22971585608E+04 0.  0.
        1    1    3    3  502    0 -0.52960064181E+02 -0.87424498050E+03 -0.67114420122E+03  0.11034235783E+04  0.50400001928E-02 0. -1.
       -1    1    3    3    0  502  0.52960064181E+02  0.87424498050E+03  0.81799188806E+03  0.11984238746E+04  0.50400001928E-02 0.  1.
</event>
<event>
 5   0  0.7003852E-06  0.2298926E+04  0.7818609E-02  0.8478345E-01
       -2   -1    0    0    0  501  0.00000000000E+00  0.00000000000E+00  0.68543917647E+03  0.68543917647E+03  0.25500000920E-02 0. -1.
        2   -1    0    0  501    0  0.00000000000E+00  0.00000000000E+00 -0.19276189156E+04  0.19276189156E+04  0.25500000920E-02 0.  1.
    10030    2    1    2    0    0  0.00000000000E+00  0.00000000000E+00 -0.12421797391E+04  0.26130580921E+04  0.22989262903E+04 0.  0.
        2    1    3    3  502    0  0.90000401529E+03 -0.12775672199E+03  0.17855796544E+03  0.92639729845E+03  0.25500000920E-02 0. -1.
       -2    1    3    3    0  502 -0.90000401529E+03  0.12775672199E+03 -0.14207377045E+04  0.16866607936E+04  0.25500000920E-02 0.  1.
</event>
<event>
 5   0  0.3238713E-06  0.2292863E+04  0.7818609E-02  0.8480741E-01
       -1   -1    0    0    0  501  0.00000000000E+00  0.00000000000E+00  0.59374843633E+03  0.59374843635E+03  0.50400001928E-02 0.  1.
        1   -1    0    0  501    0  0.00000000000E+00  0.00000000000E+00 -0.22135716369E+04  0.22135716369E+04  0.50400001928E-02 0. -1.
    10030    2    1    2    0    0  0.00000000000E+00  0.00000000000E+00 -0.16198232005E+04  0.28073200732E+04  0.22928625760E+04 0.  0.
        3    1    3    3  502    0 -0.68690417054E+02 -0.56837788341E+03  0.40618952668E+03  0.70196989503E+03  0.10100000352E+00 0.  1.
       -3    1    3    3    0  502  0.68690417054E+02  0.56837788341E+03 -0.20260127272E+04  0.21053501782E+04  0.10100000352E+00 0. -1.
</event>
<event>
 5   0  0.7242214E-06  0.2298847E+04  0.7818609E-02  0.8478376E-01
        2   -1    0    0  501    0  0.00000000000E+00  0.00000000000E+00  0.15105731263E+04  0.15105731263E+04  0.25500000920E-02 0. -1.
       -2   -1    0    0    0  501  0.00000000000E+00  0.00000000000E+00 -0.87461759048E+03  0.87461759048E+03  0.25500000920E-02 0.  1.
    10030    2    1    2    0    0  0.00000000000E+00  0.00000000000E+00  0.63595553581E+03  0.23851907168E+04  0.22988465177E+04 0.  0.
        1    1    3    3  502    0  0.59818547344E+03  0.13563959882E+03  0.13265744097E+04  0.14615141552E+04  0.50400001928E-02 0. -1.
       -1    1    3    3    0  502 -0.59818547344E+03 -0.13563959882E+03 -0.69061887388E+03  0.92367656156E+03  0.50400001928E-02 0.  1.
</event>
<event>
 5   0  0.3238713E-06  0.2299254E+04  0.7818609E-02  0.8478215E-01
        1   -1    0    0  501    0  0.00000000000E+00  0.00000000000E+00  0.16231651980E+04  0.16231651981E+04  0.50400001928E-02 0.  1.
       -1   -1    0    0    0  501  0.00000000000E+00  0.00000000000E+00 -0.81423788898E+03  0.81423788899E+03  0.50400001928E-02 0. -1.
    10030    2    1    2    0    0  0.00000000000E+00  0.00000000000E+00  0.80892730907E+03  0.24374030870E+04  0.22992543177E+04 0.  0.
        3    1    3    3  502    0 -0.79020864727E+03  0.50684705108E+02  0.12879940086E+04  0.15119283125E+04  0.10100000352E+00 0.  1.
       -3    1    3    3    0  502  0.79020864727E+03 -0.50684705108E+02 -0.47906669956E+03  0.92547477458E+03  0.10100000352E+00 0. -1.
</event>
<event>
 5   0  0.7497344E-06  0.2299883E+04  0.7818609E-02  0.8477967E-01
        2   -1    0    0  501    0  0.00000000000E+00  0.00000000000E+00  0.12430667754E+04  0.12430667754E+04  0.25500000920E-02 0.  1.
       -2   -1    0    0    0  501  0.00000000000E+00  0.00000000000E+00 -0.10637926524E+04  0.10637926524E+04  0.25500000920E-02 0. -1.
    10030    2    1    2    0    0  0.00000000000E+00  0.00000000000E+00  0.17927412302E+03  0.23068594279E+04  0.22998828685E+04 0.  0.
        5    1    3    3  502    0 -0.23785729786E+03  0.90796394501E+03  0.75600811828E+03  0.12052157419E+04  0.46999998093E+01 0. -1.
       -5    1    3    3    0  502  0.23785729786E+03 -0.90796394501E+03 -0.57673399526E+03  0.11016436860E+04  0.46999998093E+01 0.  1.
</event>
<event>
 5   0  0.7242214E-06  0.2307716E+04  0.7818609E-02  0.8474885E-01
        2   -1    0    0  501    0  0.00000000000E+00  0.00000000000E+00  0.14652669487E+04  0.14652669487E+04  0.25500000920E-02 0. -1.
       -2   -1    0    0    0  501  0.00000000000E+00  0.00000000000E+00 -0.90863174847E+03  0.90863174847E+03  0.25500000920E-02 0.  1.
    10030    2    1    2    0    0  0.00000000000E+00  0.00000000000E+00  0.55663520024E+03  0.23738986972E+04  0.23077158140E+04 0.  0.
        1    1    3    3  502    0  0.59666198590E+03  0.98761124022E+03  0.27567841574E+03  0.11863305088E+04  0.50400001928E-02 0. -1.
       -1    1    3    3    0  502 -0.59666198590E+03 -0.98761124022E+03  0.28095678450E+03  0.11875681884E+04  0.50400001928E-02 0.  1.
</event>
<event>
 5   0  0.3195296E-06  0.2335682E+04  0.7818609E-02  0.8463984E-01
       -1   -1    0    0    0  501  0.00000000000E+00  0.00000000000E+00  0.55837322675E+03  0.55837322677E+03  0.50400001928E-02 0.  1.
        1   -1    0    0  501    0  0.00000000000E+00  0.00000000000E+00 -0.24425460162E+04  0.24425460162E+04  0.50400001928E-02 0. -1.
    10030    2    1    2    0    0  0.00000000000E+00  0.00000000000E+00 -0.18841727895E+04  0.30009192430E+04  0.23356817425E+04 0.  0.
        2    1    3    3  502    0  0.77214351567E+02  0.10112345531E+04 -0.16860541813E+04  0.19675711118E+04  0.25500000920E-02 0.  1.
       -2    1    3    3    0  502 -0.77214351567E+02 -0.10112345531E+04 -0.19811860811E+03  0.10333481312E+04  0.25500000920E-02 0. -1.
</event>
<event>
 5   0  0.7003852E-06  0.2311406E+04  0.7818609E-02  0.8473438E-01
       -2   -1    0    0    0  501  0.00000000000E+00  0.00000000000E+00  0.11530522102E+04  0.11530522102E+04  0.25500000920E-02 0.  1.
        2   -1    0    0  501    0  0.00000000000E+00  0.00000000000E+00 -0.11583595276E+04  0.11583595276E+04  0.25500000920E-02 0. -1.
    10030    2    1    2    0    0  0.00000000000E+00  0.00000000000E+00 -0.53073173570E+01  0.23114117378E+04  0.23114056446E+04 0.  0.
        2    1    3    3  502    0 -0.57398939948E+03 -0.44436156857E+03  0.89664175606E+03  0.11536409637E+04  0.25500000920E-02 0.  1.
       -2    1    3    3    0  502  0.57398939948E+03  0.44436156857E+03 -0.90194907342E+03  0.11577707741E+04  0.25500000920E-02 0. -1.
</event>
<event>
 5   0  0.7242214E-06  0.2309064E+04  0.7818609E-02  0.8474356E-01
       -2   -1    0    0    0  501  0.00000000000E+00  0.00000000000E+00  0.10104444974E+04  0.10104444975E+04  0.25500000920E-02 0.  1.
        2   -1    0    0  501    0  0.00000000000E+00  0.00000000000E+00 -0.13191660786E+04  0.13191660786E+04  0.25500000920E-02 0. -1.
    10030    2    1    2    0    0  0.00000000000E+00  0.00000000000E+00 -0.30872158112E+03  0.23296105760E+04  0.23090639708E+04 0.  0.
        1    1    3    3  502    0  0.26629226707E+03 -0.75999878627E+03  0.68030626516E+03  0.10541946410E+04  0.50400001928E-02 0.  1.
       -1    1    3    3    0  502 -0.26629226707E+03  0.75999878627E+03 -0.98902784628E+03  0.12754159350E+04  0.50400001928E-02 0. -1.
</event>
<event>
 5   0  0.3195296E-06  0.2297214E+04  0.7818609E-02  0.8479020E-01
        1   -1    0    0  501    0  0.00000000000E+00  0.00000000000E+00  0.23307166451E+04  0.23307166451E+04  0.50400001928E-02 0. -1.
       -1   -1    0    0    0  501  0.00000000000E+00  0.00000000000E+00 -0.56604831842E+03  0.56604831844E+03  0.50400001928E-02 0.  1.
    10030    2    1    2    0    0  0.00000000000E+00  0.00000000000E+00  0.17646683267E+04  0.28967649635E+04  0.22972141717E+04 0.  0.
        2    1    3    3  502    0 -0.77884380860E+03  0.12158495626E+01  0.19468812400E+04  0.20968895343E+04  0.25500000920E-02 0. -1.
       -2    1    3    3    0  502  0.77884380860E+03 -0.12158495626E+01 -0.18221291331E+03  0.79987542922E+03  0.25500000920E-02 0.  1.
</event>
<event>
 5   0  0.3226427E-06  0.2296433E+04  0.7818609E-02  0.8479329E-01
        1   -1    0    0  501    0  0.00000000000E+00  0.00000000000E+00  0.13543026900E+04  0.13543026900E+04  0.50400001928E-02 0. -1.
       -1   -1    0    0    0  501  0.00000000000E+00  0.00000000000E+00 -0.97349097102E+03  0.97349097103E+03  0.50400001928E-02 0.  1.
    10030    2    1    2    0    0  0.00000000000E+00  0.00000000000E+00  0.38081171900E+03  0.23277936611E+04  0.22964332699E+04 0.  0.
        4    1    3    3  502    0 -0.10974689983E+04 -0.29375826734E+03  0.21798228082E+02  0.11363137320E+04  0.12699999809E+01 0.  1.
       -4    1    3    3    0  502  0.10974689983E+04  0.29375826734E+03  0.35901349092E+03  0.11914799291E+04  0.12699999809E+01 0. -1.
</event>
<event>
 5   0  0.7497344E-06  0.2294565E+04  0.7818609E-02  0.8480067E-01
        2   -1    0    0  501    0  0.00000000000E+00  0.00000000000E+00  0.92435626190E+03  0.92435626190E+03  0.25500000920E-02 0.  1.
       -2   -1    0    0    0  501  0.00000000000E+00  0.00000000000E+00 -0.14239720047E+04  0.14239720047E+04  0.25500000920E-02 0. -1.
    10030    2    1    2    0    0  0.00000000000E+00  0.00000000000E+00 -0.49961574280E+03  0.23483282666E+04  0.22945652654E+04 0.  0.
        5    1    3    3  502    0  0.31606518492E+03 -0.69636956534E+03  0.62545421800E+03  0.98794880508E+03  0.46999998093E+01 0.  1.
       -5    1    3    3    0  502 -0.31606518492E+03  0.69636956534E+03 -0.11250699608E+04  0.13603794615E+04  0.46999998093E+01 0. -1.
</event>
<event>
 5   0  0.3338758E-06  0.2304848E+04  0.7818609E-02  0.8476012E-01
       -1   -1    0    0    0  501  0.00000000000E+00  0.00000000000E+00  0.11519689499E+04  0.11519689499E+04  0.50400001928E-02 0. -1.
        1   -1    0    0  501    0  0.00000000000E+00  0.00000000000E+00 -0.11528796130E+04  0.11528796130E+04  0.50400001928E-02 0.  1.
    10030    2    1    2    0    0  0.00000000000E+00  0.00000000000E+00 -0.91066317647E+00  0.23048485629E+04  0.23048483830E+04 0.  0.
        5    1    3    3  502    0  0.51414548400E+03 -0.65724277571E+03 -0.79527976556E+03  0.11527383226E+04  0.46999998093E+01 0.  1.
       -5    1    3    3    0  502 -0.51414548400E+03  0.65724277571E+03  0.79436910239E+03  0.11521102403E+04  0.46999998093E+01 0. -1.
</event>
<event>
 5   0  0.3238713E-06  0.2291329E+04  0.7818609E-02  0.8481348E-01
       -1   -1    0    0    0  501  0.00000000000E+00  0.00000000000E+00  0.77100304133E+03  0.77100304135E+03  0.50400001928E-02 0. -1.
        1   -1    0    0  501    0  0.00000000000E+00  0.00000000000E+00 -0.17023891233E+04  0.17023891233E+04  0.50400001928E-02 0.  1.
    10030    2    1    2    0    0  0.00000000000E+00  0.00000000000E+00 -0.93138608200E+03  0.24733921647E+04  0.22913290394E+04 0.  0.
        3    1    3    3  502    0 -0.58191482065E+03  0.23865461074E+03 -0.14993637476E+04  0.16259374340E+04  0.10100000352E+00 0.  1.
       -3    1    3    3    0  502  0.58191482065E+03 -0.23865461074E+03  0.56797766556E+03  0.84745473065E+03  0.10100000352E+00 0. -1.
</event>
<event>
 5   0  0.7348107E-06  0.2302954E+04  0.7818609E-02  0.8476757E-01
        2   -1    0    0  501    0  0.00000000000E+00  0.00000000000E+00  0.17824609302E+04  0.17824609302E+04  0.25500000920E-02 0.  1.
       -2   -1    0    0    0  501  0.00000000000E+00  0.00000000000E+00 -0.74385873118E+03  0.74385873118E+03  0.25500000920E-02 0. -1.
    10030    2    1    2    0    0  0.00000000000E+00  0.00000000000E+00  0.10386021990E+04  0.25263196613E+04  0.23029538648E+04 0.  0.
        3    1    3    3  502    0  0.49741868341E+03  0.23848405248E+03 -0.58947363336E+03  0.80732841181E+03  0.10100000352E+00 0. -1.
       -3    1    3    3    0  502 -0.49741868341E+03 -0.23848405248E+03  0.16280758323E+04  0.17189912495E+04  0.10100000352E+00 0.  1.
</event>
<event>
 5   0  0.7497344E-06  0.2298977E+04  0.7818609E-02  0.8478324E-01
       -2   -1    0    0    0  501  0.00000000000E+00  0.00000000000E+00  0.78674738433E+03  0.78674738434E+03  0.25500000920E-02 0.  1.
        2   -1    0    0  501    0  0.00000000000E+00  0.00000000000E+00 -0.16794772338E+04  0.16794772338E+04  0.25500000920E-02 0. -1.
    10030    2    1    2    0    0  0.00000000000E+00  0.00000000000E+00 -0.89272984949E+03  0.24662246182E+04  0.22989774429E+04 0.  0.
        5    1    3    3  502    0  0.84371663230E+03  0.71233175977E+03 -0.10370960725E+03  0.11090771228E+04  0.46999998093E+01 0. -1.
       -5    1    3    3    0  502 -0.84371663230E+03 -0.71233175977E+03 -0.78902024224E+03  0.13571474954E+04  0.46999998093E+01 0.  1.
</event>
<event>
 5   0  0.3338758E-06  0.2300735E+04  0.7818609E-02  0.8477631E-01
       -1   -1    0    0    0  501  0.00000000000E+00  0.00000000000E+00  0.12676754662E+04  0.12676754662E+04  0.50400001928E-02 0. -1.
        1   -1    0    0  501    0  0.00000000000E+00  0.00000000000E+00 -0.10439152931E+04  0.10439152932E+04  0.50400001928E-02 0.  1.
    10030    2    1    2    0    0  0.00000000000E+00  0.00000000000E+00  0.22376017301E+03  0.23115907593E+04  0.23007353658E+04 0.  0.
        5    1    3    3  502    0 -0.75082784866E+03 -0.62719067514E+03 -0.49613062136E+03  0.10969404199E+04  0.46999998093E+01 0.  1.
       -5    1    3    3    0  502  0.75082784866E+03  0.62719067514E+03  0.71989079437E+03  0.12146503394E+04  0.46999998093E+01 0. -1.
</event>
<event>
 5   0  0.3195296E-06  0.2296168E+04  0.7818609E-02  0.8479433E-01
       -1   -1    0    0    0  501  0.00000000000E+00  0.00000000000E+00  0.93114003385E+03  0.93114003387E+03  0.50400001928E-02 0. -1.
        1   -1    0    0  501    0  0.00000000000E+00  0.00000000000E+00 -0.14155734945E+04  0.14155734945E+04  0.50400001928E-02 0.  1.
    10030    2    1    2    0    0  0.00000000000E+00  0.00000000000E+00 -0.48443346068E+03  0.23467135284E+04  0.22961682444E+04 0.  0.
        2    1    3    3  502    0 -0.68303809262E+02  0.11530221560E+03 -0.14075521665E+04  0.14139176471E+04  0.25500000920E-02 0.  1.
       -2    1    3    3    0  502  0.68303809262E+02 -0.11530221560E+03  0.92311870580E+03  0.93279588136E+03  0.25500000920E-02 0. -1.
</event>
<event>
 5   0  0.7044981E-06  0.2314766E+04  0.7818609E-02  0.8472122E-01
        2   -1    0    0  501    0  0.00000000000E+00  0.00000000000E+00  0.14416324475E+04  0.14416324475E+04  0.25500000920E-02 0.  1.
       -2   -1    0    0    0  501  0.00000000000E+00  0.00000000000E+00 -0.92917965762E+03  0.92917965762E+03  0.25500000920E-02 0. -1.
    10030    2    1    2    0    0  0.00000000000E+00  0.00000000000E+00  0.51245278985E+03  0.23708121051E+04  0.23147661169E+04 0.  0.
        4    1    3    3  502    0  0.92676025170E+03 -0.50103049977E+03  0.74701311193E+03  0.12914899644E+04  0.12699999809E+01 0.  1.
       -4    1    3    3    0  502 -0.92676025170E+03  0.50103049977E+03 -0.23456032208E+03  0.10793221407E+04  0.12699999809E+01 0. -1.
</event>
<event>
 5   0  0.7497344E-06  0.2297759E+04  0.7818609E-02  0.8478805E-01
       -2   -1    0    0    0  501  0.00000000000E+00  0.00000000000E+00  0.82094587600E+03  0.82094587601E+03  0.25500000920E-02 0. -1.
        2   -1    0    0  501    0  0.00000000000E+00  0.00000000000E+00 -0.16078090655E+04  0.16078090655E+04  0.25500000920E-02 0.  1.
    10030    2    1    2    0    0  0.00000000000E+00  0.00000000000E+00 -0.78686318953E+03  0.24287549415E+04  0.22977591012E+04 0.  0.
        5    1    3    3  502    0  0.69041062239E+03 -0.52736649313E+03 -0.11880333084E+04  0.14718109516E+04  0.46999998093E+01 0.  1.
       -5    1    3    3    0  502 -0.69041062239E+03  0.52736649313E+03  0.40117011883E+03  0.95694398991E+03  0.46999998093E+01 0. -1.
</event>
<event>
 5   0  0.3184492E-06  0.2293198E+04  0.7818609E-02  0.8480608E-01
        1   -1    0    0  501    0  0.00000000000E+00  0.00000000000E+00  0.94474154571E+03  0.94474154572E+03  0.50400001928E-02 0.  1.
       -1   -1    0    0    0  501  0.00000000000E+00  0.00000000000E+00 -0.13915856679E+04  0.13915856679E+04  0.50400001928E-02 0. -1.
    10030    2    1    2    0    0  0.00000000000E+00  0.00000000000E+00 -0.44684412215E+03  0.23363272136E+04  0.22931975884E+04 0.  0.
        1    1    3    3  502    0  0.36468023451E+03 -0.10853362745E+04 -0.16109723734E+03  0.11562434096E+04  0.50400001928E-02 0.  1.
       -1    1    3    3    0  502 -0.36468023451E+03  0.10853362745E+04 -0.28574688481E+03  0.11800838040E+04  0.50400001928E-02 0. -1.
</event>
<event>
 5   0  0.7003852E-06  0.2300077E+04  0.7818609E-02  0.8477891E-01
        2   -1    0    0  501    0  0.00000000000E+00  0.00000000000E+00  0.17043420149E+04  0.17043420149E+04  0.25500000920E-02 0. -1.
       -2   -1    0    0    0  501  0.00000000000E+00  0.00000000000E+00 -0.77601131703E+03  0.77601131703E+03  0.25500000920E-02 0.  1.
    10030    2    1    2    0    0  0.00000000000E+00  0.00000000000E+00  0.92833069791E+03  0.24803533320E+04  0.23000771219E+04 0.  0.
        2    1    3    3  502    0  0.69593016297E+03 -0.49812721041E+03  0.12925811587E+04  0.15502308090E+04  0.25500000920E-02 0. -1.
       -2    1    3    3    0  502 -0.69593016297E+03  0.49812721041E+03 -0.36425046078E+03  0.93012252294E+03  0.25500000920E-02 0.  1.
</event>
<event>
 5   0  0.3195296E-06  0.2302561E+04  0.7818609E-02  0.8476912E-01
       -1   -1    0    0    0  501  0.00000000000E+00  0.00000000000E+00  0.21250256663E+04  0.21250256663E+04  0.50400001928E-02 0.  1.
        1   -1    0    0  501    0  0.00000000000E+00  0.00000000000E+00 -0.62373235852E+03  0.62373235854E+03  0.50400001928E-02 0. -1.
    10030    2    1    2    0    0  0.00000000000E+00  0.00000000000E+00  0.15012933078E+04  0.27487580249E+04  0.23025614179E+04 0.  0.
        2    1    3    3  502    0  0.51978513580E+03  0.92324656087E+03  0.12883612573E+04  0.16680634067E+04  0.25500000920E-02 0.  1.
       -2    1    3    3    0  502 -0.51978513580E+03 -0.92324656087E+03  0.21293205051E+03  0.10806946181E+04  0.25500000920E-02 0. -1.
</event>
<event>
 5   0  0.7242214E-06  0.2284427E+04  0.7818609E-02  0.8484087E-01
        2   -1    0    0  501    0  0.00000000000E+00  0.00000000000E+00  0.12275961060E+04  0.12275961060E+04  0.25500000920E-02 0. -1.
       -2   -1    0    0    0  501  0.00000000000E+00  0.00000000000E+00 -0.10627694492E+04  0.10627694492E+04  0.25500000920E-02 0.  1.
    10030    2    1    2    0    0  0.00000000000E+00  0.00000000000E+00  0.16482665681E+03  0.22903655552E+04  0.22844269631E+04 0.  0.
        1    1    3    3  502    0  0.61746938428E+03  0.63044204478E+03 -0.64467949364E+03  0.10928573841E+04  0.50400001928E-02 0.  1.
       -1    1    3    3    0  502 -0.61746938428E+03 -0.63044204478E+03  0.80950615045E+03  0.11975081712E+04  0.50400001928E-02 0. -1.
</event>
<event>
 5   0  0.3238713E-06  0.2293942E+04  0.7818609E-02  0.8480314E-01
       -1   -1    0    0    0  501  0.00000000000E+00  0.00000000000E+00  0.10174543213E+04  0.10174543213E+04  0.50400001928E-02 0.  1.
        1   -1    0    0  501    0  0.00000000000E+00  0.00000000000E+00 -0.12929743787E+04  0.12929743787E+04  0.50400001928E-02 0. -1.
    10030    2    1    2    0    0  0.00000000000E+00  0.00000000000E+00 -0.27552005742E+03  0.23104287000E+04  0.22939419077E+04 0.  0.
        3    1    3    3  502    0  0.21185930846E+03 -0.10977696416E+04 -0.39564675293E+03  0.11859675020E+04  0.10100000352E+00 0.  1.
       -3    1    3    3    0  502 -0.21185930846E+03  0.10977696416E+04  0.12012669551E+03  0.11244611980E+04  0.10100000352E+00 0. -1.
</event>
<event>
 5   0  0.3238713E-06  0.2301031E+04  0.7818609E-02  0.8477515E-01
        1   -1    0    0  501    0  0.00000000000E+00  0.00000000000E+00  0.28870739390E+04  0.28870739390E+04  0.50400001928E-02 0. -1.
       -1   -1    0    0    0  501  0.00000000000E+00  0.00000000000E+00 -0.45848687870E+03  0.45848687873E+03  0.50400001928E-02 0.  1.
    10030    2    1    2    0    0  0.00000000000E+00  0.00000000000E+00  0.24285870603E+04  0.33455608178E+04  0.23010306551E+04 0.  0.
        3    1    3    3  502    0  0.30315267979E+01  0.11037828157E+04  0.74240133006E+03  0.13302275893E+04  0.10100000352E+00 0.  1.
       -3    1    3    3    0  502 -0.30315267979E+01 -0.11037828157E+04  0.16861857303E+04  0.20153332284E+04  0.10100000352E+00 0. -1.
</event>
<event>
 5   0  0.7044981E-06  0.2297712E+04  0.7818609E-02  0.8478824E-01
        2   -1    0    0  501    0  0.00000000000E+00  0.00000000000E+00  0.16073475386E+04  0.16073475386E+04  0.25500000920E-02 0. -1.
       -2   -1    0    0    0  501  0.00000000000E+00  0.00000000000E+00 -0.82114778674E+03  0.82114778674E+03  0.25500000920E-02 0.  1.
    10030    2    1    2    0    0  0.00000000000E+00  0.00000000000E+00  0.78619975187E+03  0.24284953254E+04  0.22977117956E+04 0.  0.
        4    1    3    3  502    0 -0.89275670138E+03 -0.63744763671E+03  0.32329201698E+02  0.10974519614E+04  0.12699999809E+01 0.  1.
       -4    1    3    3    0  502  0.89275670138E+03  0.63744763671E+03  0.75387055017E+03  0.13310433640E+04  0.12699999809E+01 0. -1.
</event>
<event>
 5   0  0.7242214E-06  0.2322499E+04  0.7818609E-02  0.8469102E-01
       -2   -1    0    0    0  501  0.00000000000E+00  0.00000000000E+00  0.11625576014E+04  0.11625576014E+04  0.25500000920E-02 0. -1.
        2   -1    0    0  501    0  0.00000000000E+00  0.00000000000E+00 -0.11599432599E+04  0.11599432599E+04  0.25500000920E-02 0.  1.
    10030    2    1    2    0    0  0.00000000000E+00  0.00000000000E+00  0.26143415281E+01  0.23225008613E+04  0.23224993898E+04 0.  0.
        1    1    3    3  502    0 -0.17792912509E+02  0.21702146706E+02  0.11622184468E+04  0.11625572196E+04  0.50400001928E-02 0. -1.
       -1    1    3    3    0  502  0.17792912509E+02 -0.21702146706E+02 -0.11596041052E+04  0.11599436416E+04  0.50400001928E-02 0.  1.
</event>
<event>
 5   0  0.2519625E-06  0.2294361E+04  0.7818609E-02  0.8480148E-01
       -4   -1    0    0    0  501  0.00000000000E+00  0.00000000000E+00  0.16021775030E+04  0.16021780063E+04  0.12699999809E+01 0.  1.
        4   -1    0    0  501    0  0.00000000000E+00  0.00000000000E+00 -0.82139550092E+03  0.82139648272E+03  0.12699999809E+01 0. -1.
    10030    2    1    2    0    0  0.00000000000E+00  0.00000000000E+00  0.78078200204E+03  0.24235744890E+04  0.22943610808E+04 0.  0.
        1    1    3    3  502    0  0.91941787333E+03  0.62670443190E+02 -0.33128853381E+03  0.97928999940E+03  0.50400001928E-02 0. -1.
       -1    1    3    3    0  502 -0.91941787333E+03 -0.62670443190E+02  0.11120705359E+04  0.14442844896E+04  0.50400001928E-02 0.  1.
</event>
<event>
 5   0  0.3226427E-06  0.2302108E+04  0.7818609E-02  0.8477091E-01
       -1   -1    0    0    0  501  0.00000000000E+00  0.00000000000E+00  0.14265232834E+04  0.14265232834E+04  0.50400001928E-02 0. -1.
        1   -1    0    0  501    0  0.00000000000E+00  0.00000000000E+00 -0.92877892475E+03  0.92877892477E+03  0.50400001928E-02 0.  1.
    10030    2    1    2    0    0  0.00000000000E+00  0.00000000000E+00  0.49774435867E+03  0.23553022082E+04  0.23021075225E+04 0.  0.
        4    1    3    3  502    0  0.33480423935E+03  0.97025406974E+03 -0.28416193704E+03  0.10650053793E+04  0.12699999809E+01 0. -1.
       -4    1    3    3    0  502 -0.33480423935E+03 -0.97025406974E+03  0.78190629571E+03  0.12902968289E+04  0.12699999809E+01 0.  1.
</event>
<event>
 5   0  0.3338758E-06  0.2299888E+04  0.7818609E-02  0.8477965E-01
        1   -1    0    0  501    0  0.00000000000E+00  0.00000000000E+00  0.14727146964E+04  0.14727146964E+04  0.50400001928E-02 0.  1.
       -1   -1    0    0    0  501  0.00000000000E+00  0.00000000000E+00 -0.89791408414E+03  0.89791408416E+03  0.50400001928E-02 0. -1.
    10030    2    1    2    0    0  0.00000000000E+00  0.00000000000E+00  0.57480061227E+03  0.23706287806E+04  0.22998880563E+04 0.  0.
        5    1    3    3  502    0 -0.64964575835E+03 -0.58183006819E+03 -0.48517581715E+03  0.99798973098E+03  0.46999998093E+01 0. -1.
       -5    1    3    3    0  502  0.64964575835E+03  0.58183006819E+03  0.10599764294E+04  0.13726390496E+04  0.46999998093E+01 0.  1.
</event>
<event>
 5   0  0.7003852E-06  0.2301466E+04  0.7818609E-02  0.8477343E-01
       -2   -1    0    0    0  501  0.00000000000E+00  0.00000000000E+00  0.66077846368E+03  0.66077846369E+03  0.25500000920E-02 0. -1.
        2   -1    0    0  501    0  0.00000000000E+00  0.00000000000E+00 -0.20039794815E+04  0.20039794815E+04  0.25500000920E-02 0.  1.
    10030    2    1    2    0    0  0.00000000000E+00  0.00000000000E+00 -0.13432010178E+04  0.26647579452E+04  0.23014660398E+04 0.  0.
        2    1    3    3  502    0  0.33605988705E+03  0.43422647933E+03  0.49931838357E+03  0.74216422119E+03  0.25500000920E-02 0. -1.
       -2    1    3    3    0  502 -0.33605988705E+03 -0.43422647933E+03 -0.18425194014E+04  0.19225937240E+04  0.25500000920E-02 0.  1.
</event>
<event>
 5   0  0.3226427E-06  0.2291823E+04  0.7818609E-02  0.8481152E-01
       -1   -1    0    0    0  501  0.00000000000E+00  0.00000000000E+00  0.14210230697E+04  0.14210230697E+04  0.50400001928E-02 0.  1.
        1   -1    0    0  501    0  0.00000000000E+00  0.00000000000E+00 -0.92406169195E+03  0.92406169196E+03  0.50400001928E-02 0. -1.
    10030    2    1    2    0    0  0.00000000000E+00  0.00000000000E+00  0.49696137773E+03  0.23450847616E+04  0.22918228397E+04 0.  0.
        4    1    3    3  502    0  0.12723501511E+03 -0.13631120415E+03 -0.90843313201E+03  0.92737363650E+03  0.12699999809E+01 0. -1.
       -4    1    3    3    0  502 -0.12723501511E+03  0.13631120415E+03  0.14053945097E+04  0.14177111251E+04  0.12699999809E+01 0.  1.
</event>
<event>
 5   0  0.7497344E-06  0.2293814E+04  0.7818609E-02  0.8480364E-01
        2   -1    0    0  501    0  0.00000000000E+00  0.00000000000E+00  0.11204220776E+04  0.11204220776E+04  0.25500000920E-02 0. -1.
       -2   -1    0    0    0  501  0.00000000000E+00  0.00000000000E+00 -0.11740177258E+04  0.11740177258E+04  0.25500000920E-02 0.  1.
    10030    2    1    2    0    0  0.00000000000E+00  0.00000000000E+00 -0.53595648206E+02  0.22944398033E+04  0.22938137495E+04 0.  0.
        5    1    3    3  502    0 -0.39636570814E+03  0.45946703840E+03 -0.10002836453E+04  0.11699594843E+04  0.46999998093E+01 0.  1.
       -5    1    3    3    0  502  0.39636570814E+03 -0.45946703840E+03  0.94668799709E+03  0.11244803190E+04  0.46999998093E+01 0. -1.
</event>
<event>
 5   0  0.3338758E-06  0.2298991E+04  0.7818609E-02  0.8478319E-01
       -1   -1    0    0    0  501  0.00000000000E+00  0.00000000000E+00  0.88516785842E+03  0.88516785843E+03  0.50400001928E-02 0.  1.
        1   -1    0    0  501    0  0.00000000000E+00  0.00000000000E+00 -0.14927563366E+04  0.14927563366E+04  0.50400001928E-02 0. -1.
    10030    2    1    2    0    0  0.00000000000E+00  0.00000000000E+00 -0.60758847820E+03  0.23779241951E+04  0.22989910219E+04 0.  0.
        5    1    3    3  502    0 -0.65370089975E+03 -0.20215364772E+03 -0.12591553139E+04  0.14330684415E+04  0.46999998093E+01 0. -1.
       -5    1    3    3    0  502  0.65370089975E+03  0.20215364772E+03  0.65156683568E+03  0.94485575353E+03  0.46999998093E+01 0.  1.
</event>
<event>
 5   0  0.3184492E-06  0.2302150E+04  0.7818609E-02  0.8477074E-01
        1   -1    0    0  501    0  0.00000000000E+00  0.00000000000E+00  0.12081685305E+04  0.12081685306E+04  0.50400001928E-02 0. -1.
       -1   -1    0    0    0  501  0.00000000000E+00  0.00000000000E+00 -0.10966790676E+04  0.10966790676E+04  0.50400001928E-02 0.  1.
    10030    2    1    2    0    0  0.00000000000E+00  0.00000000000E+00  0.11148946292E+03  0.23048475982E+04  0.23021495500E+04 0.  0.
        1    1    3    3  502    0 -0.39627797354E+03  0.12754255156E+03  0.11301612371E+04  0.12043951829E+04  0.50400001928E-02 0. -1.
       -1    1    3    3    0  502  0.39627797354E+03 -0.12754255156E+03 -0.10186717742E+04  0.11004524153E+04  0.50400001928E-02 0.  1.
</event>
<event>
 5   0  0.7003852E-06  0.2300463E+04  0.7818609E-02  0.8477739E-01
       -2   -1    0    0    0  501  0.00000000000E+00  0.00000000000E+00  0.49428622723E+03  0.49428622724E+03  0.25500000920E-02 0. -1.
        2   -1    0    0  501    0  0.00000000000E+00  0.00000000000E+00 -0.26766525879E+04  0.26766525879E+04  0.25500000920E-02 0.  1.
    10030    2    1    2    0    0  0.00000000000E+00  0.00000000000E+00 -0.21823663606E+04  0.31709388151E+04  0.23004630049E+04 0.  0.
        2    1    3    3  502    0  0.40792603803E+03  0.75885961300E+03 -0.21416233232E+04  0.23084241428E+04  0.25500000920E-02 0.  1.
       -2    1    3    3    0  502 -0.40792603803E+03 -0.75885961300E+03 -0.40743037419E+02  0.86251467225E+03  0.25500000920E-02 0. -1.
</event>
<event>
 5   0  0.3338758E-06  0.2301300E+04  0.7818609E-02  0.8477409E-01
       -1   -1    0    0    0  501  0.00000000000E+00  0.00000000000E+00  0.80967487097E+03  0.80967487099E+03  0.50400001928E-02 0.  1.
        1   -1    0    0  501    0  0.00000000000E+00  0.00000000000E+00 -0.16352184520E+04  0.16352184520E+04  0.50400001928E-02 0. -1.
    10030    2    1    2    0    0  0.00000000000E+00  0.00000000000E+00 -0.82554358099E+03  0.24448933230E+04  0.23012998841E+04 0.  0.
        5    1    3    3  502    0  0.84513699995E+03 -0.72475999807E+03 -0.72148824038E+03  0.13266879718E+04  0.46999998093E+01 0. -1.
       -5    1    3    3    0  502 -0.84513699995E+03  0.72475999807E+03 -0.10405534061E+03  0.11182053512E+04  0.46999998093E+01 0.  1.
</event>
<event>
 5   0  0.7242214E-06  0.2299053E+04  0.7818609E-02  0.8478295E-01
        2   -1    0    0  501    0  0.00000000000E+00  0.00000000000E+00  0.21911827314E+04  0.21911827314E+04  0.25500000920E-02 0.  1.
       -2   -1    0    0    0  501  0.00000000000E+00  0.00000000000E+00 -0.60305852390E+03  0.60305852390E+03  0.25500000920E-02 0. -1.
    10030    2    1    2    0    0  0.00000000000E+00  0.00000000000E+00  0.15881242075E+04  0.27942412553E+04  0.22990532169E+04 0.  0.
        1    1    3    3  502    0  0.78885880736E+03  0.75212354865E+03  0.12380088061E+04  0.16494404671E+04  0.50400001928E-02 0.  1.
       -1    1    3    3    0  502 -0.78885880736E+03 -0.75212354865E+03  0.35011540138E+03  0.11448007882E+04  0.50400001928E-02 0. -1.
</event>
<event>
 5   0  0.3184492E-06  0.2311088E+04  0.7818609E-02  0.8473562E-01
        1   -1    0    0  501    0  0.00000000000E+00  0.00000000000E+00  0.95202135216E+03  0.95202135217E+03  0.50400001928E-02 0. -1.
       -1   -1    0    0    0  501  0.00000000000E+00  0.00000000000E+00 -0.14025757754E+04  0.14025757754E+04  0.50400001928E-02 0.  1.
    10030    2    1    2    0    0  0.00000000000E+00  0.00000000000E+00 -0.45055442322E+03  0.23545971276E+04  0.23110881300E+04 0.  0.
        1    1    3    3  502    0 -0.33314278494E+03  0.60010863811E+03 -0.11723843086E+04  0.13585284170E+04  0.50400001928E-02 0.  1.
       -1    1    3    3    0  502  0.33314278494E+03 -0.60010863811E+03  0.72182988539E+03  0.99606871056E+03  0.50400001928E-02 0. -1.
</event>
<event>
 5   0  0.3195296E-06  0.2299225E+04  0.7818609E-02  0.8478227E-01
       -1   -1    0    0    0  501  0.00000000000E+00  0.00000000000E+00  0.76666245837E+03  0.76666245839E+03  0.50400001928E-02 0. -1.
        1   -1    0    0  501    0  0.00000000000E+00  0.00000000000E+00 -0.17238473678E+04  0.17238473678E+04  0.50400001928E-02 0.  1.
    10030    2    1    2    0    0  0.00000000000E+00  0.00000000000E+00 -0.95718490945E+03  0.24905098262E+04  0.22992251398E+04 0.  0.
        2    1    3    3  502    0  0.60619228326E+03 -0.46816941779E+03 -0.14072120328E+04  0.16021539855E+04  0.25500000920E-02 0.  1.
       -2    1    3    3    0  502 -0.60619228326E+03  0.46816941779E+03  0.45002712332E+03  0.88835584073E+03  0.25500000920E-02 0. -1.
</event>
<event>
 5   0  0.7044981E-06  0.2297706E+04  0.7818609E-02  0.8478826E-01
        2   -1    0    0  501    0  0.00000000000E+00  0.00000000000E+00  0.19563657287E+04  0.19563657287E+04  0.25500000920E-02 0. -1.
       -2   -1    0    0    0  501  0.00000000000E+00  0.00000000000E+00 -0.67465035676E+03  0.67465035677E+03  0.25500000920E-02 0.  1.
    10030    2    1    2    0    0  0.00000000000E+00  0.00000000000E+00  0.12817153719E+04  0.26310160855E+04  0.22977056703E+04 0.  0.
        4    1    3    3  502    0  0.60957010654E+03  0.25498292358E+03 -0.43529936367E+03  0.79125163824E+03  0.12699999809E+01 0.  1.
       -4    1    3    3    0  502 -0.60957010654E+03 -0.25498292358E+03  0.17170147356E+04  0.18397644472E+04  0.12699999809E+01 0. -1.
</event>
<event>
 5   0  0.7003852E-06  0.2299627E+04  0.7818609E-02  0.8478068E-01
       -2   -1    0    0    0  501  0.00000000000E+00  0.00000000000E+00  0.85862270006E+03  0.85862270006E+03  0.25500000920E-02 0.  1.
        2   -1    0    0  501    0  0.00000000000E+00  0.00000000000E+00 -0.15397575673E+04  0.15397575673E+04  0.25500000920E-02 0. -1.
    10030    2    1    2    0    0  0.00000000000E+00  0.00000000000E+00 -0.68113486721E+03  0.23983802673E+04  0.22996267522E+04 0.  0.
        2    1    3    3  502    0 -0.91921006150E+03  0.32446073030E+03  0.29541327021E+03  0.10185729738E+04  0.25500000920E-02 0.  1.
       -2    1    3    3    0  502  0.91921006150E+03 -0.32446073030E+03 -0.97654813742E+03  0.13798072936E+04  0.25500000920E-02 0. -1.
</event>
<event>
 5   0  0.7044981E-06  0.2300895E+04  0.7818609E-02  0.8477568E-01
        2   -1    0    0  501    0  0.00000000000E+00  0.00000000000E+00  0.20648503946E+04  0.20648503946E+04  0.25500000920E-02 0. -1.
       -2   -1    0    0    0  501  0.00000000000E+00  0.00000000000E+00 -0.64098106349E+03  0.64098106350E+03  0.25500000920E-02 0.  1.
    10030    2    1    2    0    0  0.00000000000E+00  0.00000000000E+00  0.14238693311E+04  0.27058314581E+04  0.23008954795E+04 0.  0.
        4    1    3    3  502    0  0.77043398152E+03  0.32947521959E+03 -0.21509056420E+03  0.86509421679E+03  0.12699999809E+01 0.  1.
       -4    1    3    3    0  502 -0.77043398152E+03 -0.32947521959E+03  0.16389598953E+04  0.18407372413E+04  0.12699999809E+01 0. -1.
</event>
<event>
 5   0  0.3195296E-06  0.2297079E+04  0.7818609E-02  0.8479074E-01
        1   -1    0    0  501    0  0.00000000000E+00  0.00000000000E+00  0.13055288492E+04  0.13055288492E+04  0.50400001928E-02 0. -1.
       -1   -1    0    0    0  501  0.00000000000E+00  0.00000000000E+00 -0.10104280860E+04  0.10104280860E+04  0.50400001928E-02 0.  1.
    10030    2    1    2    0    0  0.00000000000E+00  0.00000000000E+00  0.29510076325E+03  0.23159569352E+04  0.22970790289E+04 0.  0.
        2    1    3    3  502    0  0.18861939226E+03  0.93193904737E+03  0.79709285136E+03  0.12407435984E+04  0.25500000920E-02 0. -1.
       -2    1    3    3    0  502 -0.18861939226E+03 -0.93193904737E+03 -0.50199208811E+03  0.10752133368E+04  0.25500000920E-02 0.  1.
</event>
<event>
 5   0  0.7242214E-06  0.2301204E+04  0.7818609E-02  0.8477447E-01
       -2   -1    0    0    0  501  0.00000000000E+00  0.00000000000E+00  0.67706972463E+03  0.67706972463E+03  0.25500000920E-02 0.  1.
        2   -1    0    0  501    0  0.00000000000E+00  0.00000000000E+00 -0.19553149706E+04  0.19553149706E+04  0.25500000920E-02 0. -1.
    10030    2    1    2    0    0  0.00000000000E+00  0.00000000000E+00 -0.12782452460E+04  0.26323846952E+04  0.23012036578E+04 0.  0.
        1    1    3    3  502    0 -0.88456840556E+03  0.65405182574E+03 -0.10247421210E+04  0.15034432046E+04  0.50400001928E-02 0. -1.
       -1    1    3    3    0  502  0.88456840556E+03 -0.65405182574E+03 -0.25350312496E+03  0.11289414906E+04  0.50400001928E-02 0.  1.
</event>
<event>
 5   0  0.3226427E-06  0.2296214E+04  0.7818609E-02  0.8479416E-01
       -1   -1    0    0    0  501  0.00000000000E+00  0.00000000000E+00  0.75326931231E+03  0.75326931233E+03  0.50400001928E-02 0.  1.
        1   -1    0    0  501    0  0.00000000000E+00  0.00000000000E+00 -0.17499043765E+04  0.17499043765E+04  0.50400001928E-02 0. -1.
    10030    2    1    2    0    0  0.00000000000E+00  0.00000000000E+00 -0.99663506423E+03  0.25031736889E+04  0.22962136367E+04 0.  0.
        4    1    3    3  502    0  0.68933322971E+03 -0.26877249716E+03  0.45872107614E+03  0.87054327601E+03  0.12699999809E+01 0.  1.
       -4    1    3    3    0  502 -0.68933322971E+03  0.26877249716E+03 -0.14553561404E+04  0.16326304129E+04  0.12699999809E+01 0. -1.
</event>
<event>
 5   0  0.3195296E-06  0.2303509E+04  0.7818609E-02  0.8476539E-01
       -1   -1    0    0    0  501  0.00000000000E+00  0.00000000000E+00  0.10187955004E+04  0.10187955004E+04  0.50400001928E-02 0. -1.
        1   -1    0    0  501    0  0.00000000000E+00  0.00000000000E+00 -0.13020652071E+04  0.13020652071E+04  0.50400001928E-02 0.  1.
    10030    2    1    2    0    0  0.00000000000E+00  0.00000000000E+00 -0.28326970672E+03  0.23208607075E+04  0.23035087795E+04 0.  0.
        2    1    3    3  502    0  0.30623667352E+03  0.10589960938E+04  0.19447143358E+03  0.11194073277E+04  0.25500000920E-02 0. -1.
       -2    1    3    3    0  502 -0.30623667352E+03 -0.10589960938E+04 -0.47774114031E+03  0.12014533799E+04  0.25500000920E-02 0.  1.
</event>
<event>
 5   0  0.3184492E-06  0.2300191E+04  0.7818609E-02  0.8477846E-01
       -1   -1    0    0    0  501  0.00000000000E+00  0.00000000000E+00  0.27611996913E+04  0.27611996913E+04  0.50400001928E-02 0.  1.
        1   -1    0    0  501    0  0.00000000000E+00  0.00000000000E+00 -0.47903787758E+03  0.47903787760E+03  0.50400001928E-02 0. -1.
    10030    2    1    2    0    0  0.00000000000E+00  0.00000000000E+00  0.22821618137E+04  0.32402375689E+04  0.23001906354E+04 0.  0.
        1    1    3    3  502    0 -0.79295762215E+03  0.82821033241E+03  0.12671173833E+04  0.17088887056E+04  0.50400001928E-02 0.  1.
       -1    1    3    3    0  502  0.79295762215E+03 -0.82821033241E+03  0.10150444304E+04  0.15313488633E+04  0.50400001928E-02 0. -1.
</event>
<event>
 5   0  0.7044981E-06  0.2294401E+04  0.7818609E-02  0.8480132E-01
       -2   -1    0    0    0  501  0.00000000000E+00  0.00000000000E+00  0.12067319680E+04  0.12067319680E+04  0.25500000920E-02 0.  1.
        2   -1    0    0  501    0  0.00000000000E+00  0.00000000000E+00 -0.10906055790E+04  0.10906055790E+04  0.25500000920E-02 0. -1.
    10030    2    1    2    0    0  0.00000000000E+00  0.00000000000E+00  0.11612638907E+03  0.22973375470E+04  0.22944006770E+04 0.  0.
        4    1    3    3  502    0 -0.69765265164E+03 -0.49215691667E+03  0.82528766164E+03  0.11874506265E+04  0.12699999809E+01 0.  1.
       -4    1    3    3    0  502  0.69765265164E+03  0.49215691667E+03 -0.70916127257E+03  0.11098869205E+04  0.12699999809E+01 0. -1.
</event>
<event>
 5   0  0.3238713E-06  0.2299734E+04  0.7818609E-02  0.8478026E-01
       -1   -1    0    0    0  501  0.00000000000E+00  0.00000000000E+00  0.15433584818E+04  0.15433584818E+04  0.50400001928E-02 0. -1.
        1   -1    0    0  501    0  0.00000000000E+00  0.00000000000E+00 -0.85669941961E+03  0.85669941962E+03  0.50400001928E-02 0.  1.
    10030    2    1    2    0    0  0.00000000000E+00  0.00000000000E+00  0.68665906219E+03  0.24000579014E+04  0.22997341721E+04 0.  0.
        3    1    3    3  502    0  0.10316522852E+04  0.47778759841E+00 -0.18665030221E+03  0.10484011691E+04  0.10100000352E+00 0.  1.
       -3    1    3    3    0  502 -0.10316522852E+04 -0.47778759841E+00  0.87330936439E+03  0.13516567323E+04  0.10100000352E+00 0. -1.
</event>
<event>
 5   0  0.3338758E-06  0.2295541E+04  0.7818609E-02  0.8479681E-01
        1   -1    0    0  501    0  0.00000000000E+00  0.00000000000E+00  0.93739934989E+03  0.93739934991E+03  0.50400001928E-02 0. -1.
       -1   -1    0    0    0  501  0.00000000000E+00  0.00000000000E+00 -0.14053536544E+04  0.14053536544E+04  0.50400001928E-02 0.  1.
    10030    2    1    2    0    0  0.00000000000E+00  0.00000000000E+00 -0.46795430454E+03  0.23427530043E+04  0.22955414194E+04 0.  0.
        5    1    3    3  502    0  0.62219371298E+03  0.13679366296E+03  0.74039304580E+03  0.97675046709E+03  0.46999998093E+01 0. -1.
       -5    1    3    3    0  502 -0.62219371298E+03 -0.13679366296E+03 -0.12083473503E+04  0.13660025372E+04  0.46999998093E+01 0.  1.
</event>
<event>
 5   0  0.3238713E-06  0.2300096E+04  0.7818609E-02  0.8477883E-01
        1   -1    0    0  501    0  0.00000000000E+00  0.00000000000E+00  0.16375414696E+04  0.16375414696E+04  0.50400001928E-02 0.  1.
       -1   -1    0    0    0  501  0.00000000000E+00  0.00000000000E+00 -0.80768021521E+03  0.80768021523E+03  0.50400001928E-02 0. -1.
    10030    2    1    2    0    0  0.00000000000E+00  0.00000000000E+00  0.82986125434E+03  0.24452216848E+04  0.23000955168E+04 0.  0.
        3    1    3    3  502    0  0.98194480310E+02  0.14387260041E+03 -0.79357512497E+03  0.81246721182E+03  0.10100000352E+00 0. -1.
       -3    1    3    3    0  502 -0.98194480310E+02 -0.14387260041E+03  0.16234363793E+04  0.16327544730E+04  0.10100000352E+00 0.  1.
</event>
<event>
 5   0  0.7003852E-06  0.2298703E+04  0.7818609E-02  0.8478433E-01
        2   -1    0    0  501    0  0.00000000000E+00  0.00000000000E+00  0.11191518683E+04  0.11191518683E+04  0.25500000920E-02 0.  1.
       -2   -1    0    0    0  501  0.00000000000E+00  0.00000000000E+00 -0.11803660546E+04  0.11803660546E+04  0.25500000920E-02 0. -1.
    10030    2    1    2    0    0  0.00000000000E+00  0.00000000000E+00 -0.61214186343E+02  0.22995179229E+04  0.22987030041E+04 0.  0.
        2    1    3    3  502    0  0.79143678317E+03 -0.41124337192E+03  0.69457443734E+03  0.11304543077E+04  0.25500000920E-02 0.  1.
       -2    1    3    3    0  502 -0.79143678317E+03  0.41124337192E+03 -0.75578862368E+03  0.11690636152E+04  0.25500000920E-02 0. -1.
</event>
<event>
 5   0  0.7003852E-06  0.2296379E+04  0.7818609E-02  0.8479350E-01
        2   -1    0    0  501    0  0.00000000000E+00  0.00000000000E+00  0.24833361250E+04  0.24833361250E+04  0.25500000920E-02 0.  1.
       -2   -1    0    0    0  501  0.00000000000E+00  0.00000000000E+00 -0.53087414725E+03  0.53087414726E+03  0.25500000920E-02 0. -1.
    10030    2    1    2    0    0  0.00000000000E+00  0.00000000000E+00  0.19524619777E+04  0.30142102723E+04  0.22963788431E+04 0.  0.
        2    1    3    3  502    0  0.97712804185E+03  0.54106869596E+03  0.13255000716E+04  0.17333450273E+04  0.25500000920E-02 0.  1.
       -2    1    3    3    0  502 -0.97712804185E+03 -0.54106869596E+03  0.62696190610E+03  0.12808652449E+04  0.25500000920E-02 0. -1.
</event>
<event>
 5   0  0.7044981E-06  0.2299580E+04  0.7818609E-02  0.8478087E-01
        2   -1    0    0  501    0  0.00000000000E+00  0.00000000000E+00  0.11529308285E+04  0.11529308285E+04  0.25500000920E-02 0.  1.
       -2   -1    0    0    0  501  0.00000000000E+00  0.00000000000E+00 -0.11466576444E+04  0.11466576444E+04  0.25500000920E-02 0. -1.
    10030    2    1    2    0    0  0.00000000000E+00  0.00000000000E+00  0.62731841543E+01  0.22995884729E+04  0.22995799164E+04 0.  0.
        4    1    3    3  502    0 -0.52810952498E+03 -0.84474106946E+03 -0.57091100397E+03  0.11482282579E+04  0.12699999809E+01 0. -1.
       -4    1    3    3    0  502  0.52810952498E+03  0.84474106946E+03  0.57718418812E+03  0.11513602150E+04  0.12699999809E+01 0.  1.
</event>
<event>
 5   0  0.2519625E-06  0.2311155E+04  0.7818609E-02  0.8473536E-01
        3   -1    0    0  501    0  0.00000000000E+00  0.00000000000E+00  0.13286788422E+04  0.13286788461E+04  0.10100000352E+00 0. -1.
       -3   -1    0    0    0  501  0.00000000000E+00  0.00000000000E+00 -0.10050281919E+04  0.10050281970E+04  0.10100000352E+00 0.  1.
    10030    2    1    2    0    0  0.00000000000E+00  0.00000000000E+00  0.32365065034E+03  0.23337070430E+04  0.23111552997E+04 0.  0.
        5    1    3    3  502    0 -0.60521654973E+03  0.39392750150E+03  0.10727766514E+04  0.12931889971E+04  0.46999998093E+01 0. -1.
       -5    1    3    3    0  502  0.60521654973E+03 -0.39392750150E+03 -0.74912600104E+03  0.10405180459E+04  0.46999998093E+01 0.  1.
</event>
<event>
 5   0  0.3238713E-06  0.2256849E+04  0.7818609E-02  0.8495132E-01
        1   -1    0    0  501    0  0.00000000000E+00  0.00000000000E+00  0.15397761609E+04  0.15397761609E+04  0.50400001928E-02 0. -1.
       -1   -1    0    0    0  501  0.00000000000E+00  0.00000000000E+00 -0.82696566960E+03  0.82696566962E+03  0.50400001928E-02 0.  1.
    10030    2    1    2    0    0  0.00000000000E+00  0.00000000000E+00  0.71281049132E+03  0.23667418305E+04  0.22568491522E+04 0.  0.
        3    1    3    3  502    0 -0.82708617349E+02  0.40883902572E+03  0.14559596699E+04  0.15145324806E+04  0.10100000352E+00 0. -1.
       -3    1    3    3    0  502  0.82708617349E+02 -0.40883902572E+03 -0.74314917855E+03  0.85220934994E+03  0.10100000352E+00 0.  1.
</event>
<event>
 5   0  0.3226427E-06  0.2301824E+04  0.7818609E-02  0.8477202E-01
       -1   -1    0    0    0  501  0.00000000000E+00  0.00000000000E+00  0.62398924881E+03  0.62398924883E+03  0.50400001928E-02 0. -1.
        1   -1    0    0  501    0  0.00000000000E+00  0.00000000000E+00 -0.21227908234E+04  0.21227908234E+04  0.50400001928E-02 0.  1.
    10030    2    1    2    0    0  0.00000000000E+00  0.00000000000E+00 -0.14988015745E+04  0.27467800722E+04  0.23018241908E+04 0.  0.
        4    1    3    3  502    0  0.89345502972E+03  0.61582434205E+03 -0.29173181248E+03  0.11236594563E+04  0.12699999809E+01 0. -1.
       -4    1    3    3    0  502 -0.89345502972E+03 -0.61582434205E+03 -0.12070697621E+04  0.16231206159E+04  0.12699999809E+01 0.  1.
</event>
<event>
 5   0  0.7497344E-06  0.2304420E+04  0.7818609E-02  0.8476181E-01
       -2   -1    0    0    0  501  0.00000000000E+00  0.00000000000E+00  0.60603705622E+03  0.60603705622E+03  0.25500000920E-02 0.  1.
        2   -1    0    0  501    0  0.00000000000E+00  0.00000000000E+00 -0.21906046166E+04  0.21906046166E+04  0.25500000920E-02 0. -1.
    10030    2    1    2    0    0  0.00000000000E+00  0.00000000000E+00 -0.15845675604E+04  0.27966416728E+04  0.23044197302E+04 0.  0.
        5    1    3    3  502    0  0.32289289892E+03 -0.10388923704E+04 -0.12528255275E+04  0.16592622077E+04  0.46999998093E+01 0. -1.
       -5    1    3    3    0  502 -0.32289289892E+03  0.10388923704E+04 -0.33174203292E+03  0.11373794652E+04  0.46999998093E+01 0.  1.
</event>
<event>
 5   0  0.3338758E-06  0.2302695E+04  0.7818609E-02  0.8476859E-01
        1   -1    0    0  501    0  0.00000000000E+00  0.00000000000E+00  0.89085407763E+03  0.89085407765E+03  0.50400001928E-02 0.  1.
       -1   -1    0    0    0  501  0.00000000000E+00  0.00000000000E+00 -0.14880111061E+04  0.14880111061E+04  0.50400001928E-02 0. -1.
    10030    2    1    2    0    0  0.00000000000E+00  0.00000000000E+00 -0.59715702843E+03  0.23788651837E+04  0.23026947357E+04 0.  0.
        5    1    3    3  502    0  0.25057444848E+03 -0.73566958798E+03 -0.11761370996E+04  0.14097226195E+04  0.46999998093E+01 0. -1.
       -5    1    3    3    0  502 -0.25057444848E+03  0.73566958798E+03  0.57898007118E+03  0.96914256420E+03  0.46999998093E+01 0.  1.
</event>
<event>
 5   0  0.3195296E-06  0.2288309E+04  0.7818609E-02  0.8482545E-01
       -1   -1    0    0    0  501  0.00000000000E+00  0.00000000000E+00  0.65739392656E+03  0.65739392658E+03  0.50400001928E-02 0. -1.
        1   -1    0    0  501    0  0.00000000000E+00  0.00000000000E+00 -0.19913315706E+04  0.19913315706E+04  0.50400001928E-02 0.  1.
    10030    2    1    2    0    0  0.00000000000E+00  0.00000000000E+00 -0.13339376440E+04  0.26487254972E+04  0.22883087906E+04 0.  0.
        2    1    3    3  502    0 -0.29960807759E+03  0.21598297801E+03 -0.19204311147E+04  0.19556250441E+04  0.25500000920E-02 0.  1.
       -2    1    3    3    0  502  0.29960807759E+03 -0.21598297801E+03  0.58649347063E+03  0.69310045307E+03  0.25500000920E-02 0. -1.
</event>
<event>
 5   0  0.7348107E-06  0.2300642E+04  0.7818609E-02  0.8477668E-01
        2   -1    0    0  501    0  0.00000000000E+00  0.00000000000E+00  0.10047831995E+04  0.10047831995E+04  0.25500000920E-02 0. -1.
       -2   -1    0    0    0  501  0.00000000000E+00  0.00000000000E+00 -0.13169390181E+04  0.13169390181E+04  0.25500000920E-02 0.  1.
    10030    2    1    2    0    0  0.00000000000E+00  0.00000000000E+00 -0.31215581863E+03  0.23217222177E+04  0.23006418237E+04 0.  0.
        3    1    3    3  502    0  0.64478991821E+03 -0.63760416499E+03 -0.87033786848E+03  0.12568934423E+04  0.10100000352E+00 0.  1.
       -3    1    3    3    0  502 -0.64478991821E+03  0.63760416499E+03  0.55818204984E+03  0.10648287753E+04  0.10100000352E+00 0. -1.
</event>
<event>
 5   0  0.3238713E-06  0.2296763E+04  0.7818609E-02  0.8479198E-01
       -1   -1    0    0    0  501  0.00000000000E+00  0.00000000000E+00  0.81283256769E+03  0.81283256771E+03  0.50400001928E-02 0.  1.
        1   -1    0    0  501    0  0.00000000000E+00  0.00000000000E+00 -0.16224505076E+04  0.16224505076E+04  0.50400001928E-02 0. -1.
    10030    2    1    2    0    0  0.00000000000E+00  0.00000000000E+00 -0.80961793995E+03  0.24352830754E+04  0.22967634725E+04 0.  0.
        3    1    3    3  502    0  0.61724210119E+03 -0.93613886979E+03 -0.66762236460E+03  0.13050147229E+04  0.10100000352E+00 0. -1.
       -3    1    3    3    0  502 -0.61724210119E+03  0.93613886979E+03 -0.14199557535E+03  0.11302683525E+04  0.10100000352E+00 0.  1.
</event>
<event>
 5   0  0.3238713E-06  0.2296701E+04  0.7818609E-02  0.8479223E-01
        1   -1    0    0  501    0  0.00000000000E+00  0.00000000000E+00  0.17387103486E+04  0.17387103486E+04  0.50400001928E-02 0. -1.
       -1   -1    0    0    0  501  0.00000000000E+00  0.00000000000E+00 -0.75844077359E+03  0.75844077361E+03  0.50400001928E-02 0.  1.
    10030    2    1    2    0    0  0.00000000000E+00  0.00000000000E+00  0.98026957505E+03  0.24971511223E+04  0.22967009574E+04 0.  0.
        3    1    3    3  502    0 -0.50835817320E+03  0.10056687978E+04  0.73059535148E+03  0.13429695979E+04  0.10100000352E+00 0. -1.
       -3    1    3    3    0  502  0.50835817320E+03 -0.10056687978E+04  0.24967422357E+03  0.11541815244E+04  0.10100000352E+00 0.  1.
</event>
<event>
 5   0  0.3238713E-06  0.2302158E+04  0.7818609E-02  0.8477071E-01
        1   -1    0    0  501    0  0.00000000000E+00  0.00000000000E+00  0.10988959678E+04  0.10988959678E+04  0.50400001928E-02 0. -1.
       -1   -1    0    0    0  501  0.00000000000E+00  0.00000000000E+00 -0.12057404633E+04  0.12057404633E+04  0.50400001928E-02 0.  1.
    10030    2    1    2    0    0  0.00000000000E+00  0.00000000000E+00 -0.10684449549E+03  0.23046364311E+04  0.23021584075E+04 0.  0.
        3    1    3    3  502    0 -0.88231100555E+03 -0.55291148284E+03 -0.54466370853E+03  0.11750925002E+04  0.10100000352E+00 0.  1.
       -3    1    3    3    0  502  0.88231100555E+03  0.55291148284E+03  0.43781921304E+03  0.11295439309E+04  0.10100000352E+00 0. -1.
</event>
<event>
 5   0  0.2519625E-06  0.2292721E+04  0.7818609E-02  0.8480797E-01
       -4   -1    0    0    0  501  0.00000000000E+00  0.00000000000E+00  0.17786053046E+04  0.17786057580E+04  0.12699999809E+01 0. -1.
        4   -1    0    0  501    0  0.00000000000E+00  0.00000000000E+00 -0.73886026918E+03  0.73886136066E+03  0.12699999809E+01 0.  1.
    10030    2    1    2    0    0  0.00000000000E+00  0.00000000000E+00  0.10397450354E+04  0.25174671186E+04  0.22927212990E+04 0.  0.
        3    1    3    3  502    0  0.65812974044E+02  0.94921380938E+03  0.12219263081E+04  0.15486904520E+04  0.10100000352E+00 0. -1.
       -3    1    3    3    0  502 -0.65812974044E+02 -0.94921380938E+03 -0.18218127274E+03  0.96877666663E+03  0.10100000352E+00 0.  1.
</event>
<event>
 5   0  0.3226427E-06  0.2317973E+04  0.7818609E-02  0.8470868E-01
       -1   -1    0    0    0  501  0.00000000000E+00  0.00000000000E+00  0.13571170077E+04  0.13571170077E+04  0.50400001928E-02 0.  1.
        1   -1    0    0  501    0  0.00000000000E+00  0.00000000000E+00 -0.98978173036E+03  0.98978173037E+03  0.50400001928E-02 0. -1.
    10030    2    1    2    0    0  0.00000000000E+00  0.00000000000E+00  0.36733527736E+03  0.23468987381E+04  0.23179729250E+04 0.  0.
        4    1    3    3  502    0  0.22953649789E+03 -0.33136250689E+03 -0.91652007069E+03  0.10012486043E+04  0.12699999809E+01 0. -1.
       -4    1    3    3    0  502 -0.22953649789E+03  0.33136250689E+03  0.12838553481E+04  0.13456501337E+04  0.12699999809E+01 0.  1.
</event>
<event>
 5   0  0.3226427E-06  0.2306040E+04  0.7818609E-02  0.8475544E-01
       -1   -1    0    0    0  501  0.00000000000E+00  0.00000000000E+00  0.79288537205E+03  0.79288537207E+03  0.50400001928E-02 0. -1.
        1   -1    0    0  501    0  0.00000000000E+00  0.00000000000E+00 -0.16767300036E+04  0.16767300036E+04  0.50400001928E-02 0.  1.
    10030    2    1    2    0    0  0.00000000000E+00  0.00000000000E+00 -0.88384463154E+03  0.24696153757E+04  0.23060396291E+04 0.  0.
        4    1    3    3  502    0 -0.20526859649E+03 -0.11307895206E+04 -0.54142664966E+03  0.12704190515E+04  0.12699999809E+01 0. -1.
       -4    1    3    3    0  502  0.20526859649E+03  0.11307895206E+04 -0.34241798188E+03  0.11991963241E+04  0.12699999809E+01 0.  1.
</event>
<event>
 5   0  0.7348107E-06  0.2297032E+04  0.7818609E-02  0.8479092E-01
       -2   -1    0    0    0  501  0.00000000000E+00  0.00000000000E+00  0.72453414455E+03  0.72453414456E+03  0.25500000920E-02 0. -1.
        2   -1    0    0  501    0  0.00000000000E+00  0.00000000000E+00 -0.18206022284E+04  0.18206022284E+04  0.25500000920E-02 0.  1.
    10030    2    1    2    0    0  0.00000000000E+00  0.00000000000E+00 -0.10960680838E+04  0.25451363729E+04  0.22970315436E+04 0.  0.
        3    1    3    3  502    0 -0.46083944290E+02  0.38187241327E+03  0.65104599207E+03  0.75618196482E+03  0.10100000352E+00 0. -1.
       -3    1    3    3    0  502  0.46083944290E+02 -0.38187241327E+03 -0.17471140759E+04  0.17889544081E+04  0.10100000352E+00 0.  1.
</event>
<event>
 5   0  0.7044981E-06  0.2300362E+04  0.7818609E-02  0.8477779E-01
       -2   -1    0    0    0  501  0.00000000000E+00  0.00000000000E+00  0.10090671611E+04  0.10090671611E+04  0.25500000920E-02 0.  1.
        2   -1    0    0  501    0  0.00000000000E+00  0.00000000000E+00 -0.13110287009E+04  0.13110287009E+04  0.25500000920E-02 0. -1.
    10030    2    1    2    0    0  0.00000000000E+00  0.00000000000E+00 -0.30196153985E+03  0.23200958620E+04  0.23003617188E+04 0.  0.
        4    1    3    3  502    0 -0.97027544636E+03  0.47446571784E+03 -0.54979967382E+03  0.12119543941E+04  0.12699999809E+01 0. -1.
       -4    1    3    3    0  502  0.97027544636E+03 -0.47446571784E+03  0.24783813397E+03  0.11081414678E+04  0.12699999809E+01 0.  1.
</event>
<event>
 5   0  0.7044981E-06  0.2299639E+04  0.7818609E-02  0.8478064E-01
        2   -1    0    0  501    0  0.00000000000E+00  0.00000000000E+00  0.21650993038E+04  0.21650993038E+04  0.25500000920E-02 0.  1.
       -2   -1    0    0    0  501  0.00000000000E+00  0.00000000000E+00 -0.61063454958E+03  0.61063454958E+03  0.25500000920E-02 0. -1.
    10030    2    1    2    0    0  0.00000000000E+00  0.00000000000E+00  0.15544647543E+04  0.27757338534E+04  0.22996386135E+04 0.  0.
        4    1    3    3  502    0  0.58738130998E+03  0.72693999160E+03  0.15856943786E+04  0.18406213163E+04  0.12699999809E+01 0.  1.
       -4    1    3    3    0  502 -0.58738130998E+03 -0.72693999160E+03 -0.31229624392E+02  0.93511253710E+03  0.12699999809E+01 0. -1.
</event>
<event>
 5   0  0.3338758E-06  0.2317355E+04  0.7818609E-02  0.8471109E-01
       -1   -1    0    0    0  501  0.00000000000E+00  0.00000000000E+00  0.57145917858E+03  0.57145917860E+03  0.50400001928E-02 0.  1.
        1   -1    0    0  501    0  0.00000000000E+00  0.00000000000E+00 -0.23493083055E+04  0.23493083056E+04  0.50400001928E-02 0. -1.
    10030    2    1    2    0    0  0.00000000000E+00  0.00000000000E+00 -0.17778491270E+04  0.29207674842E+04  0.23173552119E+04 0.  0.
        5    1    3    3  502    0 -0.19816895657E+03  0.54750147980E+02 -0.23261227818E+04  0.23351954522E+04  0.46999998093E+01 0. -1.
       -5    1    3    3    0  502  0.19816895657E+03 -0.54750147980E+02  0.54827365481E+03  0.58557203196E+03  0.46999998093E+01 0.  1.
</event>
<event>
 5   0  0.3238713E-06  0.2299650E+04  0.7818609E-02  0.8478059E-01
       -1   -1    0    0    0  501  0.00000000000E+00  0.00000000000E+00  0.97372570182E+03  0.97372570184E+03  0.50400001928E-02 0.  1.
        1   -1    0    0  501    0  0.00000000000E+00  0.00000000000E+00 -0.13577720556E+04  0.13577720556E+04  0.50400001928E-02 0. -1.
    10030    2    1    2    0    0  0.00000000000E+00  0.00000000000E+00 -0.38404635380E+03  0.23314977575E+04  0.22996500149E+04 0.  0.
        3    1    3    3  502    0 -0.90456669896E+03  0.42248666333E+03  0.38628113903E+03  0.10704900850E+04  0.10100000352E+00 0.  1.
       -3    1    3    3    0  502  0.90456669896E+03 -0.42248666333E+03 -0.77032749283E+03  0.12610076724E+04  0.10100000352E+00 0. -1.
</event>
<event>
 5   0  0.7044981E-06  0.2300287E+04  0.7818609E-02  0.8477808E-01
        2   -1    0    0  501    0  0.00000000000E+00  0.00000000000E+00  0.12697543744E+04  0.12697543744E+04  0.25500000920E-02 0.  1.
       -2   -1    0    0    0  501  0.00000000000E+00  0.00000000000E+00 -0.10418001733E+04  0.10418001733E+04  0.25500000920E-02 0. -1.
    10030    2    1    2    0    0  0.00000000000E+00  0.00000000000E+00  0.22795420106E+03  0.23115545477E+04  0.23002872232E+04 0.  0.
        4    1    3    3  502    0  0.48703658765E+03 -0.10062914831E+04  0.38548849062E+03  0.11825523989E+04  0.12699999809E+01 0.  1.
       -4    1    3    3    0  502 -0.48703658765E+03  0.10062914831E+04 -0.15753428955E+03  0.11290021488E+04  0.12699999809E+01 0. -1.
</event>
<event>
 5   0  0.7497344E-06  0.2295783E+04  0.7818609E-02  0.8479586E-01
        2   -1    0    0  501    0  0.00000000000E+00  0.00000000000E+00  0.86014419521E+03  0.86014419521E+03  0.25500000920E-02 0. -1.
       -2   -1    0    0    0  501  0.00000000000E+00  0.00000000000E+00 -0.15318994387E+04  0.15318994387E+04  0.25500000920E-02 0.  1.
    10030    2    1    2    0    0  0.00000000000E+00  0.00000000000E+00 -0.67175524352E+03  0.23920436339E+04  0.22957825767E+04 0.  0.
        5    1    3    3  502    0 -0.17187135243E+03 -0.80669380445E+02  0.84366068949E+03  0.86477324179E+03  0.46999998093E+01 0. -1.
       -5    1    3    3    0  502  0.17187135243E+03  0.80669380445E+02 -0.15154159330E+04  0.15272703922E+04  0.46999998093E+01 0.  1.
</event>
<event>
 5   0  0.3338758E-06  0.2300243E+04  0.7818609E-02  0.8477825E-01
       -1   -1    0    0    0  501  0.00000000000E+00  0.00000000000E+00  0.10074192531E+04  0.10074192531E+04  0.50400001928E-02 0. -1.
        1   -1    0    0  501    0  0.00000000000E+00  0.00000000000E+00 -0.13130380664E+04  0.13130380664E+04  0.50400001928E-02 0.  1.
    10030    2    1    2    0    0  0.00000000000E+00  0.00000000000E+00 -0.30561881325E+03  0.23204573195E+04  0.23002433160E+04 0.  0.
        5    1    3    3  502    0  0.50837910956E+03 -0.72775317814E+03  0.58483710383E+03  0.10630759782E+04  0.46999998093E+01 0. -1.
       -5    1    3    3    0  502 -0.50837910956E+03  0.72775317814E+03 -0.89045591708E+03  0.12573813414E+04  0.46999998093E+01 0.  1.
</event>
<event>
 5   0  0.3238713E-06  0.2296857E+04  0.7818609E-02  0.8479161E-01
       -1   -1    0    0    0  501  0.00000000000E+00  0.00000000000E+00  0.13292079969E+04  0.13292079969E+04  0.50400001928E-02 0. -1.
        1   -1    0    0  501    0  0.00000000000E+00  0.00000000000E+00 -0.99223612942E+03  0.99223612944E+03  0.50400001928E-02 0.  1.
    10030    2    1    2    0    0  0.00000000000E+00  0.00000000000E+00  0.33697186744E+03  0.23214441263E+04  0.22968571554E+04 0.  0.
        3    1    3    3  502    0  0.65915958633E+03 -0.22032469343E+03 -0.75555119949E+03  0.10265924001E+04  0.10100000352E+00 0.  1.
       -3    1    3    3    0  502 -0.65915958633E+03  0.22032469343E+03  0.10925230669E+04  0.12948517262E+04  0.10100000352E+00 0. -1.
</event>
<event>
 5   0  0.7003852E-06  0.2298730E+04  0.7818609E-02  0.8478422E-01
        2   -1    0    0  501    0  0.00000000000E+00  0.00000000000E+00  0.24523980440E+04  0.24523980440E+04  0.25500000920E-02 0. -1.
       -2   -1    0    0    0  501  0.00000000000E+00  0.00000000000E+00 -0.53867260715E+03  0.53867260716E+03  0.25500000920E-02 0.  1.
    10030    2    1    2    0    0  0.00000000000E+00  0.00000000000E+00  0.19137254369E+04  0.29910706512E+04  0.22987297781E+04 0.  0.
        2    1    3    3  502    0 -0.17021586154E+03 -0.42643553488E+03  0.23278804334E+04  0.23727300767E+04  0.25500000920E-02 0. -1.
       -2    1    3    3    0  502  0.17021586154E+03  0.42643553488E+03 -0.41415499648E+03  0.61834057448E+03  0.25500000920E-02 0.  1.
</event>
<event>
 5   0  0.7497344E-06  0.2306788E+04  0.7818609E-02  0.8475249E-01
        2   -1    0    0  501    0  0.00000000000E+00  0.00000000000E+00  0.13371950888E+04  0.13371950888E+04  0.25500000920E-02 0. -1.
       -2   -1    0    0    0  501  0.00000000000E+00  0.00000000000E+00 -0.99485699704E+03  0.99485699704E+03  0.25500000920E-02 0.  1.
    10030    2    1    2    0    0  0.00000000000E+00  0.00000000000E+00  0.34233809179E+03  0.23320520859E+04  0.23067881485E+04 0.  0.
        5    1    3    3  502    0 -0.43639904999E+03 -0.36460545003E+03 -0.84327206204E+03  0.10171092005E+04  0.46999998093E+01 0.  1.
       -5    1    3    3    0  502  0.43639904999E+03  0.36460545003E+03  0.11856101538E+04  0.13149428854E+04  0.46999998093E+01 0. -1.
</event>
<event>
 5   0  0.7242214E-06  0.2299769E+04  0.7818609E-02  0.8478012E-01
       -2   -1    0    0    0  501  0.00000000000E+00  0.00000000000E+00  0.10487440998E+04  0.10487440998E+04  0.25500000920E-02 0. -1.
        2   -1    0    0  501    0  0.00000000000E+00  0.00000000000E+00 -0.12607792393E+04  0.12607792393E+04  0.25500000920E-02 0.  1.
    10030    2    1    2    0    0  0.00000000000E+00  0.00000000000E+00 -0.21203513947E+03  0.23095233391E+04  0.22997693696E+04 0.  0.
        1    1    3    3  502    0 -0.10586352607E+04 -0.44816849407E+03 -0.13203447517E+03  0.11571502569E+04  0.50400001928E-02 0.  1.
       -1    1    3    3    0  502  0.10586352607E+04  0.44816849407E+03 -0.80000664296E+02  0.11523730822E+04  0.50400001928E-02 0. -1.
</event>
<event>
 5   0  0.7044981E-06  0.2298226E+04  0.7818609E-02  0.8478621E-01
        2   -1    0    0  501    0  0.00000000000E+00  0.00000000000E+00  0.14809358493E+04  0.14809358493E+04  0.25500000920E-02 0.  1.
       -2   -1    0    0    0  501  0.00000000000E+00  0.00000000000E+00 -0.89163935214E+03  0.89163935214E+03  0.25500000920E-02 0. -1.
    10030    2    1    2    0    0  0.00000000000E+00  0.00000000000E+00  0.58929649716E+03  0.23725752014E+04  0.22982259952E+04 0.  0.
        4    1    3    3  502    0 -0.11020434743E+04  0.32036954334E+03  0.23514144835E+03  0.11715073953E+04  0.12699999809E+01 0. -1.
       -4    1    3    3    0  502  0.11020434743E+04 -0.32036954334E+03  0.35415504882E+03  0.12010678062E+04  0.12699999809E+01 0.  1.
</event>
<event>
 5   0  0.7497344E-06  0.2300792E+04  0.7818609E-02  0.8477609E-01
        2   -1    0    0  501    0  0.00000000000E+00  0.00000000000E+00  0.13025094414E+04  0.13025094414E+04  0.25500000920E-02 0.  1.
       -2   -1    0    0    0  501  0.00000000000E+00  0.00000000000E+00 -0.10160475346E+04  0.10160475346E+04  0.25500000920E-02 0. -1.
    10030    2    1    2    0    0  0.00000000000E+00  0.00000000000E+00  0.28646190680E+03  0.23185569759E+04  0.23007924779E+04 0.  0.
        5    1    3    3  502    0  0.58808493987E+03 -0.92834158639E+03  0.48604488093E+03  0.12016337686E+04  0.46999998093E+01 0.  1.
       -5    1    3    3    0  502 -0.58808493987E+03  0.92834158639E+03 -0.19958297413E+03  0.11169232073E+04  0.46999998093E+01 0. -1.
</event>
<event>
 5   0  0.7348107E-06  0.2299185E+04  0.7818609E-02  0.8478243E-01
       -2   -1    0    0    0  501  0.00000000000E+00  0.00000000000E+00  0.89076490387E+03  0.89076490388E+03  0.25500000920E-02 0.  1.
        2   -1    0    0  501    0  0.00000000000E+00  0.00000000000E+00 -0.14836265049E+04  0.14836265049E+04  0.25500000920E-02 0. -1.
    10030    2    1    2    0    0  0.00000000000E+00  0.00000000000E+00 -0.59286160107E+03  0.23743914088E+04  0.22991845694E+04 0.  0.
        3    1    3    3  502    0  0.10404765415E+04 -0.43475200341E+03 -0.52726330412E+03  0.12448322538E+04  0.10100000352E+00 0. -1.
       -3    1    3    3    0  502 -0.10404765415E+04  0.43475200341E+03 -0.65598296944E+02  0.11295591550E+04  0.10100000352E+00 0.  1.
</event>
<event>
 5   0  0.3226427E-06  0.2298827E+04  0.7818609E-02  0.8478384E-01
       -1   -1    0    0    0  501  0.00000000000E+00  0.00000000000E+00  0.14643941562E+04  0.14643941562E+04  0.50400001928E-02 0.  1.
        1   -1    0    0  501    0  0.00000000000E+00  0.00000000000E+00 -0.90218311490E+03  0.90218311491E+03  0.50400001928E-02 0. -1.
    10030    2    1    2    0    0  0.00000000000E+00  0.00000000000E+00  0.56221104128E+03  0.23665772711E+04  0.22988272500E+04 0.  0.
        4    1    3    3  502    0 -0.64714787088E+03 -0.77006564862E+03 -0.29147745207E+03  0.10472641443E+04  0.12699999809E+01 0. -1.
       -4    1    3    3    0  502  0.64714787088E+03  0.77006564862E+03  0.85368849335E+03  0.13193131268E+04  0.12699999809E+01 0.  1.
</event>
<event>
 5   0  0.7497344E-06  0.2300245E+04  0.7818609E-02  0.8477824E-01
        2   -1    0    0  501    0  0.00000000000E+00  0.00000000000E+00  0.10992933344E+04  0.10992933344E+04  0.25500000920E-02 0.  1.
       -2   -1    0    0    0  501  0.00000000000E+00  0.00000000000E+00 -0.12033023927E+04  0.12033023927E+04  0.25500000920E-02 0. -1.
    10030    2    1    2    0    0  0.00000000000E+00  0.00000000000E+00 -0.10400905828E+03  0.23025957272E+04  0.23002454649E+04 0.  0.
        5    1    3    3  502    0  0.42593910090E+03 -0.82060264845E+03  0.63276121098E+03  0.11203667544E+04  0.46999998093E+01 0.  1.
       -5    1    3    3    0  502 -0.42593910090E+03  0.82060264845E+03 -0.73677026925E+03  0.11822289727E+04  0.46999998093E+01 0. -1.
</event>
<event>
 5   0  0.3338758E-06  0.2297116E+04  0.7818609E-02  0.8479059E-01
       -1   -1    0    0    0  501  0.00000000000E+00  0.00000000000E+00  0.96200146858E+03  0.96200146860E+03  0.50400001928E-02 0. -1.
        1   -1    0    0  501    0  0.00000000000E+00  0.00000000000E+00 -0.13712929135E+04  0.13712929135E+04  0.50400001928E-02 0.  1.
    10030    2    1    2    0    0  0.00000000000E+00  0.00000000000E+00 -0.40929144495E+03  0.23332943821E+04  0.22971162763E+04 0.  0.
        5    1    3    3  502    0  0.69610435607E+03 -0.88499453579E+03  0.25611693719E+02  0.11262569209E+04  0.46999998093E+01 0.  1.
       -5    1    3    3    0  502 -0.69610435607E+03  0.88499453579E+03 -0.43490313867E+03  0.12070374613E+04  0.46999998093E+01 0. -1.
</event>
<event>
 5   0  0.3338758E-06  0.2301424E+04  0.7818609E-02  0.8477360E-01
        1   -1    0    0  501    0  0.00000000000E+00  0.00000000000E+00  0.12903565490E+04  0.12903565490E+04  0.50400001928E-02 0.  1.
       -1   -1    0    0    0  501  0.00000000000E+00  0.00000000000E+00 -0.10261797379E+04  0.10261797379E+04  0.50400001928E-02 0. -1.
    10030    2    1    2    0    0  0.00000000000E+00  0.00000000000E+00  0.26417681110E+03  0.23165362869E+04  0.23014236856E+04 0.  0.
        5    1    3    3  502    0  0.10505067969E+04  0.33233629815E+03  0.46608612796E+03  0.11963571014E+04  0.46999998093E+01 0.  1.
       -5    1    3    3    0  502 -0.10505067969E+04 -0.33233629815E+03 -0.20190931687E+03  0.11201791855E+04  0.46999998093E+01 0. -1.
</event>
<event>
 5   0  0.3338758E-06  0.2300008E+04  0.7818609E-02  0.8477918E-01
        1   -1    0    0  501    0  0.00000000000E+00  0.00000000000E+00  0.10880638181E+04  0.10880638181E+04  0.50400001928E-02 0.  1.
       -1   -1    0    0    0  501  0.00000000000E+00  0.00000000000E+00 -0.12154705689E+04  0.12154705689E+04  0.50400001928E-02 0. -1.
    10030    2    1    2    0    0  0.00000000000E+00  0.00000000000E+00 -0.12740675084E+03  0.23035343870E+04  0.23000083026E+04 0.  0.
        5    1    3    3  502    0 -0.53631119286E+03 -0.10150798798E+04  0.32616756879E+01  0.11480634070E+04  0.46999998093E+01 0.  1.
       -5    1    3    3    0  502  0.53631119286E+03  0.10150798798E+04 -0.13066842652E+03  0.11554709800E+04  0.46999998093E+01 0. -1.
</event>
<event>
 5   0  0.3184492E-06  0.2297953E+04  0.7818609E-02  0.8478728E-01
        1   -1    0    0  501    0  0.00000000000E+00  0.00000000000E+00  0.25971161497E+04  0.25971161498E+04  0.50400001928E-02 0.  1.
       -1   -1    0    0    0  501  0.00000000000E+00  0.00000000000E+00 -0.50831283673E+03  0.50831283675E+03  0.50400001928E-02 0. -1.
    10030    2    1    2    0    0  0.00000000000E+00  0.00000000000E+00  0.20888033130E+04  0.31054289865E+04  0.22979534177E+04 0.  0.
        1    1    3    3  502    0 -0.58280491974E+03  0.44771652273E+03  0.22379435142E+04  0.23555260202E+04  0.50400001928E-02 0.  1.
       -1    1    3    3    0  502  0.58280491974E+03 -0.44771652273E+03 -0.14914020117E+03  0.74990296628E+03  0.50400001928E-02 0. -1.
</event>
<event>
 5   0  0.7348107E-06  0.2302257E+04  0.7818609E-02  0.8477032E-01
       -2   -1    0    0    0  501  0.00000000000E+00  0.00000000000E+00  0.13318927816E+04  0.13318927816E+04  0.25500000920E-02 0. -1.
        2   -1    0    0  501    0  0.00000000000E+00  0.00000000000E+00 -0.99489725649E+03  0.99489725649E+03  0.25500000920E-02 0.  1.
    10030    2    1    2    0    0  0.00000000000E+00  0.00000000000E+00  0.33699552514E+03  0.23267900381E+04  0.23022566967E+04 0.  0.
        3    1    3    3  502    0 -0.31165281015E+02  0.85977318296E+03 -0.60444961497E+03  0.10514468832E+04  0.10100000352E+00 0.  1.
       -3    1    3    3    0  502  0.31165281015E+02 -0.85977318296E+03  0.94144514011E+03  0.12753431550E+04  0.10100000352E+00 0. -1.
</event>
<event>
 5   0  0.2519625E-06  0.2266682E+04  0.7818609E-02  0.8491175E-01
        4   -1    0    0  501    0  0.00000000000E+00  0.00000000000E+00  0.78028723090E+03  0.78028826443E+03  0.12699999809E+01 0. -1.
       -4   -1    0    0    0  501  0.00000000000E+00  0.00000000000E+00 -0.16461373564E+04  0.16461378463E+04  0.12699999809E+01 0.  1.
    10030    2    1    2    0    0  0.00000000000E+00  0.00000000000E+00 -0.86585012546E+03  0.24264261107E+04  0.22666819872E+04 0.  0.
        2    1    3    3  502    0 -0.94920771422E+03  0.33965462247E+03  0.12135072166E+03  0.10154243177E+04  0.25500000920E-02 0.  1.
       -2    1    3    3    0  502  0.94920771422E+03 -0.33965462247E+03 -0.98720084712E+03  0.14110017930E+04  0.25500000920E-02 0. -1.
</event>
<event>
 5   0  0.3226427E-06  0.2301278E+04  0.7818609E-02  0.8477417E-01
       -1   -1    0    0    0  501  0.00000000000E+00  0.00000000000E+00  0.62579604995E+03  0.62579604997E+03  0.50400001928E-02 0. -1.
        1   -1    0    0  501    0  0.00000000000E+00  0.00000000000E+00 -0.21156575584E+04  0.21156575584E+04  0.50400001928E-02 0.  1.
    10030    2    1    2    0    0  0.00000000000E+00  0.00000000000E+00 -0.14898615085E+04  0.27414536084E+04  0.23012780303E+04 0.  0.
        4    1    3    3  502    0  0.50513928862E+02  0.57480534653E+03  0.44098018227E+03  0.72623548348E+03  0.12699999809E+01 0. -1.
       -4    1    3    3    0  502 -0.50513928862E+02 -0.57480534653E+03 -0.19308416907E+04  0.20152181249E+04  0.12699999809E+01 0.  1.
</event>
<event>
 5   0  0.7003852E-06  0.2294250E+04  0.7818609E-02  0.8480192E-01
        2   -1    0    0  501    0  0.00000000000E+00  0.00000000000E+00  0.96729236404E+03  0.96729236405E+03  0.25500000920E-02 0.  1.
       -2   -1    0    0    0  501  0.00000000000E+00  0.00000000000E+00 -0.13603907195E+04  0.13603907195E+04  0.25500000920E-02 0. -1.
    10030    2    1    2    0    0  0.00000000000E+00  0.00000000000E+00 -0.39309835543E+03  0.23276830835E+04  0.22942498164E+04 0.  0.
        2    1    3    3  502    0  0.41837959905E+03  0.69485778619E+03  0.62646043974E+03  0.10248519476E+04  0.25500000920E-02 0.  1.
       -2    1    3    3    0  502 -0.41837959905E+03 -0.69485778619E+03 -0.10195587952E+04  0.13028311359E+04  0.25500000920E-02 0. -1.
</event>
<event>
 5   0  0.7003852E-06  0.2299019E+04  0.7818609E-02  0.8478308E-01
        2   -1    0    0  501    0  0.00000000000E+00  0.00000000000E+00  0.27975223398E+04  0.27975223398E+04  0.25500000920E-02 0.  1.
       -2   -1    0    0    0  501  0.00000000000E+00  0.00000000000E+00 -0.47233672996E+03  0.47233672996E+03  0.25500000920E-02 0. -1.
    10030    2    1    2    0    0  0.00000000000E+00  0.00000000000E+00  0.23251856098E+04  0.32698590697E+04  0.22990194031E+04 0.  0.
        2    1    3    3  502    0 -0.89623746440E+03  0.43921678758E+03  0.19736934323E+04  0.22117004191E+04  0.25500000920E-02 0.  1.
       -2    1    3    3    0  502  0.89623746440E+03 -0.43921678758E+03  0.35149217752E+03  0.10581586507E+04  0.25500000920E-02 0. -1.
</event>
<event>
 5   0  0.3184492E-06  0.2299272E+04  0.7818609E-02  0.8478208E-01
       -1   -1    0    0    0  501  0.00000000000E+00  0.00000000000E+00  0.14283198972E+04  0.14283198972E+04  0.50400001928E-02 0.  1.
        1   -1    0    0  501    0  0.00000000000E+00  0.00000000000E+00 -0.92532689314E+03  0.92532689316E+03  0.50400001928E-02 0. -1.
    10030    2    1    2    0    0  0.00000000000E+00  0.00000000000E+00  0.50299300405E+03  0.23536467904E+04  0.22992718960E+04 0.  0.
        1    1    3    3  502    0 -0.78427931355E+03 -0.81550880364E+03  0.46006518478E+03  0.12213961785E+04  0.50400001928E-02 0. -1.
       -1    1    3    3    0  502  0.78427931355E+03  0.81550880364E+03  0.42927819266E+02  0.11322506119E+04  0.50400001928E-02 0.  1.
</event>
<event>
 5   0  0.7497344E-06  0.2304930E+04  0.7818609E-02  0.8475980E-01
        2   -1    0    0  501    0  0.00000000000E+00  0.00000000000E+00  0.10780668392E+04  0.10780668392E+04  0.25500000920E-02 0.  1.
       -2   -1    0    0    0  501  0.00000000000E+00  0.00000000000E+00 -0.12319972410E+04  0.12319972410E+04  0.25500000920E-02 0. -1.
    10030    2    1    2    0    0  0.00000000000E+00  0.00000000000E+00 -0.15393040183E+03  0.23100640803E+04  0.23049298224E+04 0.  0.
        5    1    3    3  502    0  0.61752252851E+03 -0.75194048627E+03 -0.69592058924E+03  0.11962759400E+04  0.46999998093E+01 0. -1.
       -5    1    3    3    0  502 -0.61752252851E+03  0.75194048627E+03  0.54199018741E+03  0.11137881402E+04  0.46999998093E+01 0.  1.
</event>
<event>
 5   0  0.3238713E-06  0.2303943E+04  0.7818609E-02  0.8476368E-01
        1   -1    0    0  501    0  0.00000000000E+00  0.00000000000E+00  0.14164193619E+04  0.14164193619E+04  0.50400001928E-02 0.  1.
       -1   -1    0    0    0  501  0.00000000000E+00  0.00000000000E+00 -0.93689615578E+03  0.93689615579E+03  0.50400001928E-02 0. -1.
    10030    2    1    2    0    0  0.00000000000E+00  0.00000000000E+00  0.47952320615E+03  0.23533155177E+04  0.23039425819E+04 0.  0.
        3    1    3    3  502    0 -0.77450362094E+03  0.79452012216E+03 -0.76584546235E+02  0.11121975033E+04  0.10100000352E+00 0. -1.
       -3    1    3    3    0  502  0.77450362094E+03 -0.79452012216E+03  0.55610775238E+03  0.12411180145E+04  0.10100000352E+00 0.  1.
</event>
<event>
 5   0  0.7044981E-06  0.2299133E+04  0.7818609E-02  0.8478263E-01
       -2   -1    0    0    0  501  0.00000000000E+00  0.00000000000E+00  0.14973915548E+04  0.14973915548E+04  0.25500000920E-02 0.  1.
        2   -1    0    0  501    0  0.00000000000E+00  0.00000000000E+00 -0.88253669828E+03  0.88253669828E+03  0.25500000920E-02 0. -1.
    10030    2    1    2    0    0  0.00000000000E+00  0.00000000000E+00  0.61485485648E+03  0.23799282530E+04  0.22991328790E+04 0.  0.
        4    1    3    3  502    0 -0.10059371289E+04  0.53650673089E+03  0.46009733672E+03  0.12294064225E+04  0.12699999809E+01 0.  1.
       -4    1    3    3    0  502  0.10059371289E+04 -0.53650673089E+03  0.15475751976E+03  0.11505218305E+04  0.12699999809E+01 0. -1.
</event>
<event>
 5   0  0.2519625E-06  0.2300482E+04  0.7818609E-02  0.8477731E-01
        4   -1    0    0  501    0  0.00000000000E+00  0.00000000000E+00  0.76494004001E+03  0.76494109428E+03  0.12699999809E+01 0.  1.
       -4   -1    0    0    0  501  0.00000000000E+00  0.00000000000E+00 -0.17296156621E+04  0.17296161283E+04  0.12699999809E+01 0. -1.
    10030    2    1    2    0    0  0.00000000000E+00  0.00000000000E+00 -0.96467562204E+03  0.24945572226E+04  0.23004818367E+04 0.  0.
        4    1    3    3  502    0 -0.52683174515E+03 -0.99910168040E+03 -0.24651267662E+03  0.11560821632E+04  0.12699999809E+01 0.  1.
       -4    1    3    3    0  502  0.52683174515E+03  0.99910168040E+03 -0.71816294542E+03  0.13384750594E+04  0.12699999809E+01 0. -1.
</event>
<event>
 5   0  0.3184492E-06  0.2300562E+04  0.7818609E-02  0.8477700E-01
        1   -1    0    0  501    0  0.00000000000E+00  0.00000000000E+00  0.23841249861E+04  0.23841249861E+04  0.50400001928E-02 0. -1.
       -1   -1    0    0    0  501  0.00000000000E+00  0.00000000000E+00 -0.55498190302E+03  0.55498190304E+03  0.50400001928E-02 0.  1.
    10030    2    1    2    0    0  0.00000000000E+00  0.00000000000E+00  0.18291430831E+04  0.29391068892E+04  0.23005618634E+04 0.  0.
        1    1    3    3  502    0  0.10028313337E+04  0.54944562140E+03  0.75508078294E+03  0.13702949185E+04  0.50400001928E-02 0.  1.
       -1    1    3    3    0  502 -0.10028313337E+04 -0.54944562140E+03  0.10740623002E+04  0.15688119707E+04  0.50400001928E-02 0. -1.
</event>
<event>
 5   0  0.3184492E-06  0.2300207E+04  0.7818609E-02  0.8477840E-01
       -1   -1    0    0    0  501  0.00000000000E+00  0.00000000000E+00  0.96252336664E+03  0.96252336665E+03  0.50400001928E-02 0. -1.
        1   -1    0    0  501    0  0.00000000000E+00  0.00000000000E+00 -0.13742394985E+04  0.13742394985E+04  0.50400001928E-02 0.  1.
    10030    2    1    2    0    0  0.00000000000E+00  0.00000000000E+00 -0.41171613181E+03  0.23367628651E+04  0.23002066243E+04 0.  0.
        1    1    3    3  502    0 -0.15504309890E+02 -0.79805194651E+03  0.63531715438E+03  0.10201740928E+04  0.50400001928E-02 0. -1.
       -1    1    3    3    0  502  0.15504309890E+02  0.79805194651E+03 -0.10470332862E+04  0.13165887723E+04  0.50400001928E-02 0.  1.
</event>
<event>
 5   0  0.3238713E-06  0.2301427E+04  0.7818609E-02  0.8477359E-01
       -1   -1    0    0    0  501  0.00000000000E+00  0.00000000000E+00  0.10432434146E+04  0.10432434146E+04  0.50400001928E-02 0. -1.
        1   -1    0    0  501    0  0.00000000000E+00  0.00000000000E+00 -0.12692550185E+04  0.12692550185E+04  0.50400001928E-02 0.  1.
    10030    2    1    2    0    0  0.00000000000E+00  0.00000000000E+00 -0.22601160388E+03  0.23124984332E+04  0.23014273307E+04 0.  0.
        3    1    3    3  502    0 -0.68421684428E+03  0.90105056972E+03 -0.32400910110E+03  0.11768715847E+04  0.10100000352E+00 0.  1.
       -3    1    3    3    0  502  0.68421684428E+03 -0.90105056972E+03  0.97997497217E+02  0.11356268484E+04  0.10100000352E+00 0. -1.
</event>
<event>
 5   0  0.7044981E-06  0.2293048E+04  0.7818609E-02  0.8480667E-01
        2   -1    0    0  501    0  0.00000000000E+00  0.00000000000E+00  0.11243350941E+04  0.11243350941E+04  0.25500000920E-02 0. -1.
       -2   -1    0    0    0  501  0.00000000000E+00  0.00000000000E+00 -0.11691506066E+04  0.11691506067E+04  0.25500000920E-02 0.  1.
    10030    2    1    2    0    0  0.00000000000E+00  0.00000000000E+00 -0.44815512547E+02  0.22934857008E+04  0.22930478036E+04 0.  0.
        4    1    3    3  502    0 -0.75013884063E+03 -0.40903827142E+03 -0.78707638836E+03  0.11616847428E+04  0.12699999809E+01 0.  1.
       -4    1    3    3    0  502  0.75013884063E+03  0.40903827142E+03  0.74226087581E+03  0.11318009579E+04  0.12699999809E+01 0. -1.
</event>
<event>
 5   0  0.7242214E-06  0.2301060E+04  0.7818609E-02  0.8477503E-01
        2   -1    0    0  501    0  0.00000000000E+00  0.00000000000E+00  0.13437026050E+04  0.13437026050E+04  0.25500000920E-02 0. -1.
       -2   -1    0    0    0  501  0.00000000000E+00  0.00000000000E+00 -0.98512793575E+03  0.98512793575E+03  0.25500000920E-02 0.  1.
    10030    2    1    2    0    0  0.00000000000E+00  0.00000000000E+00  0.35857466929E+03  0.23288305408E+04  0.23010597329E+04 0.  0.
        1    1    3    3  502    0 -0.59214450179E+03 -0.96825687081E+03  0.37014346078E+03  0.11938017677E+04  0.50400001928E-02 0. -1.
       -1    1    3    3    0  502  0.59214450179E+03  0.96825687081E+03 -0.11568791493E+02  0.11350287731E+04  0.50400001928E-02 0.  1.
</event>
<event>
 5   0  0.2519625E-06  0.2300514E+04  0.7818609E-02  0.8477718E-01
       -4   -1    0    0    0  501  0.00000000000E+00  0.00000000000E+00  0.10652748670E+04  0.10652756241E+04  0.12699999809E+01 0.  1.
        4   -1    0    0  501    0  0.00000000000E+00  0.00000000000E+00 -0.12420175372E+04  0.12420181865E+04  0.12699999809E+01 0. -1.
    10030    2    1    2    0    0  0.00000000000E+00  0.00000000000E+00 -0.17674267014E+03  0.23072938106E+04  0.23005144548E+04 0.  0.
        4    1    3    3  502    0  0.40560827087E+03 -0.36198421828E+01  0.99116432839E+03  0.10709526187E+04  0.12699999809E+01 0.  1.
       -4    1    3    3    0  502 -0.40560827087E+03  0.36198421828E+01 -0.11679069985E+04  0.12363411919E+04  0.12699999809E+01 0. -1.
</event>
<event>
 5   0  0.3195296E-06  0.2292759E+04  0.7818609E-02  0.8480782E-01
        1   -1    0    0  501    0  0.00000000000E+00  0.00000000000E+00  0.12763936880E+04  0.12763936880E+04  0.50400001928E-02 0. -1.
       -1   -1    0    0    0  501  0.00000000000E+00  0.00000000000E+00 -0.10296084160E+04  0.10296084160E+04  0.50400001928E-02 0.  1.
    10030    2    1    2    0    0  0.00000000000E+00  0.00000000000E+00  0.24678527204E+03  0.23060021041E+04  0.22927587604E+04 0.  0.
        2    1    3    3  502    0  0.38385372161E+03  0.10335848769E+04 -0.19233827694E+03  0.11192119505E+04  0.25500000920E-02 0.  1.
       -2    1    3    3    0  502 -0.38385372161E+03 -0.10335848769E+04  0.43912354898E+03  0.11867901536E+04  0.25500000920E-02 0. -1.
</event>
<event>
 5   0  0.2519625E-06  0.2299030E+04  0.7818609E-02  0.8478304E-01
       -3   -1    0    0    0  501  0.00000000000E+00  0.00000000000E+00  0.13062091758E+04  0.13062091797E+04  0.10100000352E+00 0.  1.
        3   -1    0    0  501    0  0.00000000000E+00  0.00000000000E+00 -0.10116181517E+04  0.10116181567E+04  0.10100000352E+00 0. -1.
    10030    2    1    2    0    0  0.00000000000E+00  0.00000000000E+00  0.29459102408E+03  0.23178273364E+04  0.22990301629E+04 0.  0.
        4    1    3    3  502    0  0.89055090527E+03 -0.43581877881E+02 -0.58417293228E+03  0.10659455533E+04  0.12699999809E+01 0. -1.
       -4    1    3    3    0  502 -0.89055090527E+03  0.43581877881E+02  0.87876395637E+03  0.12518817831E+04  0.12699999809E+01 0.  1.
</event>
<event>
 5   0  0.7044981E-06  0.2295704E+04  0.7818609E-02  0.8479617E-01
        2   -1    0    0  501    0  0.00000000000E+00  0.00000000000E+00  0.16762181915E+04  0.16762181915E+04  0.25500000920E-02 0.  1.
       -2   -1    0    0    0  501  0.00000000000E+00  0.00000000000E+00 -0.78603404591E+03  0.78603404591E+03  0.25500000920E-02 0. -1.
    10030    2    1    2    0    0  0.00000000000E+00  0.00000000000E+00  0.89018414556E+03  0.24622522374E+04  0.22957043075E+04 0.  0.
        4    1    3    3  502    0 -0.56513665825E+03 -0.56318567379E+03 -0.44000697215E+03  0.91113407032E+03  0.12699999809E+01 0. -1.
       -4    1    3    3    0  502  0.56513665825E+03  0.56318567379E+03  0.13301911177E+04  0.15511181671E+04  0.12699999809E+01 0.  1.
</event>
<event>
 5   0  0.3238713E-06  0.2300710E+04  0.7818609E-02  0.8477641E-01
        1   -1    0    0  501    0  0.00000000000E+00  0.00000000000E+00  0.23040877878E+04  0.23040877878E+04  0.50400001928E-02 0. -1.
       -1   -1    0    0    0  501  0.00000000000E+00  0.00000000000E+00 -0.57433443842E+03  0.57433443844E+03  0.50400001928E-02 0.  1.
    10030    2    1    2    0    0  0.00000000000E+00  0.00000000000E+00  0.17297533494E+04  0.28784222263E+04  0.23007102953E+04 0.  0.
        3    1    3    3  502    0  0.66190005545E+03 -0.43106630525E+03 -0.18141164319E+03  0.81045668448E+03  0.10100000352E+00 0.  1.
       -3    1    3    3    0  502 -0.66190005545E+03  0.43106630525E+03  0.19111649926E+04  0.20679655418E+04  0.10100000352E+00 0. -1.
</event>
<event>
 5   0  0.7044981E-06  0.2300254E+04  0.7818609E-02  0.8477821E-01
        2   -1    0    0  501    0  0.00000000000E+00  0.00000000000E+00  0.14207501207E+04  0.14207501207E+04  0.25500000920E-02 0.  1.
       -2   -1    0    0    0  501  0.00000000000E+00  0.00000000000E+00 -0.93105203847E+03  0.93105203847E+03  0.25500000920E-02 0. -1.
    10030    2    1    2    0    0  0.00000000000E+00  0.00000000000E+00  0.48969808219E+03  0.23518021591E+04  0.23002541564E+04 0.  0.
        4    1    3    3  502    0 -0.14436727890E+03 -0.38764053354E+03 -0.85236548784E+03  0.94743634732E+03  0.12699999809E+01 0. -1.
       -4    1    3    3    0  502  0.14436727890E+03  0.38764053354E+03  0.13420635700E+04  0.14043658118E+04  0.12699999809E+01 0.  1.
</event>
<event>
 5   0  0.3238713E-06  0.2300671E+04  0.7818609E-02  0.8477656E-01
       -1   -1    0    0    0  501  0.00000000000E+00  0.00000000000E+00  0.19629119752E+04  0.19629119752E+04  0.50400001928E-02 0. -1.
        1   -1    0    0  501    0  0.00000000000E+00  0.00000000000E+00 -0.67413730935E+03  0.67413730937E+03  0.50400001928E-02 0.  1.
    10030    2    1    2    0    0  0.00000000000E+00  0.00000000000E+00  0.12887746659E+04  0.26370492846E+04  0.23006713781E+04 0.  0.
        3    1    3    3  502    0  0.78466744702E+02  0.61522513710E+03 -0.46608305720E+03  0.77581726312E+03  0.10100000352E+00 0.  1.
       -3    1    3    3    0  502 -0.78466744702E+02 -0.61522513710E+03  0.17548577231E+04  0.18612320215E+04  0.10100000352E+00 0. -1.
</event>
<event>
 5   0  0.3238713E-06  0.2270974E+04  0.7818609E-02  0.8489454E-01
        1   -1    0    0  501    0  0.00000000000E+00  0.00000000000E+00  0.16154664297E+04  0.16154664297E+04  0.50400001928E-02 0.  1.
       -1   -1    0    0    0  501  0.00000000000E+00  0.00000000000E+00 -0.79811666772E+03  0.79811666774E+03  0.50400001928E-02 0. -1.
    10030    2    1    2    0    0  0.00000000000E+00  0.00000000000E+00  0.81734976194E+03  0.24135830974E+04  0.22709739617E+04 0.  0.
        3    1    3    3  502    0  0.54255821709E+03 -0.32836297947E+03 -0.59235245885E+03  0.86779785142E+03  0.10100000352E+00 0. -1.
       -3    1    3    3    0  502 -0.54255821709E+03  0.32836297947E+03  0.14097022208E+04  0.15457852460E+04  0.10100000352E+00 0.  1.
</event>
<event>
 5   0  0.7044981E-06  0.2302208E+04  0.7818609E-02  0.8477051E-01
        2   -1    0    0  501    0  0.00000000000E+00  0.00000000000E+00  0.15046623573E+04  0.15046623573E+04  0.25500000920E-02 0.  1.
       -2   -1    0    0    0  501  0.00000000000E+00  0.00000000000E+00 -0.88062299901E+03  0.88062299901E+03  0.25500000920E-02 0. -1.
    10030    2    1    2    0    0  0.00000000000E+00  0.00000000000E+00  0.62403935833E+03  0.23852853564E+04  0.23022078773E+04 0.  0.
        4    1    3    3  502    0 -0.34486208669E+03 -0.70232457723E+03  0.11867910818E+04  0.14215007405E+04  0.12699999809E+01 0.  1.
       -4    1    3    3    0  502  0.34486208669E+03  0.70232457723E+03 -0.56275172343E+03  0.96378461585E+03  0.12699999809E+01 0. -1.
</event>
<event>
 5   0  0.7242214E-06  0.2291004E+04  0.7818609E-02  0.8481476E-01
       -2   -1    0    0    0  501  0.00000000000E+00  0.00000000000E+00  0.10545788961E+04  0.10545788961E+04  0.25500000920E-02 0. -1.
        2   -1    0    0  501    0  0.00000000000E+00  0.00000000000E+00 -0.12442646343E+04  0.12442646343E+04  0.25500000920E-02 0.  1.
    10030    2    1    2    0    0  0.00000000000E+00  0.00000000000E+00 -0.18968573818E+03  0.22988435305E+04  0.22910043427E+04 0.  0.
        1    1    3    3  502    0  0.16686129531E+03 -0.29711318824E+03 -0.11922285999E+04  0.12399709564E+04  0.50400001928E-02 0.  1.
       -1    1    3    3    0  502 -0.16686129531E+03  0.29711318824E+03  0.10025428617E+04  0.10588725740E+04  0.50400001928E-02 0. -1.
</event>
<event>
 5   0  0.7003852E-06  0.2298046E+04  0.7818609E-02  0.8478692E-01
       -2   -1    0    0    0  501  0.00000000000E+00  0.00000000000E+00  0.55650278081E+03  0.55650278082E+03  0.25500000920E-02 0.  1.
        2   -1    0    0  501    0  0.00000000000E+00  0.00000000000E+00 -0.23724113845E+04  0.23724113845E+04  0.25500000920E-02 0. -1.
    10030    2    1    2    0    0  0.00000000000E+00  0.00000000000E+00 -0.18159086037E+04  0.29289141653E+04  0.22980457199E+04 0.  0.
        2    1    3    3  502    0 -0.85948748151E+02  0.69311155570E+03 -0.20708221839E+04  0.21854279520E+04  0.25500000920E-02 0. -1.
       -2    1    3    3    0  502  0.85948748151E+02 -0.69311155570E+03  0.25491358025E+03  0.74348621330E+03  0.25500000920E-02 0.  1.
</event>
<event>
 5   0  0.7044981E-06  0.2298055E+04  0.7818609E-02  0.8478688E-01
        2   -1    0    0  501    0  0.00000000000E+00  0.00000000000E+00  0.14953485514E+04  0.14953485514E+04  0.25500000920E-02 0.  1.
       -2   -1    0    0    0  501  0.00000000000E+00  0.00000000000E+00 -0.88291439762E+03  0.88291439762E+03  0.25500000920E-02 0. -1.
    10030    2    1    2    0    0  0.00000000000E+00  0.00000000000E+00  0.61243415380E+03  0.23782629490E+04  0.22980554959E+04 0.  0.
        4    1    3    3  502    0  0.64387798512E+03  0.46008808207E+03 -0.55592751797E+03  0.96711784242E+03  0.12699999809E+01 0. -1.
       -4    1    3    3    0  502 -0.64387798512E+03 -0.46008808207E+03  0.11683616718E+04  0.14111451066E+04  0.12699999809E+01 0.  1.
</event>
<event>
 5   0  0.3184492E-06  0.2286400E+04  0.7818609E-02  0.8483303E-01
        1   -1    0    0  501    0  0.00000000000E+00  0.00000000000E+00  0.11651039747E+04  0.11651039747E+04  0.50400001928E-02 0.  1.
       -1   -1    0    0    0  501  0.00000000000E+00  0.00000000000E+00 -0.11217076178E+04  0.11217076178E+04  0.50400001928E-02 0. -1.
    10030    2    1    2    0    0  0.00000000000E+00  0.00000000000E+00  0.43396356887E+02  0.22868115925E+04  0.22863997935E+04 0.  0.
        1    1    3    3  502    0 -0.65800373824E+03 -0.72454789076E+03  0.61253923441E+03  0.11546180664E+04  0.50400001928E-02 0.  1.
       -1    1    3    3    0  502  0.65800373824E+03  0.72454789076E+03 -0.56914287752E+03  0.11321935261E+04  0.50400001928E-02 0. -1.
</event>
<event>
 5   0  0.3238713E-06  0.2304265E+04  0.7818609E-02  0.8476242E-01
       -1   -1    0    0    0  501  0.00000000000E+00  0.00000000000E+00  0.84782352362E+03  0.84782352363E+03  0.50400001928E-02 0.  1.
        1   -1    0    0  501    0  0.00000000000E+00  0.00000000000E+00 -0.15656664270E+04  0.15656664270E+04  0.50400001928E-02 0. -1.
    10030    2    1    2    0    0  0.00000000000E+00  0.00000000000E+00 -0.71784290340E+03  0.24134899507E+04  0.23042645916E+04 0.  0.
        3    1    3    3  502    0  0.75311283042E+03  0.50685709812E+03 -0.11020051417E+04  0.14277599223E+04  0.10100000352E+00 0. -1.
       -3    1    3    3    0  502 -0.75311283042E+03 -0.50685709812E+03  0.38416223828E+03  0.98573002835E+03  0.10100000352E+00 0.  1.
</event>
<event>
 5   0  0.7003852E-06  0.2299721E+04  0.7818609E-02  0.8478031E-01
        2   -1    0    0  501    0  0.00000000000E+00  0.00000000000E+00  0.11758939958E+04  0.11758939958E+04  0.25500000920E-02 0. -1.
       -2   -1    0    0    0  501  0.00000000000E+00  0.00000000000E+00 -0.11244032046E+04  0.11244032046E+04  0.25500000920E-02 0.  1.
    10030    2    1    2    0    0  0.00000000000E+00  0.00000000000E+00  0.51490791196E+02  0.23002972004E+04  0.22997208328E+04 0.  0.
        2    1    3    3  502    0 -0.10757661457E+04  0.78495116355E+01  0.43185769620E+03  0.11592391837E+04  0.25500000920E-02 0. -1.
       -2    1    3    3    0  502  0.10757661457E+04 -0.78495116355E+01 -0.38036690501E+03  0.11410580168E+04  0.25500000920E-02 0.  1.
</event>
<event>
 5   0  0.3195296E-06  0.2274386E+04  0.7818609E-02  0.8488089E-01
        1   -1    0    0  501    0  0.00000000000E+00  0.00000000000E+00  0.12666700884E+04  0.12666700884E+04  0.50400001928E-02 0. -1.
       -1   -1    0    0    0  501  0.00000000000E+00  0.00000000000E+00 -0.10209506157E+04  0.10209506157E+04  0.50400001928E-02 0.  1.
    10030    2    1    2    0    0  0.00000000000E+00  0.00000000000E+00  0.24571947271E+03  0.22876207041E+04  0.22743857251E+04 0.  0.
        2    1    3    3  502    0 -0.30388222625E+03 -0.44968820691E+03 -0.88227708830E+03  0.10358459110E+04  0.25500000920E-02 0.  1.
       -2    1    3    3    0  502  0.30388222625E+03  0.44968820691E+03  0.11279965610E+04  0.12517747931E+04  0.25500000920E-02 0. -1.
</event>
<event>
 5   0  0.3226427E-06  0.2299692E+04  0.7818609E-02  0.8478043E-01
        1   -1    0    0  501    0  0.00000000000E+00  0.00000000000E+00  0.16066687137E+04  0.16066687137E+04  0.50400001928E-02 0.  1.
       -1   -1    0    0    0  501  0.00000000000E+00  0.00000000000E+00 -0.82291138761E+03  0.82291138763E+03  0.50400001928E-02 0. -1.
    10030    2    1    2    0    0  0.00000000000E+00  0.00000000000E+00  0.78375732606E+03  0.24295801013E+04  0.22996921365E+04 0.  0.
        4    1    3    3  502    0 -0.10073363347E+04  0.32758054228E+03 -0.80722391130E+02  0.10623338553E+04  0.12699999809E+01 0. -1.
       -4    1    3    3    0  502  0.10073363347E+04 -0.32758054228E+03  0.86447971719E+03  0.13672462460E+04  0.12699999809E+01 0.  1.
</event>
<event>
 5   0  0.3226427E-06  0.2299627E+04  0.7818609E-02  0.8478068E-01
       -1   -1    0    0    0  501  0.00000000000E+00  0.00000000000E+00  0.93890302799E+03  0.93890302800E+03  0.50400001928E-02 0. -1.
        1   -1    0    0  501    0  0.00000000000E+00  0.00000000000E+00 -0.14081013581E+04  0.14081013581E+04  0.50400001928E-02 0.  1.
    10030    2    1    2    0    0  0.00000000000E+00  0.00000000000E+00 -0.46919833007E+03  0.23470043861E+04  0.22996266034E+04 0.  0.
        4    1    3    3  502    0  0.36727289745E+02 -0.89352244274E+03  0.50302016761E+03  0.10260419833E+04  0.12699999809E+01 0. -1.
       -4    1    3    3    0  502 -0.36727289745E+02  0.89352244274E+03 -0.97221849768E+03  0.13209624028E+04  0.12699999809E+01 0.  1.
</event>
<event>
 5   0  0.7003852E-06  0.2299956E+04  0.7818609E-02  0.8477938E-01
        2   -1    0    0  501    0  0.00000000000E+00  0.00000000000E+00  0.17650378399E+04  0.17650378399E+04  0.25500000920E-02 0.  1.
       -2   -1    0    0    0  501  0.00000000000E+00  0.00000000000E+00 -0.74924711911E+03  0.74924711911E+03  0.25500000920E-02 0. -1.
    10030    2    1    2    0    0  0.00000000000E+00  0.00000000000E+00  0.10157907208E+04  0.25142849590E+04  0.22999561010E+04 0.  0.
        2    1    3    3  502    0  0.37822825473E+03 -0.71786098725E+03  0.13987388139E+04  0.16170501783E+04  0.25500000920E-02 0.  1.
       -2    1    3    3    0  502 -0.37822825473E+03  0.71786098725E+03 -0.38294809309E+03  0.89723478070E+03  0.25500000920E-02 0. -1.
</event>
<event>
 5   0  0.3184492E-06  0.2293128E+04  0.7818609E-02  0.8480636E-01
       -1   -1    0    0    0  501  0.00000000000E+00  0.00000000000E+00  0.60651951493E+03  0.60651951495E+03  0.50400001928E-02 0.  1.
        1   -1    0    0  501    0  0.00000000000E+00  0.00000000000E+00 -0.21674635819E+04  0.21674635819E+04  0.50400001928E-02 0. -1.
    10030    2    1    2    0    0  0.00000000000E+00  0.00000000000E+00 -0.15609440670E+04  0.27739830969E+04  0.22931279601E+04 0.  0.
        1    1    3    3  502    0 -0.70395570091E+03 -0.32826214360E+03 -0.18007105385E+04  0.19610885006E+04  0.50400001928E-02 0. -1.
       -1    1    3    3    0  502  0.70395570091E+03  0.32826214360E+03  0.23976647149E+03  0.81289459627E+03  0.50400001928E-02 0.  1.
</event>
<event>
 5   0  0.7003852E-06  0.2298899E+04  0.7818609E-02  0.8478355E-01
       -2   -1    0    0    0  501  0.00000000000E+00  0.00000000000E+00  0.23868536186E+04  0.23868536186E+04  0.25500000920E-02 0. -1.
        2   -1    0    0  501    0  0.00000000000E+00  0.00000000000E+00 -0.55354634331E+03  0.55354634331E+03  0.25500000920E-02 0.  1.
    10030    2    1    2    0    0  0.00000000000E+00  0.00000000000E+00  0.18333072753E+04  0.29403999619E+04  0.22988989474E+04 0.  0.
        2    1    3    3  502    0 -0.78041049130E+03  0.27204023432E+03  0.19384414804E+04  0.21072735459E+04  0.25500000920E-02 0. -1.
       -2    1    3    3    0  502  0.78041049130E+03 -0.27204023432E+03 -0.10513420514E+03  0.83312641605E+03  0.25500000920E-02 0.  1.
</event>
<event>
 5   0  0.7003852E-06  0.2302795E+04  0.7818609E-02  0.8476820E-01
       -2   -1    0    0    0  501  0.00000000000E+00  0.00000000000E+00  0.70673472487E+03  0.70673472487E+03  0.25500000920E-02 0. -1.
        2   -1    0    0  501    0  0.00000000000E+00  0.00000000000E+00 -0.18758333145E+04  0.18758333145E+04  0.25500000920E-02 0.  1.
    10030    2    1    2    0    0  0.00000000000E+00  0.00000000000E+00 -0.11690985896E+04  0.25825680393E+04  0.23027952939E+04 0.  0.
        2    1    3    3  502    0 -0.76012919605E+03  0.96806609187E+01 -0.15543820420E+04  0.17303160528E+04  0.25500000920E-02 0.  1.
       -2    1    3    3    0  502  0.76012919605E+03 -0.96806609187E+01  0.38528345243E+03  0.85225198657E+03  0.25500000920E-02 0. -1.
</event>
<event>
 5   0  0.7003852E-06  0.2303170E+04  0.7818609E-02  0.8476672E-01
       -2   -1    0    0    0  501  0.00000000000E+00  0.00000000000E+00  0.85657959481E+03  0.85657959482E+03  0.25500000920E-02 0. -1.
        2   -1    0    0  501    0  0.00000000000E+00  0.00000000000E+00 -0.15481899972E+04  0.15481899972E+04  0.25500000920E-02 0.  1.
    10030    2    1    2    0    0  0.00000000000E+00  0.00000000000E+00 -0.69161040242E+03  0.24047695921E+04  0.23031699551E+04 0.  0.
        2    1    3    3  502    0  0.11833541768E+03  0.63760757889E+03  0.64780489403E+03  0.91662308310E+03  0.25500000920E-02 0. -1.
       -2    1    3    3    0  502 -0.11833541768E+03 -0.63760757889E+03 -0.13394152964E+04  0.14881465090E+04  0.25500000920E-02 0.  1.
</event>
<event>
 5   0  0.7242214E-06  0.2301504E+04  0.7818609E-02  0.8477328E-01
        2   -1    0    0  501    0  0.00000000000E+00  0.00000000000E+00  0.22020065230E+04  0.22020065230E+04  0.25500000920E-02 0.  1.
       -2   -1    0    0    0  501  0.00000000000E+00  0.00000000000E+00 -0.60137445238E+03  0.60137445238E+03  0.25500000920E-02 0. -1.
    10030    2    1    2    0    0  0.00000000000E+00  0.00000000000E+00  0.16006320706E+04  0.28033809754E+04  0.23015042619E+04 0.  0.
        1    1    3    3  502    0  0.28228887054E+03 -0.84258134828E+03 -0.90288431758E+02  0.89318661870E+03  0.50400001928E-02 0. -1.
       -1    1    3    3    0  502 -0.28228887054E+03  0.84258134828E+03  0.16909205023E+04  0.19101943566E+04  0.50400001928E-02 0.  1.
</event>
<event>
 5   0  0.3195296E-06  0.2303802E+04  0.7818609E-02  0.8476423E-01
       -1   -1    0    0    0  501  0.00000000000E+00  0.00000000000E+00  0.11060299999E+04  0.11060299999E+04  0.50400001928E-02 0.  1.
        1   -1    0    0  501    0  0.00000000000E+00  0.00000000000E+00 -0.11996747901E+04  0.11996747901E+04  0.50400001928E-02 0. -1.
    10030    2    1    2    0    0  0.00000000000E+00  0.00000000000E+00 -0.93644790210E+02  0.23057047901E+04  0.23038023423E+04 0.  0.
        2    1    3    3  502    0  0.41566272242E+03 -0.63622932611E+02 -0.11201131811E+04  0.11964434440E+04  0.25500000920E-02 0. -1.
       -2    1    3    3    0  502 -0.41566272242E+03  0.63622932611E+02  0.10264683909E+04  0.11092613460E+04  0.25500000920E-02 0.  1.
</event>
<event>
 5   0  0.7044981E-06  0.2311516E+04  0.7818609E-02  0.8473394E-01
       -2   -1    0    0    0  501  0.00000000000E+00  0.00000000000E+00  0.66487690603E+03  0.66487690603E+03  0.25500000920E-02 0. -1.
        2   -1    0    0  501    0  0.00000000000E+00  0.00000000000E+00 -0.20090584910E+04  0.20090584910E+04  0.25500000920E-02 0.  1.
    10030    2    1    2    0    0  0.00000000000E+00  0.00000000000E+00 -0.13441815850E+04  0.26739353970E+04  0.23115160337E+04 0.  0.
        4    1    3    3  502    0  0.44929056523E+03 -0.10184869201E+04 -0.31255955166E+03  0.11562321154E+04  0.12699999809E+01 0. -1.
       -4    1    3    3    0  502 -0.44929056523E+03  0.10184869201E+04 -0.10316220333E+04  0.15177032816E+04  0.12699999809E+01 0.  1.
</event>
<event>
 5   0  0.7497344E-06  0.2298734E+04  0.7818609E-02  0.8478421E-01
        2   -1    0    0  501    0  0.00000000000E+00  0.00000000000E+00  0.12530458786E+04  0.12530458786E+04  0.25500000920E-02 0. -1.
       -2   -1    0    0    0  501  0.00000000000E+00  0.00000000000E+00 -0.10542662766E+04  0.10542662766E+04  0.25500000920E-02 0.  1.
    10030    2    1    2    0    0  0.00000000000E+00  0.00000000000E+00  0.19877960193E+03  0.23073121552E+04  0.22987335756E+04 0.  0.
        5    1    3    3  502    0  0.44002047307E+03  0.18011833348E+03 -0.95091922614E+03  0.10631698338E+04  0.46999998093E+01 0.  1.
       -5    1    3    3    0  502 -0.44002047307E+03 -0.18011833348E+03  0.11496988281E+04  0.12441423215E+04  0.46999998093E+01 0. -1.
</event>
<event>
 5   0  0.3238713E-06  0.2300950E+04  0.7818609E-02  0.8477547E-01
        1   -1    0    0  501    0  0.00000000000E+00  0.00000000000E+00  0.18632002616E+04  0.18632002616E+04  0.50400001928E-02 0.  1.
       -1   -1    0    0    0  501  0.00000000000E+00  0.00000000000E+00 -0.71038690545E+03  0.71038690547E+03  0.50400001928E-02 0. -1.
    10030    2    1    2    0    0  0.00000000000E+00  0.00000000000E+00  0.11528133561E+04  0.25735871671E+04  0.23009502977E+04 0.  0.
        3    1    3    3  502    0  0.91964599669E+03  0.67829916270E+03  0.72544104002E+03  0.13535520774E+04  0.10100000352E+00 0.  1.
       -3    1    3    3    0  502 -0.91964599669E+03 -0.67829916270E+03  0.42737231610E+03  0.12200350897E+04  0.10100000352E+00 0. -1.
</event>
<event>
 5   0  0.7497344E-06  0.2300262E+04  0.7818609E-02  0.8477818E-01
       -2   -1    0    0    0  501  0.00000000000E+00  0.00000000000E+00  0.63955408369E+03  0.63955408369E+03  0.25500000920E-02 0. -1.
        2   -1    0    0  501    0  0.00000000000E+00  0.00000000000E+00 -0.20683178833E+04  0.20683178833E+04  0.25500000920E-02 0.  1.
    10030    2    1    2    0    0  0.00000000000E+00  0.00000000000E+00 -0.14287637996E+04  0.27078719670E+04  0.23002618535E+04 0.  0.
        5    1    3    3  502    0  0.24414172626E+03  0.53475626529E+03 -0.18780917601E+04  0.19679482197E+04  0.46999998093E+01 0.  1.
       -5    1    3    3    0  502 -0.24414172626E+03 -0.53475626529E+03  0.44932796053E+03  0.73992374733E+03  0.46999998093E+01 0. -1.
</event>
<event>
 5   0  0.3338758E-06  0.2299689E+04  0.7818609E-02  0.8478044E-01
       -1   -1    0    0    0  501  0.00000000000E+00  0.00000000000E+00  0.61479951158E+03  0.61479951160E+03  0.50400001928E-02 0. -1.
        1   -1    0    0  501    0  0.00000000000E+00  0.00000000000E+00 -0.21505257760E+04  0.21505257760E+04  0.50400001928E-02 0.  1.
    10030    2    1    2    0    0  0.00000000000E+00  0.00000000000E+00 -0.15357262644E+04  0.27653252876E+04  0.22996888457E+04 0.  0.
        5    1    3    3  502    0 -0.45473569549E+03 -0.52617222187E+02 -0.20362163933E+04  0.20870439418E+04  0.46999998093E+01 0.  1.
       -5    1    3    3    0  502  0.45473569549E+03  0.52617222187E+02  0.50049012891E+03  0.67828134573E+03  0.46999998093E+01 0. -1.
</event>
<event>
 5   0  0.7497344E-06  0.2307022E+04  0.7818609E-02  0.8475158E-01
       -2   -1    0    0    0  501  0.00000000000E+00  0.00000000000E+00  0.14229246286E+04  0.14229246286E+04  0.25500000920E-02 0.  1.
        2   -1    0    0  501    0  0.00000000000E+00  0.00000000000E+00 -0.93510766440E+03  0.93510766441E+03  0.25500000920E-02 0. -1.
    10030    2    1    2    0    0  0.00000000000E+00  0.00000000000E+00  0.48781696416E+03  0.23580322930E+04  0.23070220858E+04 0.  0.
        5    1    3    3  502    0 -0.41881933527E+03 -0.74887894683E+03 -0.54406959159E+03  0.10160035055E+04  0.46999998093E+01 0. -1.
       -5    1    3    3    0  502  0.41881933527E+03  0.74887894683E+03  0.10318865557E+04  0.13420287875E+04  0.46999998093E+01 0.  1.
</event>
<event>
 5   0  0.7003852E-06  0.2295176E+04  0.7818609E-02  0.8479826E-01
        2   -1    0    0  501    0  0.00000000000E+00  0.00000000000E+00  0.16575622648E+04  0.16575622648E+04  0.25500000920E-02 0. -1.
       -2   -1    0    0    0  501  0.00000000000E+00  0.00000000000E+00 -0.79451518327E+03  0.79451518328E+03  0.25500000920E-02 0.  1.
    10030    2    1    2    0    0  0.00000000000E+00  0.00000000000E+00  0.86304708152E+03  0.24520774481E+04  0.22951761471E+04 0.  0.
        2    1    3    3  502    0 -0.68388344294E+03 -0.85783401300E+03  0.71781310253E+02  0.10994218089E+04  0.25500000920E-02 0. -1.
       -2    1    3    3    0  502  0.68388344294E+03  0.85783401300E+03  0.79126577127E+03  0.13526556392E+04  0.25500000920E-02 0.  1.
</event>
<event>
 5   0  0.3184492E-06  0.2305177E+04  0.7818609E-02  0.8475883E-01
       -1   -1    0    0    0  501  0.00000000000E+00  0.00000000000E+00  0.76696246994E+03  0.76696246995E+03  0.50400001928E-02 0. -1.
        1   -1    0    0  501    0  0.00000000000E+00  0.00000000000E+00 -0.17321056028E+04  0.17321056028E+04  0.50400001928E-02 0.  1.
    10030    2    1    2    0    0  0.00000000000E+00  0.00000000000E+00 -0.96514313282E+03  0.24990680727E+04  0.23051767753E+04 0.  0.
        1    1    3    3  502    0 -0.82592780285E+03 -0.23089923481E+03  0.35225660467E+03  0.92712238011E+03  0.50400001928E-02 0. -1.
       -1    1    3    3    0  502  0.82592780285E+03  0.23089923481E+03 -0.13173997375E+04  0.15719456926E+04  0.50400001928E-02 0.  1.
</event>
<event>
 5   0  0.3238713E-06  0.2304361E+04  0.7818609E-02  0.8476204E-01
       -1   -1    0    0    0  501  0.00000000000E+00  0.00000000000E+00  0.87393190025E+03  0.87393190027E+03  0.50400001928E-02 0.  1.
        1   -1    0    0  501    0  0.00000000000E+00  0.00000000000E+00 -0.15190202015E+04  0.15190202015E+04  0.50400001928E-02 0. -1.
    10030    2    1    2    0    0  0.00000000000E+00  0.00000000000E+00 -0.64508830128E+03  0.23929521018E+04  0.23043612662E+04 0.  0.
        3    1    3    3  502    0  0.59026382372E+03  0.92903393198E+03 -0.67623299975E+03  0.12918229401E+04  0.10100000352E+00 0. -1.
       -3    1    3    3    0  502 -0.59026382372E+03 -0.92903393198E+03  0.31144698471E+02  0.11011291617E+04  0.10100000352E+00 0.  1.
</event>
<event>
 5   0  0.7044981E-06  0.2280039E+04  0.7818609E-02  0.8485833E-01
       -2   -1    0    0    0  501  0.00000000000E+00  0.00000000000E+00  0.47297475204E+03  0.47297475205E+03  0.25500000920E-02 0. -1.
        2   -1    0    0  501    0  0.00000000000E+00  0.00000000000E+00 -0.27478103746E+04  0.27478103746E+04  0.25500000920E-02 0.  1.
    10030    2    1    2    0    0  0.00000000000E+00  0.00000000000E+00 -0.22748356226E+04  0.32207851267E+04  0.22800394125E+04 0.  0.
        4    1    3    3  502    0 -0.48951172335E+03  0.73092094496E+03 -0.11313509625E+03  0.88694324395E+03  0.12699999809E+01 0. -1.
       -4    1    3    3    0  502  0.48951172335E+03 -0.73092094496E+03 -0.21617005264E+04  0.23338418827E+04  0.12699999809E+01 0.  1.
</event>
<event>
 5   0  0.7044981E-06  0.2297575E+04  0.7818609E-02  0.8478878E-01
        2   -1    0    0  501    0  0.00000000000E+00  0.00000000000E+00  0.21037091951E+04  0.21037091951E+04  0.25500000920E-02 0.  1.
       -2   -1    0    0    0  501  0.00000000000E+00  0.00000000000E+00 -0.62732642621E+03  0.62732642622E+03  0.25500000920E-02 0. -1.
    10030    2    1    2    0    0  0.00000000000E+00  0.00000000000E+00  0.14763827689E+04  0.27310356214E+04  0.22975746962E+04 0.  0.
        4    1    3    3  502    0  0.78324554414E+03  0.25532220663E+03  0.16898976185E+04  0.18800049430E+04  0.12699999809E+01 0.  1.
       -4    1    3    3    0  502 -0.78324554414E+03 -0.25532220663E+03 -0.21351484962E+03  0.85103067837E+03  0.12699999809E+01 0. -1.
</event>
<event>
 5   0  0.7242214E-06  0.2298488E+04  0.7818609E-02  0.8478518E-01
        2   -1    0    0  501    0  0.00000000000E+00  0.00000000000E+00  0.31891058902E+04  0.31891058902E+04  0.25500000920E-02 0.  1.
       -2   -1    0    0    0  501  0.00000000000E+00  0.00000000000E+00 -0.41414780898E+03  0.41414780899E+03  0.25500000920E-02 0. -1.
    10030    2    1    2    0    0  0.00000000000E+00  0.00000000000E+00  0.27749580812E+04  0.36032536992E+04  0.22984875175E+04 0.  0.
        1    1    3    3  502    0  0.75628255466E+03  0.59314870743E+03  0.39976115811E+03  0.10409599777E+04  0.50400001928E-02 0. -1.
       -1    1    3    3    0  502 -0.75628255466E+03 -0.59314870743E+03  0.23751969231E+04  0.25622937215E+04  0.50400001928E-02 0.  1.
</event>
<event>
 5   0  0.7497344E-06  0.2300812E+04  0.7818609E-02  0.8477601E-01
        2   -1    0    0  501    0  0.00000000000E+00  0.00000000000E+00  0.23064056535E+04  0.23064056535E+04  0.25500000920E-02 0. -1.
       -2   -1    0    0    0  501  0.00000000000E+00  0.00000000000E+00 -0.57380773535E+03  0.57380773536E+03  0.25500000920E-02 0.  1.
    10030    2    1    2    0    0  0.00000000000E+00  0.00000000000E+00  0.17325979181E+04  0.28802133888E+04  0.23008115132E+04 0.  0.
        5    1    3    3  502    0  0.41835110621E+03 -0.97838613636E+03  0.14136117337E+04  0.17693437494E+04  0.46999998093E+01 0. -1.
       -5    1    3    3    0  502 -0.41835110621E+03  0.97838613636E+03  0.31898618437E+03  0.11108696394E+04  0.46999998093E+01 0.  1.
</event>
<event>
 5   0  0.3238713E-06  0.2295217E+04  0.7818609E-02  0.8479810E-01
       -1   -1    0    0    0  501  0.00000000000E+00  0.00000000000E+00  0.12163534605E+04  0.12163534605E+04  0.50400001928E-02 0.  1.
        1   -1    0    0  501    0  0.00000000000E+00  0.00000000000E+00 -0.10827484864E+04  0.10827484864E+04  0.50400001928E-02 0. -1.
    10030    2    1    2    0    0  0.00000000000E+00  0.00000000000E+00  0.13360497411E+03  0.22991019470E+04  0.22952166506E+04 0.  0.
        3    1    3    3  502    0 -0.98522974055E+03 -0.46939508666E+02  0.65441625225E+03  0.11836982726E+04  0.10100000352E+00 0.  1.
       -3    1    3    3    0  502  0.98522974055E+03  0.46939508666E+02 -0.52081127814E+03  0.11154036744E+04  0.10100000352E+00 0. -1.
</event>
<event>
 5   0  0.3184492E-06  0.2320829E+04  0.7818609E-02  0.8469754E-01
        1   -1    0    0  501    0  0.00000000000E+00  0.00000000000E+00  0.85249892147E+03  0.85249892148E+03  0.50400001928E-02 0. -1.
       -1   -1    0    0    0  501  0.00000000000E+00  0.00000000000E+00 -0.15795466413E+04  0.15795466413E+04  0.50400001928E-02 0.  1.
    10030    2    1    2    0    0  0.00000000000E+00  0.00000000000E+00 -0.72704771982E+03  0.24320455628E+04  0.23208289968E+04 0.  0.
        1    1    3    3  502    0 -0.91619309997E+03 -0.14191322303E+02  0.38260079898E+03  0.99297258848E+03  0.50400001928E-02 0. -1.
       -1    1    3    3    0  502  0.91619309997E+03  0.14191322303E+02 -0.11096485188E+04  0.14390729743E+04  0.50400001928E-02 0.  1.
</event>
<event>
 5   0  0.7003852E-06  0.2233472E+04  0.7818609E-02  0.8504624E-01
        2   -1    0    0  501    0  0.00000000000E+00  0.00000000000E+00  0.13674759471E+04  0.13674759472E+04  0.25500000920E-02 0. -1.
       -2   -1    0    0    0  501  0.00000000000E+00  0.00000000000E+00 -0.91197132827E+03  0.91197132828E+03  0.25500000920E-02 0.  1.
    10030    2    1    2    0    0  0.00000000000E+00  0.00000000000E+00  0.45550461888E+03  0.22794472754E+04  0.22334716080E+04 0.  0.
        2    1    3    3  502    0 -0.27246236010E+03 -0.62709802892E+03 -0.67337913524E+03  0.95964948566E+03  0.25500000920E-02 0.  1.
       -2    1    3    3    0  502  0.27246236010E+03  0.62709802892E+03  0.11288837541E+04  0.13197977898E+04  0.25500000920E-02 0. -1.
</event>
<event>
 5   0  0.3338758E-06  0.2293462E+04  0.7818609E-02  0.8480504E-01
       -1   -1    0    0    0  501  0.00000000000E+00  0.00000000000E+00  0.87244362971E+03  0.87244362973E+03  0.50400001928E-02 0. -1.
        1   -1    0    0  501    0  0.00000000000E+00  0.00000000000E+00 -0.15072510793E+04  0.15072510793E+04  0.50400001928E-02 0.  1.
    10030    2    1    2    0    0  0.00000000000E+00  0.00000000000E+00 -0.63480744957E+03  0.23796947090E+04  0.22934616653E+04 0.  0.
        5    1    3    3  502    0  0.19370373495E+03 -0.10818306227E+04 -0.65695549740E+03  0.12804261981E+04  0.46999998093E+01 0. -1.
       -5    1    3    3    0  502 -0.19370373495E+03  0.10818306227E+04  0.22148047838E+02  0.10992685109E+04  0.46999998093E+01 0.  1.
</event>
<event>
 5   0  0.3238713E-06  0.2297172E+04  0.7818609E-02  0.8479037E-01
        1   -1    0    0  501    0  0.00000000000E+00  0.00000000000E+00  0.12318794313E+04  0.12318794313E+04  0.50400001928E-02 0.  1.
       -1   -1    0    0    0  501  0.00000000000E+00  0.00000000000E+00 -0.10709241510E+04  0.10709241510E+04  0.50400001928E-02 0. -1.
    10030    2    1    2    0    0  0.00000000000E+00  0.00000000000E+00  0.16095528027E+03  0.23028035823E+04  0.22971716820E+04 0.  0.
        3    1    3    3  502    0  0.68060526483E+03 -0.30071847139E+03 -0.79664998166E+03  0.10900946422E+04  0.10100000352E+00 0. -1.
       -3    1    3    3    0  502 -0.68060526483E+03  0.30071847139E+03  0.95760526193E+03  0.12127089401E+04  0.10100000352E+00 0.  1.
</event>
<event>
 5   0  0.3195296E-06  0.2301279E+04  0.7818609E-02  0.8477417E-01
        1   -1    0    0  501    0  0.00000000000E+00  0.00000000000E+00  0.12936712371E+04  0.12936712371E+04  0.50400001928E-02 0. -1.
       -1   -1    0    0    0  501  0.00000000000E+00  0.00000000000E+00 -0.10234216822E+04  0.10234216822E+04  0.50400001928E-02 0.  1.
    10030    2    1    2    0    0  0.00000000000E+00  0.00000000000E+00  0.27024955491E+03  0.23170929194E+04  0.23012789433E+04 0.  0.
        2    1    3    3  502    0  0.94700529160E+03  0.50191047725E+03  0.55661585462E+03  0.12077062387E+04  0.25500000920E-02 0. -1.
       -2    1    3    3    0  502 -0.94700529160E+03 -0.50191047725E+03 -0.28636629971E+03  0.11093866806E+04  0.25500000920E-02 0.  1.
</event>
<event>
 5   0  0.7003852E-06  0.2297939E+04  0.7818609E-02  0.8478734E-01
        2   -1    0    0  501    0  0.00000000000E+00  0.00000000000E+00  0.12794142406E+04  0.12794142406E+04  0.25500000920E-02 0.  1.
       -2   -1    0    0    0  501  0.00000000000E+00  0.00000000000E+00 -0.10318240708E+04  0.10318240708E+04  0.25500000920E-02 0. -1.
    10030    2    1    2    0    0  0.00000000000E+00  0.00000000000E+00  0.24759016976E+03  0.23112383114E+04  0.22979385631E+04 0.  0.
        2    1    3    3  502    0 -0.76975503573E+03 -0.76974324017E+03  0.49348594449E+03  0.11952220916E+04  0.25500000920E-02 0. -1.
       -2    1    3    3    0  502  0.76975503573E+03  0.76974324017E+03 -0.24589577474E+03  0.11160162198E+04  0.25500000920E-02 0.  1.
</event>
<event>
 5   0  0.7348107E-06  0.2297447E+04  0.7818609E-02  0.8478928E-01
        2   -1    0    0  501    0  0.00000000000E+00  0.00000000000E+00  0.12387107751E+04  0.12387107751E+04  0.25500000920E-02 0.  1.
       -2   -1    0    0    0  501  0.00000000000E+00  0.00000000000E+00 -0.10652735979E+04  0.10652735979E+04  0.25500000920E-02 0. -1.
    10030    2    1    2    0    0  0.00000000000E+00  0.00000000000E+00  0.17343717714E+03  0.23039843730E+04  0.22974471782E+04 0.  0.
        3    1    3    3  502    0  0.91690819819E+03 -0.31058746157E+03  0.70684746176E+03  0.11986736668E+04  0.10100000352E+00 0.  1.
       -3    1    3    3    0  502 -0.91690819819E+03  0.31058746157E+03 -0.53341028462E+03  0.11053107062E+04  0.10100000352E+00 0. -1.
</event>
<event>
 5   0  0.3338758E-06  0.2292546E+04  0.7818609E-02  0.8480866E-01
        1   -1    0    0  501    0  0.00000000000E+00  0.00000000000E+00  0.14899984484E+04  0.14899984484E+04  0.50400001928E-02 0. -1.
       -1   -1    0    0    0  501  0.00000000000E+00  0.00000000000E+00 -0.88184096528E+03  0.88184096530E+03  0.50400001928E-02 0.  1.
    10030    2    1    2    0    0  0.00000000000E+00  0.00000000000E+00  0.60815748314E+03  0.23718394137E+04  0.22925458949E+04 0.  0.
        5    1    3    3  502    0  0.87162026250E+03 -0.48727939000E+02 -0.46446263599E+03  0.98885991135E+03  0.46999998093E+01 0.  1.
       -5    1    3    3    0  502 -0.87162026250E+03  0.48727939000E+02  0.10726201191E+04  0.13829795024E+04  0.46999998093E+01 0. -1.
</event>
<event>
 5   0  0.3184492E-06  0.2299767E+04  0.7818609E-02  0.8478013E-01
       -1   -1    0    0    0  501  0.00000000000E+00  0.00000000000E+00  0.19572695649E+04  0.19572695649E+04  0.50400001928E-02 0. -1.
        1   -1    0    0  501    0  0.00000000000E+00  0.00000000000E+00 -0.67554904650E+03  0.67554904652E+03  0.50400001928E-02 0.  1.
    10030    2    1    2    0    0  0.00000000000E+00  0.00000000000E+00  0.12817205184E+04  0.26328186114E+04  0.22997665867E+04 0.  0.
        1    1    3    3  502    0 -0.58164960794E+03 -0.93814312915E+03  0.27201713231E+03  0.11368474469E+04  0.50400001928E-02 0.  1.
       -1    1    3    3    0  502  0.58164960794E+03  0.93814312915E+03  0.10097033860E+04  0.14959711645E+04  0.50400001928E-02 0. -1.
</event>
<event>
 5   0  0.3338758E-06  0.2327279E+04  0.7818609E-02  0.8467242E-01
       -1   -1    0    0    0  501  0.00000000000E+00  0.00000000000E+00  0.86982098818E+03  0.86982098819E+03  0.50400001928E-02 0.  1.
        1   -1    0    0  501    0  0.00000000000E+00  0.00000000000E+00 -0.15567080108E+04  0.15567080108E+04  0.50400001928E-02 0. -1.
    10030    2    1    2    0    0  0.00000000000E+00  0.00000000000E+00 -0.68688702261E+03  0.24265289990E+04  0.23272793561E+04 0.  0.
        5    1    3    3  502    0  0.62753204241E+03  0.92135922810E+03  0.44566398880E+01  0.11147830475E+04  0.46999998093E+01 0.  1.
       -5    1    3    3    0  502 -0.62753204241E+03 -0.92135922810E+03 -0.69134366250E+03  0.13117459514E+04  0.46999998093E+01 0. -1.
</event>
<event>
 5   0  0.7497344E-06  0.2298991E+04  0.7818609E-02  0.8478319E-01
        2   -1    0    0  501    0  0.00000000000E+00  0.00000000000E+00  0.15451255026E+04  0.15451255026E+04  0.25500000920E-02 0.  1.
       -2   -1    0    0    0  501  0.00000000000E+00  0.00000000000E+00 -0.85516661765E+03  0.85516661766E+03  0.25500000920E-02 0. -1.
    10030    2    1    2    0    0  0.00000000000E+00  0.00000000000E+00  0.68995888492E+03  0.24002921202E+04  0.22989908655E+04 0.  0.
        5    1    3    3  502    0 -0.29407426882E+03 -0.11111650511E+04  0.35777565489E+03  0.12038243043E+04  0.46999998093E+01 0.  1.
       -5    1    3    3    0  502  0.29407426882E+03  0.11111650511E+04  0.33218323002E+03  0.11964678160E+04  0.46999998093E+01 0. -1.
</event>
<event>
 5   0  0.2519625E-06  0.2300869E+04  0.7818609E-02  0.8477578E-01
       -3   -1    0    0    0  501  0.00000000000E+00  0.00000000000E+00  0.15070440608E+04  0.15070440642E+04  0.10100000352E+00 0.  1.
        3   -1    0    0  501    0  0.00000000000E+00  0.00000000000E+00 -0.87820911810E+03  0.87820912391E+03  0.10100000352E+00 0. -1.
    10030    2    1    2    0    0  0.00000000000E+00  0.00000000000E+00  0.62883494272E+03  0.23852531881E+04  0.23008692675E+04 0.  0.
        5    1    3    3  502    0  0.10742783576E+04 -0.27044835537E+03  0.63605650640E+03  0.12774217283E+04  0.46999998093E+01 0.  1.
       -5    1    3    3    0  502 -0.10742783576E+04  0.27044835537E+03 -0.72215636820E+01  0.11078314599E+04  0.46999998093E+01 0. -1.
</event>
<event>
 5   0  0.7003852E-06  0.2307751E+04  0.7818609E-02  0.8474871E-01
       -2   -1    0    0    0  501  0.00000000000E+00  0.00000000000E+00  0.15650242286E+04  0.15650242286E+04  0.25500000920E-02 0.  1.
        2   -1    0    0  501    0  0.00000000000E+00  0.00000000000E+00 -0.85074011074E+03  0.85074011075E+03  0.25500000920E-02 0. -1.
    10030    2    1    2    0    0  0.00000000000E+00  0.00000000000E+00  0.71428411785E+03  0.24157643393E+04  0.23077511872E+04 0.  0.
        2    1    3    3  502    0 -0.11404053287E+04  0.15442368903E+03  0.26919866748E+03  0.11818793983E+04  0.25500000920E-02 0. -1.
       -2    1    3    3    0  502  0.11404053287E+04 -0.15442368903E+03  0.44508545037E+03  0.12338849410E+04  0.25500000920E-02 0.  1.
</event>
<event>
 5   0  0.7003852E-06  0.2292437E+04  0.7818609E-02  0.8480909E-01
       -2   -1    0    0    0  501  0.00000000000E+00  0.00000000000E+00  0.13412981213E+04  0.13412981213E+04  0.25500000920E-02 0.  1.
        2   -1    0    0  501    0  0.00000000000E+00  0.00000000000E+00 -0.97951104905E+03  0.97951104905E+03  0.25500000920E-02 0. -1.
    10030    2    1    2    0    0  0.00000000000E+00  0.00000000000E+00  0.36178707226E+03  0.23208091704E+04  0.22924365465E+04 0.  0.
        2    1    3    3  502    0  0.47953114188E+02 -0.28698218135E+03 -0.94150211272E+03  0.98543619876E+03  0.25500000920E-02 0. -1.
       -2    1    3    3    0  502 -0.47953114188E+02  0.28698218135E+03  0.13032891850E+04  0.13353729716E+04  0.25500000920E-02 0.  1.
</event>
<event>
 5   0  0.7497344E-06  0.2301541E+04  0.7818609E-02  0.8477314E-01
       -2   -1    0    0    0  501  0.00000000000E+00  0.00000000000E+00  0.10234445906E+04  0.10234445906E+04  0.25500000920E-02 0.  1.
        2   -1    0    0  501    0  0.00000000000E+00  0.00000000000E+00 -0.12939371716E+04  0.12939371716E+04  0.25500000920E-02 0. -1.
    10030    2    1    2    0    0  0.00000000000E+00  0.00000000000E+00 -0.27049258097E+03  0.23173817623E+04  0.23015412218E+04 0.  0.
        5    1    3    3  502    0  0.14571322735E+03 -0.97779174860E+03 -0.72831795998E+03  0.12279161979E+04  0.46999998093E+01 0. -1.
       -5    1    3    3    0  502 -0.14571322735E+03  0.97779174860E+03  0.45782537901E+03  0.10894655644E+04  0.46999998093E+01 0.  1.
</event>
<event>
 5   0  0.7242214E-06  0.2330255E+04  0.7818609E-02  0.8466087E-01
        2   -1    0    0  501    0  0.00000000000E+00  0.00000000000E+00  0.31327168740E+04  0.31327168740E+04  0.25500000920E-02 0.  1.
       -2   -1    0    0    0  501  0.00000000000E+00  0.00000000000E+00 -0.43333707153E+03  0.43333707154E+03  0.25500000920E-02 0. -1.
    10030    2    1    2    0    0  0.00000000000E+00  0.00000000000E+00  0.26993798024E+04  0.35660539455E+04  0.23302552273E+04 0.  0.
        1    1    3    3  502    0  0.88069905871E+02  0.85019697664E+03  0.25613877638E+04  0.27002404493E+04  0.50400001928E-02 0.  1.
       -1    1    3    3    0  502 -0.88069905871E+02 -0.85019697664E+03  0.13799203859E+03  0.86581349617E+03  0.50400001928E-02 0. -1.
</event>
<event>
 5   0  0.7003852E-06  0.2309612E+04  0.7818609E-02  0.8474141E-01
        2   -1    0    0  501    0  0.00000000000E+00  0.00000000000E+00  0.15524525390E+04  0.15524525390E+04  0.25500000920E-02 0. -1.
       -2   -1    0    0    0  501  0.00000000000E+00  0.00000000000E+00 -0.85901288084E+03  0.85901288084E+03  0.25500000920E-02 0.  1.
    10030    2    1    2    0    0  0.00000000000E+00  0.00000000000E+00  0.69343965820E+03  0.24114654199E+04  0.23096118530E+04 0.  0.
        2    1    3    3  502    0  0.66930350264E+03 -0.67414568398E+03  0.10322866012E+04  0.14028739106E+04  0.25500000920E-02 0. -1.
       -2    1    3    3    0  502 -0.66930350264E+03  0.67414568398E+03 -0.33884694301E+03  0.10085915093E+04  0.25500000920E-02 0.  1.
</event>
<event>
 5   0  0.7242214E-06  0.2310882E+04  0.7818609E-02  0.8473643E-01
        2   -1    0    0  501    0  0.00000000000E+00  0.00000000000E+00  0.11040526569E+04  0.11040526569E+04  0.25500000920E-02 0. -1.
       -2   -1    0    0    0  501  0.00000000000E+00  0.00000000000E+00 -0.12092216126E+04  0.12092216126E+04  0.25500000920E-02 0.  1.
    10030    2    1    2    0    0  0.00000000000E+00  0.00000000000E+00 -0.10516895576E+03  0.23132742695E+04  0.23108823719E+04 0.  0.
        1    1    3    3  502    0  0.21193616140E+02  0.14209752675E+03 -0.12002455053E+04  0.12088135297E+04  0.50400001928E-02 0.  1.
       -1    1    3    3    0  502 -0.21193616140E+02 -0.14209752675E+03  0.10950765495E+04  0.11044607398E+04  0.50400001928E-02 0. -1.
</event>
<event>
 5   0  0.3226427E-06  0.2302264E+04  0.7818609E-02  0.8477029E-01
       -1   -1    0    0    0  501  0.00000000000E+00  0.00000000000E+00  0.85321679333E+03  0.85321679335E+03  0.50400001928E-02 0.  1.
        1   -1    0    0  501    0  0.00000000000E+00  0.00000000000E+00 -0.15530693736E+04  0.15530693736E+04  0.50400001928E-02 0. -1.
    10030    2    1    2    0    0  0.00000000000E+00  0.00000000000E+00 -0.69985258023E+03  0.24062861669E+04  0.23022639907E+04 0.  0.
        4    1    3    3  502    0  0.54667612646E+03 -0.13958704811E+03  0.69878507980E+03  0.89813224633E+03  0.12699999809E+01 0.  1.
       -4    1    3    3    0  502 -0.54667612646E+03  0.13958704811E+03 -0.13986376600E+04  0.15081539206E+04  0.12699999809E+01 0. -1.
</event>
<event>
 5   0  0.3226427E-06  0.2299286E+04  0.7818609E-02  0.8478203E-01
        1   -1    0    0  501    0  0.00000000000E+00  0.00000000000E+00  0.23880730790E+04  0.23880730790E+04  0.50400001928E-02 0. -1.
       -1   -1    0    0    0  501  0.00000000000E+00  0.00000000000E+00 -0.55344985254E+03  0.55344985257E+03  0.50400001928E-02 0.  1.
    10030    2    1    2    0    0  0.00000000000E+00  0.00000000000E+00  0.18346232265E+04  0.29415229316E+04  0.22992857095E+04 0.  0.
        4    1    3    3  502    0 -0.75596847041E+03 -0.54645893408E+03  0.17770028615E+04  0.20069495453E+04  0.12699999809E+01 0. -1.
       -4    1    3    3    0  502  0.75596847041E+03  0.54645893408E+03  0.57620364972E+02  0.93457338623E+03  0.12699999809E+01 0.  1.
</event>
<event>
 5   0  0.3226427E-06  0.2294547E+04  0.7818609E-02  0.8480074E-01
        1   -1    0    0  501    0  0.00000000000E+00  0.00000000000E+00  0.10444348694E+04  0.10444348695E+04  0.50400001928E-02 0. -1.
       -1   -1    0    0    0  501  0.00000000000E+00  0.00000000000E+00 -0.12602383975E+04  0.12602383975E+04  0.50400001928E-02 0.  1.
    10030    2    1    2    0    0  0.00000000000E+00  0.00000000000E+00 -0.21580352805E+03  0.23046732670E+04  0.22945473856E+04 0.  0.
        4    1    3    3  502    0 -0.49022457217E+03  0.95141732387E+03  0.30710470122E+03  0.11134765223E+04  0.12699999809E+01 0. -1.
       -4    1    3    3    0  502  0.49022457217E+03 -0.95141732387E+03 -0.52290822928E+03  0.11911967446E+04  0.12699999809E+01 0.  1.
</event>
<event>
 5   0  0.7044981E-06  0.2297471E+04  0.7818609E-02  0.8478919E-01
        2   -1    0    0  501    0  0.00000000000E+00  0.00000000000E+00  0.18765268869E+04  0.18765268869E+04  0.25500000920E-02 0. -1.
       -2   -1    0    0    0  501  0.00000000000E+00  0.00000000000E+00 -0.70321039875E+03  0.70321039875E+03  0.25500000920E-02 0.  1.
    10030    2    1    2    0    0  0.00000000000E+00  0.00000000000E+00  0.11733164882E+04  0.25797372857E+04  0.22974709751E+04 0.  0.
        4    1    3    3  502    0  0.32243221413E+03  0.10999965523E+04  0.67095994786E+03  0.13282107560E+04  0.12699999809E+01 0.  1.
       -4    1    3    3    0  502 -0.32243221413E+03 -0.10999965523E+04  0.50235654030E+03  0.12515265296E+04  0.12699999809E+01 0. -1.
</event>
<event>
 5   0  0.3338758E-06  0.2301556E+04  0.7818609E-02  0.8477308E-01
       -1   -1    0    0    0  501  0.00000000000E+00  0.00000000000E+00  0.97950726528E+03  0.97950726529E+03  0.50400001928E-02 0. -1.
        1   -1    0    0  501    0  0.00000000000E+00  0.00000000000E+00 -0.13519959962E+04  0.13519959962E+04  0.50400001928E-02 0.  1.
    10030    2    1    2    0    0  0.00000000000E+00  0.00000000000E+00 -0.37248873093E+03  0.23315032615E+04  0.23015559093E+04 0.  0.
        5    1    3    3  502    0 -0.76604080735E+03 -0.72525531478E+03 -0.65206902146E+03  0.12401733302E+04  0.46999998093E+01 0.  1.
       -5    1    3    3    0  502  0.76604080735E+03  0.72525531478E+03  0.27958029053E+03  0.10913299313E+04  0.46999998093E+01 0. -1.
</event>
<event>
 5   0  0.3195296E-06  0.2291179E+04  0.7818609E-02  0.8481407E-01
        1   -1    0    0  501    0  0.00000000000E+00  0.00000000000E+00  0.23851248569E+04  0.23851248569E+04  0.50400001928E-02 0.  1.
       -1   -1    0    0    0  501  0.00000000000E+00  0.00000000000E+00 -0.55023340470E+03  0.55023340472E+03  0.50400001928E-02 0. -1.
    10030    2    1    2    0    0  0.00000000000E+00  0.00000000000E+00  0.18348914522E+04  0.29353582616E+04  0.22911790595E+04 0.  0.
        2    1    3    3  502    0  0.92354905668E+03 -0.54961173715E+03  0.14256619164E+04  0.17853648987E+04  0.25500000920E-02 0. -1.
       -2    1    3    3    0  502 -0.92354905668E+03  0.54961173715E+03  0.40922953578E+03  0.11499933629E+04  0.25500000920E-02 0.  1.
</event>
<event>
 5   0  0.3226427E-06  0.2293913E+04  0.7818609E-02  0.8480325E-01
        1   -1    0    0  501    0  0.00000000000E+00  0.00000000000E+00  0.82500513077E+03  0.82500513078E+03  0.50400001928E-02 0. -1.
       -1   -1    0    0    0  501  0.00000000000E+00  0.00000000000E+00 -0.15945464111E+04  0.15945464111E+04  0.50400001928E-02 0.  1.
    10030    2    1    2    0    0  0.00000000000E+00  0.00000000000E+00 -0.76954128034E+03  0.24195515419E+04  0.22939127886E+04 0.  0.
        4    1    3    3  502    0  0.14438129074E+02 -0.42221380500E+03  0.73995029130E+03  0.85205692485E+03  0.12699999809E+01 0. -1.
       -4    1    3    3    0  502 -0.14438129074E+02  0.42221380500E+03 -0.15094915716E+04  0.15674946170E+04  0.12699999809E+01 0.  1.
</event>
<event>
 5   0  0.3226427E-06  0.2304471E+04  0.7818609E-02  0.8476160E-01
       -1   -1    0    0    0  501  0.00000000000E+00  0.00000000000E+00  0.10575950262E+04  0.10575950262E+04  0.50400001928E-02 0. -1.
        1   -1    0    0  501    0  0.00000000000E+00  0.00000000000E+00 -0.12553447941E+04  0.12553447941E+04  0.50400001928E-02 0.  1.
    10030    2    1    2    0    0  0.00000000000E+00  0.00000000000E+00 -0.19774976793E+03  0.23129398204E+04  0.23044707943E+04 0.  0.
        4    1    3    3  502    0  0.28657073783E+03  0.19737438314E+02  0.10210809576E+04  0.10607168751E+04  0.12699999809E+01 0. -1.
       -4    1    3    3    0  502 -0.28657073783E+03 -0.19737438314E+02 -0.12188307255E+04  0.12522229453E+04  0.12699999809E+01 0.  1.
</event>
<event>
 5   0  0.7348107E-06  0.2295369E+04  0.7818609E-02  0.8479749E-01
        2   -1    0    0  501    0  0.00000000000E+00  0.00000000000E+00  0.24319505429E+04  0.24319505429E+04  0.25500000920E-02 0.  1.
       -2   -1    0    0    0  501  0.00000000000E+00  0.00000000000E+00 -0.54161456633E+03  0.54161456634E+03  0.25500000920E-02 0. -1.
    10030    2    1    2    0    0  0.00000000000E+00  0.00000000000E+00  0.18903359765E+04  0.29735651092E+04  0.22953691107E+04 0.  0.
        3    1    3    3  502    0  0.82488819064E+03 -0.79292402725E+02 -0.83442476270E+02  0.83288082535E+03  0.10100000352E+00 0. -1.
       -3    1    3    3    0  502 -0.82488819064E+03  0.79292402725E+02  0.19737784528E+04  0.21406842839E+04  0.10100000352E+00 0.  1.
</event>
<event>
 5   0  0.3195296E-06  0.2297198E+04  0.7818609E-02  0.8479027E-01
       -1   -1    0    0    0  501  0.00000000000E+00  0.00000000000E+00  0.88890038329E+03  0.88890038330E+03  0.50400001928E-02 0. -1.
        1   -1    0    0  501    0  0.00000000000E+00  0.00000000000E+00 -0.14841707628E+04  0.14841707628E+04  0.50400001928E-02 0.  1.
    10030    2    1    2    0    0  0.00000000000E+00  0.00000000000E+00 -0.59527037951E+03  0.23730711461E+04  0.22971982587E+04 0.  0.
        2    1    3    3  502    0  0.15714385194E+03  0.15548708537E+03 -0.14619868129E+04  0.14786060547E+04  0.25500000920E-02 0.  1.
       -2    1    3    3    0  502 -0.15714385194E+03 -0.15548708537E+03  0.86671643336E+03  0.89446509143E+03  0.25500000920E-02 0. -1.
</event>
<event>
 5   0  0.7348107E-06  0.2301031E+04  0.7818609E-02  0.8477515E-01
        2   -1    0    0  501    0  0.00000000000E+00  0.00000000000E+00  0.16773372782E+04  0.16773372782E+04  0.25500000920E-02 0.  1.
       -2   -1    0    0    0  501  0.00000000000E+00  0.00000000000E+00 -0.78915880868E+03  0.78915880868E+03  0.25500000920E-02 0. -1.
    10030    2    1    2    0    0  0.00000000000E+00  0.00000000000E+00  0.88817846948E+03  0.24664960868E+04  0.23010306284E+04 0.  0.
        3    1    3    3  502    0  0.80463934506E+03 -0.80958710737E+03  0.59871829917E+03  0.12889295450E+04  0.10100000352E+00 0.  1.
       -3    1    3    3    0  502 -0.80463934506E+03  0.80958710737E+03  0.28946017031E+03  0.11775665418E+04  0.10100000352E+00 0. -1.
</event>
<event>
 5   0  0.3338758E-06  0.2286648E+04  0.7818609E-02  0.8483204E-01
        1   -1    0    0  501    0  0.00000000000E+00  0.00000000000E+00  0.22379273623E+04  0.22379273623E+04  0.50400001928E-02 0. -1.
       -1   -1    0    0    0  501  0.00000000000E+00  0.00000000000E+00 -0.58410728639E+03  0.58410728641E+03  0.50400001928E-02 0.  1.
    10030    2    1    2    0    0  0.00000000000E+00  0.00000000000E+00  0.16538200759E+04  0.28220346487E+04  0.22866479211E+04 0.  0.
        5    1    3    3  502    0 -0.56390407979E+03 -0.69597741724E+03 -0.49930570067E+02  0.89715524205E+03  0.46999998093E+01 0.  1.
       -5    1    3    3    0  502  0.56390407979E+03  0.69597741724E+03  0.17037506459E+04  0.19248794066E+04  0.46999998093E+01 0. -1.
</event>
<event>
 5   0  0.7348107E-06  0.2299341E+04  0.7818609E-02  0.8478181E-01
        2   -1    0    0  501    0  0.00000000000E+00  0.00000000000E+00  0.18248652363E+04  0.18248652363E+04  0.25500000920E-02 0. -1.
       -2   -1    0    0    0  501  0.00000000000E+00  0.00000000000E+00 -0.72429570286E+03  0.72429570286E+03  0.25500000920E-02 0.  1.
    10030    2    1    2    0    0  0.00000000000E+00  0.00000000000E+00  0.11005695334E+04  0.25491609391E+04  0.22993408176E+04 0.  0.
        3    1    3    3  502    0 -0.10327869742E+04  0.35319835705E+03  0.95054225928E+03  0.14473868213E+04  0.10100000352E+00 0. -1.
       -3    1    3    3    0  502  0.10327869742E+04 -0.35319835705E+03  0.15002727413E+03  0.11017741178E+04  0.10100000352E+00 0.  1.
</event>
<event>
 5   0  0.3238713E-06  0.2313113E+04  0.7818609E-02  0.8472769E-01
        1   -1    0    0  501    0  0.00000000000E+00  0.00000000000E+00  0.21624102258E+04  0.21624102258E+04  0.50400001928E-02 0.  1.
       -1   -1    0    0    0  501  0.00000000000E+00  0.00000000000E+00 -0.61857979694E+03  0.61857979696E+03  0.50400001928E-02 0. -1.
    10030    2    1    2    0    0  0.00000000000E+00  0.00000000000E+00  0.15438304288E+04  0.27809900227E+04  0.23131132946E+04 0.  0.
        3    1    3    3  502    0 -0.10153370390E+04 -0.39701209689E+03  0.30768373077E+03  0.11327829431E+04  0.10100000352E+00 0.  1.
       -3    1    3    3    0  502  0.10153370390E+04  0.39701209689E+03  0.12361466980E+04  0.16482070796E+04  0.10100000352E+00 0. -1.
</event>
<event>
 5   0  0.3338758E-06  0.2297410E+04  0.7818609E-02  0.8478943E-01
        1   -1    0    0  501    0  0.00000000000E+00  0.00000000000E+00  0.16063771335E+04  0.16063771335E+04  0.50400001928E-02 0.  1.
       -1   -1    0    0    0  501  0.00000000000E+00  0.00000000000E+00 -0.82142824142E+03  0.82142824144E+03  0.50400001928E-02 0. -1.
    10030    2    1    2    0    0  0.00000000000E+00  0.00000000000E+00  0.78494889211E+03  0.24278053750E+04  0.22974103194E+04 0.  0.
        5    1    3    3  502    0  0.99942804103E+03 -0.19859774167E+03 -0.16790995022E+03  0.10327213146E+04  0.46999998093E+01 0. -1.
       -5    1    3    3    0  502 -0.99942804103E+03  0.19859774167E+03  0.95285884233E+03  0.13950840604E+04  0.46999998093E+01 0.  1.
</event>
<event>
 5   0  0.7497344E-06  0.2300257E+04  0.7818609E-02  0.8477820E-01
       -2   -1    0    0    0  501  0.00000000000E+00  0.00000000000E+00  0.62604086252E+03  0.62604086252E+03  0.25500000920E-02 0. -1.
        2   -1    0    0  501    0  0.00000000000E+00  0.00000000000E+00 -0.21129536091E+04  0.21129536091E+04  0.25500000920E-02 0.  1.
    10030    2    1    2    0    0  0.00000000000E+00  0.00000000000E+00 -0.14869127466E+04  0.27389944716E+04  0.23002567682E+04 0.  0.
        5    1    3    3  502    0 -0.74501276323E+03  0.80723870064E+03 -0.33774109895E+03  0.11492473524E+04  0.46999998093E+01 0. -1.
       -5    1    3    3    0  502  0.74501276323E+03 -0.80723870064E+03 -0.11491716476E+04  0.15897471192E+04  0.46999998093E+01 0.  1.
</event>
<event>
 5   0  0.3238713E-06  0.2344569E+04  0.7818609E-02  0.8460553E-01
       -1   -1    0    0    0  501  0.00000000000E+00  0.00000000000E+00  0.10328902991E+04  0.10328902991E+04  0.50400001928E-02 0. -1.
        1   -1    0    0  501    0  0.00000000000E+00  0.00000000000E+00 -0.13304909698E+04  0.13304909698E+04  0.50400001928E-02 0.  1.
    10030    2    1    2    0    0  0.00000000000E+00  0.00000000000E+00 -0.29760067077E+03  0.23633812689E+04  0.23445692276E+04 0.  0.
        3    1    3    3  502    0  0.10168028879E+04  0.53724946617E+03 -0.37805892273E+03  0.12105592348E+04  0.10100000352E+00 0.  1.
       -3    1    3    3    0  502 -0.10168028879E+04 -0.53724946617E+03  0.80458251965E+02  0.11528220341E+04  0.10100000352E+00 0. -1.
</event>
<event>
 5   0  0.3195296E-06  0.2299930E+04  0.7818609E-02  0.8477949E-01
        1   -1    0    0  501    0  0.00000000000E+00  0.00000000000E+00  0.13980824692E+04  0.13980824692E+04  0.50400001928E-02 0. -1.
       -1   -1    0    0    0  501  0.00000000000E+00  0.00000000000E+00 -0.94588126289E+03  0.94588126290E+03  0.50400001928E-02 0.  1.
    10030    2    1    2    0    0  0.00000000000E+00  0.00000000000E+00  0.45220120628E+03  0.23439637321E+04  0.22999304438E+04 0.  0.
        2    1    3    3  502    0  0.41270395799E+03 -0.10576916174E+04  0.39889873181E+02  0.11360577962E+04  0.25500000920E-02 0. -1.
       -2    1    3    3    0  502 -0.41270395799E+03  0.10576916174E+04  0.41231133310E+03  0.12079059358E+04  0.25500000920E-02 0.  1.
</event>
<event>
 5   0  0.7003852E-06  0.2293239E+04  0.7818609E-02  0.8480592E-01
       -2   -1    0    0    0  501  0.00000000000E+00  0.00000000000E+00  0.64960659838E+03  0.64960659839E+03  0.25500000920E-02 0.  1.
        2   -1    0    0  501    0  0.00000000000E+00  0.00000000000E+00 -0.20238954274E+04  0.20238954274E+04  0.25500000920E-02 0. -1.
    10030    2    1    2    0    0  0.00000000000E+00  0.00000000000E+00 -0.13742888290E+04  0.26735020258E+04  0.22932386043E+04 0.  0.
        2    1    3    3  502    0 -0.82311316486E+02  0.83152249186E+03 -0.16025398416E+04  0.18073015109E+04  0.25500000920E-02 0. -1.
       -2    1    3    3    0  502  0.82311316486E+02 -0.83152249186E+03  0.22825101259E+03  0.86620051491E+03  0.25500000920E-02 0.  1.
</event>
<event>
 5   0  0.7003852E-06  0.2298637E+04  0.7818609E-02  0.8478459E-01
        2   -1    0    0  501    0  0.00000000000E+00  0.00000000000E+00  0.20836789803E+04  0.20836789803E+04  0.25500000920E-02 0. -1.
       -2   -1    0    0    0  501  0.00000000000E+00  0.00000000000E+00 -0.63394278210E+03  0.63394278210E+03  0.25500000920E-02 0.  1.
    10030    2    1    2    0    0  0.00000000000E+00  0.00000000000E+00  0.14497361982E+04  0.27176217624E+04  0.22986372048E+04 0.  0.
        2    1    3    3  502    0  0.94055235565E+03 -0.44665489826E+03  0.14955554426E+03  0.10519059809E+04  0.25500000920E-02 0.  1.
       -2    1    3    3    0  502 -0.94055235565E+03  0.44665489826E+03  0.13001806540E+04  0.16657157815E+04  0.25500000920E-02 0. -1.
</event>
<event>
 5   0  0.7044981E-06  0.2310668E+04  0.7818609E-02  0.8473727E-01
        2   -1    0    0  501    0  0.00000000000E+00  0.00000000000E+00  0.26065060934E+04  0.26065060934E+04  0.25500000920E-02 0. -1.
       -2   -1    0    0    0  501  0.00000000000E+00  0.00000000000E+00 -0.51210190511E+03  0.51210190512E+03  0.25500000920E-02 0.  1.
    10030    2    1    2    0    0  0.00000000000E+00  0.00000000000E+00  0.20944041882E+04  0.31186079985E+04  0.23106680732E+04 0.  0.
        4    1    3    3  502    0 -0.17138938253E+03  0.34982901487E+03 -0.42078765921E+03  0.57342700245E+03  0.12699999809E+01 0.  1.
       -4    1    3    3    0  502  0.17138938253E+03 -0.34982901487E+03  0.25151918475E+04  0.25451809960E+04  0.12699999809E+01 0. -1.
</event>
<event>
 5   0  0.7242214E-06  0.2304631E+04  0.7818609E-02  0.8476097E-01
        2   -1    0    0  501    0  0.00000000000E+00  0.00000000000E+00  0.26845091923E+04  0.26845091923E+04  0.25500000920E-02 0.  1.
       -2   -1    0    0    0  501  0.00000000000E+00  0.00000000000E+00 -0.49462710873E+03  0.49462710874E+03  0.25500000920E-02 0. -1.
    10030    2    1    2    0    0  0.00000000000E+00  0.00000000000E+00  0.21898820835E+04  0.31791363010E+04  0.23046310075E+04 0.  0.
        1    1    3    3  502    0  0.16968150522E+03 -0.61231712393E+03 -0.23113633142E+03  0.67612726406E+03  0.50400001928E-02 0. -1.
       -1    1    3    3    0  502 -0.16968150522E+03  0.61231712393E+03  0.24210184150E+04  0.25030090370E+04  0.50400001928E-02 0.  1.
</event>
<event>
 5   0  0.2519625E-06  0.2316519E+04  0.7818609E-02  0.8471436E-01
       -4   -1    0    0    0  501  0.00000000000E+00  0.00000000000E+00  0.82144782663E+03  0.82144880837E+03  0.12699999809E+01 0.  1.
        4   -1    0    0  501    0  0.00000000000E+00  0.00000000000E+00 -0.16331686583E+04  0.16331691521E+04  0.12699999809E+01 0. -1.
    10030    2    1    2    0    0  0.00000000000E+00  0.00000000000E+00 -0.81172083169E+03  0.24546179605E+04  0.23165186430E+04 0.  0.
        4    1    3    3  502    0 -0.64693398796E+03 -0.84607912735E+03 -0.88817683975E+03  0.13868068308E+04  0.12699999809E+01 0.  1.
       -4    1    3    3    0  502  0.64693398796E+03  0.84607912735E+03  0.76456008054E+02  0.10678111296E+04  0.12699999809E+01 0. -1.
</event>
<event>
 5   0  0.7003852E-06  0.2299203E+04  0.7818609E-02  0.8478235E-01
       -2   -1    0    0    0  501  0.00000000000E+00  0.00000000000E+00  0.13591091688E+04  0.13591091688E+04  0.25500000920E-02 0. -1.
        2   -1    0    0  501    0  0.00000000000E+00  0.00000000000E+00 -0.97238992277E+03  0.97238992277E+03  0.25500000920E-02 0.  1.
    10030    2    1    2    0    0  0.00000000000E+00  0.00000000000E+00  0.38671924605E+03  0.23314990916E+04  0.22992033922E+04 0.  0.
        2    1    3    3  502    0 -0.33094732984E+02 -0.31842313244E+02  0.13581785530E+04  0.13589548102E+04  0.25500000920E-02 0. -1.
       -2    1    3    3    0  502  0.33094732984E+02  0.31842313244E+02 -0.97145930695E+03  0.97254428142E+03  0.25500000920E-02 0.  1.
</event>
<event>
 5   0  0.7242214E-06  0.2253926E+04  0.7818609E-02  0.8496312E-01
        2   -1    0    0  501    0  0.00000000000E+00  0.00000000000E+00  0.82155023671E+03  0.82155023672E+03  0.25500000920E-02 0.  1.
       -2   -1    0    0    0  501  0.00000000000E+00  0.00000000000E+00 -0.15459140811E+04  0.15459140811E+04  0.25500000920E-02 0. -1.
    10030    2    1    2    0    0  0.00000000000E+00  0.00000000000E+00 -0.72436384443E+03  0.23674643179E+04  0.22539264223E+04 0.  0.
        1    1    3    3  502    0 -0.23481173737E+03 -0.75186498851E+02  0.79287377287E+03  0.83032426277E+03  0.50400001928E-02 0.  1.
       -1    1    3    3    0  502  0.23481173737E+03  0.75186498851E+02 -0.15172376173E+04  0.15371400551E+04  0.50400001928E-02 0. -1.
</event>
<event>
 5   0  0.3238713E-06  0.2304282E+04  0.7818609E-02  0.8476235E-01
       -1   -1    0    0    0  501  0.00000000000E+00  0.00000000000E+00  0.48150894013E+03  0.48150894016E+03  0.50400001928E-02 0.  1.
        1   -1    0    0  501    0  0.00000000000E+00  0.00000000000E+00 -0.27568109201E+04  0.27568109201E+04  0.50400001928E-02 0. -1.
    10030    2    1    2    0    0  0.00000000000E+00  0.00000000000E+00 -0.22753019800E+04  0.32383198603E+04  0.23042821913E+04 0.  0.
        3    1    3    3  502    0  0.99054631359E+03 -0.10072282584E+03 -0.32290987522E+03  0.10467081182E+04  0.10100000352E+00 0.  1.
       -3    1    3    3    0  502 -0.99054631359E+03  0.10072282584E+03 -0.19523921048E+04  0.21916117421E+04  0.10100000352E+00 0. -1.
</event>
<event>
 5   0  0.7497344E-06  0.2304309E+04  0.7818609E-02  0.8476224E-01
        2   -1    0    0  501    0  0.00000000000E+00  0.00000000000E+00  0.25021406920E+04  0.25021406920E+04  0.25500000920E-02 0.  1.
       -2   -1    0    0    0  501  0.00000000000E+00  0.00000000000E+00 -0.53052976105E+03  0.53052976105E+03  0.25500000920E-02 0. -1.
    10030    2    1    2    0    0  0.00000000000E+00  0.00000000000E+00  0.19716109309E+04  0.30326704530E+04  0.23043090968E+04 0.  0.
        5    1    3    3  502    0 -0.98500483220E+02 -0.89260961194E+03  0.35864593489E+02  0.89875615357E+03  0.46999998093E+01 0.  1.
       -5    1    3    3    0  502  0.98500483220E+02  0.89260961194E+03  0.19357463374E+04  0.21339142994E+04  0.46999998093E+01 0. -1.
</event>
<event>
 5   0  0.3226427E-06  0.2358821E+04  0.7818609E-02  0.8455083E-01
       -1   -1    0    0    0  501  0.00000000000E+00  0.00000000000E+00  0.62002035702E+03  0.62002035705E+03  0.50400001928E-02 0. -1.
        1   -1    0    0  501    0  0.00000000000E+00  0.00000000000E+00 -0.22434902830E+04  0.22434902830E+04  0.50400001928E-02 0.  1.
    10030    2    1    2    0    0  0.00000000000E+00  0.00000000000E+00 -0.16234699260E+04  0.28635106401E+04  0.23588214399E+04 0.  0.
        4    1    3    3  502    0 -0.62679902519E+03  0.89407157170E+03 -0.27051236716E+03  0.11249086838E+04  0.12699999809E+01 0. -1.
       -4    1    3    3    0  502  0.62679902519E+03 -0.89407157170E+03 -0.13529575588E+04  0.17386019562E+04  0.12699999809E+01 0.  1.
</event>
<event>
 5   0  0.7242214E-06  0.2302951E+04  0.7818609E-02  0.8476759E-01
       -2   -1    0    0    0  501  0.00000000000E+00  0.00000000000E+00  0.15632743815E+04  0.15632743815E+04  0.25500000920E-02 0.  1.
        2   -1    0    0  501    0  0.00000000000E+00  0.00000000000E+00 -0.84815281051E+03  0.84815281051E+03  0.25500000920E-02 0. -1.
    10030    2    1    2    0    0  0.00000000000E+00  0.00000000000E+00  0.71512157101E+03  0.24114271920E+04  0.23029507683E+04 0.  0.
        1    1    3    3  502    0 -0.71703930154E+03  0.84721087997E+03  0.67856910606E+03  0.13009103224E+04  0.50400001928E-02 0.  1.
       -1    1    3    3    0  502  0.71703930154E+03 -0.84721087997E+03  0.36552464942E+02  0.11105168697E+04  0.50400001928E-02 0. -1.
</event>
<event>
 5   0  0.7003852E-06  0.2301888E+04  0.7818609E-02  0.8477177E-01
       -2   -1    0    0    0  501  0.00000000000E+00  0.00000000000E+00  0.65784883297E+03  0.65784883298E+03  0.25500000920E-02 0. -1.
        2   -1    0    0  501    0  0.00000000000E+00  0.00000000000E+00 -0.20136412551E+04  0.20136412551E+04  0.25500000920E-02 0.  1.
    10030    2    1    2    0    0  0.00000000000E+00  0.00000000000E+00 -0.13557924222E+04  0.26714900881E+04  0.23018875296E+04 0.  0.
        2    1    3    3  502    0 -0.28992294807E+03  0.10692257388E+04 -0.31574683086E+03  0.11519527150E+04  0.25500000920E-02 0. -1.
       -2    1    3    3    0  502  0.28992294807E+03 -0.10692257388E+04 -0.10400455913E+04  0.15195373731E+04  0.25500000920E-02 0.  1.
</event>
<event>
 5   0  0.3338758E-06  0.2300677E+04  0.7818609E-02  0.8477654E-01
        1   -1    0    0  501    0  0.00000000000E+00  0.00000000000E+00  0.15117644109E+04  0.15117644109E+04  0.50400001928E-02 0.  1.
       -1   -1    0    0    0  501  0.00000000000E+00  0.00000000000E+00 -0.87532041091E+03  0.87532041092E+03  0.50400001928E-02 0. -1.
    10030    2    1    2    0    0  0.00000000000E+00  0.00000000000E+00  0.63644399997E+03  0.23870848218E+04  0.23006766356E+04 0.  0.
        5    1    3    3  502    0 -0.10546665111E+04  0.32981294730E+03 -0.13404117809E+02  0.11051243325E+04  0.46999998093E+01 0. -1.
       -5    1    3    3    0  502  0.10546665111E+04 -0.32981294730E+03  0.64984811778E+03  0.12819604893E+04  0.46999998093E+01 0.  1.
</event>
<event>
 5   0  0.7003852E-06  0.2290529E+04  0.7818609E-02  0.8481665E-01
       -2   -1    0    0    0  501  0.00000000000E+00  0.00000000000E+00  0.14245909273E+04  0.14245909273E+04  0.25500000920E-02 0. -1.
        2   -1    0    0  501    0  0.00000000000E+00  0.00000000000E+00 -0.92070694708E+03  0.92070694708E+03  0.25500000920E-02 0.  1.
    10030    2    1    2    0    0  0.00000000000E+00  0.00000000000E+00  0.50388398023E+03  0.23452978744E+04  0.22905289900E+04 0.  0.
        2    1    3    3  502    0 -0.86280589425E+02  0.11126725727E+04 -0.11396636381E+02  0.11160710002E+04  0.25500000920E-02 0.  1.
       -2    1    3    3    0  502  0.86280589425E+02 -0.11126725727E+04  0.51528061661E+03  0.12292268741E+04  0.25500000920E-02 0. -1.
</event>
<event>
 5   0  0.7497344E-06  0.2299144E+04  0.7818609E-02  0.8478259E-01
        2   -1    0    0  501    0  0.00000000000E+00  0.00000000000E+00  0.20994166456E+04  0.20994166456E+04  0.25500000920E-02 0. -1.
       -2   -1    0    0    0  501  0.00000000000E+00  0.00000000000E+00 -0.62946789471E+03  0.62946789471E+03  0.25500000920E-02 0.  1.
    10030    2    1    2    0    0  0.00000000000E+00  0.00000000000E+00  0.14699487509E+04  0.27288845403E+04  0.22991436458E+04 0.  0.
        5    1    3    3  502    0  0.62822664152E+03 -0.65776911680E+03  0.15693368547E+04  0.18138823494E+04  0.46999998093E+01 0. -1.
       -5    1    3    3    0  502 -0.62822664152E+03  0.65776911680E+03 -0.99388103797E+02  0.91500219087E+03  0.46999998093E+01 0.  1.
</event>
<event>
 5   0  0.3226427E-06  0.2297591E+04  0.7818609E-02  0.8478871E-01
        1   -1    0    0  501    0  0.00000000000E+00  0.00000000000E+00  0.26723104962E+04  0.26723104962E+04  0.50400001928E-02 0.  1.
       -1   -1    0    0    0  501  0.00000000000E+00  0.00000000000E+00 -0.49385414476E+03  0.49385414479E+03  0.50400001928E-02 0. -1.
    10030    2    1    2    0    0  0.00000000000E+00  0.00000000000E+00  0.21784563515E+04  0.31661646410E+04  0.22975914473E+04 0.  0.
        4    1    3    3  502    0 -0.64312645855E+03 -0.73548505812E+03  0.19219773944E+04  0.21560493106E+04  0.12699999809E+01 0.  1.
       -4    1    3    3    0  502  0.64312645855E+03  0.73548505812E+03  0.25647895710E+03  0.10101153304E+04  0.12699999809E+01 0. -1.
</event>
<event>
 5   0  0.7242214E-06  0.2302946E+04  0.7818609E-02  0.8476760E-01
        2   -1    0    0  501    0  0.00000000000E+00  0.00000000000E+00  0.17896127194E+04  0.17896127195E+04  0.25500000920E-02 0.  1.
       -2   -1    0    0    0  501  0.00000000000E+00  0.00000000000E+00 -0.74088101451E+03  0.74088101451E+03  0.25500000920E-02 0. -1.
    10030    2    1    2    0    0  0.00000000000E+00  0.00000000000E+00  0.10487317049E+04  0.25304937340E+04  0.23029460151E+04 0.  0.
        1    1    3    3  502    0 -0.95154090909E+03  0.51008111014E+03  0.96426938068E+03  0.14475594216E+04  0.50400001928E-02 0. -1.
       -1    1    3    3    0  502  0.95154090909E+03 -0.51008111014E+03  0.84462324261E+02  0.10829343123E+04  0.50400001928E-02 0.  1.
</event>
<event>
 5   0  0.2519625E-06  0.2299850E+04  0.7818609E-02  0.8477980E-01
       -3   -1    0    0    0  501  0.00000000000E+00  0.00000000000E+00  0.25795727047E+04  0.25795727067E+04  0.10100000352E+00 0.  1.
        3   -1    0    0  501    0  0.00000000000E+00  0.00000000000E+00 -0.51261484175E+03  0.51261485170E+03  0.10100000352E+00 0. -1.
    10030    2    1    2    0    0  0.00000000000E+00  0.00000000000E+00  0.20669578630E+04  0.30921875584E+04  0.22998497970E+04 0.  0.
        2    1    3    3  502    0 -0.10873172780E+04 -0.37057364702E+03  0.11039036760E+04  0.15931688601E+04  0.25500000920E-02 0. -1.
       -2    1    3    3    0  502  0.10873172780E+04  0.37057364702E+03  0.96305418699E+03  0.14990186983E+04  0.25500000920E-02 0.  1.
</event>
<event>
 5   0  0.3238713E-06  0.2296958E+04  0.7818609E-02  0.8479121E-01
       -1   -1    0    0    0  501  0.00000000000E+00  0.00000000000E+00  0.21179396235E+04  0.21179396235E+04  0.50400001928E-02 0.  1.
        1   -1    0    0  501    0  0.00000000000E+00  0.00000000000E+00 -0.62277695786E+03  0.62277695788E+03  0.50400001928E-02 0. -1.
    10030    2    1    2    0    0  0.00000000000E+00  0.00000000000E+00  0.14951626656E+04  0.27407165813E+04  0.22969579845E+04 0.  0.
        3    1    3    3  502    0  0.11701292019E+03  0.28386236122E+03  0.20680618106E+04  0.20907294244E+04  0.10100000352E+00 0.  1.
       -3    1    3    3    0  502 -0.11701292019E+03 -0.28386236122E+03 -0.57289914499E+03  0.64998715690E+03  0.10100000352E+00 0. -1.
</event>
<event>
 5   0  0.3238713E-06  0.2300925E+04  0.7818609E-02  0.8477557E-01
        1   -1    0    0  501    0  0.00000000000E+00  0.00000000000E+00  0.14051371985E+04  0.14051371985E+04  0.50400001928E-02 0.  1.
       -1   -1    0    0    0  501  0.00000000000E+00  0.00000000000E+00 -0.94194623239E+03  0.94194623240E+03  0.50400001928E-02 0. -1.
    10030    2    1    2    0    0  0.00000000000E+00  0.00000000000E+00  0.46319096613E+03  0.23470834309E+04  0.23009247621E+04 0.  0.
        3    1    3    3  502    0 -0.57745366405E+03 -0.98040264356E+03  0.58120327809E+02  0.11393068333E+04  0.10100000352E+00 0. -1.
       -3    1    3    3    0  502  0.57745366405E+03  0.98040264356E+03  0.40507063832E+03  0.12077765977E+04  0.10100000352E+00 0.  1.
</event>
<event>
 5   0  0.3184492E-06  0.2300085E+04  0.7818609E-02  0.8477888E-01
        1   -1    0    0  501    0  0.00000000000E+00  0.00000000000E+00  0.11483504852E+04  0.11483504852E+04  0.50400001928E-02 0. -1.
       -1   -1    0    0    0  501  0.00000000000E+00  0.00000000000E+00 -0.11517371697E+04  0.11517371697E+04  0.50400001928E-02 0.  1.
    10030    2    1    2    0    0  0.00000000000E+00  0.00000000000E+00 -0.33866845123E+01  0.23000876549E+04  0.23000851616E+04 0.  0.
        1    1    3    3  502    0  0.30127703254E+03 -0.39899883379E+02 -0.11108555277E+04  0.11516769749E+04  0.50400001928E-02 0.  1.
       -1    1    3    3    0  502 -0.30127703254E+03  0.39899883379E+02  0.11074688432E+04  0.11484106799E+04  0.50400001928E-02 0. -1.
</event>
<event>
 5   0  0.7348107E-06  0.2313778E+04  0.7818609E-02  0.8472509E-01
       -2   -1    0    0    0  501  0.00000000000E+00  0.00000000000E+00  0.11307413789E+04  0.11307413789E+04  0.25500000920E-02 0. -1.
        2   -1    0    0  501    0  0.00000000000E+00  0.00000000000E+00 -0.11836407690E+04  0.11836407690E+04  0.25500000920E-02 0.  1.
    10030    2    1    2    0    0  0.00000000000E+00  0.00000000000E+00 -0.52899390100E+02  0.23143821478E+04  0.23137775132E+04 0.  0.
        3    1    3    3  502    0  0.16158278004E+03 -0.20853453123E+03 -0.11531524720E+04  0.11829439038E+04  0.10100000352E+00 0.  1.
       -3    1    3    3    0  502 -0.16158278004E+03  0.20853453123E+03  0.11002530819E+04  0.11314382440E+04  0.10100000352E+00 0. -1.
</event>
<event>
 5   0  0.2519625E-06  0.2300294E+04  0.7818609E-02  0.8477805E-01
        3   -1    0    0  501    0  0.00000000000E+00  0.00000000000E+00  0.18455935977E+04  0.18455936005E+04  0.10100000352E+00 0.  1.
       -3   -1    0    0    0  501  0.00000000000E+00  0.00000000000E+00 -0.71675488427E+03  0.71675489138E+03  0.10100000352E+00 0. -1.
    10030    2    1    2    0    0  0.00000000000E+00  0.00000000000E+00  0.11288387135E+04  0.25623484919E+04  0.23002941014E+04 0.  0.
        3    1    3    3  502    0  0.53576535655E+03 -0.20181940591E+02 -0.56904027653E+03  0.78183033615E+03  0.10100000352E+00 0. -1.
       -3    1    3    3    0  502 -0.53576535655E+03  0.20181940591E+02  0.16978789900E+04  0.17805181557E+04  0.10100000352E+00 0.  1.
</event>
<event>
 5   0  0.7348107E-06  0.2299849E+04  0.7818609E-02  0.8477981E-01
       -2   -1    0    0    0  501  0.00000000000E+00  0.00000000000E+00  0.12832600048E+04  0.12832600048E+04  0.25500000920E-02 0.  1.
        2   -1    0    0  501    0  0.00000000000E+00  0.00000000000E+00 -0.10304429627E+04  0.10304429627E+04  0.25500000920E-02 0. -1.
    10030    2    1    2    0    0  0.00000000000E+00  0.00000000000E+00  0.25281704208E+03  0.23137029675E+04  0.22998489005E+04 0.  0.
        3    1    3    3  502    0  0.58872171591E+03  0.62763224468E+03 -0.64095149436E+03  0.10730024798E+04  0.10100000352E+00 0. -1.
       -3    1    3    3    0  502 -0.58872171591E+03 -0.62763224468E+03  0.89376853644E+03  0.12407004877E+04  0.10100000352E+00 0.  1.
</event>
<event>
 5   0  0.7497344E-06  0.2303226E+04  0.7818609E-02  0.8476650E-01
        2   -1    0    0  501    0  0.00000000000E+00  0.00000000000E+00  0.98802470999E+03  0.98802470999E+03  0.25500000920E-02 0. -1.
       -2   -1    0    0    0  501  0.00000000000E+00  0.00000000000E+00 -0.13422866793E+04  0.13422866793E+04  0.25500000920E-02 0.  1.
    10030    2    1    2    0    0  0.00000000000E+00  0.00000000000E+00 -0.35426196928E+03  0.23303113893E+04  0.23032259177E+04 0.  0.
        5    1    3    3  502    0 -0.57533949473E+03 -0.93640105179E+03  0.17090240487E+03  0.11122464592E+04  0.46999998093E+01 0.  1.
       -5    1    3    3    0  502  0.57533949473E+03  0.93640105179E+03 -0.52516437415E+03  0.12180649301E+04  0.46999998093E+01 0. -1.
</event>
<event>
 5   0  0.3195296E-06  0.2334051E+04  0.7818609E-02  0.8464615E-01
        1   -1    0    0  501    0  0.00000000000E+00  0.00000000000E+00  0.27084028723E+04  0.27084028723E+04  0.50400001928E-02 0. -1.
       -1   -1    0    0    0  501  0.00000000000E+00  0.00000000000E+00 -0.50286028883E+03  0.50286028886E+03  0.50400001928E-02 0.  1.
    10030    2    1    2    0    0  0.00000000000E+00  0.00000000000E+00  0.22055425835E+04  0.32112631612E+04  0.23340507713E+04 0.  0.
        2    1    3    3  502    0 -0.62468565261E+03  0.84251629618E+03  0.39869659732E+03  0.11220627659E+04  0.25500000920E-02 0. -1.
       -2    1    3    3    0  502  0.62468565261E+03 -0.84251629618E+03  0.18068459862E+04  0.20892003953E+04  0.25500000920E-02 0.  1.
</event>
<event>
 5   0  0.3226427E-06  0.2305344E+04  0.7818609E-02  0.8475817E-01
       -1   -1    0    0    0  501  0.00000000000E+00  0.00000000000E+00  0.14321798210E+04  0.14321798210E+04  0.50400001928E-02 0.  1.
        1   -1    0    0  501    0  0.00000000000E+00  0.00000000000E+00 -0.92771400272E+03  0.92771400273E+03  0.50400001928E-02 0. -1.
    10030    2    1    2    0    0  0.00000000000E+00  0.00000000000E+00  0.50446581827E+03  0.23598938237E+04  0.23053444640E+04 0.  0.
        4    1    3    3  502    0 -0.25475267777E+03  0.11177203563E+04  0.12916360208E+03  0.11536388390E+04  0.12699999809E+01 0.  1.
       -4    1    3    3    0  502  0.25475267777E+03 -0.11177203563E+04  0.37530221619E+03  0.12062549847E+04  0.12699999809E+01 0. -1.
</event>
<event>
 5   0  0.7003852E-06  0.2303689E+04  0.7818609E-02  0.8476468E-01
        2   -1    0    0  501    0  0.00000000000E+00  0.00000000000E+00  0.80989049082E+03  0.80989049083E+03  0.25500000920E-02 0.  1.
       -2   -1    0    0    0  501  0.00000000000E+00  0.00000000000E+00 -0.16381793423E+04  0.16381793423E+04  0.25500000920E-02 0. -1.
    10030    2    1    2    0    0  0.00000000000E+00  0.00000000000E+00 -0.82828885149E+03  0.24480698331E+04  0.23036891037E+04 0.  0.
        2    1    3    3  502    0  0.23338421153E+03 -0.62804903241E+03  0.58150319808E+03  0.88716387815E+03  0.25500000920E-02 0.  1.
       -2    1    3    3    0  502 -0.23338421153E+03  0.62804903241E+03 -0.14097920496E+04  0.15609059550E+04  0.25500000920E-02 0. -1.
</event>
<event>
 5   0  0.7348107E-06  0.2309742E+04  0.7818609E-02  0.8474090E-01
        2   -1    0    0  501    0  0.00000000000E+00  0.00000000000E+00  0.84227271358E+03  0.84227271359E+03  0.25500000920E-02 0.  1.
       -2   -1    0    0    0  501  0.00000000000E+00  0.00000000000E+00 -0.15834862424E+04  0.15834862424E+04  0.25500000920E-02 0. -1.
    10030    2    1    2    0    0  0.00000000000E+00  0.00000000000E+00 -0.74121352886E+03  0.24257589560E+04  0.23097421972E+04 0.  0.
        3    1    3    3  502    0  0.10619152355E+04 -0.44174179420E+03 -0.26082155703E+03  0.11793335724E+04  0.10100000352E+00 0.  1.
       -3    1    3    3    0  502 -0.10619152355E+04  0.44174179420E+03 -0.48039197183E+03  0.12464253836E+04  0.10100000352E+00 0. -1.
</event>
<event>
 5   0  0.3184492E-06  0.2299403E+04  0.7818609E-02  0.8478157E-01
        1   -1    0    0  501    0  0.00000000000E+00  0.00000000000E+00  0.10960205688E+04  0.10960205688E+04  0.50400001928E-02 0. -1.
       -1   -1    0    0    0  501  0.00000000000E+00  0.00000000000E+00 -0.12060112250E+04  0.12060112250E+04  0.50400001928E-02 0.  1.
    10030    2    1    2    0    0  0.00000000000E+00  0.00000000000E+00 -0.10999065616E+03  0.23020317938E+04  0.22994026258E+04 0.  0.
        1    1    3    3  502    0  0.50161025708E+03 -0.32776362122E+03 -0.10373263403E+04  0.11979514922E+04  0.50400001928E-02 0.  1.
       -1    1    3    3    0  502 -0.50161025708E+03  0.32776362122E+03  0.92733568412E+03  0.11040803016E+04  0.50400001928E-02 0. -1.
</event>
<event>
 5   0  0.7497344E-06  0.2304097E+04  0.7818609E-02  0.8476307E-01
        2   -1    0    0  501    0  0.00000000000E+00  0.00000000000E+00  0.15084004623E+04  0.15084004623E+04  0.25500000920E-02 0.  1.
       -2   -1    0    0    0  501  0.00000000000E+00  0.00000000000E+00 -0.87988298098E+03  0.87988298098E+03  0.25500000920E-02 0. -1.
    10030    2    1    2    0    0  0.00000000000E+00  0.00000000000E+00  0.62851748132E+03  0.23882834433E+04  0.23040971293E+04 0.  0.
        5    1    3    3  502    0  0.49430339317E+03  0.66456825437E+01 -0.76434513193E+03  0.91028873457E+03  0.46999998093E+01 0. -1.
       -5    1    3    3    0  502 -0.49430339317E+03 -0.66456825437E+01  0.13928626132E+04  0.14779947087E+04  0.46999998093E+01 0.  1.
</event>
<event>
 5   0  0.3226427E-06  0.2300148E+04  0.7818609E-02  0.8477863E-01
       -1   -1    0    0    0  501  0.00000000000E+00  0.00000000000E+00  0.93999239150E+03  0.93999239151E+03  0.50400001928E-02 0.  1.
        1   -1    0    0  501    0  0.00000000000E+00  0.00000000000E+00 -0.14071077055E+04  0.14071077056E+04  0.50400001928E-02 0. -1.
    10030    2    1    2    0    0  0.00000000000E+00  0.00000000000E+00 -0.46711531404E+03  0.23471000971E+04  0.23001482885E+04 0.  0.
        4    1    3    3  502    0 -0.28190912114E+03  0.58423878998E+02  0.90262611824E+03  0.94742895482E+03  0.12699999809E+01 0.  1.
       -4    1    3    3    0  502  0.28190912114E+03 -0.58423878998E+02 -0.13697414323E+04  0.13996711422E+04  0.12699999809E+01 0. -1.
</event>
<event>
 5   0  0.3338758E-06  0.2296298E+04  0.7818609E-02  0.8479382E-01
       -1   -1    0    0    0  501  0.00000000000E+00  0.00000000000E+00  0.14405741798E+04  0.14405741798E+04  0.50400001928E-02 0.  1.
        1   -1    0    0  501    0  0.00000000000E+00  0.00000000000E+00 -0.91508396447E+03  0.91508396448E+03  0.50400001928E-02 0. -1.
    10030    2    1    2    0    0  0.00000000000E+00  0.00000000000E+00  0.52549021534E+03  0.23556581443E+04  0.22962981789E+04 0.  0.
        5    1    3    3  502    0 -0.52258511161E+01  0.19748843613E+03 -0.89750709879E+03  0.91900493704E+03  0.46999998093E+01 0. -1.
       -5    1    3    3    0  502  0.52258511161E+01 -0.19748843613E+03  0.14229973141E+04  0.14366532073E+04  0.46999998093E+01 0.  1.
</event>
<event>
 5   0  0.7003852E-06  0.2299768E+04  0.7818609E-02  0.8478013E-01
       -2   -1    0    0    0  501  0.00000000000E+00  0.00000000000E+00  0.84693413131E+03  0.84693413132E+03  0.25500000920E-02 0.  1.
        2   -1    0    0  501    0  0.00000000000E+00  0.00000000000E+00 -0.15611989094E+04  0.15611989094E+04  0.25500000920E-02 0. -1.
    10030    2    1    2    0    0  0.00000000000E+00  0.00000000000E+00 -0.71426477812E+03  0.24081330408E+04  0.22997675032E+04 0.  0.
        2    1    3    3  502    0  0.54633914735E+03  0.18925706187E+03 -0.13979129646E+04  0.15127674494E+04  0.25500000920E-02 0. -1.
       -2    1    3    3    0  502 -0.54633914735E+03 -0.18925706187E+03  0.68364818644E+03  0.89536559138E+03  0.25500000920E-02 0.  1.
</event>
<event>
 5   0  0.3184492E-06  0.2302569E+04  0.7818609E-02  0.8476909E-01
        1   -1    0    0  501    0  0.00000000000E+00  0.00000000000E+00  0.13317678274E+04  0.13317678274E+04  0.50400001928E-02 0. -1.
       -1   -1    0    0    0  501  0.00000000000E+00  0.00000000000E+00 -0.99526098736E+03  0.99526098737E+03  0.50400001928E-02 0.  1.
    10030    2    1    2    0    0  0.00000000000E+00  0.00000000000E+00  0.33650684001E+03  0.23270288148E+04  0.23025694889E+04 0.  0.
        1    1    3    3  502    0 -0.98691835164E+02 -0.11384695163E+04  0.30975374254E+03  0.11839764773E+04  0.50400001928E-02 0. -1.
       -1    1    3    3    0  502  0.98691835164E+02  0.11384695163E+04  0.26753097470E+02  0.11430523374E+04  0.50400001928E-02 0.  1.
</event>
<event>
 5   0  0.3195296E-06  0.2304556E+04  0.7818609E-02  0.8476127E-01
       -1   -1    0    0    0  501  0.00000000000E+00  0.00000000000E+00  0.13443525358E+04  0.13443525358E+04  0.50400001928E-02 0. -1.
        1   -1    0    0  501    0  0.00000000000E+00  0.00000000000E+00 -0.98764607520E+03  0.98764607521E+03  0.50400001928E-02 0.  1.
    10030    2    1    2    0    0  0.00000000000E+00  0.00000000000E+00  0.35670646059E+03  0.23319986110E+04  0.23045559274E+04 0.  0.
        2    1    3    3  502    0 -0.64598416804E+03  0.29570237197E+03  0.10963546341E+04  0.13064183564E+04  0.25500000920E-02 0. -1.
       -2    1    3    3    0  502  0.64598416804E+03 -0.29570237197E+03 -0.73964817350E+03  0.10255802546E+04  0.25500000920E-02 0.  1.
</event>
<event>
 5   0  0.7497344E-06  0.2302081E+04  0.7818609E-02  0.8477101E-01
        2   -1    0    0  501    0  0.00000000000E+00  0.00000000000E+00  0.16454320774E+04  0.16454320774E+04  0.25500000920E-02 0. -1.
       -2   -1    0    0    0  501  0.00000000000E+00  0.00000000000E+00 -0.80519503363E+03  0.80519503363E+03  0.25500000920E-02 0.  1.
    10030    2    1    2    0    0  0.00000000000E+00  0.00000000000E+00  0.84023704373E+03  0.24506271110E+04  0.23020805693E+04 0.  0.
        5    1    3    3  502    0  0.82200594600E+03  0.19267508508E+03 -0.41270244407E+03  0.93976745049E+03  0.46999998093E+01 0.  1.
       -5    1    3    3    0  502 -0.82200594600E+03 -0.19267508508E+03  0.12529394878E+04  0.15108596605E+04  0.46999998093E+01 0. -1.
</event>
<event>
 5   0  0.7044981E-06  0.2294812E+04  0.7818609E-02  0.8479969E-01
       -2   -1    0    0    0  501  0.00000000000E+00  0.00000000000E+00  0.16057127767E+04  0.16057127767E+04  0.25500000920E-02 0.  1.
        2   -1    0    0  501    0  0.00000000000E+00  0.00000000000E+00 -0.81991030148E+03  0.81991030149E+03  0.25500000920E-02 0. -1.
    10030    2    1    2    0    0  0.00000000000E+00  0.00000000000E+00  0.78580247520E+03  0.24256230782E+04  0.22948119285E+04 0.  0.
        4    1    3    3  502    0 -0.19228708830E+03 -0.43949946026E+03  0.14946232887E+04  0.15697243350E+04  0.12699999809E+01 0.  1.
       -4    1    3    3    0  502  0.19228708830E+03  0.43949946026E+03 -0.70882081353E+03  0.85589874313E+03  0.12699999809E+01 0. -1.
</event>
<event>
 5   0  0.3195296E-06  0.2300311E+04  0.7818609E-02  0.8477798E-01
        1   -1    0    0  501    0  0.00000000000E+00  0.00000000000E+00  0.15870731475E+04  0.15870731475E+04  0.50400001928E-02 0. -1.
       -1   -1    0    0    0  501  0.00000000000E+00  0.00000000000E+00 -0.83352041005E+03  0.83352041007E+03  0.50400001928E-02 0.  1.
    10030    2    1    2    0    0  0.00000000000E+00  0.00000000000E+00  0.75355273748E+03  0.24205935576E+04  0.23003111622E+04 0.  0.
        2    1    3    3  502    0 -0.32918463782E+03  0.82918872962E+02 -0.77960316841E+03  0.85030533661E+03  0.25500000920E-02 0.  1.
       -2    1    3    3    0  502  0.32918463782E+03 -0.82918872962E+02  0.15331559059E+04  0.15702882210E+04  0.25500000920E-02 0. -1.
</event>
<event>
 5   0  0.3238713E-06  0.2309214E+04  0.7818609E-02  0.8474297E-01
       -1   -1    0    0    0  501  0.00000000000E+00  0.00000000000E+00  0.96587192017E+03  0.96587192019E+03  0.50400001928E-02 0.  1.
        1   -1    0    0  501    0  0.00000000000E+00  0.00000000000E+00 -0.13802217595E+04  0.13802217595E+04  0.50400001928E-02 0. -1.
    10030    2    1    2    0    0  0.00000000000E+00  0.00000000000E+00 -0.41434983936E+03  0.23460936797E+04  0.23092141011E+04 0.  0.
        3    1    3    3  502    0 -0.80155924457E+03  0.60941242393E+03 -0.78120884404E+03  0.12744284967E+04  0.10100000352E+00 0. -1.
       -3    1    3    3    0  502  0.80155924457E+03 -0.60941242393E+03  0.36685900468E+03  0.10716651830E+04  0.10100000352E+00 0.  1.
</event>
<event>
 5   0  0.3195296E-06  0.2296649E+04  0.7818609E-02  0.8479244E-01
        1   -1    0    0  501    0  0.00000000000E+00  0.00000000000E+00  0.93544120509E+03  0.93544120510E+03  0.50400001928E-02 0.  1.
       -1   -1    0    0    0  501  0.00000000000E+00  0.00000000000E+00 -0.14096543199E+04  0.14096543199E+04  0.50400001928E-02 0. -1.
    10030    2    1    2    0    0  0.00000000000E+00  0.00000000000E+00 -0.47421311482E+03  0.23450955250E+04  0.22966486329E+04 0.  0.
        2    1    3    3  502    0 -0.39621742896E+03  0.65587762022E+03  0.63620398487E+03  0.99595141151E+03  0.25500000920E-02 0.  1.
       -2    1    3    3    0  502  0.39621742896E+03 -0.65587762022E+03 -0.11104170997E+04  0.13491441135E+04  0.25500000920E-02 0. -1.
</event>
<event>
 5   0  0.7348107E-06  0.2363258E+04  0.7818609E-02  0.8453389E-01
       -2   -1    0    0    0  501  0.00000000000E+00  0.00000000000E+00  0.12770813316E+04  0.12770813316E+04  0.25500000920E-02 0.  1.
        2   -1    0    0  501    0  0.00000000000E+00  0.00000000000E+00 -0.10933114701E+04  0.10933114701E+04  0.25500000920E-02 0. -1.
    10030    2    1    2    0    0  0.00000000000E+00  0.00000000000E+00  0.18376986149E+03  0.23703928018E+04  0.23632584862E+04 0.  0.
        3    1    3    3  502    0  0.39029029060E+03 -0.96974508273E+03 -0.46070073864E+03  0.11423559941E+04  0.10100000352E+00 0. -1.
       -3    1    3    3    0  502 -0.39029029060E+03  0.96974508273E+03  0.64447060014E+03  0.12280368077E+04  0.10100000352E+00 0.  1.
</event>
<event>
 5   0  0.2519625E-06  0.2300008E+04  0.7818609E-02  0.8477918E-01
        3   -1    0    0  501    0  0.00000000000E+00  0.00000000000E+00  0.61437561491E+03  0.61437562322E+03  0.10100000352E+00 0.  1.
       -3   -1    0    0    0  501  0.00000000000E+00  0.00000000000E+00 -0.21526066554E+04  0.21526066577E+04  0.10100000352E+00 0. -1.
    10030    2    1    2    0    0  0.00000000000E+00  0.00000000000E+00 -0.15382310404E+04  0.27669822809E+04  0.23000078716E+04 0.  0.
        4    1    3    3  502    0 -0.23782422826E+03 -0.73755729717E+02  0.58155591595E+03  0.63262087185E+03  0.12699999809E+01 0.  1.
       -4    1    3    3    0  502  0.23782422826E+03  0.73755729717E+02 -0.21197869564E+04  0.21343614091E+04  0.12699999809E+01 0. -1.
</event>
<event>
 5   0  0.3226427E-06  0.2318202E+04  0.7818609E-02  0.8470779E-01
       -1   -1    0    0    0  501  0.00000000000E+00  0.00000000000E+00  0.69576616673E+03  0.69576616675E+03  0.50400001928E-02 0. -1.
        1   -1    0    0  501    0  0.00000000000E+00  0.00000000000E+00 -0.19309861719E+04  0.19309861719E+04  0.50400001928E-02 0.  1.
    10030    2    1    2    0    0  0.00000000000E+00  0.00000000000E+00 -0.12352200052E+04  0.26267523387E+04  0.23182017573E+04 0.  0.
        4    1    3    3  502    0 -0.16760522303E+03 -0.56882921609E+03  0.51086514867E+03  0.78271514672E+03  0.12699999809E+01 0. -1.
       -4    1    3    3    0  502  0.16760522303E+03  0.56882921609E+03 -0.17460851539E+04  0.18440371919E+04  0.12699999809E+01 0.  1.
</event>
<event>
 5   0  0.3238713E-06  0.2299078E+04  0.7818609E-02  0.8478285E-01
       -1   -1    0    0    0  501  0.00000000000E+00  0.00000000000E+00  0.74098093282E+03  0.74098093283E+03  0.50400001928E-02 0.  1.
        1   -1    0    0  501    0  0.00000000000E+00  0.00000000000E+00 -0.17833650017E+04  0.17833650017E+04  0.50400001928E-02 0. -1.
    10030    2    1    2    0    0  0.00000000000E+00  0.00000000000E+00 -0.10423840689E+04  0.25243459345E+04  0.22990776085E+04 0.  0.
        3    1    3    3  502    0  0.12896876188E+02  0.36821625384E+03 -0.17167779796E+04  0.17558690670E+04  0.10100000352E+00 0. -1.
       -3    1    3    3    0  502 -0.12896876188E+02 -0.36821625384E+03  0.67439391069E+03  0.76847686757E+03  0.10100000352E+00 0.  1.
</event>
<event>
 5   0  0.7242214E-06  0.2298520E+04  0.7818609E-02  0.8478505E-01
        2   -1    0    0  501    0  0.00000000000E+00  0.00000000000E+00  0.18698528322E+04  0.18698528322E+04  0.25500000920E-02 0. -1.
       -2   -1    0    0    0  501  0.00000000000E+00  0.00000000000E+00 -0.70636481948E+03  0.70636481948E+03  0.25500000920E-02 0.  1.
    10030    2    1    2    0    0  0.00000000000E+00  0.00000000000E+00  0.11634880128E+04  0.25762176517E+04  0.22985197483E+04 0.  0.
        1    1    3    3  502    0 -0.11122625890E+03 -0.10181272592E+04  0.11661223022E+04  0.15520295166E+04  0.50400001928E-02 0. -1.
       -1    1    3    3    0  502  0.11122625890E+03  0.10181272592E+04 -0.26342894167E+01  0.10241881351E+04  0.50400001928E-02 0.  1.
</event>
<event>
 5   0  0.3184492E-06  0.2310996E+04  0.7818609E-02  0.8473598E-01
       -1   -1    0    0    0  501  0.00000000000E+00  0.00000000000E+00  0.15845584610E+04  0.15845584610E+04  0.50400001928E-02 0. -1.
        1   -1    0    0  501    0  0.00000000000E+00  0.00000000000E+00 -0.84261701058E+03  0.84261701060E+03  0.50400001928E-02 0.  1.
    10030    2    1    2    0    0  0.00000000000E+00  0.00000000000E+00  0.74194145043E+03  0.24271754716E+04  0.23109962471E+04 0.  0.
        1    1    3    3  502    0 -0.75629327347E+03  0.77090287083E+03 -0.60670975783E+02  0.10816430645E+04  0.50400001928E-02 0.  1.
       -1    1    3    3    0  502  0.75629327347E+03 -0.77090287083E+03  0.80261242621E+03  0.13455324071E+04  0.50400001928E-02 0. -1.
</event>
<event>
 5   0  0.7348107E-06  0.2308724E+04  0.7818609E-02  0.8474489E-01
        2   -1    0    0  501    0  0.00000000000E+00  0.00000000000E+00  0.14084581004E+04  0.14084581004E+04  0.25500000920E-02 0.  1.
       -2   -1    0    0    0  501  0.00000000000E+00  0.00000000000E+00 -0.94610707231E+03  0.94610707231E+03  0.25500000920E-02 0. -1.
    10030    2    1    2    0    0  0.00000000000E+00  0.00000000000E+00  0.46235102812E+03  0.23545651727E+04  0.23087244702E+04 0.  0.
        3    1    3    3  502    0  0.71786953171E+03  0.27176910640E+03 -0.64812502936E+03  0.10046199160E+04  0.10100000352E+00 0. -1.
       -3    1    3    3    0  502 -0.71786953171E+03 -0.27176910640E+03  0.11104760575E+04  0.13499452567E+04  0.10100000352E+00 0.  1.
</event>
<event>
 5   0  0.7348107E-06  0.2299580E+04  0.7818609E-02  0.8478087E-01
        2   -1    0    0  501    0  0.00000000000E+00  0.00000000000E+00  0.18164059175E+04  0.18164059175E+04  0.25500000920E-02 0. -1.
       -2   -1    0    0    0  501  0.00000000000E+00  0.00000000000E+00 -0.72782021140E+03  0.72782021140E+03  0.25500000920E-02 0.  1.
    10030    2    1    2    0    0  0.00000000000E+00  0.00000000000E+00  0.10885857061E+04  0.25442261289E+04  0.22995799085E+04 0.  0.
        3    1    3    3  502    0  0.40332028694E+03  0.81678600352E+03  0.13205087830E+04  0.16042288133E+04  0.10100000352E+00 0. -1.
       -3    1    3    3    0  502 -0.40332028694E+03 -0.81678600352E+03 -0.23192307692E+03  0.93999731553E+03  0.10100000352E+00 0.  1.
</event>
<event>
 5   0  0.7044981E-06  0.2304691E+04  0.7818609E-02  0.8476074E-01
        2   -1    0    0  501    0  0.00000000000E+00  0.00000000000E+00  0.13620203166E+04  0.13620203167E+04  0.25500000920E-02 0.  1.
       -2   -1    0    0    0  501  0.00000000000E+00  0.00000000000E+00 -0.97494922410E+03  0.97494922411E+03  0.25500000920E-02 0. -1.
    10030    2    1    2    0    0  0.00000000000E+00  0.00000000000E+00  0.38707109255E+03  0.23369695408E+04  0.23046914335E+04 0.  0.
        4    1    3    3  502    0  0.52582705339E+03  0.17016280433E+03  0.12188597568E+04  0.13383087050E+04  0.12699999809E+01 0.  1.
       -4    1    3    3    0  502 -0.52582705339E+03 -0.17016280433E+03 -0.83178866427E+03  0.99866083580E+03  0.12699999809E+01 0. -1.
</event>
<event>
 5   0  0.3238713E-06  0.2300259E+04  0.7818609E-02  0.8477819E-01
        1   -1    0    0  501    0  0.00000000000E+00  0.00000000000E+00  0.21708824161E+04  0.21708824161E+04  0.50400001928E-02 0. -1.
       -1   -1    0    0    0  501  0.00000000000E+00  0.00000000000E+00 -0.60933670019E+03  0.60933670022E+03  0.50400001928E-02 0.  1.
    10030    2    1    2    0    0  0.00000000000E+00  0.00000000000E+00  0.15615457159E+04  0.27802191164E+04  0.23002594010E+04 0.  0.
        3    1    3    3  502    0  0.28753319965E+03  0.60882735284E+03  0.19077758630E+04  0.20231052469E+04  0.10100000352E+00 0. -1.
       -3    1    3    3    0  502 -0.28753319965E+03 -0.60882735284E+03 -0.34623014701E+03  0.75711386948E+03  0.10100000352E+00 0.  1.
</event>
<event>
 5   0  0.7044981E-06  0.2297232E+04  0.7818609E-02  0.8479013E-01
       -2   -1    0    0    0  501  0.00000000000E+00  0.00000000000E+00  0.60626242421E+03  0.60626242421E+03  0.25500000920E-02 0.  1.
        2   -1    0    0  501    0  0.00000000000E+00  0.00000000000E+00 -0.21761512162E+04  0.21761512162E+04  0.25500000920E-02 0. -1.
    10030    2    1    2    0    0  0.00000000000E+00  0.00000000000E+00 -0.15698887920E+04  0.27824136404E+04  0.22972319968E+04 0.  0.
        4    1    3    3  502    0 -0.43403556045E+03  0.21339872319E+03  0.47691215970E+03  0.67924421511E+03  0.12699999809E+01 0.  1.
       -4    1    3    3    0  502  0.43403556045E+03 -0.21339872319E+03 -0.20468009517E+04  0.21031694253E+04  0.12699999809E+01 0. -1.
</event>
<event>
 5   0  0.3338758E-06  0.2280545E+04  0.7818609E-02  0.8485632E-01
        1   -1    0    0  501    0  0.00000000000E+00  0.00000000000E+00  0.16602208444E+04  0.16602208444E+04  0.50400001928E-02 0.  1.
       -1   -1    0    0    0  501  0.00000000000E+00  0.00000000000E+00 -0.78316138378E+03  0.78316138380E+03  0.50400001928E-02 0. -1.
    10030    2    1    2    0    0  0.00000000000E+00  0.00000000000E+00  0.87705946064E+03  0.24433822282E+04  0.22805445437E+04 0.  0.
        5    1    3    3  502    0 -0.46696096248E+03  0.35449053789E+03  0.14863611263E+04  0.15978133714E+04  0.46999998093E+01 0.  1.
       -5    1    3    3    0  502  0.46696096248E+03 -0.35449053789E+03 -0.60930166565E+03  0.84556885687E+03  0.46999998093E+01 0. -1.
</event>
<event>
 5   0  0.7242214E-06  0.2297269E+04  0.7818609E-02  0.8478999E-01
        2   -1    0    0  501    0  0.00000000000E+00  0.00000000000E+00  0.14249374937E+04  0.14249374937E+04  0.25500000920E-02 0. -1.
       -2   -1    0    0    0  501  0.00000000000E+00  0.00000000000E+00 -0.92590835936E+03  0.92590835936E+03  0.25500000920E-02 0.  1.
    10030    2    1    2    0    0  0.00000000000E+00  0.00000000000E+00  0.49902913435E+03  0.23508458531E+04  0.22972692807E+04 0.  0.
        1    1    3    3  502    0 -0.31454474772E+03 -0.44058300459E+03 -0.78718156014E+03  0.95535678723E+03  0.50400001928E-02 0.  1.
       -1    1    3    3    0  502  0.31454474772E+03  0.44058300459E+03  0.12862106945E+04  0.13954890658E+04  0.50400001928E-02 0. -1.
</event>
<event>
 5   0  0.3195296E-06  0.2301868E+04  0.7818609E-02  0.8477185E-01
       -1   -1    0    0    0  501  0.00000000000E+00  0.00000000000E+00  0.69111651896E+03  0.69111651897E+03  0.50400001928E-02 0.  1.
        1   -1    0    0  501    0  0.00000000000E+00  0.00000000000E+00 -0.19166800616E+04  0.19166800616E+04  0.50400001928E-02 0. -1.
    10030    2    1    2    0    0  0.00000000000E+00  0.00000000000E+00 -0.12255635426E+04  0.26077965806E+04  0.23018681562E+04 0.  0.
        2    1    3    3  502    0  0.60794371853E+03 -0.89980147539E+03 -0.18077367569E+03  0.11008711922E+04  0.25500000920E-02 0.  1.
       -2    1    3    3    0  502 -0.60794371853E+03  0.89980147539E+03 -0.10447898670E+04  0.15069253884E+04  0.25500000920E-02 0. -1.
</event>
<event>
 5   0  0.7497344E-06  0.2301713E+04  0.7818609E-02  0.8477246E-01
       -2   -1    0    0    0  501  0.00000000000E+00  0.00000000000E+00  0.71776057007E+03  0.71776057007E+03  0.25500000920E-02 0.  1.
        2   -1    0    0  501    0  0.00000000000E+00  0.00000000000E+00 -0.18452817228E+04  0.18452817228E+04  0.25500000920E-02 0. -1.
    10030    2    1    2    0    0  0.00000000000E+00  0.00000000000E+00 -0.11275211528E+04  0.25630422929E+04  0.23017128069E+04 0.  0.
        5    1    3    3  502    0 -0.11034977181E+04  0.25791390413E+03 -0.34043720398E+03  0.11832778100E+04  0.46999998093E+01 0. -1.
       -5    1    3    3    0  502  0.11034977181E+04 -0.25791390413E+03 -0.78708394878E+03  0.13797644829E+04  0.46999998093E+01 0.  1.
</event>
<event>
 5   0  0.3238713E-06  0.2299652E+04  0.7818609E-02  0.8478058E-01
        1   -1    0    0  501    0  0.00000000000E+00  0.00000000000E+00  0.86135056135E+03  0.86135056137E+03  0.50400001928E-02 0. -1.
       -1   -1    0    0    0  501  0.00000000000E+00  0.00000000000E+00 -0.15349146909E+04  0.15349146909E+04  0.50400001928E-02 0.  1.
    10030    2    1    2    0    0  0.00000000000E+00  0.00000000000E+00 -0.67356412956E+03  0.23962652523E+04  0.22996518264E+04 0.  0.
        3    1    3    3  502    0  0.36452496332E+03 -0.74996678714E+03  0.48816721174E+03  0.96624834671E+03  0.10100000352E+00 0. -1.
       -3    1    3    3    0  502 -0.36452496332E+03  0.74996678714E+03 -0.11617313413E+04  0.14300169056E+04  0.10100000352E+00 0.  1.
</event>
<event>
 5   0  0.3238713E-06  0.2297924E+04  0.7818609E-02  0.8478740E-01
        1   -1    0    0  501    0  0.00000000000E+00  0.00000000000E+00  0.15417693150E+04  0.15417693150E+04  0.50400001928E-02 0.  1.
       -1   -1    0    0    0  501  0.00000000000E+00  0.00000000000E+00 -0.85623311511E+03  0.85623311513E+03  0.50400001928E-02 0. -1.
    10030    2    1    2    0    0  0.00000000000E+00  0.00000000000E+00  0.68553619992E+03  0.23980024302E+04  0.22979242315E+04 0.  0.
        3    1    3    3  502    0 -0.86394304801E+03  0.95522774278E+02 -0.44134945164E+03  0.97483923766E+03  0.10100000352E+00 0. -1.
       -3    1    3    3    0  502  0.86394304801E+03 -0.95522774278E+02  0.11268856516E+04  0.14231631925E+04  0.10100000352E+00 0.  1.
</event>
<event>
 5   0  0.3238713E-06  0.2299203E+04  0.7818609E-02  0.8478235E-01
        1   -1    0    0  501    0  0.00000000000E+00  0.00000000000E+00  0.13371706798E+04  0.13371706798E+04  0.50400001928E-02 0. -1.
       -1   -1    0    0    0  501  0.00000000000E+00  0.00000000000E+00 -0.98834351375E+03  0.98834351377E+03  0.50400001928E-02 0.  1.
    10030    2    1    2    0    0  0.00000000000E+00  0.00000000000E+00  0.34882716605E+03  0.23255141936E+04  0.22992033126E+04 0.  0.
        3    1    3    3  502    0 -0.70750445602E+02 -0.21486231058E+03 -0.96561043347E+03  0.99175347617E+03  0.10100000352E+00 0.  1.
       -3    1    3    3    0  502  0.70750445602E+02  0.21486231058E+03  0.13144375995E+04  0.13337607174E+04  0.10100000352E+00 0. -1.
</event>
<event>
 5   0  0.3195296E-06  0.2298005E+04  0.7818609E-02  0.8478708E-01
        1   -1    0    0  501    0  0.00000000000E+00  0.00000000000E+00  0.15166519351E+04  0.15166519351E+04  0.50400001928E-02 0.  1.
       -1   -1    0    0    0  501  0.00000000000E+00  0.00000000000E+00 -0.87047438820E+03  0.87047438821E+03  0.50400001928E-02 0. -1.
    10030    2    1    2    0    0  0.00000000000E+00  0.00000000000E+00  0.64617754690E+03  0.23871263233E+04  0.22980049307E+04 0.  0.
        2    1    3    3  502    0  0.10955266984E+04  0.52927716417E+02 -0.32573241222E+02  0.10972880689E+04  0.25500000920E-02 0. -1.
       -2    1    3    3    0  502 -0.10955266984E+04 -0.52927716417E+02  0.67875078812E+03  0.12898382544E+04  0.25500000920E-02 0.  1.
</event>
<event>
 5   0  0.3338758E-06  0.2309510E+04  0.7818609E-02  0.8474181E-01
        1   -1    0    0  501    0  0.00000000000E+00  0.00000000000E+00  0.85788868987E+03  0.85788868989E+03  0.50400001928E-02 0. -1.
       -1   -1    0    0    0  501  0.00000000000E+00  0.00000000000E+00 -0.15543504570E+04  0.15543504570E+04  0.50400001928E-02 0.  1.
    10030    2    1    2    0    0  0.00000000000E+00  0.00000000000E+00 -0.69646176714E+03  0.24122391469E+04  0.23095104912E+04 0.  0.
        5    1    3    3  502    0 -0.46403761271E+03  0.88433533021E+03 -0.95372140684E+03  0.13809368176E+04  0.46999998093E+01 0.  1.
       -5    1    3    3    0  502  0.46403761271E+03 -0.88433533021E+03  0.25725963970E+03  0.10313023293E+04  0.46999998093E+01 0. -1.
</event>
<event>
 5   0  0.7497344E-06  0.2303006E+04  0.7818609E-02  0.8476737E-01
        2   -1    0    0  501    0  0.00000000000E+00  0.00000000000E+00  0.10261336457E+04  0.10261336457E+04  0.25500000920E-02 0.  1.
       -2   -1    0    0    0  501  0.00000000000E+00  0.00000000000E+00 -0.12921895289E+04  0.12921895289E+04  0.25500000920E-02 0. -1.
    10030    2    1    2    0    0  0.00000000000E+00  0.00000000000E+00 -0.26605588322E+03  0.23183231746E+04  0.23030059941E+04 0.  0.
        5    1    3    3  502    0  0.67203949002E+02 -0.21139480901E+02 -0.12900083702E+04  0.12919392143E+04  0.46999998093E+01 0. -1.
       -5    1    3    3    0  502 -0.67203949002E+02  0.21139480901E+02  0.10239524870E+04  0.10263839603E+04  0.46999998093E+01 0.  1.
</event>
<event>
 5   0  0.2519625E-06  0.2301536E+04  0.7818609E-02  0.8477316E-01
       -3   -1    0    0    0  501  0.00000000000E+00  0.00000000000E+00  0.85867957475E+03  0.85867958069E+03  0.10100000352E+00 0. -1.
        3   -1    0    0  501    0  0.00000000000E+00  0.00000000000E+00 -0.15422136886E+04  0.15422136919E+04  0.10100000352E+00 0.  1.
    10030    2    1    2    0    0  0.00000000000E+00  0.00000000000E+00 -0.68353411386E+03  0.24008932726E+04  0.23015363611E+04 0.  0.
        4    1    3    3  502    0 -0.75580305745E+03 -0.41090105958E+03  0.45555040259E+03  0.97345042227E+03  0.12699999809E+01 0. -1.
       -4    1    3    3    0  502  0.75580305745E+03  0.41090105958E+03 -0.11390845165E+04  0.14274428503E+04  0.12699999809E+01 0.  1.
</event>
<event>
 5   0  0.7242214E-06  0.2290775E+04  0.7818609E-02  0.8481567E-01
        2   -1    0    0  501    0  0.00000000000E+00  0.00000000000E+00  0.15175252288E+04  0.15175252288E+04  0.25500000920E-02 0.  1.
       -2   -1    0    0    0  501  0.00000000000E+00  0.00000000000E+00 -0.86450815853E+03  0.86450815853E+03  0.25500000920E-02 0. -1.
    10030    2    1    2    0    0  0.00000000000E+00  0.00000000000E+00  0.65301707025E+03  0.23820333873E+04  0.22907753631E+04 0.  0.
        1    1    3    3  502    0 -0.46790300903E+03  0.97822821473E+02 -0.75582681448E+03  0.89430235590E+03  0.50400001928E-02 0. -1.
       -1    1    3    3    0  502  0.46790300903E+03 -0.97822821473E+02  0.14088438847E+04  0.14877310314E+04  0.50400001928E-02 0.  1.
</event>
<event>
 5   0  0.3184492E-06  0.2298880E+04  0.7818609E-02  0.8478363E-01
       -1   -1    0    0    0  501  0.00000000000E+00  0.00000000000E+00  0.18070876399E+04  0.18070876399E+04  0.50400001928E-02 0.  1.
        1   -1    0    0  501    0  0.00000000000E+00  0.00000000000E+00 -0.73112767300E+03  0.73112767301E+03  0.50400001928E-02 0. -1.
    10030    2    1    2    0    0  0.00000000000E+00  0.00000000000E+00  0.10759599669E+04  0.25382153129E+04  0.22988795367E+04 0.  0.
        1    1    3    3  502    0  0.25230678573E+03 -0.11164776319E+04  0.42201815659E+03  0.12199509585E+04  0.50400001928E-02 0. -1.
       -1    1    3    3    0  502 -0.25230678573E+03  0.11164776319E+04  0.65394181031E+03  0.13182643544E+04  0.50400001928E-02 0.  1.
</event>
<event>
 5   0  0.7044981E-06  0.2310559E+04  0.7818609E-02  0.8473770E-01
        2   -1    0    0  501    0  0.00000000000E+00  0.00000000000E+00  0.18064529494E+04  0.18064529494E+04  0.25500000920E-02 0.  1.
       -2   -1    0    0    0  501  0.00000000000E+00  0.00000000000E+00 -0.73883473739E+03  0.73883473740E+03  0.25500000920E-02 0. -1.
    10030    2    1    2    0    0  0.00000000000E+00  0.00000000000E+00  0.10676182120E+04  0.25452876868E+04  0.23105585390E+04 0.  0.
        4    1    3    3  502    0  0.65685423031E+03  0.67220291337E+03  0.12738891817E+04  0.15830696437E+04  0.12699999809E+01 0.  1.
       -4    1    3    3    0  502 -0.65685423031E+03 -0.67220291337E+03 -0.20627096971E+03  0.96221804310E+03  0.12699999809E+01 0. -1.
</event>
<event>
 5   0  0.7348107E-06  0.2303358E+04  0.7818609E-02  0.8476598E-01
        2   -1    0    0  501    0  0.00000000000E+00  0.00000000000E+00  0.19977685224E+04  0.19977685224E+04  0.25500000920E-02 0.  1.
       -2   -1    0    0    0  501  0.00000000000E+00  0.00000000000E+00 -0.66392276448E+03  0.66392276449E+03  0.25500000920E-02 0. -1.
    10030    2    1    2    0    0  0.00000000000E+00  0.00000000000E+00  0.13338457580E+04  0.26616912869E+04  0.23033575495E+04 0.  0.
        3    1    3    3  502    0 -0.35001052349E+03  0.62675062468E+03 -0.37375790557E+03  0.80933225208E+03  0.10100000352E+00 0. -1.
       -3    1    3    3    0  502  0.35001052349E+03 -0.62675062468E+03  0.17076036635E+04  0.18523590348E+04  0.10100000352E+00 0.  1.
</event>
<event>
 5   0  0.3238713E-06  0.2300730E+04  0.7818609E-02  0.8477633E-01
       -1   -1    0    0    0  501  0.00000000000E+00  0.00000000000E+00  0.14292759980E+04  0.14292759980E+04  0.50400001928E-02 0. -1.
        1   -1    0    0  501    0  0.00000000000E+00  0.00000000000E+00 -0.92588129222E+03  0.92588129223E+03  0.50400001928E-02 0.  1.
    10030    2    1    2    0    0  0.00000000000E+00  0.00000000000E+00  0.50339470579E+03  0.23551572902E+04  0.23007302389E+04 0.  0.
        3    1    3    3  502    0  0.79726693328E+03 -0.37768760728E+03  0.10074424512E+04  0.13391126891E+04  0.10100000352E+00 0. -1.
       -3    1    3    3    0  502 -0.79726693328E+03  0.37768760728E+03 -0.50404774538E+03  0.10160446011E+04  0.10100000352E+00 0.  1.
</event>
<event>
 5   0  0.3338758E-06  0.2297035E+04  0.7818609E-02  0.8479091E-01
       -1   -1    0    0    0  501  0.00000000000E+00  0.00000000000E+00  0.10923573582E+04  0.10923573582E+04  0.50400001928E-02 0.  1.
        1   -1    0    0  501    0  0.00000000000E+00  0.00000000000E+00 -0.12075654061E+04  0.12075654061E+04  0.50400001928E-02 0. -1.
    10030    2    1    2    0    0  0.00000000000E+00  0.00000000000E+00 -0.11520804786E+03  0.22999227643E+04  0.22970354432E+04 0.  0.
        5    1    3    3  502    0 -0.91417594555E+03 -0.51468706019E+03  0.41037028849E+03  0.11265195484E+04  0.46999998093E+01 0.  1.
       -5    1    3    3    0  502  0.91417594555E+03  0.51468706019E+03 -0.52557833635E+03  0.11734032159E+04  0.46999998093E+01 0. -1.
</event>
<event>
 5   0  0.3226427E-06  0.2299713E+04  0.7818609E-02  0.8478034E-01
       -1   -1    0    0    0  501  0.00000000000E+00  0.00000000000E+00  0.10771646024E+04  0.10771646025E+04  0.50400001928E-02 0.  1.
        1   -1    0    0  501    0  0.00000000000E+00  0.00000000000E+00 -0.12274541604E+04  0.12274541604E+04  0.50400001928E-02 0. -1.
    10030    2    1    2    0    0  0.00000000000E+00  0.00000000000E+00 -0.15028955792E+03  0.23046187628E+04  0.22997131758E+04 0.  0.
        4    1    3    3  502    0  0.68323261980E+03 -0.88121550265E+03 -0.35649440915E+03  0.11706568462E+04  0.12699999809E+01 0.  1.
       -4    1    3    3    0  502 -0.68323261980E+03  0.88121550265E+03  0.20620485123E+03  0.11339619167E+04  0.12699999809E+01 0. -1.
</event>
<event>
 5   0  0.7348107E-06  0.2296068E+04  0.7818609E-02  0.8479473E-01
        2   -1    0    0  501    0  0.00000000000E+00  0.00000000000E+00  0.10813968515E+04  0.10813968516E+04  0.25500000920E-02 0.  1.
       -2   -1    0    0    0  501  0.00000000000E+00  0.00000000000E+00 -0.12187771274E+04  0.12187771274E+04  0.25500000920E-02 0. -1.
    10030    2    1    2    0    0  0.00000000000E+00  0.00000000000E+00 -0.13738027588E+03  0.23001739790E+04  0.22960677240E+04 0.  0.
        3    1    3    3  502    0 -0.96972156980E+03 -0.16444277041E+03 -0.66184733273E+03  0.11855139180E+04  0.10100000352E+00 0. -1.
       -3    1    3    3    0  502  0.96972156980E+03  0.16444277041E+03  0.52446705685E+03  0.11146600610E+04  0.10100000352E+00 0.  1.
</event>
<event>
 5   0  0.7003852E-06  0.2300496E+04  0.7818609E-02  0.8477726E-01
        2   -1    0    0  501    0  0.00000000000E+00  0.00000000000E+00  0.15185200578E+04  0.15185200578E+04  0.25500000920E-02 0.  1.
       -2   -1    0    0    0  501  0.00000000000E+00  0.00000000000E+00 -0.87128942750E+03  0.87128942750E+03  0.25500000920E-02 0. -1.
    10030    2    1    2    0    0  0.00000000000E+00  0.00000000000E+00  0.64723063034E+03  0.23898094853E+04  0.23004960090E+04 0.  0.
        2    1    3    3  502    0 -0.93696893610E+03 -0.46161549635E+02  0.10150605279E+04  0.13821684236E+04  0.25500000920E-02 0.  1.
       -2    1    3    3    0  502  0.93696893610E+03  0.46161549635E+02 -0.36782989751E+03  0.10076410618E+04  0.25500000920E-02 0. -1.
</event>
<event>
 5   0  0.7348107E-06  0.2346547E+04  0.7818609E-02  0.8459791E-01
        2   -1    0    0  501    0  0.00000000000E+00  0.00000000000E+00  0.11203004749E+04  0.11203004749E+04  0.25500000920E-02 0. -1.
       -2   -1    0    0    0  501  0.00000000000E+00  0.00000000000E+00 -0.12287509718E+04  0.12287509718E+04  0.25500000920E-02 0.  1.
    10030    2    1    2    0    0  0.00000000000E+00  0.00000000000E+00 -0.10845049692E+03  0.23490514466E+04  0.23465466517E+04 0.  0.
        3    1    3    3  502    0  0.58822089909E+03 -0.57776366501E+02  0.96037936889E+03  0.11276836777E+04  0.10100000352E+00 0. -1.
       -3    1    3    3    0  502 -0.58822089909E+03  0.57776366501E+02 -0.10688298658E+04  0.12213677689E+04  0.10100000352E+00 0.  1.
</event>
<event>
 5   0  0.7003852E-06  0.2300242E+04  0.7818609E-02  0.8477826E-01
        2   -1    0    0  501    0  0.00000000000E+00  0.00000000000E+00  0.20530162517E+04  0.20530162517E+04  0.25500000920E-02 0.  1.
       -2   -1    0    0    0  501  0.00000000000E+00  0.00000000000E+00 -0.64430994098E+03  0.64430994098E+03  0.25500000920E-02 0. -1.
    10030    2    1    2    0    0  0.00000000000E+00  0.00000000000E+00  0.14087063107E+04  0.26973261926E+04  0.23002424046E+04 0.  0.
        2    1    3    3  502    0  0.55731016678E+03  0.94923286746E+03  0.31342472895E+03  0.11444967101E+04  0.25500000920E-02 0. -1.
       -2    1    3    3    0  502 -0.55731016678E+03 -0.94923286746E+03  0.10952815817E+04  0.15528294826E+04  0.25500000920E-02 0.  1.
</event>
<event>
 5   0  0.7348107E-06  0.2297854E+04  0.7818609E-02  0.8478768E-01
       -2   -1    0    0    0  501  0.00000000000E+00  0.00000000000E+00  0.10692828994E+04  0.10692828994E+04  0.25500000920E-02 0.  1.
        2   -1    0    0  501    0  0.00000000000E+00  0.00000000000E+00 -0.12345032752E+04  0.12345032752E+04  0.25500000920E-02 0. -1.
    10030    2    1    2    0    0  0.00000000000E+00  0.00000000000E+00 -0.16522037578E+03  0.23037861747E+04  0.22978539914E+04 0.  0.
        3    1    3    3  502    0 -0.11150219879E+04 -0.26469423272E+03 -0.56886008083E+00  0.11460093386E+04  0.10100000352E+00 0.  1.
       -3    1    3    3    0  502  0.11150219879E+04  0.26469423272E+03 -0.16465151570E+03  0.11577768361E+04  0.10100000352E+00 0. -1.
</event>
<event>
 5   0  0.7497344E-06  0.2306014E+04  0.7818609E-02  0.8475554E-01
        2   -1    0    0  501    0  0.00000000000E+00  0.00000000000E+00  0.11093510126E+04  0.11093510126E+04  0.25500000920E-02 0. -1.
       -2   -1    0    0    0  501  0.00000000000E+00  0.00000000000E+00 -0.11983809700E+04  0.11983809700E+04  0.25500000920E-02 0.  1.
    10030    2    1    2    0    0  0.00000000000E+00  0.00000000000E+00 -0.89029957454E+02  0.23077319826E+04  0.23060140004E+04 0.  0.
        5    1    3    3  502    0  0.22742121913E+03  0.70355311000E+03 -0.92987497059E+03  0.11880222811E+04  0.46999998093E+01 0.  1.
       -5    1    3    3    0  502 -0.22742121913E+03 -0.70355311000E+03  0.84084501314E+03  0.11197097015E+04  0.46999998093E+01 0. -1.
</event>
<event>
 5   0  0.7044981E-06  0.2298549E+04  0.7818609E-02  0.8478493E-01
       -2   -1    0    0    0  501  0.00000000000E+00  0.00000000000E+00  0.15153172085E+04  0.15153172085E+04  0.25500000920E-02 0.  1.
        2   -1    0    0  501    0  0.00000000000E+00  0.00000000000E+00 -0.87165396160E+03  0.87165396161E+03  0.25500000920E-02 0. -1.
    10030    2    1    2    0    0  0.00000000000E+00  0.00000000000E+00  0.64366324690E+03  0.23869711701E+04  0.22985493233E+04 0.  0.
        4    1    3    3  502    0 -0.85532902774E+03 -0.74295926718E+03  0.12139262241E+03  0.11394358253E+04  0.12699999809E+01 0. -1.
       -4    1    3    3    0  502  0.85532902774E+03  0.74295926718E+03  0.52227062450E+03  0.12475353448E+04  0.12699999809E+01 0.  1.
</event>
<event>
 5   0  0.7044981E-06  0.2322511E+04  0.7818609E-02  0.8469098E-01
       -2   -1    0    0    0  501  0.00000000000E+00  0.00000000000E+00  0.86076590126E+03  0.86076590126E+03  0.25500000920E-02 0.  1.
        2   -1    0    0  501    0  0.00000000000E+00  0.00000000000E+00 -0.15666451926E+04  0.15666451926E+04  0.25500000920E-02 0. -1.
    10030    2    1    2    0    0  0.00000000000E+00  0.00000000000E+00 -0.70587929131E+03  0.24274110938E+04  0.23225113659E+04 0.  0.
        4    1    3    3  502    0 -0.40371440606E+03  0.55566986684E+03  0.62570620159E+03  0.92912011397E+03  0.12699999809E+01 0.  1.
       -4    1    3    3    0  502  0.40371440606E+03 -0.55566986684E+03 -0.13315854929E+04  0.14982909799E+04  0.12699999809E+01 0. -1.
</event>
<event>
 5   0  0.3184492E-06  0.2297805E+04  0.7818609E-02  0.8478787E-01
        1   -1    0    0  501    0  0.00000000000E+00  0.00000000000E+00  0.95066427084E+03  0.95066427085E+03  0.50400001928E-02 0. -1.
       -1   -1    0    0    0  501  0.00000000000E+00  0.00000000000E+00 -0.13884782154E+04  0.13884782154E+04  0.50400001928E-02 0.  1.
    10030    2    1    2    0    0  0.00000000000E+00  0.00000000000E+00 -0.43781394457E+03  0.23391424863E+04  0.22978047178E+04 0.  0.
        1    1    3    3  502    0  0.29221250823E+03  0.11075801501E+04 -0.30912807360E+03  0.11864577973E+04  0.50400001928E-02 0. -1.
       -1    1    3    3    0  502 -0.29221250823E+03 -0.11075801501E+04 -0.12868587097E+03  0.11526846890E+04  0.50400001928E-02 0.  1.
</event>
<event>
 5   0  0.7003852E-06  0.2298320E+04  0.7818609E-02  0.8478584E-01
       -2   -1    0    0    0  501  0.00000000000E+00  0.00000000000E+00  0.10614235271E+04  0.10614235271E+04  0.25500000920E-02 0. -1.
        2   -1    0    0  501    0  0.00000000000E+00  0.00000000000E+00 -0.12441486326E+04  0.12441486326E+04  0.25500000920E-02 0.  1.
    10030    2    1    2    0    0  0.00000000000E+00  0.00000000000E+00 -0.18272510550E+03  0.23055721598E+04  0.22983199342E+04 0.  0.
        2    1    3    3  502    0 -0.18047304945E+03 -0.26716068718E+03 -0.11978495019E+04  0.12404792556E+04  0.25500000920E-02 0.  1.
       -2    1    3    3    0  502  0.18047304945E+03  0.26716068718E+03  0.10151243964E+04  0.10650929042E+04  0.25500000920E-02 0. -1.
</event>
<event>
 5   0  0.3338758E-06  0.2294009E+04  0.7818609E-02  0.8480287E-01
       -1   -1    0    0    0  501  0.00000000000E+00  0.00000000000E+00  0.94150325351E+03  0.94150325352E+03  0.50400001928E-02 0. -1.
        1   -1    0    0  501    0  0.00000000000E+00  0.00000000000E+00 -0.13973608647E+04  0.13973608647E+04  0.50400001928E-02 0.  1.
    10030    2    1    2    0    0  0.00000000000E+00  0.00000000000E+00 -0.45585761119E+03  0.23388641182E+04  0.22940094163E+04 0.  0.
        5    1    3    3  502    0  0.23702480341E+02 -0.57433241298E+03  0.78404014514E+03  0.97219368819E+03  0.46999998093E+01 0. -1.
       -5    1    3    3    0  502 -0.23702480341E+02  0.57433241298E+03 -0.12398977563E+04  0.13666704300E+04  0.46999998093E+01 0.  1.
</event>
<event>
 5   0  0.3226427E-06  0.2301626E+04  0.7818609E-02  0.8477280E-01
        1   -1    0    0  501    0  0.00000000000E+00  0.00000000000E+00  0.21139051002E+04  0.21139051002E+04  0.50400001928E-02 0. -1.
       -1   -1    0    0    0  501  0.00000000000E+00  0.00000000000E+00 -0.62650443055E+03  0.62650443057E+03  0.50400001928E-02 0.  1.
    10030    2    1    2    0    0  0.00000000000E+00  0.00000000000E+00  0.14874006696E+04  0.27404095307E+04  0.23016263042E+04 0.  0.
        4    1    3    3  502    0  0.96580855670E+03 -0.62419537542E+03  0.69094456945E+03  0.13415707383E+04  0.12699999809E+01 0. -1.
       -4    1    3    3    0  502 -0.96580855670E+03  0.62419537542E+03  0.79645610015E+03  0.13988387924E+04  0.12699999809E+01 0.  1.
</event>
<event>
 5   0  0.3338758E-06  0.2305120E+04  0.7818609E-02  0.8475905E-01
        1   -1    0    0  501    0  0.00000000000E+00  0.00000000000E+00  0.13317382692E+04  0.13317382692E+04  0.50400001928E-02 0. -1.
       -1   -1    0    0    0  501  0.00000000000E+00  0.00000000000E+00 -0.99748963547E+03  0.99748963548E+03  0.50400001928E-02 0.  1.
    10030    2    1    2    0    0  0.00000000000E+00  0.00000000000E+00  0.33424863371E+03  0.23292279047E+04  0.23051204920E+04 0.  0.
        5    1    3    3  502    0 -0.10495031977E+03 -0.23308249356E+03 -0.96847562084E+03  0.10016532018E+04  0.46999998093E+01 0.  1.
       -5    1    3    3    0  502  0.10495031977E+03  0.23308249356E+03  0.13027242546E+04  0.13275747029E+04  0.46999998093E+01 0. -1.
</event>
<event>
 5   0  0.7242214E-06  0.2299492E+04  0.7818609E-02  0.8478122E-01
       -2   -1    0    0    0  501  0.00000000000E+00  0.00000000000E+00  0.87092848864E+03  0.87092848864E+03  0.25500000920E-02 0. -1.
        2   -1    0    0  501    0  0.00000000000E+00  0.00000000000E+00 -0.15178234179E+04  0.15178234179E+04  0.25500000920E-02 0.  1.
    10030    2    1    2    0    0  0.00000000000E+00  0.00000000000E+00 -0.64689492926E+03  0.23887519065E+04  0.22994918181E+04 0.  0.
        1    1    3    3  502    0  0.19244237922E+03  0.11243758124E+04 -0.17412992107E+03  0.11539394552E+04  0.50400001928E-02 0. -1.
       -1    1    3    3    0  502 -0.19244237922E+03 -0.11243758124E+04 -0.47276500819E+03  0.12348124513E+04  0.50400001928E-02 0.  1.
</event>
<event>
 5   0  0.7348107E-06  0.2316488E+04  0.7818609E-02  0.8471448E-01
       -2   -1    0    0    0  501  0.00000000000E+00  0.00000000000E+00  0.91182367002E+03  0.91182367002E+03  0.25500000920E-02 0. -1.
        2   -1    0    0  501    0  0.00000000000E+00  0.00000000000E+00 -0.14712594257E+04  0.14712594257E+04  0.25500000920E-02 0.  1.
    10030    2    1    2    0    0  0.00000000000E+00  0.00000000000E+00 -0.55943575565E+03  0.23830830957E+04  0.23164880048E+04 0.  0.
        3    1    3    3  502    0 -0.97602753647E+03 -0.11650886040E+03 -0.90996798821E+03  0.13394946123E+04  0.10100000352E+00 0.  1.
       -3    1    3    3    0  502  0.97602753647E+03  0.11650886040E+03  0.35053223256E+03  0.10435884834E+04  0.10100000352E+00 0. -1.
</event>
<event>
 5   0  0.7497344E-06  0.2302207E+04  0.7818609E-02  0.8477051E-01
       -2   -1    0    0    0  501  0.00000000000E+00  0.00000000000E+00  0.13379620297E+04  0.13379620297E+04  0.25500000920E-02 0.  1.
        2   -1    0    0  501    0  0.00000000000E+00  0.00000000000E+00 -0.99034139249E+03  0.99034139249E+03  0.25500000920E-02 0. -1.
    10030    2    1    2    0    0  0.00000000000E+00  0.00000000000E+00  0.34762063724E+03  0.23283034222E+04  0.23022069235E+04 0.  0.
        5    1    3    3  502    0 -0.15508490623E+03 -0.55996022611E+03  0.11787593800E+04  0.13141927366E+04  0.46999998093E+01 0.  1.
       -5    1    3    3    0  502  0.15508490623E+03  0.55996022611E+03 -0.83113874277E+03  0.10141106856E+04  0.46999998093E+01 0. -1.
</event>
<event>
 5   0  0.3338758E-06  0.2299096E+04  0.7818609E-02  0.8478278E-01
        1   -1    0    0  501    0  0.00000000000E+00  0.00000000000E+00  0.10616774948E+04  0.10616774948E+04  0.50400001928E-02 0. -1.
       -1   -1    0    0    0  501  0.00000000000E+00  0.00000000000E+00 -0.12446910034E+04  0.12446910034E+04  0.50400001928E-02 0.  1.
    10030    2    1    2    0    0  0.00000000000E+00  0.00000000000E+00 -0.18301350864E+03  0.23063684982E+04  0.22990958452E+04 0.  0.
        5    1    3    3  502    0  0.13071022706E+03 -0.11321192453E+04 -0.24251260911E+03  0.11651667711E+04  0.46999998093E+01 0.  1.
       -5    1    3    3    0  502 -0.13071022706E+03  0.11321192453E+04  0.59499100466E+02  0.11412017271E+04  0.46999998093E+01 0. -1.
</event>
<event>
 5   0  0.7348107E-06  0.2300610E+04  0.7818609E-02  0.8477681E-01
        2   -1    0    0  501    0  0.00000000000E+00  0.00000000000E+00  0.11651550706E+04  0.11651550706E+04  0.25500000920E-02 0. -1.
       -2   -1    0    0    0  501  0.00000000000E+00  0.00000000000E+00 -0.11356445107E+04  0.11356445108E+04  0.25500000920E-02 0.  1.
    10030    2    1    2    0    0  0.00000000000E+00  0.00000000000E+00  0.29510559884E+02  0.23007995814E+04  0.23006103191E+04 0.  0.
        3    1    3    3  502    0 -0.59335262825E+03 -0.53101606863E+03 -0.81546754343E+03  0.11397511707E+04  0.10100000352E+00 0.  1.
       -3    1    3    3    0  502  0.59335262825E+03  0.53101606863E+03  0.84497810332E+03  0.11610484107E+04  0.10100000352E+00 0. -1.
</event>
<event>
 5   0  0.7044981E-06  0.2307319E+04  0.7818609E-02  0.8475041E-01
       -2   -1    0    0    0  501  0.00000000000E+00  0.00000000000E+00  0.64724418646E+03  0.64724418647E+03  0.25500000920E-02 0.  1.
        2   -1    0    0  501    0  0.00000000000E+00  0.00000000000E+00 -0.20563031012E+04  0.20563031012E+04  0.25500000920E-02 0. -1.
    10030    2    1    2    0    0  0.00000000000E+00  0.00000000000E+00 -0.14090589148E+04  0.27035472877E+04  0.23073189878E+04 0.  0.
        4    1    3    3  502    0  0.10909784005E+04 -0.11765856546E+03 -0.11218537169E+04  0.15692784276E+04  0.12699999809E+01 0. -1.
       -4    1    3    3    0  502 -0.10909784005E+04  0.11765856546E+03 -0.28720519783E+03  0.11342688601E+04  0.12699999809E+01 0.  1.
</event>
<event>
 5   0  0.7497344E-06  0.2304134E+04  0.7818609E-02  0.8476293E-01
       -2   -1    0    0    0  501  0.00000000000E+00  0.00000000000E+00  0.61205233462E+03  0.61205233463E+03  0.25500000920E-02 0.  1.
        2   -1    0    0  501    0  0.00000000000E+00  0.00000000000E+00 -0.21685381570E+04  0.21685381570E+04  0.25500000920E-02 0. -1.
    10030    2    1    2    0    0  0.00000000000E+00  0.00000000000E+00 -0.15564858223E+04  0.27805904916E+04  0.23041344073E+04 0.  0.
        5    1    3    3  502    0  0.83029491363E+02 -0.51751021326E+03 -0.20163141866E+04  0.20833280361E+04  0.46999998093E+01 0. -1.
       -5    1    3    3    0  502 -0.83029491363E+02  0.51751021326E+03  0.45982836421E+03  0.69726245546E+03  0.46999998093E+01 0.  1.
</event>
<event>
 5   0  0.3338758E-06  0.2293765E+04  0.7818609E-02  0.8480384E-01
       -1   -1    0    0    0  501  0.00000000000E+00  0.00000000000E+00  0.70610553278E+03  0.70610553280E+03  0.50400001928E-02 0.  1.
        1   -1    0    0  501    0  0.00000000000E+00  0.00000000000E+00 -0.18628081595E+04  0.18628081595E+04  0.50400001928E-02 0. -1.
    10030    2    1    2    0    0  0.00000000000E+00  0.00000000000E+00 -0.11567026267E+04  0.25689136923E+04  0.22937647203E+04 0.  0.
        5    1    3    3  502    0 -0.26012462851E+03 -0.10573789767E+04 -0.17516443638E+03  0.11029142272E+04  0.46999998093E+01 0. -1.
       -5    1    3    3    0  502  0.26012462851E+03  0.10573789767E+04 -0.98153819037E+03  0.14659994652E+04  0.46999998093E+01 0.  1.
</event>
<event>
 5   0  0.7348107E-06  0.2302887E+04  0.7818609E-02  0.8476784E-01
       -2   -1    0    0    0  501  0.00000000000E+00  0.00000000000E+00  0.11395992010E+04  0.11395992010E+04  0.25500000920E-02 0.  1.
        2   -1    0    0  501    0  0.00000000000E+00  0.00000000000E+00 -0.11634109804E+04  0.11634109804E+04  0.25500000920E-02 0. -1.
    10030    2    1    2    0    0  0.00000000000E+00  0.00000000000E+00 -0.23811779359E+02  0.23030101814E+04  0.23028870781E+04 0.  0.
        3    1    3    3  502    0  0.68236618898E+03 -0.92533522512E+03  0.50972893825E+02  0.11508549608E+04  0.10100000352E+00 0. -1.
       -3    1    3    3    0  502 -0.68236618898E+03  0.92533522512E+03 -0.74784673184E+02  0.11521552206E+04  0.10100000352E+00 0.  1.
</event>
<event>
 5   0  0.7242214E-06  0.2297458E+04  0.7818609E-02  0.8478924E-01
       -2   -1    0    0    0  501  0.00000000000E+00  0.00000000000E+00  0.11372272532E+04  0.11372272532E+04  0.25500000920E-02 0.  1.
        2   -1    0    0  501    0  0.00000000000E+00  0.00000000000E+00 -0.11603473702E+04  0.11603473702E+04  0.25500000920E-02 0. -1.
    10030    2    1    2    0    0  0.00000000000E+00  0.00000000000E+00 -0.23120116986E+02  0.22975746233E+04  0.22974582934E+04 0.  0.
        1    1    3    3  502    0 -0.27782067874E+02 -0.42559297862E+03  0.10551135745E+04  0.11380535497E+04  0.50400001928E-02 0.  1.
       -1    1    3    3    0  502  0.27782067874E+02  0.42559297862E+03 -0.10782336915E+04  0.11595210737E+04  0.50400001928E-02 0. -1.
</event>
<event>
 5   0  0.7044981E-06  0.2302159E+04  0.7818609E-02  0.8477070E-01
        2   -1    0    0  501    0  0.00000000000E+00  0.00000000000E+00  0.93380434401E+03  0.93380434401E+03  0.25500000920E-02 0.  1.
       -2   -1    0    0    0  501  0.00000000000E+00  0.00000000000E+00 -0.14189101455E+04  0.14189101455E+04  0.25500000920E-02 0. -1.
    10030    2    1    2    0    0  0.00000000000E+00  0.00000000000E+00 -0.48510580152E+03  0.23527144895E+04  0.23021593843E+04 0.  0.
        4    1    3    3  502    0 -0.77683603790E+03  0.25273779159E+03  0.58620061190E+03  0.10054766986E+04  0.12699999809E+01 0.  1.
       -4    1    3    3    0  502  0.77683603790E+03 -0.25273779159E+03 -0.10713064134E+04  0.13472377910E+04  0.12699999809E+01 0. -1.
</event>
<event>
 5   0  0.7242214E-06  0.2299096E+04  0.7818609E-02  0.8478278E-01
        2   -1    0    0  501    0  0.00000000000E+00  0.00000000000E+00  0.18497522980E+04  0.18497522980E+04  0.25500000920E-02 0.  1.
       -2   -1    0    0    0  501  0.00000000000E+00  0.00000000000E+00 -0.71439848261E+03  0.71439848261E+03  0.25500000920E-02 0. -1.
    10030    2    1    2    0    0  0.00000000000E+00  0.00000000000E+00  0.11353538154E+04  0.25641507806E+04  0.22990956787E+04 0.  0.
        1    1    3    3  502    0  0.27639147417E+03 -0.82005763080E+03 -0.27624473576E+03  0.90840405046E+03  0.50400001928E-02 0. -1.
       -1    1    3    3    0  502 -0.27639147417E+03  0.82005763080E+03  0.14115985512E+04  0.16557467302E+04  0.50400001928E-02 0.  1.
</event>
<event>
 5   0  0.7348107E-06  0.2299500E+04  0.7818609E-02  0.8478118E-01
       -2   -1    0    0    0  501  0.00000000000E+00  0.00000000000E+00  0.10667326166E+04  0.10667326166E+04  0.25500000920E-02 0.  1.
        2   -1    0    0  501    0  0.00000000000E+00  0.00000000000E+00 -0.12392283105E+04  0.12392283106E+04  0.25500000920E-02 0. -1.
    10030    2    1    2    0    0  0.00000000000E+00  0.00000000000E+00 -0.17249569399E+03  0.23059609271E+04  0.22995001702E+04 0.  0.
        3    1    3    3  502    0  0.97720895799E+03 -0.57440831097E+03  0.10675847349E+03  0.11385427691E+04  0.10100000352E+00 0. -1.
       -3    1    3    3    0  502 -0.97720895799E+03  0.57440831097E+03 -0.27925416748E+03  0.11674181580E+04  0.10100000352E+00 0.  1.
</event>
<event>
 5   0  0.7003852E-06  0.2252311E+04  0.7818609E-02  0.8496965E-01
       -2   -1    0    0    0  501  0.00000000000E+00  0.00000000000E+00  0.84736577149E+03  0.84736577150E+03  0.25500000920E-02 0. -1.
        2   -1    0    0  501    0  0.00000000000E+00  0.00000000000E+00 -0.14966689546E+04  0.14966689546E+04  0.25500000920E-02 0.  1.
    10030    2    1    2    0    0  0.00000000000E+00  0.00000000000E+00 -0.64930318312E+03  0.23440347261E+04  0.22523108519E+04 0.  0.
        2    1    3    3  502    0 -0.25135353277E+03  0.27604359196E+03 -0.14303923715E+04  0.14783101838E+04  0.25500000920E-02 0.  1.
       -2    1    3    3    0  502  0.25135353277E+03 -0.27604359196E+03  0.78108918833E+03  0.86572454235E+03  0.25500000920E-02 0. -1.
</event>
<event>
 5   0  0.7242214E-06  0.2303376E+04  0.7818609E-02  0.8476591E-01
        2   -1    0    0  501    0  0.00000000000E+00  0.00000000000E+00  0.77214958646E+03  0.77214958646E+03  0.25500000920E-02 0. -1.
       -2   -1    0    0    0  501  0.00000000000E+00  0.00000000000E+00 -0.17177824290E+04  0.17177824290E+04  0.25500000920E-02 0.  1.
    10030    2    1    2    0    0  0.00000000000E+00  0.00000000000E+00 -0.94563284250E+03  0.24899320154E+04  0.23033757767E+04 0.  0.
        1    1    3    3  502    0 -0.75376599415E+03 -0.74951473462E+03  0.63078114194E+01  0.10630029632E+04  0.50400001928E-02 0. -1.
       -1    1    3    3    0  502  0.75376599415E+03  0.74951473462E+03 -0.95194065392E+03  0.14269290522E+04  0.50400001928E-02 0.  1.
</event>
<event>
 5   0  0.7003852E-06  0.2301920E+04  0.7818609E-02  0.8477164E-01
        2   -1    0    0  501    0  0.00000000000E+00  0.00000000000E+00  0.20582242202E+04  0.20582242202E+04  0.25500000920E-02 0.  1.
       -2   -1    0    0    0  501  0.00000000000E+00  0.00000000000E+00 -0.64361753003E+03  0.64361753004E+03  0.25500000920E-02 0. -1.
    10030    2    1    2    0    0  0.00000000000E+00  0.00000000000E+00  0.14146066902E+04  0.27018417503E+04  0.23019202322E+04 0.  0.
        2    1    3    3  502    0  0.52693647878E+03  0.54873877969E+03  0.17210268489E+04  0.18816773676E+04  0.25500000920E-02 0.  1.
       -2    1    3    3    0  502 -0.52693647878E+03 -0.54873877969E+03 -0.30642015869E+03  0.82016438271E+03  0.25500000920E-02 0. -1.
</event>
<event>
 5   0  0.3184492E-06  0.2297794E+04  0.7818609E-02  0.8478792E-01
       -1   -1    0    0    0  501  0.00000000000E+00  0.00000000000E+00  0.69113494095E+03  0.69113494097E+03  0.50400001928E-02 0.  1.
        1   -1    0    0  501    0  0.00000000000E+00  0.00000000000E+00 -0.19098498586E+04  0.19098498586E+04  0.50400001928E-02 0. -1.
    10030    2    1    2    0    0  0.00000000000E+00  0.00000000000E+00 -0.12187149177E+04  0.26009847996E+04  0.22977936977E+04 0.  0.
        1    1    3    3  502    0  0.65074910457E+02 -0.31838519536E+03 -0.18567424768E+04  0.18849659153E+04  0.50400001928E-02 0. -1.
       -1    1    3    3    0  502 -0.65074910457E+02  0.31838519536E+03  0.63802755908E+03  0.71601888436E+03  0.50400001928E-02 0.  1.
</event>
<event>
 5   0  0.3195296E-06  0.2294286E+04  0.7818609E-02  0.8480177E-01
       -1   -1    0    0    0  501  0.00000000000E+00  0.00000000000E+00  0.10193276842E+04  0.10193276842E+04  0.50400001928E-02 0. -1.
        1   -1    0    0  501    0  0.00000000000E+00  0.00000000000E+00 -0.12909853761E+04  0.12909853761E+04  0.50400001928E-02 0.  1.
    10030    2    1    2    0    0  0.00000000000E+00  0.00000000000E+00 -0.27165769193E+03  0.23103130603E+04  0.22942860621E+04 0.  0.
        2    1    3    3  502    0 -0.35392733367E+03 -0.10879979478E+04 -0.21967539167E+03  0.11650156092E+04  0.25500000920E-02 0.  1.
       -2    1    3    3    0  502  0.35392733367E+03  0.10879979478E+04 -0.51982300258E+02  0.11452974511E+04  0.25500000920E-02 0. -1.
</event>
<event>
 5   0  0.3226427E-06  0.2297999E+04  0.7818609E-02  0.8478711E-01
        1   -1    0    0  501    0  0.00000000000E+00  0.00000000000E+00  0.93908598939E+03  0.93908598940E+03  0.50400001928E-02 0.  1.
       -1   -1    0    0    0  501  0.00000000000E+00  0.00000000000E+00 -0.14058345609E+04  0.14058345609E+04  0.50400001928E-02 0. -1.
    10030    2    1    2    0    0  0.00000000000E+00  0.00000000000E+00 -0.46674857153E+03  0.23449205503E+04  0.22979987290E+04 0.  0.
        4    1    3    3  502    0  0.82485768840E+03  0.69309615530E+03 -0.64080818553E+03  0.12535586265E+04  0.12699999809E+01 0. -1.
       -4    1    3    3    0  502 -0.82485768840E+03 -0.69309615530E+03  0.17405961399E+03  0.10913619238E+04  0.12699999809E+01 0.  1.
</event>
<event>
 5   0  0.3338758E-06  0.2300617E+04  0.7818609E-02  0.8477678E-01
       -1   -1    0    0    0  501  0.00000000000E+00  0.00000000000E+00  0.14996998932E+04  0.14996998932E+04  0.50400001928E-02 0.  1.
        1   -1    0    0  501    0  0.00000000000E+00  0.00000000000E+00 -0.88231599941E+03  0.88231599942E+03  0.50400001928E-02 0. -1.
    10030    2    1    2    0    0  0.00000000000E+00  0.00000000000E+00  0.61738389377E+03  0.23820158926E+04  0.23006166218E+04 0.  0.
        5    1    3    3  502    0 -0.11223000320E+04  0.24690541195E+03  0.36216692834E+03  0.12048678842E+04  0.46999998093E+01 0. -1.
       -5    1    3    3    0  502  0.11223000320E+04 -0.24690541195E+03  0.25521696543E+03  0.11771480084E+04  0.46999998093E+01 0.  1.
</event>
<event>
 5   0  0.7348107E-06  0.2294968E+04  0.7818609E-02  0.8479908E-01
        2   -1    0    0  501    0  0.00000000000E+00  0.00000000000E+00  0.26370373140E+04  0.26370373140E+04  0.25500000920E-02 0.  1.
       -2   -1    0    0    0  501  0.00000000000E+00  0.00000000000E+00 -0.49931790988E+03  0.49931790989E+03  0.25500000920E-02 0. -1.
    10030    2    1    2    0    0  0.00000000000E+00  0.00000000000E+00  0.21377194041E+04  0.31363552239E+04  0.22949683744E+04 0.  0.
        3    1    3    3  502    0  0.65486007967E+03  0.94223785850E+03  0.10799658755E+04  0.15757475078E+04  0.10100000352E+00 0. -1.
       -3    1    3    3    0  502 -0.65486007967E+03 -0.94223785850E+03  0.10577535286E+04  0.15606077160E+04  0.10100000352E+00 0.  1.
</event>
<event>
 5   0  0.7348107E-06  0.2302787E+04  0.7818609E-02  0.8476823E-01
       -2   -1    0    0    0  501  0.00000000000E+00  0.00000000000E+00  0.57580183246E+03  0.57580183246E+03  0.25500000920E-02 0. -1.
        2   -1    0    0  501    0  0.00000000000E+00  0.00000000000E+00 -0.23023675847E+04  0.23023675847E+04  0.25500000920E-02 0.  1.
    10030    2    1    2    0    0  0.00000000000E+00  0.00000000000E+00 -0.17265657522E+04  0.28781694172E+04  0.23027874190E+04 0.  0.
        3    1    3    3  502    0  0.86973490029E+03 -0.27606565426E+03  0.14345821687E+02  0.91260991395E+03  0.10100000352E+00 0.  1.
       -3    1    3    3    0  502 -0.86973490029E+03  0.27606565426E+03 -0.17409115739E+04  0.19655595032E+04  0.10100000352E+00 0. -1.
</event>
<event>
 5   0  0.3238713E-06  0.2300699E+04  0.7818609E-02  0.8477646E-01
       -1   -1    0    0    0  501  0.00000000000E+00  0.00000000000E+00  0.15371131254E+04  0.15371131255E+04  0.50400001928E-02 0. -1.
        1   -1    0    0  501    0  0.00000000000E+00  0.00000000000E+00 -0.86090222972E+03  0.86090222973E+03  0.50400001928E-02 0.  1.
    10030    2    1    2    0    0  0.00000000000E+00  0.00000000000E+00  0.67621089573E+03  0.23980153552E+04  0.23006991260E+04 0.  0.
        3    1    3    3  502    0 -0.76247189692E+03  0.83216020884E+03  0.56988532034E+03  0.12643667566E+04  0.10100000352E+00 0.  1.
       -3    1    3    3    0  502  0.76247189692E+03 -0.83216020884E+03  0.10632557539E+03  0.11336485985E+04  0.10100000352E+00 0. -1.
</event>
<event>
 5   0  0.3226427E-06  0.2298935E+04  0.7818609E-02  0.8478341E-01
       -1   -1    0    0    0  501  0.00000000000E+00  0.00000000000E+00  0.13253893908E+04  0.13253893908E+04  0.50400001928E-02 0. -1.
        1   -1    0    0  501    0  0.00000000000E+00  0.00000000000E+00 -0.99689613134E+03  0.99689613135E+03  0.50400001928E-02 0.  1.
    10030    2    1    2    0    0  0.00000000000E+00  0.00000000000E+00  0.32849325944E+03  0.23222855221E+04  0.22989350197E+04 0.  0.
        4    1    3    3  502    0  0.33577880497E+03 -0.99100229794E+03  0.64493812062E+03  0.12291378087E+04  0.12699999809E+01 0. -1.
       -4    1    3    3    0  502 -0.33577880497E+03  0.99100229794E+03 -0.31644486118E+03  0.10931477135E+04  0.12699999809E+01 0.  1.
</event>
<event>
 5   0  0.3338758E-06  0.2300247E+04  0.7818609E-02  0.8477824E-01
       -1   -1    0    0    0  501  0.00000000000E+00  0.00000000000E+00  0.10201579035E+04  0.10201579035E+04  0.50400001928E-02 0. -1.
        1   -1    0    0  501    0  0.00000000000E+00  0.00000000000E+00 -0.12966464791E+04  0.12966464792E+04  0.50400001928E-02 0.  1.
    10030    2    1    2    0    0  0.00000000000E+00  0.00000000000E+00 -0.27648857567E+03  0.23168043826E+04  0.23002470769E+04 0.  0.
        5    1    3    3  502    0  0.59154758842E+03 -0.66435074272E+03 -0.87251281205E+03  0.12460301585E+04  0.46999998093E+01 0.  1.
       -5    1    3    3    0  502 -0.59154758842E+03  0.66435074272E+03  0.59602423638E+03  0.10707742241E+04  0.46999998093E+01 0. -1.
</event>
<event>
 5   0  0.7044981E-06  0.2298939E+04  0.7818609E-02  0.8478339E-01
       -2   -1    0    0    0  501  0.00000000000E+00  0.00000000000E+00  0.64119580231E+03  0.64119580232E+03  0.25500000920E-02 0. -1.
        2   -1    0    0  501    0  0.00000000000E+00  0.00000000000E+00 -0.20606505339E+04  0.20606505339E+04  0.25500000920E-02 0.  1.
    10030    2    1    2    0    0  0.00000000000E+00  0.00000000000E+00 -0.14194547316E+04  0.27018463362E+04  0.22989392966E+04 0.  0.
        4    1    3    3  502    0 -0.30780381644E+03  0.74288630224E+03 -0.16750538251E+04  0.18580716287E+04  0.12699999809E+01 0.  1.
       -4    1    3    3    0  502  0.30780381644E+03 -0.74288630224E+03  0.25559909355E+03  0.84377470749E+03  0.12699999809E+01 0. -1.
</event>
<event>
 5   0  0.7044981E-06  0.2298764E+04  0.7818609E-02  0.8478409E-01
       -2   -1    0    0    0  501  0.00000000000E+00  0.00000000000E+00  0.16366894972E+04  0.16366894972E+04  0.25500000920E-02 0. -1.
        2   -1    0    0  501    0  0.00000000000E+00  0.00000000000E+00 -0.80716527548E+03  0.80716527549E+03  0.25500000920E-02 0.  1.
    10030    2    1    2    0    0  0.00000000000E+00  0.00000000000E+00  0.82952422173E+03  0.24438547727E+04  0.22987639539E+04 0.  0.
        4    1    3    3  502    0 -0.25916532572E+03 -0.33998137806E+03  0.15490252813E+04  0.16069333958E+04  0.12699999809E+01 0. -1.
       -4    1    3    3    0  502  0.25916532572E+03  0.33998137806E+03 -0.71950105958E+03  0.83692137691E+03  0.12699999809E+01 0.  1.
</event>
<event>
 5   0  0.7348107E-06  0.2300352E+04  0.7818609E-02  0.8477782E-01
       -2   -1    0    0    0  501  0.00000000000E+00  0.00000000000E+00  0.83153097313E+03  0.83153097313E+03  0.25500000920E-02 0. -1.
        2   -1    0    0  501    0  0.00000000000E+00  0.00000000000E+00 -0.15909268146E+04  0.15909268146E+04  0.25500000920E-02 0.  1.
    10030    2    1    2    0    0  0.00000000000E+00  0.00000000000E+00 -0.75939584151E+03  0.24224577878E+04  0.23003520794E+04 0.  0.
        3    1    3    3  502    0 -0.29752527164E+03 -0.38780560614E+03  0.71671622867E+03  0.86752327810E+03  0.10100000352E+00 0. -1.
       -3    1    3    3    0  502  0.29752527164E+03  0.38780560614E+03 -0.14761120702E+04  0.15549345097E+04  0.10100000352E+00 0.  1.
</event>
<event>
 5   0  0.3184492E-06  0.2306218E+04  0.7818609E-02  0.8475473E-01
       -1   -1    0    0    0  501  0.00000000000E+00  0.00000000000E+00  0.15122614879E+04  0.15122614880E+04  0.50400001928E-02 0.  1.
        1   -1    0    0  501    0  0.00000000000E+00  0.00000000000E+00 -0.87925331979E+03  0.87925331980E+03  0.50400001928E-02 0. -1.
    10030    2    1    2    0    0  0.00000000000E+00  0.00000000000E+00  0.63300816815E+03  0.23915148078E+04  0.23062184924E+04 0.  0.
        1    1    3    3  502    0  0.65410971982E+03 -0.76788318555E+03 -0.26286996542E+03  0.10424033437E+04  0.50400001928E-02 0. -1.
       -1    1    3    3    0  502 -0.65410971982E+03  0.76788318555E+03  0.89587813357E+03  0.13491114641E+04  0.50400001928E-02 0.  1.
</event>
<event>
 5   0  0.7044981E-06  0.2308773E+04  0.7818609E-02  0.8474470E-01
        2   -1    0    0  501    0  0.00000000000E+00  0.00000000000E+00  0.14610914147E+04  0.14610914147E+04  0.25500000920E-02 0.  1.
       -2   -1    0    0    0  501  0.00000000000E+00  0.00000000000E+00 -0.91206384832E+03  0.91206384833E+03  0.25500000920E-02 0. -1.
    10030    2    1    2    0    0  0.00000000000E+00  0.00000000000E+00  0.54902756640E+03  0.23731552631E+04  0.23087734046E+04 0.  0.
        4    1    3    3  502    0  0.10234279516E+04  0.97569113524E+02 -0.26518255777E+03  0.10617193160E+04  0.12699999809E+01 0. -1.
       -4    1    3    3    0  502 -0.10234279516E+04 -0.97569113524E+02  0.81421012417E+03  0.13114359471E+04  0.12699999809E+01 0.  1.
</event>
<event>
 5   0  0.3226427E-06  0.2301294E+04  0.7818609E-02  0.8477411E-01
       -1   -1    0    0    0  501  0.00000000000E+00  0.00000000000E+00  0.94225126234E+03  0.94225126235E+03  0.50400001928E-02 0. -1.
        1   -1    0    0  501    0  0.00000000000E+00  0.00000000000E+00 -0.14051333780E+04  0.14051333780E+04  0.50400001928E-02 0.  1.
    10030    2    1    2    0    0  0.00000000000E+00  0.00000000000E+00 -0.46288211563E+03  0.23473846403E+04  0.23012941569E+04 0.  0.
        4    1    3    3  502    0 -0.99608337818E+03  0.16518639663E+03 -0.79432508505E+03  0.12846877424E+04  0.12699999809E+01 0.  1.
       -4    1    3    3    0  502  0.99608337818E+03 -0.16518639663E+03  0.33144296942E+03  0.10626968979E+04  0.12699999809E+01 0. -1.
</event>
<event>
 5   0  0.7242214E-06  0.2292967E+04  0.7818609E-02  0.8480699E-01
        2   -1    0    0  501    0  0.00000000000E+00  0.00000000000E+00  0.96487964423E+03  0.96487964423E+03  0.25500000920E-02 0.  1.
       -2   -1    0    0    0  501  0.00000000000E+00  0.00000000000E+00 -0.13622675844E+04  0.13622675844E+04  0.25500000920E-02 0. -1.
    10030    2    1    2    0    0  0.00000000000E+00  0.00000000000E+00 -0.39738794019E+03  0.23271472287E+04  0.22929668661E+04 0.  0.
        1    1    3    3  502    0  0.78859525383E+03 -0.60651631400E+03 -0.77699462158E+03  0.12623252970E+04  0.50400001928E-02 0. -1.
       -1    1    3    3    0  502 -0.78859525383E+03  0.60651631400E+03  0.37960668139E+03  0.10648219316E+04  0.50400001928E-02 0.  1.
</event>
<event>
 5   0  0.7497344E-06  0.2296294E+04  0.7818609E-02  0.8479384E-01
       -2   -1    0    0    0  501  0.00000000000E+00  0.00000000000E+00  0.10679319722E+04  0.10679319722E+04  0.25500000920E-02 0.  1.
        2   -1    0    0  501    0  0.00000000000E+00  0.00000000000E+00 -0.12343871664E+04  0.12343871664E+04  0.25500000920E-02 0. -1.
    10030    2    1    2    0    0  0.00000000000E+00  0.00000000000E+00 -0.16645519422E+03  0.23023191386E+04  0.22962939891E+04 0.  0.
        5    1    3    3  502    0  0.51101913767E+03  0.86124789902E+03  0.47978915807E+03  0.11104540643E+04  0.46999998093E+01 0.  1.
       -5    1    3    3    0  502 -0.51101913767E+03 -0.86124789902E+03 -0.64624435229E+03  0.11918650744E+04  0.46999998093E+01 0. -1.
</event>
<event>
 5   0  0.3184492E-06  0.2300880E+04  0.7818609E-02  0.8477574E-01
        1   -1    0    0  501    0  0.00000000000E+00  0.00000000000E+00  0.12672718995E+04  0.12672718995E+04  0.50400001928E-02 0.  1.
       -1   -1    0    0    0  501  0.00000000000E+00  0.00000000000E+00 -0.10443794633E+04  0.10443794633E+04  0.50400001928E-02 0. -1.
    10030    2    1    2    0    0  0.00000000000E+00  0.00000000000E+00  0.22289243616E+03  0.23116513628E+04  0.23008804804E+04 0.  0.
        1    1    3    3  502    0 -0.83033404116E+02 -0.36979800169E+03 -0.97985570472E+03  0.10506009282E+04  0.50400001928E-02 0. -1.
       -1    1    3    3    0  502  0.83033404116E+02  0.36979800169E+03  0.12027481409E+04  0.12610504346E+04  0.50400001928E-02 0.  1.
</event>
<event>
 5   0  0.3184492E-06  0.2293347E+04  0.7818609E-02  0.8480549E-01
       -1   -1    0    0    0  501  0.00000000000E+00  0.00000000000E+00  0.16615103818E+04  0.16615103818E+04  0.50400001928E-02 0.  1.
        1   -1    0    0  501    0  0.00000000000E+00  0.00000000000E+00 -0.79136415841E+03  0.79136415843E+03  0.50400001928E-02 0. -1.
    10030    2    1    2    0    0  0.00000000000E+00  0.00000000000E+00  0.87014622338E+03  0.24528745402E+04  0.22933466943E+04 0.  0.
        1    1    3    3  502    0 -0.22253946327E+03 -0.18656123099E+03  0.16215297661E+04  0.16473274380E+04  0.50400001928E-02 0.  1.
       -1    1    3    3    0  502  0.22253946327E+03  0.18656123099E+03 -0.75138354272E+03  0.80554710223E+03  0.50400001928E-02 0. -1.
</event>
<event>
 5   0  0.3226427E-06  0.2301308E+04  0.7818609E-02  0.8477406E-01
       -1   -1    0    0    0  501  0.00000000000E+00  0.00000000000E+00  0.11534885664E+04  0.11534885664E+04  0.50400001928E-02 0.  1.
        1   -1    0    0  501    0  0.00000000000E+00  0.00000000000E+00 -0.11478265373E+04  0.11478265373E+04  0.50400001928E-02 0. -1.
    10030    2    1    2    0    0  0.00000000000E+00  0.00000000000E+00  0.56620291681E+01  0.23013151037E+04  0.23013081384E+04 0.  0.
        4    1    3    3  502    0  0.47710761021E+03 -0.17468245576E+03 -0.10295758790E+04  0.11481174747E+04  0.12699999809E+01 0. -1.
       -4    1    3    3    0  502 -0.47710761021E+03  0.17468245576E+03  0.10352379082E+04  0.11531976290E+04  0.12699999809E+01 0.  1.
</event>
<event>
 5   0  0.7044981E-06  0.2299667E+04  0.7818609E-02  0.8478053E-01
       -2   -1    0    0    0  501  0.00000000000E+00  0.00000000000E+00  0.62782616780E+03  0.62782616780E+03  0.25500000920E-02 0.  1.
        2   -1    0    0  501    0  0.00000000000E+00  0.00000000000E+00 -0.21058643175E+04  0.21058643175E+04  0.25500000920E-02 0. -1.
    10030    2    1    2    0    0  0.00000000000E+00  0.00000000000E+00 -0.14780381497E+04  0.27336904853E+04  0.22996666927E+04 0.  0.
        4    1    3    3  502    0  0.23884931623E+03 -0.73376925159E+03  0.27430118708E+03  0.81896829278E+03  0.12699999809E+01 0.  1.
       -4    1    3    3    0  502 -0.23884931623E+03  0.73376925159E+03 -0.17523393367E+04  0.19147221925E+04  0.12699999809E+01 0. -1.
</event>
<event>
 5   0  0.3184492E-06  0.2291701E+04  0.7818609E-02  0.8481200E-01
        1   -1    0    0  501    0  0.00000000000E+00  0.00000000000E+00  0.11177515926E+04  0.11177515926E+04  0.50400001928E-02 0. -1.
       -1   -1    0    0    0  501  0.00000000000E+00  0.00000000000E+00 -0.11746557744E+04  0.11746557744E+04  0.50400001928E-02 0.  1.
    10030    2    1    2    0    0  0.00000000000E+00  0.00000000000E+00 -0.56904181761E+02  0.22924073670E+04  0.22917009950E+04 0.  0.
        1    1    3    3  502    0  0.20202719391E+02  0.22238987639E+02  0.11173574941E+04  0.11177613753E+04  0.50400001928E-02 0. -1.
       -1    1    3    3    0  502 -0.20202719391E+02 -0.22238987639E+02 -0.11742616759E+04  0.11746459917E+04  0.50400001928E-02 0.  1.
</event>
<event>
 5   0  0.7044981E-06  0.2298139E+04  0.7818609E-02  0.8478655E-01
       -2   -1    0    0    0  501  0.00000000000E+00  0.00000000000E+00  0.94461782590E+03  0.94461782591E+03  0.25500000920E-02 0. -1.
        2   -1    0    0  501    0  0.00000000000E+00  0.00000000000E+00 -0.13977725271E+04  0.13977725271E+04  0.25500000920E-02 0.  1.
    10030    2    1    2    0    0  0.00000000000E+00  0.00000000000E+00 -0.45315470119E+03  0.23423903530E+04  0.22981391130E+04 0.  0.
        4    1    3    3  502    0 -0.46519583159E+03 -0.82677153685E+03  0.43429072569E+03  0.10433448055E+04  0.12699999809E+01 0. -1.
       -4    1    3    3    0  502  0.46519583159E+03  0.82677153685E+03 -0.88744542688E+03  0.12990455475E+04  0.12699999809E+01 0.  1.
</event>
<event>
 5   0  0.2519625E-06  0.2300794E+04  0.7818609E-02  0.8477608E-01
        3   -1    0    0  501    0  0.00000000000E+00  0.00000000000E+00  0.12254065598E+04  0.12254065639E+04  0.10100000352E+00 0.  1.
       -3   -1    0    0    0  501  0.00000000000E+00  0.00000000000E+00 -0.10799790227E+04  0.10799790274E+04  0.10100000352E+00 0. -1.
    10030    2    1    2    0    0  0.00000000000E+00  0.00000000000E+00  0.14542753704E+03  0.23053855913E+04  0.23007941143E+04 0.  0.
        2    1    3    3  502    0 -0.71192312539E+03  0.23024722465E+03 -0.80285213881E+03  0.10974606497E+04  0.25500000920E-02 0. -1.
       -2    1    3    3    0  502  0.71192312539E+03 -0.23024722465E+03  0.94827967585E+03  0.12079249416E+04  0.25500000920E-02 0.  1.
</event>
<event>
 5   0  0.7348107E-06  0.2304304E+04  0.7818609E-02  0.8476226E-01
       -2   -1    0    0    0  501  0.00000000000E+00  0.00000000000E+00  0.10812711410E+04  0.10812711410E+04  0.25500000920E-02 0.  1.
        2   -1    0    0  501    0  0.00000000000E+00  0.00000000000E+00 -0.12276792979E+04  0.12276792979E+04  0.25500000920E-02 0. -1.
    10030    2    1    2    0    0  0.00000000000E+00  0.00000000000E+00 -0.14640815687E+03  0.23089504389E+04  0.23043039689E+04 0.  0.
        3    1    3    3  502    0  0.15064336534E+03  0.83271352713E+03  0.71026060807E+03  0.11047965348E+04  0.10100000352E+00 0.  1.
       -3    1    3    3    0  502 -0.15064336534E+03 -0.83271352713E+03 -0.85666876494E+03  0.12041539041E+04  0.10100000352E+00 0. -1.
</event>
<event>
 5   0  0.3184492E-06  0.2293288E+04  0.7818609E-02  0.8480572E-01
       -1   -1    0    0    0  501  0.00000000000E+00  0.00000000000E+00  0.11036015649E+04  0.11036015649E+04  0.50400001928E-02 0.  1.
        1   -1    0    0  501    0  0.00000000000E+00  0.00000000000E+00 -0.11913651693E+04  0.11913651693E+04  0.50400001928E-02 0. -1.
    10030    2    1    2    0    0  0.00000000000E+00  0.00000000000E+00 -0.87763604325E+02  0.22949667342E+04  0.22932880022E+04 0.  0.
        1    1    3    3  502    0  0.51110883312E+03  0.60881797993E+02 -0.10692555010E+04  0.11866954787E+04  0.50400001928E-02 0. -1.
       -1    1    3    3    0  502 -0.51110883312E+03 -0.60881797993E+02  0.98149189668E+03  0.11082712556E+04  0.50400001928E-02 0.  1.
</event>
<event>
 5   0  0.2519625E-06  0.2298174E+04  0.7818609E-02  0.8478641E-01
       -3   -1    0    0    0  501  0.00000000000E+00  0.00000000000E+00  0.10978273317E+04  0.10978273363E+04  0.10100000352E+00 0.  1.
        3   -1    0    0  501    0  0.00000000000E+00  0.00000000000E+00 -0.12027405034E+04  0.12027405077E+04  0.10100000352E+00 0. -1.
    10030    2    1    2    0    0  0.00000000000E+00  0.00000000000E+00 -0.10491317176E+03  0.23005678440E+04  0.22981744127E+04 0.  0.
        2    1    3    3  502    0 -0.85261716674E+03  0.43424192582E+03 -0.68942054568E+03  0.11793314937E+04  0.25500000920E-02 0. -1.
       -2    1    3    3    0  502  0.85261716674E+03 -0.43424192582E+03  0.58450737391E+03  0.11212363503E+04  0.25500000920E-02 0.  1.
</event>
<event>
 5   0  0.7497344E-06  0.2294696E+04  0.7818609E-02  0.8480015E-01
        2   -1    0    0  501    0  0.00000000000E+00  0.00000000000E+00  0.12696675639E+04  0.12696675639E+04  0.25500000920E-02 0. -1.
       -2   -1    0    0    0  501  0.00000000000E+00  0.00000000000E+00 -0.10368126420E+04  0.10368126420E+04  0.25500000920E-02 0.  1.
    10030    2    1    2    0    0  0.00000000000E+00  0.00000000000E+00  0.23285492188E+03  0.23064802059E+04  0.22946959549E+04 0.  0.
        5    1    3    3  502    0 -0.60552208834E+03  0.28672221517E+03 -0.81976253319E+03  0.10587253322E+04  0.46999998093E+01 0.  1.
       -5    1    3    3    0  502  0.60552208834E+03 -0.28672221517E+03  0.10526174551E+04  0.12477548737E+04  0.46999998093E+01 0. -1.
</event>
<event>
 5   0  0.3184492E-06  0.2299858E+04  0.7818609E-02  0.8477977E-01
       -1   -1    0    0    0  501  0.00000000000E+00  0.00000000000E+00  0.68951980629E+03  0.68951980630E+03  0.50400001928E-02 0. -1.
        1   -1    0    0  501    0  0.00000000000E+00  0.00000000000E+00 -0.19177651539E+04  0.19177651539E+04  0.50400001928E-02 0.  1.
    10030    2    1    2    0    0  0.00000000000E+00  0.00000000000E+00 -0.12282453477E+04  0.26072849602E+04  0.22998583065E+04 0.  0.
        1    1    3    3  502    0 -0.18507365364E+02  0.20792325535E+03 -0.18961059440E+04  0.19075618872E+04  0.50400001928E-02 0.  1.
       -1    1    3    3    0  502  0.18507365364E+02 -0.20792325535E+03  0.66786059637E+03  0.69972307300E+03  0.50400001928E-02 0. -1.
</event>
<event>
 5   0  0.3338758E-06  0.2298413E+04  0.7818609E-02  0.8478547E-01
        1   -1    0    0  501    0  0.00000000000E+00  0.00000000000E+00  0.23506580864E+04  0.23506580865E+04  0.50400001928E-02 0.  1.
       -1   -1    0    0    0  501  0.00000000000E+00  0.00000000000E+00 -0.56183248562E+03  0.56183248565E+03  0.50400001928E-02 0. -1.
    10030    2    1    2    0    0  0.00000000000E+00  0.00000000000E+00  0.17888256008E+04  0.29124905721E+04  0.22984134316E+04 0.  0.
        5    1    3    3  502    0  0.50484573426E+03  0.10076107084E+04  0.60963546910E+03  0.12813376020E+04  0.46999998093E+01 0. -1.
       -5    1    3    3    0  502 -0.50484573426E+03 -0.10076107084E+04  0.11791901317E+04  0.16311529701E+04  0.46999998093E+01 0.  1.
</event>
<event>
 5   0  0.3238713E-06  0.2297139E+04  0.7818609E-02  0.8479050E-01
        1   -1    0    0  501    0  0.00000000000E+00  0.00000000000E+00  0.90760759364E+03  0.90760759365E+03  0.50400001928E-02 0. -1.
       -1   -1    0    0    0  501  0.00000000000E+00  0.00000000000E+00 -0.14535049415E+04  0.14535049415E+04  0.50400001928E-02 0.  1.
    10030    2    1    2    0    0  0.00000000000E+00  0.00000000000E+00 -0.54589734789E+03  0.23611125352E+04  0.22971391968E+04 0.  0.
        3    1    3    3  502    0  0.10230128805E+04  0.41687927740E+03  0.50241527829E+02  0.11058335801E+04  0.10100000352E+00 0. -1.
       -3    1    3    3    0  502 -0.10230128805E+04 -0.41687927740E+03 -0.59613887572E+03  0.12552789550E+04  0.10100000352E+00 0.  1.
</event>
<event>
 5   0  0.7044981E-06  0.2297172E+04  0.7818609E-02  0.8479037E-01
        2   -1    0    0  501    0  0.00000000000E+00  0.00000000000E+00  0.95860057675E+03  0.95860057676E+03  0.25500000920E-02 0.  1.
       -2   -1    0    0    0  501  0.00000000000E+00  0.00000000000E+00 -0.13762242939E+04  0.13762242939E+04  0.25500000920E-02 0. -1.
    10030    2    1    2    0    0  0.00000000000E+00  0.00000000000E+00 -0.41762371711E+03  0.23348248706E+04  0.22971716539E+04 0.  0.
        4    1    3    3  502    0 -0.26572101101E+03  0.11155184463E+04 -0.14248325130E+03  0.11555484194E+04  0.12699999809E+01 0. -1.
       -4    1    3    3    0  502  0.26572101101E+03 -0.11155184463E+04 -0.27514046581E+03  0.11792764513E+04  0.12699999809E+01 0.  1.
</event>
<event>
 5   0  0.3195296E-06  0.2293345E+04  0.7818609E-02  0.8480550E-01
        1   -1    0    0  501    0  0.00000000000E+00  0.00000000000E+00  0.16712133912E+04  0.16712133912E+04  0.50400001928E-02 0.  1.
       -1   -1    0    0    0  501  0.00000000000E+00  0.00000000000E+00 -0.78676805819E+03  0.78676805821E+03  0.50400001928E-02 0. -1.
    10030    2    1    2    0    0  0.00000000000E+00  0.00000000000E+00  0.88444533299E+03  0.24579814494E+04  0.22933445573E+04 0.  0.
        2    1    3    3  502    0 -0.20133272231E+03  0.37882891153E+03  0.15819588190E+04  0.16390972864E+04  0.25500000920E-02 0.  1.
       -2    1    3    3    0  502  0.20133272231E+03 -0.37882891153E+03 -0.69751348599E+03  0.81888416301E+03  0.25500000920E-02 0. -1.
</event>
<event>
 5   0  0.2519625E-06  0.2317392E+04  0.7818609E-02  0.8471095E-01
        3   -1    0    0  501    0  0.00000000000E+00  0.00000000000E+00  0.94158370377E+03  0.94158370919E+03  0.10100000352E+00 0.  1.
       -3   -1    0    0    0  501  0.00000000000E+00  0.00000000000E+00 -0.14258700094E+04  0.14258700130E+04  0.10100000352E+00 0. -1.
    10030    2    1    2    0    0  0.00000000000E+00  0.00000000000E+00 -0.48428630561E+03  0.23674537221E+04  0.23173916157E+04 0.  0.
        5    1    3    3  502    0  0.49106922591E+03  0.60464017098E+03  0.63418433396E+03  0.10044653207E+04  0.46999998093E+01 0.  1.
       -5    1    3    3    0  502 -0.49106922591E+03 -0.60464017098E+03 -0.11184706396E+04  0.13629884015E+04  0.46999998093E+01 0. -1.
</event>
<event>
 5   0  0.7242214E-06  0.2299270E+04  0.7818609E-02  0.8478209E-01
       -2   -1    0    0    0  501  0.00000000000E+00  0.00000000000E+00  0.22323237266E+04  0.22323237266E+04  0.25500000920E-02 0. -1.
        2   -1    0    0  501    0  0.00000000000E+00  0.00000000000E+00 -0.59205588263E+03  0.59205588264E+03  0.25500000920E-02 0.  1.
    10030    2    1    2    0    0  0.00000000000E+00  0.00000000000E+00  0.16402678440E+04  0.28243796093E+04  0.22992697922E+04 0.  0.
        1    1    3    3  502    0 -0.18202545550E+03  0.91032740765E+02 -0.56975104761E+03  0.60500948970E+03  0.50400001928E-02 0.  1.
       -1    1    3    3    0  502  0.18202545550E+03 -0.91032740765E+02  0.22100188916E+04  0.22193701196E+04  0.50400001928E-02 0. -1.
</event>
<event>
 5   0  0.7044981E-06  0.2288962E+04  0.7818609E-02  0.8482286E-01
        2   -1    0    0  501    0  0.00000000000E+00  0.00000000000E+00  0.12065489827E+04  0.12065489827E+04  0.25500000920E-02 0.  1.
       -2   -1    0    0    0  501  0.00000000000E+00  0.00000000000E+00 -0.10856061337E+04  0.10856061337E+04  0.25500000920E-02 0. -1.
    10030    2    1    2    0    0  0.00000000000E+00  0.00000000000E+00  0.12094284905E+03  0.22921551164E+04  0.22889621895E+04 0.  0.
        4    1    3    3  502    0 -0.21572837453E+03 -0.16841916392E+03 -0.10523534898E+04  0.10873606700E+04  0.12699999809E+01 0. -1.
       -4    1    3    3    0  502  0.21572837453E+03  0.16841916392E+03  0.11732963388E+04  0.12047944464E+04  0.12699999809E+01 0.  1.
</event>
<event>
 5   0  0.7044981E-06  0.2299144E+04  0.7818609E-02  0.8478259E-01
        2   -1    0    0  501    0  0.00000000000E+00  0.00000000000E+00  0.16162413302E+04  0.16162413302E+04  0.25500000920E-02 0. -1.
       -2   -1    0    0    0  501  0.00000000000E+00  0.00000000000E+00 -0.81764745384E+03  0.81764745384E+03  0.25500000920E-02 0.  1.
    10030    2    1    2    0    0  0.00000000000E+00  0.00000000000E+00  0.79859387634E+03  0.24338887840E+04  0.22991438480E+04 0.  0.
        4    1    3    3  502    0 -0.74689068432E+03 -0.17331988153E+03 -0.50742200339E+03  0.91943688097E+03  0.12699999809E+01 0.  1.
       -4    1    3    3    0  502  0.74689068432E+03  0.17331988153E+03  0.13060158797E+04  0.15144519030E+04  0.12699999809E+01 0. -1.
</event>
<event>
 5   0  0.7003852E-06  0.2301938E+04  0.7818609E-02  0.8477157E-01
       -2   -1    0    0    0  501  0.00000000000E+00  0.00000000000E+00  0.11922226995E+04  0.11922226995E+04  0.25500000920E-02 0.  1.
        2   -1    0    0  501    0  0.00000000000E+00  0.00000000000E+00 -0.11111427416E+04  0.11111427416E+04  0.25500000920E-02 0. -1.
    10030    2    1    2    0    0  0.00000000000E+00  0.00000000000E+00  0.81079957986E+02  0.23033654411E+04  0.23019379652E+04 0.  0.
        2    1    3    3  502    0 -0.36740263665E+03 -0.24470987689E+03 -0.10230688355E+04  0.11142430002E+04  0.25500000920E-02 0. -1.
       -2    1    3    3    0  502  0.36740263665E+03  0.24470987689E+03  0.11041487935E+04  0.11891224409E+04  0.25500000920E-02 0.  1.
</event>
<event>
 5   0  0.7348107E-06  0.2298172E+04  0.7818609E-02  0.8478642E-01
       -2   -1    0    0    0  501  0.00000000000E+00  0.00000000000E+00  0.60541721776E+03  0.60541721777E+03  0.25500000920E-02 0. -1.
        2   -1    0    0  501    0  0.00000000000E+00  0.00000000000E+00 -0.21809728790E+04  0.21809728790E+04  0.25500000920E-02 0.  1.
    10030    2    1    2    0    0  0.00000000000E+00  0.00000000000E+00 -0.15755556612E+04  0.27863900968E+04  0.22981719104E+04 0.  0.
        3    1    3    3  502    0 -0.98269894932E+03  0.52671800278E+03 -0.11248037452E+04  0.15837653093E+04  0.10100000352E+00 0.  1.
       -3    1    3    3    0  502  0.98269894932E+03 -0.52671800278E+03 -0.45075191599E+03  0.12026247875E+04  0.10100000352E+00 0. -1.
</event>
<event>
 5   0  0.3238713E-06  0.2307613E+04  0.7818609E-02  0.8474925E-01
       -1   -1    0    0    0  501  0.00000000000E+00  0.00000000000E+00  0.79133285545E+03  0.79133285546E+03  0.50400001928E-02 0.  1.
        1   -1    0    0  501    0  0.00000000000E+00  0.00000000000E+00 -0.16823130278E+04  0.16823130279E+04  0.50400001928E-02 0. -1.
    10030    2    1    2    0    0  0.00000000000E+00  0.00000000000E+00 -0.89098017240E+03  0.24736458833E+04  0.23076131150E+04 0.  0.
        3    1    3    3  502    0  0.80018404081E+03  0.37594876298E+03 -0.12402075248E+04  0.15230714646E+04  0.10100000352E+00 0. -1.
       -3    1    3    3    0  502 -0.80018404081E+03 -0.37594876298E+03  0.34922735243E+03  0.95057441868E+03  0.10100000352E+00 0.  1.
</event>
<event>
 5   0  0.3226427E-06  0.2300920E+04  0.7818609E-02  0.8477559E-01
        1   -1    0    0  501    0  0.00000000000E+00  0.00000000000E+00  0.14825424917E+04  0.14825424917E+04  0.50400001928E-02 0. -1.
       -1   -1    0    0    0  501  0.00000000000E+00  0.00000000000E+00 -0.89276222893E+03  0.89276222895E+03  0.50400001928E-02 0.  1.
    10030    2    1    2    0    0  0.00000000000E+00  0.00000000000E+00  0.58978026278E+03  0.23753047207E+04  0.23009197634E+04 0.  0.
        4    1    3    3  502    0  0.30584986125E+03 -0.20431913430E+03  0.14202065904E+04  0.14670646947E+04  0.12699999809E+01 0. -1.
       -4    1    3    3    0  502 -0.30584986125E+03  0.20431913430E+03 -0.83042632759E+03  0.90824002594E+03  0.12699999809E+01 0.  1.
</event>
<event>
 5   0  0.7348107E-06  0.2302435E+04  0.7818609E-02  0.8476962E-01
        2   -1    0    0  501    0  0.00000000000E+00  0.00000000000E+00  0.11083382996E+04  0.11083382996E+04  0.25500000920E-02 0.  1.
       -2   -1    0    0    0  501  0.00000000000E+00  0.00000000000E+00 -0.11957555352E+04  0.11957555352E+04  0.25500000920E-02 0. -1.
    10030    2    1    2    0    0  0.00000000000E+00  0.00000000000E+00 -0.87417235649E+02  0.23040938348E+04  0.23024349342E+04 0.  0.
        3    1    3    3  502    0 -0.74614895684E+03  0.51597934352E+03 -0.75297077840E+03  0.11789562978E+04  0.10100000352E+00 0. -1.
       -3    1    3    3    0  502  0.74614895684E+03 -0.51597934352E+03  0.66555354275E+03  0.11251375370E+04  0.10100000352E+00 0.  1.
</event>
<event>
 5   0  0.7003852E-06  0.2301659E+04  0.7818609E-02  0.8477267E-01
        2   -1    0    0  501    0  0.00000000000E+00  0.00000000000E+00  0.90913630924E+03  0.90913630924E+03  0.25500000920E-02 0. -1.
       -2   -1    0    0    0  501  0.00000000000E+00  0.00000000000E+00 -0.14567761155E+04  0.14567761155E+04  0.25500000920E-02 0.  1.
    10030    2    1    2    0    0  0.00000000000E+00  0.00000000000E+00 -0.54763980627E+03  0.23659124247E+04  0.23016585855E+04 0.  0.
        2    1    3    3  502    0  0.10588239057E+04 -0.42547563969E+03 -0.12042090287E+03  0.11474488124E+04  0.25500000920E-02 0.  1.
       -2    1    3    3    0  502 -0.10588239057E+04  0.42547563969E+03 -0.42721890340E+03  0.12184636124E+04  0.25500000920E-02 0. -1.
</event>
<event>
 5   0  0.3184492E-06  0.2302296E+04  0.7818609E-02  0.8477016E-01
        1   -1    0    0  501    0  0.00000000000E+00  0.00000000000E+00  0.11254704348E+04  0.11254704348E+04  0.50400001928E-02 0. -1.
       -1   -1    0    0    0  501  0.00000000000E+00  0.00000000000E+00 -0.11774112098E+04  0.11774112098E+04  0.50400001928E-02 0.  1.
    10030    2    1    2    0    0  0.00000000000E+00  0.00000000000E+00 -0.51940774989E+02  0.23028816445E+04  0.23022958161E+04 0.  0.
        1    1    3    3  502    0  0.31695968488E+03  0.62323089220E+03  0.88873555083E+03  0.11308099160E+04  0.50400001928E-02 0. -1.
       -1    1    3    3    0  502 -0.31695968488E+03 -0.62323089220E+03 -0.94067632582E+03  0.11720717285E+04  0.50400001928E-02 0.  1.
</event>
<event>
 5   0  0.7242214E-06  0.2298663E+04  0.7818609E-02  0.8478448E-01
       -2   -1    0    0    0  501  0.00000000000E+00  0.00000000000E+00  0.77625776748E+03  0.77625776749E+03  0.25500000920E-02 0. -1.
        2   -1    0    0  501    0  0.00000000000E+00  0.00000000000E+00 -0.17017069235E+04  0.17017069235E+04  0.25500000920E-02 0.  1.
    10030    2    1    2    0    0  0.00000000000E+00  0.00000000000E+00 -0.92544915605E+03  0.24779646910E+04  0.22986632788E+04 0.  0.
        1    1    3    3  502    0  0.15841269626E+03 -0.15520432106E+03  0.75297368039E+03  0.78495371010E+03  0.50400001928E-02 0. -1.
       -1    1    3    3    0  502 -0.15841269626E+03  0.15520432106E+03 -0.16784228364E+04  0.16930109809E+04  0.50400001928E-02 0.  1.
</event>
<event>
 5   0  0.3195296E-06  0.2286180E+04  0.7818609E-02  0.8483390E-01
       -1   -1    0    0    0  501  0.00000000000E+00  0.00000000000E+00  0.53815550091E+03  0.53815550093E+03  0.50400001928E-02 0. -1.
        1   -1    0    0  501    0  0.00000000000E+00  0.00000000000E+00 -0.24280242017E+04  0.24280242017E+04  0.50400001928E-02 0.  1.
    10030    2    1    2    0    0  0.00000000000E+00  0.00000000000E+00 -0.18898687007E+04  0.29661797026E+04  0.22861798534E+04 0.  0.
        2    1    3    3  502    0  0.10138229777E+04  0.37812505623E+03 -0.46674567058E+03  0.11784172051E+04  0.25500000920E-02 0. -1.
       -2    1    3    3    0  502 -0.10138229777E+04 -0.37812505623E+03 -0.14231230302E+04  0.17877624975E+04  0.25500000920E-02 0.  1.
</event>
<event>
 5   0  0.7497344E-06  0.2312014E+04  0.7818609E-02  0.8473199E-01
       -2   -1    0    0    0  501  0.00000000000E+00  0.00000000000E+00  0.13205990517E+04  0.13205990517E+04  0.25500000920E-02 0. -1.
        2   -1    0    0  501    0  0.00000000000E+00  0.00000000000E+00 -0.10119286635E+04  0.10119286635E+04  0.25500000920E-02 0.  1.
    10030    2    1    2    0    0  0.00000000000E+00  0.00000000000E+00  0.30867038824E+03  0.23325277153E+04  0.23120138697E+04 0.  0.
        5    1    3    3  502    0  0.94780888656E+03 -0.58547006039E+03 -0.15696877198E+03  0.11250680701E+04  0.46999998093E+01 0. -1.
       -5    1    3    3    0  502 -0.94780888656E+03  0.58547006039E+03  0.46563916022E+03  0.12074596451E+04  0.46999998093E+01 0.  1.
</event>
<event>
 5   0  0.3195296E-06  0.2291912E+04  0.7818609E-02  0.8481117E-01
       -1   -1    0    0    0  501  0.00000000000E+00  0.00000000000E+00  0.86107858923E+03  0.86107858924E+03  0.50400001928E-02 0. -1.
        1   -1    0    0  501    0  0.00000000000E+00  0.00000000000E+00 -0.15250821469E+04  0.15250821470E+04  0.50400001928E-02 0.  1.
    10030    2    1    2    0    0  0.00000000000E+00  0.00000000000E+00 -0.66400355772E+03  0.23861607362E+04  0.22919123749E+04 0.  0.
        2    1    3    3  502    0  0.19574229308E+03 -0.87841065546E+03  0.40660468700E+03  0.98754630090E+03  0.25500000920E-02 0. -1.
       -2    1    3    3    0  502 -0.19574229308E+03  0.87841065546E+03 -0.10706082447E+04  0.13986144353E+04  0.25500000920E-02 0.  1.
</event>
<event>
 5   0  0.3238713E-06  0.2297060E+04  0.7818609E-02  0.8479081E-01
       -1   -1    0    0    0  501  0.00000000000E+00  0.00000000000E+00  0.11388660315E+04  0.11388660315E+04  0.50400001928E-02 0. -1.
        1   -1    0    0  501    0  0.00000000000E+00  0.00000000000E+00 -0.11582763587E+04  0.11582763588E+04  0.50400001928E-02 0.  1.
    10030    2    1    2    0    0  0.00000000000E+00  0.00000000000E+00 -0.19410327258E+02  0.22971423903E+04  0.22970603824E+04 0.  0.
        3    1    3    3  502    0 -0.23898858846E+03 -0.62469423423E+03  0.92401074891E+03  0.11406815094E+04  0.10100000352E+00 0. -1.
       -3    1    3    3    0  502  0.23898858846E+03  0.62469423423E+03 -0.94342107617E+03  0.11564608808E+04  0.10100000352E+00 0.  1.
</event>
<event>
 5   0  0.3338758E-06  0.2300291E+04  0.7818609E-02  0.8477806E-01
        1   -1    0    0  501    0  0.00000000000E+00  0.00000000000E+00  0.15581629947E+04  0.15581629947E+04  0.50400001928E-02 0.  1.
       -1   -1    0    0    0  501  0.00000000000E+00  0.00000000000E+00 -0.84897066568E+03  0.84897066569E+03  0.50400001928E-02 0. -1.
    10030    2    1    2    0    0  0.00000000000E+00  0.00000000000E+00  0.70919232899E+03  0.24071336604E+04  0.23002910032E+04 0.  0.
        5    1    3    3  502    0  0.43675217439E+03 -0.78247871753E+03 -0.39985339077E+03  0.98129008419E+03  0.46999998093E+01 0. -1.
       -5    1    3    3    0  502 -0.43675217439E+03  0.78247871753E+03  0.11090457198E+04  0.14258435762E+04  0.46999998093E+01 0.  1.
</event>
<event>
 5   0  0.7242214E-06  0.2307577E+04  0.7818609E-02  0.8474940E-01
       -2   -1    0    0    0  501  0.00000000000E+00  0.00000000000E+00  0.10406410635E+04  0.10406410635E+04  0.25500000920E-02 0. -1.
        2   -1    0    0  501    0  0.00000000000E+00  0.00000000000E+00 -0.12792384346E+04  0.12792384346E+04  0.25500000920E-02 0.  1.
    10030    2    1    2    0    0  0.00000000000E+00  0.00000000000E+00 -0.23859737109E+03  0.23198794981E+04  0.23075771233E+04 0.  0.
        1    1    3    3  502    0 -0.14576721696E+03  0.57463771193E+03 -0.11144098416E+04  0.12622859726E+04  0.50400001928E-02 0.  1.
       -1    1    3    3    0  502  0.14576721696E+03 -0.57463771193E+03  0.87581247054E+03  0.10575935255E+04  0.50400001928E-02 0. -1.
</event>
<event>
 5   0  0.3238713E-06  0.2298119E+04  0.7818609E-02  0.8478663E-01
       -1   -1    0    0    0  501  0.00000000000E+00  0.00000000000E+00  0.10732644309E+04  0.10732644309E+04  0.50400001928E-02 0. -1.
        1   -1    0    0  501    0  0.00000000000E+00  0.00000000000E+00 -0.12302068807E+04  0.12302068807E+04  0.50400001928E-02 0.  1.
    10030    2    1    2    0    0  0.00000000000E+00  0.00000000000E+00 -0.15694244983E+03  0.23034713116E+04  0.22981186111E+04 0.  0.
        3    1    3    3  502    0  0.75244194059E+02  0.11166134329E+04  0.18261586083E+03  0.11339470049E+04  0.10100000352E+00 0.  1.
       -3    1    3    3    0  502 -0.75244194059E+02 -0.11166134329E+04 -0.33955831065E+03  0.11695243066E+04  0.10100000352E+00 0. -1.
</event>
<event>
 5   0  0.7003852E-06  0.2302002E+04  0.7818609E-02  0.8477132E-01
        2   -1    0    0  501    0  0.00000000000E+00  0.00000000000E+00  0.12148667159E+04  0.12148667159E+04  0.25500000920E-02 0.  1.
       -2   -1    0    0    0  501  0.00000000000E+00  0.00000000000E+00 -0.10904927659E+04  0.10904927659E+04  0.25500000920E-02 0. -1.
    10030    2    1    2    0    0  0.00000000000E+00  0.00000000000E+00  0.12437394999E+03  0.23053594818E+04  0.23020020549E+04 0.  0.
        2    1    3    3  502    0  0.42067858250E+03 -0.38478415224E+03 -0.93915836090E+03  0.10986572443E+04  0.25500000920E-02 0. -1.
       -2    1    3    3    0  502 -0.42067858250E+03  0.38478415224E+03  0.10635323109E+04  0.12067022375E+04  0.25500000920E-02 0.  1.
</event>
<event>
 5   0  0.3226427E-06  0.2303595E+04  0.7818609E-02  0.8476505E-01
       -1   -1    0    0    0  501  0.00000000000E+00  0.00000000000E+00  0.40856342292E+03  0.40856342295E+03  0.50400001928E-02 0. -1.
        1   -1    0    0  501    0  0.00000000000E+00  0.00000000000E+00 -0.32470773069E+04  0.32470773069E+04  0.50400001928E-02 0.  1.
    10030    2    1    2    0    0  0.00000000000E+00  0.00000000000E+00 -0.28385138840E+04  0.36556407299E+04  0.23035945989E+04 0.  0.
        4    1    3    3  502    0  0.35378884987E+03  0.76300556094E+02 -0.31544945827E+04  0.31751891298E+04  0.12699999809E+01 0.  1.
       -4    1    3    3    0  502 -0.35378884987E+03 -0.76300556094E+02  0.31598069868E+03  0.48045160005E+03  0.12699999809E+01 0. -1.
</event>
<event>
 5   0  0.3338758E-06  0.2305347E+04  0.7818609E-02  0.8475816E-01
        1   -1    0    0  501    0  0.00000000000E+00  0.00000000000E+00  0.13973939152E+04  0.13973939153E+04  0.50400001928E-02 0. -1.
       -1   -1    0    0    0  501  0.00000000000E+00  0.00000000000E+00 -0.95080974370E+03  0.95080974371E+03  0.50400001928E-02 0.  1.
    10030    2    1    2    0    0  0.00000000000E+00  0.00000000000E+00  0.44658417155E+03  0.23482036590E+04  0.23053466121E+04 0.  0.
        5    1    3    3  502    0  0.75876947567E+03  0.82106665430E+03  0.50913707258E+03  0.12284641699E+04  0.46999998093E+01 0. -1.
       -5    1    3    3    0  502 -0.75876947567E+03 -0.82106665430E+03 -0.62552901032E+02  0.11197394891E+04  0.46999998093E+01 0.  1.
</event>
<event>
 5   0  0.7497344E-06  0.2303407E+04  0.7818609E-02  0.8476579E-01
        2   -1    0    0  501    0  0.00000000000E+00  0.00000000000E+00  0.13621876605E+04  0.13621876605E+04  0.25500000920E-02 0. -1.
       -2   -1    0    0    0  501  0.00000000000E+00  0.00000000000E+00 -0.97374358606E+03  0.97374358606E+03  0.25500000920E-02 0.  1.
    10030    2    1    2    0    0  0.00000000000E+00  0.00000000000E+00  0.38844407442E+03  0.23359312465E+04  0.23034074736E+04 0.  0.
        5    1    3    3  502    0  0.12686216280E+03  0.10873307432E+04  0.55706903832E+03  0.12283037722E+04  0.46999998093E+01 0.  1.
       -5    1    3    3    0  502 -0.12686216280E+03 -0.10873307432E+04 -0.16862496390E+03  0.11076274743E+04  0.46999998093E+01 0. -1.
</event>
<event>
 5   0  0.3338758E-06  0.2300998E+04  0.7818609E-02  0.8477528E-01
       -1   -1    0    0    0  501  0.00000000000E+00  0.00000000000E+00  0.16810817647E+04  0.16810817647E+04  0.50400001928E-02 0. -1.
        1   -1    0    0  501    0  0.00000000000E+00  0.00000000000E+00 -0.78737849027E+03  0.78737849028E+03  0.50400001928E-02 0.  1.
    10030    2    1    2    0    0  0.00000000000E+00  0.00000000000E+00  0.89370327440E+03  0.24684602550E+04  0.23009977157E+04 0.  0.
        5    1    3    3  502    0  0.28282129183E+03  0.49028455955E+03 -0.62767310129E+03  0.84519964773E+03  0.46999998093E+01 0.  1.
       -5    1    3    3    0  502 -0.28282129183E+03 -0.49028455955E+03  0.15213763757E+04  0.16232606072E+04  0.46999998093E+01 0. -1.
</event>
<event>
 5   0  0.3195296E-06  0.2299559E+04  0.7818609E-02  0.8478095E-01
        1   -1    0    0  501    0  0.00000000000E+00  0.00000000000E+00  0.14217621725E+04  0.14217621725E+04  0.50400001928E-02 0. -1.
       -1   -1    0    0    0  501  0.00000000000E+00  0.00000000000E+00 -0.92982727287E+03  0.92982727288E+03  0.50400001928E-02 0.  1.
    10030    2    1    2    0    0  0.00000000000E+00  0.00000000000E+00  0.49193489965E+03  0.23515894454E+04  0.22995593000E+04 0.  0.
        2    1    3    3  502    0  0.57654088057E+03  0.68368126594E+03 -0.49299848836E+03  0.10212085830E+04  0.25500000920E-02 0.  1.
       -2    1    3    3    0  502 -0.57654088057E+03 -0.68368126594E+03  0.98493338801E+03  0.13303808625E+04  0.25500000920E-02 0. -1.
</event>
<event>
 5   0  0.7242214E-06  0.2290512E+04  0.7818609E-02  0.8481672E-01
        2   -1    0    0  501    0  0.00000000000E+00  0.00000000000E+00  0.12160166757E+04  0.12160166757E+04  0.25500000920E-02 0.  1.
       -2   -1    0    0    0  501  0.00000000000E+00  0.00000000000E+00 -0.10786126791E+04  0.10786126791E+04  0.25500000920E-02 0. -1.
    10030    2    1    2    0    0  0.00000000000E+00  0.00000000000E+00  0.13740399665E+03  0.22946293548E+04  0.22905117371E+04 0.  0.
        1    1    3    3  502    0 -0.23678958398E+03 -0.85643058405E+03  0.79254387863E+03  0.11906588311E+04  0.50400001928E-02 0.  1.
       -1    1    3    3    0  502  0.23678958398E+03  0.85643058405E+03 -0.65513988198E+03  0.11039705238E+04  0.50400001928E-02 0. -1.
</event>
<event>
 5   0  0.3226427E-06  0.2300097E+04  0.7818609E-02  0.8477883E-01
        1   -1    0    0  501    0  0.00000000000E+00  0.00000000000E+00  0.12476250546E+04  0.12476250546E+04  0.50400001928E-02 0.  1.
       -1   -1    0    0    0  501  0.00000000000E+00  0.00000000000E+00 -0.10601029362E+04  0.10601029362E+04  0.50400001928E-02 0. -1.
    10030    2    1    2    0    0  0.00000000000E+00  0.00000000000E+00  0.18752211839E+03  0.23077279908E+04  0.23000965055E+04 0.  0.
        4    1    3    3  502    0  0.52569398556E+03 -0.99828558131E+03 -0.12987105605E+03  0.11356920236E+04  0.12699999809E+01 0. -1.
       -4    1    3    3    0  502 -0.52569398556E+03  0.99828558131E+03  0.31739317444E+03  0.11720359672E+04  0.12699999809E+01 0.  1.
</event>
<event>
 5   0  0.7242214E-06  0.2299691E+04  0.7818609E-02  0.8478043E-01
       -2   -1    0    0    0  501  0.00000000000E+00  0.00000000000E+00  0.78265972630E+03  0.78265972630E+03  0.25500000920E-02 0.  1.
        2   -1    0    0  501    0  0.00000000000E+00  0.00000000000E+00 -0.16892975724E+04  0.16892975724E+04  0.25500000920E-02 0. -1.
    10030    2    1    2    0    0  0.00000000000E+00  0.00000000000E+00 -0.90663784606E+03  0.24719572987E+04  0.22996914364E+04 0.  0.
        1    1    3    3  502    0 -0.28277888826E+03 -0.36184639470E+03  0.67980388920E+03  0.82038408127E+03  0.50400001928E-02 0.  1.
       -1    1    3    3    0  502  0.28277888826E+03  0.36184639470E+03 -0.15864417353E+04  0.16515732174E+04  0.50400001928E-02 0. -1.
</event>
<event>
 5   0  0.7242214E-06  0.2294769E+04  0.7818609E-02  0.8479986E-01
        2   -1    0    0  501    0  0.00000000000E+00  0.00000000000E+00  0.63778112082E+03  0.63778112083E+03  0.25500000920E-02 0. -1.
       -2   -1    0    0    0  501  0.00000000000E+00  0.00000000000E+00 -0.20641739362E+04  0.20641739362E+04  0.25500000920E-02 0.  1.
    10030    2    1    2    0    0  0.00000000000E+00  0.00000000000E+00 -0.14263928154E+04  0.27019550570E+04  0.22947689789E+04 0.  0.
        1    1    3    3  502    0 -0.10947966361E+04 -0.27677774674E+03 -0.95249683040E+03  0.14773069442E+04  0.50400001928E-02 0.  1.
       -1    1    3    3    0  502  0.10947966361E+04  0.27677774674E+03 -0.47389598498E+03  0.12246481128E+04  0.50400001928E-02 0. -1.
</event>
<event>
 5   0  0.3226427E-06  0.2298694E+04  0.7818609E-02  0.8478436E-01
       -1   -1    0    0    0  501  0.00000000000E+00  0.00000000000E+00  0.98694551473E+03  0.98694551475E+03  0.50400001928E-02 0.  1.
        1   -1    0    0  501    0  0.00000000000E+00  0.00000000000E+00 -0.13384718250E+04  0.13384718250E+04  0.50400001928E-02 0. -1.
    10030    2    1    2    0    0  0.00000000000E+00  0.00000000000E+00 -0.35152631028E+03  0.23254173398E+04  0.22986942070E+04 0.  0.
        4    1    3    3  502    0 -0.87700260342E+03 -0.41283395995E+03 -0.80054456766E+03  0.12571549875E+04  0.12699999809E+01 0. -1.
       -4    1    3    3    0  502  0.87700260342E+03  0.41283395995E+03  0.44901825738E+03  0.10682623523E+04  0.12699999809E+01 0.  1.
</event>
<event>
 5   0  0.3238713E-06  0.2301047E+04  0.7818609E-02  0.8477508E-01
       -1   -1    0    0    0  501  0.00000000000E+00  0.00000000000E+00  0.10265240097E+04  0.10265240097E+04  0.50400001928E-02 0. -1.
        1   -1    0    0  501    0  0.00000000000E+00  0.00000000000E+00 -0.12895018635E+04  0.12895018635E+04  0.50400001928E-02 0.  1.
    10030    2    1    2    0    0  0.00000000000E+00  0.00000000000E+00 -0.26297785380E+03  0.23160258732E+04  0.23010472602E+04 0.  0.
        3    1    3    3  502    0  0.20034349139E+02  0.11242933756E+04  0.11354527008E+03  0.11301900318E+04  0.10100000352E+00 0.  1.
       -3    1    3    3    0  502 -0.20034349139E+02 -0.11242933756E+04 -0.37652312388E+03  0.11858358413E+04  0.10100000352E+00 0. -1.
</event>
<event>
 5   0  0.7044981E-06  0.2304131E+04  0.7818609E-02  0.8476294E-01
       -2   -1    0    0    0  501  0.00000000000E+00  0.00000000000E+00  0.77821175012E+03  0.77821175013E+03  0.25500000920E-02 0.  1.
        2   -1    0    0  501    0  0.00000000000E+00  0.00000000000E+00 -0.17055183800E+04  0.17055183800E+04  0.25500000920E-02 0. -1.
    10030    2    1    2    0    0  0.00000000000E+00  0.00000000000E+00 -0.92730662984E+03  0.24837301301E+04  0.23041305895E+04 0.  0.
        4    1    3    3  502    0  0.42270710433E+03 -0.57620788012E+03  0.51041699671E+03  0.87819356670E+03  0.12699999809E+01 0.  1.
       -4    1    3    3    0  502 -0.42270710433E+03  0.57620788012E+03 -0.14377236265E+04  0.16055365634E+04  0.12699999809E+01 0. -1.
</event>
<event>
 5   0  0.3226427E-06  0.2290738E+04  0.7818609E-02  0.8481582E-01
        1   -1    0    0  501    0  0.00000000000E+00  0.00000000000E+00  0.97354351232E+03  0.97354351233E+03  0.50400001928E-02 0.  1.
       -1   -1    0    0    0  501  0.00000000000E+00  0.00000000000E+00 -0.13475202284E+04  0.13475202284E+04  0.50400001928E-02 0. -1.
    10030    2    1    2    0    0  0.00000000000E+00  0.00000000000E+00 -0.37397671607E+03  0.23210637407E+04  0.22907375023E+04 0.  0.
        4    1    3    3  502    0 -0.75042736083E+03 -0.56554381014E+03  0.47657615353E+03  0.10536163761E+04  0.12699999809E+01 0.  1.
       -4    1    3    3    0  502  0.75042736083E+03  0.56554381014E+03 -0.85055286960E+03  0.12674473646E+04  0.12699999809E+01 0. -1.
</event>
<event>
 5   0  0.3184492E-06  0.2302935E+04  0.7818609E-02  0.8476765E-01
        1   -1    0    0  501    0  0.00000000000E+00  0.00000000000E+00  0.15862593289E+04  0.15862593289E+04  0.50400001928E-02 0.  1.
       -1   -1    0    0    0  501  0.00000000000E+00  0.00000000000E+00 -0.83585190405E+03  0.83585190406E+03  0.50400001928E-02 0. -1.
    10030    2    1    2    0    0  0.00000000000E+00  0.00000000000E+00  0.75040742485E+03  0.24221112330E+04  0.23029354141E+04 0.  0.
        1    1    3    3  502    0  0.72048436130E+03 -0.64610306586E+03  0.10314574874E+04  0.14143731597E+04  0.50400001928E-02 0.  1.
       -1    1    3    3    0  502 -0.72048436130E+03  0.64610306586E+03 -0.28105006255E+03  0.10077380732E+04  0.50400001928E-02 0. -1.
</event>
<event>
 5   0  0.3338758E-06  0.2294089E+04  0.7818609E-02  0.8480256E-01
       -1   -1    0    0    0  501  0.00000000000E+00  0.00000000000E+00  0.10556287035E+04  0.10556287035E+04  0.50400001928E-02 0. -1.
        1   -1    0    0  501    0  0.00000000000E+00  0.00000000000E+00 -0.12463763069E+04  0.12463763069E+04  0.50400001928E-02 0.  1.
    10030    2    1    2    0    0  0.00000000000E+00  0.00000000000E+00 -0.19074760339E+03  0.23020050104E+04  0.22940885815E+04 0.  0.
        5    1    3    3  502    0  0.10292557975E+04 -0.35850150206E+03  0.26334784563E+03  0.11212782891E+04  0.46999998093E+01 0.  1.
       -5    1    3    3    0  502 -0.10292557975E+04  0.35850150206E+03 -0.45409544902E+03  0.11807267214E+04  0.46999998093E+01 0. -1.
</event>
<event>
 5   0  0.7044981E-06  0.2300325E+04  0.7818609E-02  0.8477793E-01
       -2   -1    0    0    0  501  0.00000000000E+00  0.00000000000E+00  0.94614855873E+03  0.94614855873E+03  0.25500000920E-02 0.  1.
        2   -1    0    0  501    0  0.00000000000E+00  0.00000000000E+00 -0.13981675345E+04  0.13981675345E+04  0.25500000920E-02 0. -1.
    10030    2    1    2    0    0  0.00000000000E+00  0.00000000000E+00 -0.45201897577E+03  0.23443160932E+04  0.23003253662E+04 0.  0.
        4    1    3    3  502    0 -0.10223701550E+04 -0.34627959111E+03  0.17872801249E+03  0.10941186428E+04  0.12699999809E+01 0.  1.
       -4    1    3    3    0  502  0.10223701550E+04  0.34627959111E+03 -0.63074698826E+03  0.12501974505E+04  0.12699999809E+01 0. -1.
</event>
<event>
 5   0  0.7003852E-06  0.2327939E+04  0.7818609E-02  0.8466986E-01
       -2   -1    0    0    0  501  0.00000000000E+00  0.00000000000E+00  0.15377048024E+04  0.15377048024E+04  0.25500000920E-02 0. -1.
        2   -1    0    0  501    0  0.00000000000E+00  0.00000000000E+00 -0.88106975667E+03  0.88106975667E+03  0.25500000920E-02 0.  1.
    10030    2    1    2    0    0  0.00000000000E+00  0.00000000000E+00  0.65663504569E+03  0.24187745590E+04  0.23279391711E+04 0.  0.
        2    1    3    3  502    0  0.29817919637E+01 -0.67807676048E+03 -0.65465669353E+03  0.94253507658E+03  0.25500000920E-02 0.  1.
       -2    1    3    3    0  502 -0.29817919637E+01  0.67807676048E+03  0.13112917392E+04  0.14762394825E+04  0.25500000920E-02 0. -1.
</event>
<event>
 5   0  0.3338758E-06  0.2302452E+04  0.7818609E-02  0.8476955E-01
        1   -1    0    0  501    0  0.00000000000E+00  0.00000000000E+00  0.96114195486E+03  0.96114195487E+03  0.50400001928E-02 0.  1.
       -1   -1    0    0    0  501  0.00000000000E+00  0.00000000000E+00 -0.13789031943E+04  0.13789031943E+04  0.50400001928E-02 0. -1.
    10030    2    1    2    0    0  0.00000000000E+00  0.00000000000E+00 -0.41776123945E+03  0.23400451492E+04  0.23024523550E+04 0.  0.
        5    1    3    3  502    0  0.60640017879E+03 -0.68422923709E+03  0.50211916639E+03  0.10430899161E+04  0.46999998093E+01 0.  1.
       -5    1    3    3    0  502 -0.60640017879E+03  0.68422923709E+03 -0.91988040584E+03  0.12969552331E+04  0.46999998093E+01 0. -1.
</event>
<event>
 5   0  0.3184492E-06  0.2302973E+04  0.7818609E-02  0.8476750E-01
       -1   -1    0    0    0  501  0.00000000000E+00  0.00000000000E+00  0.74486713111E+03  0.74486713113E+03  0.50400001928E-02 0.  1.
        1   -1    0    0  501    0  0.00000000000E+00  0.00000000000E+00 -0.17800776522E+04  0.17800776522E+04  0.50400001928E-02 0. -1.
    10030    2    1    2    0    0  0.00000000000E+00  0.00000000000E+00 -0.10352105211E+04  0.25249447833E+04  0.23029731513E+04 0.  0.
        1    1    3    3  502    0 -0.15552208432E+03  0.87874520266E+03 -0.13154398124E+04  0.15895792368E+04  0.50400001928E-02 0. -1.
       -1    1    3    3    0  502  0.15552208432E+03 -0.87874520266E+03  0.28022929132E+03  0.93536554654E+03  0.50400001928E-02 0.  1.
</event>
<event>
 5   0  0.7348107E-06  0.2296874E+04  0.7818609E-02  0.8479155E-01
        2   -1    0    0  501    0  0.00000000000E+00  0.00000000000E+00  0.10989775614E+04  0.10989775614E+04  0.25500000920E-02 0. -1.
       -2   -1    0    0    0  501  0.00000000000E+00  0.00000000000E+00 -0.12001219929E+04  0.12001219929E+04  0.25500000920E-02 0.  1.
    10030    2    1    2    0    0  0.00000000000E+00  0.00000000000E+00 -0.10114443150E+03  0.22990995542E+04  0.22968736500E+04 0.  0.
        3    1    3    3  502    0  0.22814155795E+03  0.10559995479E+04 -0.44046672554E+03  0.11667024308E+04  0.10100000352E+00 0.  1.
       -3    1    3    3    0  502 -0.22814155795E+03 -0.10559995479E+04  0.33932229404E+03  0.11323971234E+04  0.10100000352E+00 0. -1.
</event>
<event>
 5   0  0.7044981E-06  0.2331363E+04  0.7818609E-02  0.8465657E-01
       -2   -1    0    0    0  501  0.00000000000E+00  0.00000000000E+00  0.76381646258E+03  0.76381646258E+03  0.25500000920E-02 0. -1.
        2   -1    0    0  501    0  0.00000000000E+00  0.00000000000E+00 -0.17789795819E+04  0.17789795819E+04  0.25500000920E-02 0.  1.
    10030    2    1    2    0    0  0.00000000000E+00  0.00000000000E+00 -0.10151631194E+04  0.25427960445E+04  0.23313634562E+04 0.  0.
        4    1    3    3  502    0 -0.10289665082E+04  0.54437590701E+03 -0.57388150688E+03  0.12978670194E+04  0.12699999809E+01 0.  1.
       -4    1    3    3    0  502  0.10289665082E+04 -0.54437590701E+03 -0.44128161247E+03  0.12449290251E+04  0.12699999809E+01 0. -1.
</event>
<event>
 5   0  0.7044981E-06  0.2322455E+04  0.7818609E-02  0.8469120E-01
       -2   -1    0    0    0  501  0.00000000000E+00  0.00000000000E+00  0.88304946577E+03  0.88304946578E+03  0.25500000920E-02 0. -1.
        2   -1    0    0  501    0  0.00000000000E+00  0.00000000000E+00 -0.15270366658E+04  0.15270366658E+04  0.25500000920E-02 0.  1.
    10030    2    1    2    0    0  0.00000000000E+00  0.00000000000E+00 -0.64398719999E+03  0.24100861315E+04  0.23224546600E+04 0.  0.
        4    1    3    3  502    0 -0.11199310776E+04  0.29664487092E+03 -0.24025941326E+03  0.11832032778E+04  0.12699999809E+01 0. -1.
       -4    1    3    3    0  502  0.11199310776E+04 -0.29664487092E+03 -0.40372778673E+03  0.12268828537E+04  0.12699999809E+01 0.  1.
</event>
<event>
 5   0  0.3238713E-06  0.2299161E+04  0.7818609E-02  0.8478252E-01
        1   -1    0    0  501    0  0.00000000000E+00  0.00000000000E+00  0.15917908106E+04  0.15917908106E+04  0.50400001928E-02 0. -1.
       -1   -1    0    0    0  501  0.00000000000E+00  0.00000000000E+00 -0.83021895609E+03  0.83021895610E+03  0.50400001928E-02 0.  1.
    10030    2    1    2    0    0  0.00000000000E+00  0.00000000000E+00  0.76157185455E+03  0.24220097668E+04  0.22991606339E+04 0.  0.
        3    1    3    3  502    0  0.23623281633E+03  0.30342320860E+03 -0.76045763042E+03  0.85215456631E+03  0.10100000352E+00 0.  1.
       -3    1    3    3    0  502 -0.23623281633E+03 -0.30342320860E+03  0.15220294850E+04  0.15698552004E+04  0.10100000352E+00 0. -1.
</event>
<event>
 5   0  0.3238713E-06  0.2299876E+04  0.7818609E-02  0.8477970E-01
       -1   -1    0    0    0  501  0.00000000000E+00  0.00000000000E+00  0.94736149730E+03  0.94736149731E+03  0.50400001928E-02 0.  1.
        1   -1    0    0  501    0  0.00000000000E+00  0.00000000000E+00 -0.13958314868E+04  0.13958314868E+04  0.50400001928E-02 0. -1.
    10030    2    1    2    0    0  0.00000000000E+00  0.00000000000E+00 -0.44846998947E+03  0.23431929841E+04  0.22998756552E+04 0.  0.
        3    1    3    3  502    0  0.15697227798E+03  0.11547468056E+03 -0.13788863191E+04  0.13925883057E+04  0.10100000352E+00 0. -1.
       -3    1    3    3    0  502 -0.15697227798E+03 -0.11547468056E+03  0.93041632965E+03  0.95060467839E+03  0.10100000352E+00 0.  1.
</event>
<event>
 5   0  0.3184492E-06  0.2295489E+04  0.7818609E-02  0.8479702E-01
        1   -1    0    0  501    0  0.00000000000E+00  0.00000000000E+00  0.21344074555E+04  0.21344074555E+04  0.50400001928E-02 0.  1.
       -1   -1    0    0    0  501  0.00000000000E+00  0.00000000000E+00 -0.61718166549E+03  0.61718166551E+03  0.50400001928E-02 0. -1.
    10030    2    1    2    0    0  0.00000000000E+00  0.00000000000E+00  0.15172257900E+04  0.27515891210E+04  0.22954887482E+04 0.  0.
        1    1    3    3  502    0 -0.11399682376E+04 -0.12255470482E+03  0.82170009194E+03  0.14105808305E+04  0.50400001928E-02 0.  1.
       -1    1    3    3    0  502  0.11399682376E+04  0.12255470482E+03  0.69552569809E+03  0.13410082905E+04  0.50400001928E-02 0. -1.
</event>
<event>
 5   0  0.3195296E-06  0.2300696E+04  0.7818609E-02  0.8477647E-01
        1   -1    0    0  501    0  0.00000000000E+00  0.00000000000E+00  0.20749184968E+04  0.20749184968E+04  0.50400001928E-02 0.  1.
       -1   -1    0    0    0  501  0.00000000000E+00  0.00000000000E+00 -0.63776021747E+03  0.63776021749E+03  0.50400001928E-02 0. -1.
    10030    2    1    2    0    0  0.00000000000E+00  0.00000000000E+00  0.14371582793E+04  0.27126787143E+04  0.23006959571E+04 0.  0.
        2    1    3    3  502    0  0.94551933678E+03  0.64833221149E+03  0.83018034274E+03  0.14154648968E+04  0.25500000920E-02 0. -1.
       -2    1    3    3    0  502 -0.94551933678E+03 -0.64833221149E+03  0.60697793658E+03  0.12972138175E+04  0.25500000920E-02 0.  1.
</event>
<event>
 5   0  0.7348107E-06  0.2301503E+04  0.7818609E-02  0.8477329E-01
       -2   -1    0    0    0  501  0.00000000000E+00  0.00000000000E+00  0.12672652141E+04  0.12672652141E+04  0.25500000920E-02 0.  1.
        2   -1    0    0  501    0  0.00000000000E+00  0.00000000000E+00 -0.10449502422E+04  0.10449502422E+04  0.25500000920E-02 0. -1.
    10030    2    1    2    0    0  0.00000000000E+00  0.00000000000E+00  0.22231497187E+03  0.23122154564E+04  0.23015030675E+04 0.  0.
        3    1    3    3  502    0 -0.27616136434E+03 -0.76940032838E+03 -0.70254266642E+03  0.10778720577E+04  0.10100000352E+00 0. -1.
       -3    1    3    3    0  502  0.27616136434E+03  0.76940032838E+03  0.92485763828E+03  0.12343433986E+04  0.10100000352E+00 0.  1.
</event>
<event>
 5   0  0.7348107E-06  0.2299224E+04  0.7818609E-02  0.8478227E-01
       -2   -1    0    0    0  501  0.00000000000E+00  0.00000000000E+00  0.89088620924E+03  0.89088620924E+03  0.25500000920E-02 0. -1.
        2   -1    0    0  501    0  0.00000000000E+00  0.00000000000E+00 -0.14834750944E+04  0.14834750944E+04  0.25500000920E-02 0.  1.
    10030    2    1    2    0    0  0.00000000000E+00  0.00000000000E+00 -0.59258888515E+03  0.23743613036E+04  0.22992237850E+04 0.  0.
        3    1    3    3  502    0 -0.11905683137E+03 -0.42033060553E+03  0.80182567693E+03  0.91311377902E+03  0.10100000352E+00 0. -1.
       -3    1    3    3    0  502  0.11905683137E+03  0.42033060553E+03 -0.13944145621E+04  0.14612475246E+04  0.10100000352E+00 0.  1.
</event>
<event>
 5   0  0.3238713E-06  0.2298385E+04  0.7818609E-02  0.8478558E-01
        1   -1    0    0  501    0  0.00000000000E+00  0.00000000000E+00  0.16288965407E+04  0.16288965407E+04  0.50400001928E-02 0.  1.
       -1   -1    0    0    0  501  0.00000000000E+00  0.00000000000E+00 -0.81075973534E+03  0.81075973536E+03  0.50400001928E-02 0. -1.
    10030    2    1    2    0    0  0.00000000000E+00  0.00000000000E+00  0.81813680539E+03  0.24396562761E+04  0.22983852839E+04 0.  0.
        3    1    3    3  502    0 -0.65857919665E+03 -0.88806740032E+03  0.76347780102E+02  0.11082505400E+04  0.10100000352E+00 0.  1.
       -3    1    3    3    0  502  0.65857919665E+03  0.88806740032E+03  0.74178902529E+03  0.13314057361E+04  0.10100000352E+00 0. -1.
</event>
<event>
 5   0  0.7003852E-06  0.2298508E+04  0.7818609E-02  0.8478510E-01
        2   -1    0    0  501    0  0.00000000000E+00  0.00000000000E+00  0.19687139919E+04  0.19687139919E+04  0.25500000920E-02 0.  1.
       -2   -1    0    0    0  501  0.00000000000E+00  0.00000000000E+00 -0.67088716966E+03  0.67088716966E+03  0.25500000920E-02 0. -1.
    10030    2    1    2    0    0  0.00000000000E+00  0.00000000000E+00  0.12978268222E+04  0.26396011615E+04  0.22985081752E+04 0.  0.
        2    1    3    3  502    0 -0.65907363549E+03 -0.85175849708E+03  0.11095831280E+04  0.15463005246E+04  0.25500000920E-02 0.  1.
       -2    1    3    3    0  502  0.65907363549E+03  0.85175849708E+03  0.18824369419E+03  0.10933006369E+04  0.25500000920E-02 0. -1.
</event>
<event>
 5   0  0.7242214E-06  0.2295712E+04  0.7818609E-02  0.8479614E-01
        2   -1    0    0  501    0  0.00000000000E+00  0.00000000000E+00  0.18208627942E+04  0.18208627942E+04  0.25500000920E-02 0. -1.
       -2   -1    0    0    0  501  0.00000000000E+00  0.00000000000E+00 -0.72359851988E+03  0.72359851989E+03  0.25500000920E-02 0.  1.
    10030    2    1    2    0    0  0.00000000000E+00  0.00000000000E+00  0.10972642743E+04  0.25444613141E+04  0.22957121970E+04 0.  0.
        1    1    3    3  502    0 -0.11219138105E+04 -0.21676860617E+03  0.66951078884E+03  0.13243579287E+04  0.50400001928E-02 0.  1.
       -1    1    3    3    0  502  0.11219138105E+04  0.21676860617E+03  0.42775348550E+03  0.12201033855E+04  0.50400001928E-02 0. -1.
</event>
<event>
 5   0  0.7044981E-06  0.2298909E+04  0.7818609E-02  0.8478352E-01
        2   -1    0    0  501    0  0.00000000000E+00  0.00000000000E+00  0.20203748536E+04  0.20203748536E+04  0.25500000920E-02 0.  1.
       -2   -1    0    0    0  501  0.00000000000E+00  0.00000000000E+00 -0.65396037667E+03  0.65396037668E+03  0.25500000920E-02 0. -1.
    10030    2    1    2    0    0  0.00000000000E+00  0.00000000000E+00  0.13664144769E+04  0.26743352303E+04  0.22989085239E+04 0.  0.
        4    1    3    3  502    0  0.61420778327E+03  0.61766530158E+03 -0.18925856990E+03  0.89139331666E+03  0.12699999809E+01 0. -1.
       -4    1    3    3    0  502 -0.61420778327E+03 -0.61766530158E+03  0.15556730468E+04  0.17829419136E+04  0.12699999809E+01 0.  1.
</event>
<event>
 5   0  0.3338758E-06  0.2313068E+04  0.7818609E-02  0.8472786E-01
        1   -1    0    0  501    0  0.00000000000E+00  0.00000000000E+00  0.18125143690E+04  0.18125143690E+04  0.50400001928E-02 0.  1.
       -1   -1    0    0    0  501  0.00000000000E+00  0.00000000000E+00 -0.73796424963E+03  0.73796424965E+03  0.50400001928E-02 0. -1.
    10030    2    1    2    0    0  0.00000000000E+00  0.00000000000E+00  0.10745501194E+04  0.25504786187E+04  0.23130679249E+04 0.  0.
        5    1    3    3  502    0  0.66265833009E+03 -0.71528459270E+03 -0.14849239951E+03  0.98631647746E+03  0.46999998093E+01 0. -1.
       -5    1    3    3    0  502 -0.66265833009E+03  0.71528459270E+03  0.12230425189E+04  0.15641621412E+04  0.46999998093E+01 0.  1.
</event>
<event>
 5   0  0.7242214E-06  0.2297412E+04  0.7818609E-02  0.8478942E-01
       -2   -1    0    0    0  501  0.00000000000E+00  0.00000000000E+00  0.14322111956E+04  0.14322111956E+04  0.25500000920E-02 0.  1.
        2   -1    0    0  501    0  0.00000000000E+00  0.00000000000E+00 -0.92132022446E+03  0.92132022446E+03  0.25500000920E-02 0. -1.
    10030    2    1    2    0    0  0.00000000000E+00  0.00000000000E+00  0.51089097115E+03  0.23535314201E+04  0.22974117090E+04 0.  0.
        1    1    3    3  502    0  0.50880936951E+03 -0.74243885975E+03  0.98661877761E+03  0.13354845740E+04  0.50400001928E-02 0.  1.
       -1    1    3    3    0  502 -0.50880936951E+03  0.74243885975E+03 -0.47572780646E+03  0.10180468461E+04  0.50400001928E-02 0. -1.
</event>
<event>
 5   0  0.7348107E-06  0.2310372E+04  0.7818609E-02  0.8473843E-01
        2   -1    0    0  501    0  0.00000000000E+00  0.00000000000E+00  0.10700601982E+04  0.10700601982E+04  0.25500000920E-02 0. -1.
       -2   -1    0    0    0  501  0.00000000000E+00  0.00000000000E+00 -0.12470838512E+04  0.12470838512E+04  0.25500000920E-02 0.  1.
    10030    2    1    2    0    0  0.00000000000E+00  0.00000000000E+00 -0.17702365300E+03  0.23171440495E+04  0.23103720853E+04 0.  0.
        3    1    3    3  502    0 -0.54478521504E+03 -0.86330576064E+02  0.92945628021E+03  0.10808019642E+04  0.10100000352E+00 0. -1.
       -3    1    3    3    0  502  0.54478521504E+03  0.86330576064E+02 -0.11064799332E+04  0.12363420852E+04  0.10100000352E+00 0.  1.
</event>
<event>
 5   0  0.3226427E-06  0.2298622E+04  0.7818609E-02  0.8478465E-01
        1   -1    0    0  501    0  0.00000000000E+00  0.00000000000E+00  0.14083047533E+04  0.14083047533E+04  0.50400001928E-02 0. -1.
       -1   -1    0    0    0  501  0.00000000000E+00  0.00000000000E+00 -0.93794715842E+03  0.93794715844E+03  0.50400001928E-02 0.  1.
    10030    2    1    2    0    0  0.00000000000E+00  0.00000000000E+00  0.47035759490E+03  0.23462519118E+04  0.22986217101E+04 0.  0.
        4    1    3    3  502    0 -0.75306828137E+02 -0.83033778322E+03  0.10426343507E+04  0.13349981104E+04  0.12699999809E+01 0. -1.
       -4    1    3    3    0  502  0.75306828137E+02  0.83033778322E+03 -0.57227675582E+03  0.10112538014E+04  0.12699999809E+01 0.  1.
</event>
<event>
 5   0  0.7497344E-06  0.2299587E+04  0.7818609E-02  0.8478084E-01
        2   -1    0    0  501    0  0.00000000000E+00  0.00000000000E+00  0.10757633083E+04  0.10757633083E+04  0.25500000920E-02 0.  1.
       -2   -1    0    0    0  501  0.00000000000E+00  0.00000000000E+00 -0.12289182958E+04  0.12289182958E+04  0.25500000920E-02 0. -1.
    10030    2    1    2    0    0  0.00000000000E+00  0.00000000000E+00 -0.15315498757E+03  0.23046816041E+04  0.22995871034E+04 0.  0.
        5    1    3    3  502    0  0.35991077381E+03 -0.88007581268E+03  0.57133280208E+03  0.11092846623E+04  0.46999998093E+01 0.  1.
       -5    1    3    3    0  502 -0.35991077381E+03  0.88007581268E+03 -0.72448778966E+03  0.11953969418E+04  0.46999998093E+01 0. -1.
</event>
<event>
 5   0  0.7003852E-06  0.2291262E+04  0.7818609E-02  0.8481374E-01
       -2   -1    0    0    0  501  0.00000000000E+00  0.00000000000E+00  0.20447587819E+04  0.20447587819E+04  0.25500000920E-02 0. -1.
        2   -1    0    0  501    0  0.00000000000E+00  0.00000000000E+00 -0.64187033845E+03  0.64187033846E+03  0.25500000920E-02 0.  1.
    10030    2    1    2    0    0  0.00000000000E+00  0.00000000000E+00  0.14028884434E+04  0.26866291204E+04  0.22912616711E+04 0.  0.
        2    1    3    3  502    0  0.45049855030E+03  0.10509684090E+04  0.61864434896E+03  0.13000786019E+04  0.25500000920E-02 0. -1.
       -2    1    3    3    0  502 -0.45049855030E+03 -0.10509684090E+04  0.78424409449E+03  0.13865505185E+04  0.25500000920E-02 0.  1.
</event>
<event>
 5   0  0.7003852E-06  0.2303918E+04  0.7818609E-02  0.8476378E-01
        2   -1    0    0  501    0  0.00000000000E+00  0.00000000000E+00  0.12795686377E+04  0.12795686377E+04  0.25500000920E-02 0. -1.
       -2   -1    0    0    0  501  0.00000000000E+00  0.00000000000E+00 -0.10370757457E+04  0.10370757457E+04  0.25500000920E-02 0.  1.
    10030    2    1    2    0    0  0.00000000000E+00  0.00000000000E+00  0.24249289202E+03  0.23166443834E+04  0.23039180533E+04 0.  0.
        2    1    3    3  502    0 -0.99766811925E+03  0.55533916957E+03  0.27462204909E+03  0.11743766599E+04  0.25500000920E-02 0. -1.
       -2    1    3    3    0  502  0.99766811925E+03 -0.55533916957E+03 -0.32129157073E+02  0.11422677235E+04  0.25500000920E-02 0.  1.
</event>
<event>
 5   0  0.3238713E-06  0.2301029E+04  0.7818609E-02  0.8477515E-01
        1   -1    0    0  501    0  0.00000000000E+00  0.00000000000E+00  0.16767633671E+04  0.16767633672E+04  0.50400001928E-02 0.  1.
       -1   -1    0    0    0  501  0.00000000000E+00  0.00000000000E+00 -0.78942810474E+03  0.78942810476E+03  0.50400001928E-02 0. -1.
    10030    2    1    2    0    0  0.00000000000E+00  0.00000000000E+00  0.88733526241E+03  0.24661914719E+04  0.23010294453E+04 0.  0.
        3    1    3    3  502    0 -0.20728940849E+03 -0.11206486117E+04  0.61266184510E+03  0.12938998247E+04  0.10100000352E+00 0. -1.
       -3    1    3    3    0  502  0.20728940849E+03  0.11206486117E+04  0.27467341731E+03  0.11722916472E+04  0.10100000352E+00 0.  1.
</event>
<event>
 5   0  0.3195296E-06  0.2299614E+04  0.7818609E-02  0.8478073E-01
        1   -1    0    0  501    0  0.00000000000E+00  0.00000000000E+00  0.11616591267E+04  0.11616591267E+04  0.50400001928E-02 0.  1.
       -1   -1    0    0    0  501  0.00000000000E+00  0.00000000000E+00 -0.11380757201E+04  0.11380757201E+04  0.50400001928E-02 0. -1.
    10030    2    1    2    0    0  0.00000000000E+00  0.00000000000E+00  0.23583406553E+02  0.22997348468E+04  0.22996139216E+04 0.  0.
        2    1    3    3  502    0 -0.44588035503E+03 -0.99322988895E+03  0.38159641559E+03  0.11536597105E+04  0.25500000920E-02 0.  1.
       -2    1    3    3    0  502  0.44588035503E+03  0.99322988895E+03 -0.35801300904E+03  0.11460751363E+04  0.25500000920E-02 0. -1.
</event>
<event>
 5   0  0.7242214E-06  0.2305391E+04  0.7818609E-02  0.8475799E-01
       -2   -1    0    0    0  501  0.00000000000E+00  0.00000000000E+00  0.14141897944E+04  0.14141897944E+04  0.25500000920E-02 0.  1.
        2   -1    0    0  501    0  0.00000000000E+00  0.00000000000E+00 -0.93955354439E+03  0.93955354440E+03  0.25500000920E-02 0. -1.
    10030    2    1    2    0    0  0.00000000000E+00  0.00000000000E+00  0.47463624998E+03  0.23537433388E+04  0.23053911024E+04 0.  0.
        1    1    3    3  502    0  0.14747962800E+03 -0.62231215190E+03  0.12164335583E+04  0.13743119212E+04  0.50400001928E-02 0.  1.
       -1    1    3    3    0  502 -0.14747962800E+03  0.62231215190E+03 -0.74179730829E+03  0.97943141755E+03  0.50400001928E-02 0. -1.
</event>
<event>
 5   0  0.3195296E-06  0.2305610E+04  0.7818609E-02  0.8475713E-01
       -1   -1    0    0    0  501  0.00000000000E+00  0.00000000000E+00  0.89617117583E+03  0.89617117584E+03  0.50400001928E-02 0.  1.
        1   -1    0    0  501    0  0.00000000000E+00  0.00000000000E+00 -0.14829296627E+04  0.14829296627E+04  0.50400001928E-02 0. -1.
    10030    2    1    2    0    0  0.00000000000E+00  0.00000000000E+00 -0.58675848684E+03  0.23791008385E+04  0.23056095242E+04 0.  0.
        2    1    3    3  502    0  0.19202585697E+03 -0.28011431263E+03 -0.14301387875E+04  0.14699098303E+04  0.25500000920E-02 0. -1.
       -2    1    3    3    0  502 -0.19202585697E+03  0.28011431263E+03  0.84338030062E+03  0.90919100819E+03  0.25500000920E-02 0.  1.
</event>
<event>
 5   0  0.3338758E-06  0.2300218E+04  0.7818609E-02  0.8477835E-01
       -1   -1    0    0    0  501  0.00000000000E+00  0.00000000000E+00  0.55783570611E+03  0.55783570613E+03  0.50400001928E-02 0. -1.
        1   -1    0    0  501    0  0.00000000000E+00  0.00000000000E+00 -0.23712189160E+04  0.23712189160E+04  0.50400001928E-02 0.  1.
    10030    2    1    2    0    0  0.00000000000E+00  0.00000000000E+00 -0.18133832099E+04  0.29290546221E+04  0.23002178839E+04 0.  0.
        5    1    3    3  502    0 -0.61700030419E+03 -0.19479538616E+03 -0.21174716574E+04  0.22141235123E+04  0.46999998093E+01 0.  1.
       -5    1    3    3    0  502  0.61700030419E+03  0.19479538616E+03  0.30408844755E+03  0.71493110980E+03  0.46999998093E+01 0. -1.
</event>
<event>
 5   0  0.7497344E-06  0.2293328E+04  0.7818609E-02  0.8480556E-01
       -2   -1    0    0    0  501  0.00000000000E+00  0.00000000000E+00  0.92018528870E+03  0.92018528870E+03  0.25500000920E-02 0.  1.
        2   -1    0    0  501    0  0.00000000000E+00  0.00000000000E+00 -0.14288845242E+04  0.14288845242E+04  0.25500000920E-02 0. -1.
    10030    2    1    2    0    0  0.00000000000E+00  0.00000000000E+00 -0.50869923553E+03  0.23490698129E+04  0.22933281653E+04 0.  0.
        5    1    3    3  502    0  0.42304242934E+03  0.10623174630E+04 -0.16663445240E+03  0.11555398824E+04  0.46999998093E+01 0.  1.
       -5    1    3    3    0  502 -0.42304242934E+03 -0.10623174630E+04 -0.34206478314E+03  0.11935299305E+04  0.46999998093E+01 0. -1.
</event>
<event>
 5   0  0.3195296E-06  0.2284123E+04  0.7818609E-02  0.8484208E-01
        1   -1    0    0  501    0  0.00000000000E+00  0.00000000000E+00  0.97263604670E+03  0.97263604671E+03  0.50400001928E-02 0.  1.
       -1   -1    0    0    0  501  0.00000000000E+00  0.00000000000E+00 -0.13409997393E+04  0.13409997393E+04  0.50400001928E-02 0. -1.
    10030    2    1    2    0    0  0.00000000000E+00  0.00000000000E+00 -0.36836369260E+03  0.23136357860E+04  0.22841231885E+04 0.  0.
        2    1    3    3  502    0 -0.81638507904E+03  0.43548368820E+03 -0.86228977323E+03  0.12647823105E+04  0.25500000920E-02 0. -1.
       -2    1    3    3    0  502  0.81638507904E+03 -0.43548368820E+03  0.49392608062E+03  0.10488534755E+04  0.25500000920E-02 0.  1.
</event>
<event>
 5   0  0.3238713E-06  0.2303779E+04  0.7818609E-02  0.8476433E-01
       -1   -1    0    0    0  501  0.00000000000E+00  0.00000000000E+00  0.70708834649E+03  0.70708834650E+03  0.50400001928E-02 0. -1.
        1   -1    0    0  501    0  0.00000000000E+00  0.00000000000E+00 -0.18764965712E+04  0.18764965712E+04  0.50400001928E-02 0.  1.
    10030    2    1    2    0    0  0.00000000000E+00  0.00000000000E+00 -0.11694082247E+04  0.25835849177E+04  0.23037785117E+04 0.  0.
        3    1    3    3  502    0  0.40787463522E+03  0.67391595049E+03  0.35780189845E+03  0.86518589628E+03  0.10100000352E+00 0. -1.
       -3    1    3    3    0  502 -0.40787463522E+03 -0.67391595049E+03 -0.15272101232E+04  0.17183990214E+04  0.10100000352E+00 0.  1.
</event>
<event>
 5   0  0.3338758E-06  0.2305976E+04  0.7818609E-02  0.8475569E-01
       -1   -1    0    0    0  501  0.00000000000E+00  0.00000000000E+00  0.13785906758E+04  0.13785906758E+04  0.50400001928E-02 0. -1.
        1   -1    0    0  501    0  0.00000000000E+00  0.00000000000E+00 -0.96430426971E+03  0.96430426972E+03  0.50400001928E-02 0.  1.
    10030    2    1    2    0    0  0.00000000000E+00  0.00000000000E+00  0.41428640611E+03  0.23428949455E+04  0.23059756069E+04 0.  0.
        5    1    3    3  502    0 -0.47021987438E+03  0.88347374572E+03 -0.37449601854E+03  0.10685981226E+04  0.46999998093E+01 0.  1.
       -5    1    3    3    0  502  0.47021987438E+03 -0.88347374572E+03  0.78878242465E+03  0.12742968230E+04  0.46999998093E+01 0. -1.
</event>
<event>
 5   0  0.7003852E-06  0.2296726E+04  0.7818609E-02  0.8479213E-01
       -2   -1    0    0    0  501  0.00000000000E+00  0.00000000000E+00  0.86604540779E+03  0.86604540780E+03  0.25500000920E-02 0. -1.
        2   -1    0    0  501    0  0.00000000000E+00  0.00000000000E+00 -0.15227118840E+04  0.15227118840E+04  0.25500000920E-02 0.  1.
    10030    2    1    2    0    0  0.00000000000E+00  0.00000000000E+00 -0.65666647618E+03  0.23887572918E+04  0.22967260477E+04 0.  0.
        2    1    3    3  502    0 -0.79947461756E+03  0.14361359456E+02 -0.11856011395E+04  0.14300405501E+04  0.25500000920E-02 0.  1.
       -2    1    3    3    0  502  0.79947461756E+03 -0.14361359456E+02  0.52893466333E+03  0.95871674172E+03  0.25500000920E-02 0. -1.
</event>
<event>
 5   0  0.7242214E-06  0.2290445E+04  0.7818609E-02  0.8481698E-01
        2   -1    0    0  501    0  0.00000000000E+00  0.00000000000E+00  0.17230927885E+04  0.17230927885E+04  0.25500000920E-02 0.  1.
       -2   -1    0    0    0  501  0.00000000000E+00  0.00000000000E+00 -0.76115167388E+03  0.76115167388E+03  0.25500000920E-02 0. -1.
    10030    2    1    2    0    0  0.00000000000E+00  0.00000000000E+00  0.96194111462E+03  0.24842444624E+04  0.22904453368E+04 0.  0.
        1    1    3    3  502    0  0.10362991430E+04 -0.11764147270E+03 -0.32108842272E+02  0.10434492837E+04  0.50400001928E-02 0. -1.
       -1    1    3    3    0  502 -0.10362991430E+04  0.11764147270E+03  0.99404995689E+03  0.14407951786E+04  0.50400001928E-02 0.  1.
</event>
<event>
 5   0  0.3238713E-06  0.2307861E+04  0.7818609E-02  0.8474828E-01
       -1   -1    0    0    0  501  0.00000000000E+00  0.00000000000E+00  0.87189100174E+03  0.87189100175E+03  0.50400001928E-02 0.  1.
        1   -1    0    0  501    0  0.00000000000E+00  0.00000000000E+00 -0.15272036112E+04  0.15272036112E+04  0.50400001928E-02 0. -1.
    10030    2    1    2    0    0  0.00000000000E+00  0.00000000000E+00 -0.65531260942E+03  0.23990946129E+04  0.23078605559E+04 0.  0.
        3    1    3    3  502    0 -0.66443819313E+03 -0.18560357744E+03 -0.12892251306E+04  0.14621997975E+04  0.10100000352E+00 0. -1.
       -3    1    3    3    0  502  0.66443819313E+03  0.18560357744E+03  0.63391252114E+03  0.93689481539E+03  0.10100000352E+00 0.  1.
</event>
<event>
 5   0  0.7242214E-06  0.2299109E+04  0.7818609E-02  0.8478273E-01
        2   -1    0    0  501    0  0.00000000000E+00  0.00000000000E+00  0.15568204426E+04  0.15568204426E+04  0.25500000920E-02 0.  1.
       -2   -1    0    0    0  501  0.00000000000E+00  0.00000000000E+00 -0.84882976988E+03  0.84882976988E+03  0.25500000920E-02 0. -1.
    10030    2    1    2    0    0  0.00000000000E+00  0.00000000000E+00  0.70799067273E+03  0.24056502125E+04  0.22991089909E+04 0.  0.
        1    1    3    3  502    0  0.87475918847E+03  0.62829504189E+03 -0.66520507458E+02  0.10790659273E+04  0.50400001928E-02 0.  1.
       -1    1    3    3    0  502 -0.87475918847E+03 -0.62829504189E+03  0.77451118019E+03  0.13265842852E+04  0.50400001928E-02 0. -1.
</event>
<event>
 5   0  0.7242214E-06  0.2248265E+04  0.7818609E-02  0.8498603E-01
        2   -1    0    0  501    0  0.00000000000E+00  0.00000000000E+00  0.12956415291E+04  0.12956415291E+04  0.25500000920E-02 0. -1.
       -2   -1    0    0    0  501  0.00000000000E+00  0.00000000000E+00 -0.97532704418E+03  0.97532704418E+03  0.25500000920E-02 0.  1.
    10030    2    1    2    0    0  0.00000000000E+00  0.00000000000E+00  0.32031448494E+03  0.22709685733E+04  0.22482653072E+04 0.  0.
        1    1    3    3  502    0 -0.12378170433E+03  0.88131262822E+02  0.12852202936E+04  0.12941716397E+04  0.50400001928E-02 0. -1.
       -1    1    3    3    0  502  0.12378170433E+03 -0.88131262822E+02 -0.96490580870E+03  0.97679693360E+03  0.50400001928E-02 0.  1.
</event>
<event>
 5   0  0.7497344E-06  0.2295905E+04  0.7818609E-02  0.8479537E-01
        2   -1    0    0  501    0  0.00000000000E+00  0.00000000000E+00  0.12844582141E+04  0.12844582141E+04  0.25500000920E-02 0. -1.
       -2   -1    0    0    0  501  0.00000000000E+00  0.00000000000E+00 -0.10259541020E+04  0.10259541020E+04  0.25500000920E-02 0.  1.
    10030    2    1    2    0    0  0.00000000000E+00  0.00000000000E+00  0.25850411216E+03  0.23104123161E+04  0.22959052015E+04 0.  0.
        5    1    3    3  502    0  0.10800874121E+04  0.38698266130E+03  0.91215262656E+02  0.11509503516E+04  0.46999998093E+01 0.  1.
       -5    1    3    3    0  502 -0.10800874121E+04 -0.38698266130E+03  0.16728884951E+03  0.11594619644E+04  0.46999998093E+01 0. -1.
</event>
<event>
 5   0  0.7242214E-06  0.2295764E+04  0.7818609E-02  0.8479593E-01
       -2   -1    0    0    0  501  0.00000000000E+00  0.00000000000E+00  0.13783331376E+04  0.13783331376E+04  0.25500000920E-02 0. -1.
        2   -1    0    0  501    0  0.00000000000E+00  0.00000000000E+00 -0.95596152457E+03  0.95596152457E+03  0.25500000920E-02 0.  1.
    10030    2    1    2    0    0  0.00000000000E+00  0.00000000000E+00  0.42237161302E+03  0.23342946622E+04  0.22957643151E+04 0.  0.
        1    1    3    3  502    0  0.49885817726E+02 -0.98963287013E+03  0.80036903886E+03  0.12737552398E+04  0.50400001928E-02 0. -1.
       -1    1    3    3    0  502 -0.49885817726E+02  0.98963287013E+03 -0.37799742584E+03  0.10605394224E+04  0.50400001928E-02 0.  1.
</event>
<event>
 5   0  0.3184492E-06  0.2297779E+04  0.7818609E-02  0.8478797E-01
        1   -1    0    0  501    0  0.00000000000E+00  0.00000000000E+00  0.14959793715E+04  0.14959793715E+04  0.50400001928E-02 0. -1.
       -1   -1    0    0    0  501  0.00000000000E+00  0.00000000000E+00 -0.88232999486E+03  0.88232999488E+03  0.50400001928E-02 0.  1.
    10030    2    1    2    0    0  0.00000000000E+00  0.00000000000E+00  0.61364937667E+03  0.23783093664E+04  0.22977793377E+04 0.  0.
        1    1    3    3  502    0 -0.61181941182E+03 -0.70967350796E+03  0.99494640008E+03  0.13667032669E+04  0.50400001928E-02 0. -1.
       -1    1    3    3    0  502  0.61181941182E+03  0.70967350796E+03 -0.38129702341E+03  0.10116060996E+04  0.50400001928E-02 0.  1.
</event>
<event>
 5   0  0.3184492E-06  0.2309167E+04  0.7818609E-02  0.8474316E-01
        1   -1    0    0  501    0  0.00000000000E+00  0.00000000000E+00  0.26994117536E+04  0.26994117536E+04  0.50400001928E-02 0.  1.
       -1   -1    0    0    0  501  0.00000000000E+00  0.00000000000E+00 -0.49383452621E+03  0.49383452623E+03  0.50400001928E-02 0. -1.
    10030    2    1    2    0    0  0.00000000000E+00  0.00000000000E+00  0.22055772274E+04  0.31932462798E+04  0.23091667107E+04 0.  0.
        1    1    3    3  502    0 -0.11713748246E+02  0.36425716677E+02 -0.49295753452E+03  0.49444026494E+03  0.50400001928E-02 0. -1.
       -1    1    3    3    0  502  0.11713748246E+02 -0.36425716677E+02  0.26985347619E+04  0.26988060149E+04  0.50400001928E-02 0.  1.
</event>
<event>
 5   0  0.3184492E-06  0.2300398E+04  0.7818609E-02  0.8477764E-01
       -1   -1    0    0    0  501  0.00000000000E+00  0.00000000000E+00  0.81561243657E+03  0.81561243658E+03  0.50400001928E-02 0.  1.
        1   -1    0    0  501    0  0.00000000000E+00  0.00000000000E+00 -0.16220416319E+04  0.16220416319E+04  0.50400001928E-02 0. -1.
    10030    2    1    2    0    0  0.00000000000E+00  0.00000000000E+00 -0.80642919534E+03  0.24376540685E+04  0.23003976418E+04 0.  0.
        1    1    3    3  502    0  0.22485153817E+03 -0.63777320049E+03  0.58269918290E+03  0.89266522687E+03  0.50400001928E-02 0.  1.
       -1    1    3    3    0  502 -0.22485153817E+03  0.63777320049E+03 -0.13891283782E+04  0.15449888416E+04  0.50400001928E-02 0. -1.
</event>
<event>
 5   0  0.7497344E-06  0.2298453E+04  0.7818609E-02  0.8478531E-01
        2   -1    0    0  501    0  0.00000000000E+00  0.00000000000E+00  0.22672680642E+04  0.22672680642E+04  0.25500000920E-02 0.  1.
       -2   -1    0    0    0  501  0.00000000000E+00  0.00000000000E+00 -0.58251652339E+03  0.58251652340E+03  0.25500000920E-02 0. -1.
    10030    2    1    2    0    0  0.00000000000E+00  0.00000000000E+00  0.16847515408E+04  0.28497845876E+04  0.22984526189E+04 0.  0.
        5    1    3    3  502    0 -0.10483138964E+04  0.36368209431E+03  0.47150650012E+03  0.12056397309E+04  0.46999998093E+01 0. -1.
       -5    1    3    3    0  502  0.10483138964E+04 -0.36368209431E+03  0.12132450407E+04  0.16441448567E+04  0.46999998093E+01 0.  1.
</event>
<event>
 5   0  0.7242214E-06  0.2298732E+04  0.7818609E-02  0.8478421E-01
        2   -1    0    0  501    0  0.00000000000E+00  0.00000000000E+00  0.10199934003E+04  0.10199934003E+04  0.25500000920E-02 0. -1.
       -2   -1    0    0    0  501  0.00000000000E+00  0.00000000000E+00 -0.12951478634E+04  0.12951478634E+04  0.25500000920E-02 0.  1.
    10030    2    1    2    0    0  0.00000000000E+00  0.00000000000E+00 -0.27515446308E+03  0.23151412637E+04  0.22987320618E+04 0.  0.
        1    1    3    3  502    0 -0.51599170072E+03  0.92441744936E+03  0.31310702462E+03  0.11040068228E+04  0.50400001928E-02 0. -1.
       -1    1    3    3    0  502  0.51599170072E+03 -0.92441744936E+03 -0.58826148770E+03  0.12111344409E+04  0.50400001928E-02 0.  1.
</event>
<event>
 5   0  0.3338758E-06  0.2299454E+04  0.7818609E-02  0.8478137E-01
        1   -1    0    0  501    0  0.00000000000E+00  0.00000000000E+00  0.12795682667E+04  0.12795682667E+04  0.50400001928E-02 0.  1.
       -1   -1    0    0    0  501  0.00000000000E+00  0.00000000000E+00 -0.10330608042E+04  0.10330608042E+04  0.50400001928E-02 0. -1.
    10030    2    1    2    0    0  0.00000000000E+00  0.00000000000E+00  0.24650746247E+03  0.23126290709E+04  0.22994536939E+04 0.  0.
        5    1    3    3  502    0  0.44868186843E+03 -0.10371673053E+04  0.33617006298E+03  0.11790096859E+04  0.46999998093E+01 0.  1.
       -5    1    3    3    0  502 -0.44868186843E+03  0.10371673053E+04 -0.89662600512E+02  0.11336193850E+04  0.46999998093E+01 0. -1.
</event>
<event>
 5   0  0.3338758E-06  0.2295221E+04  0.7818609E-02  0.8479808E-01
       -1   -1    0    0    0  501  0.00000000000E+00  0.00000000000E+00  0.13728867658E+04  0.13728867658E+04  0.50400001928E-02 0. -1.
        1   -1    0    0  501    0  0.00000000000E+00  0.00000000000E+00 -0.95929994700E+03  0.95929994701E+03  0.50400001928E-02 0.  1.
    10030    2    1    2    0    0  0.00000000000E+00  0.00000000000E+00  0.41358681880E+03  0.23321867128E+04  0.22952212980E+04 0.  0.
        5    1    3    3  502    0  0.10020893373E+04  0.81382821647E+02 -0.35545536078E+03  0.10663849244E+04  0.46999998093E+01 0.  1.
       -5    1    3    3    0  502 -0.10020893373E+04 -0.81382821647E+02  0.76904217958E+03  0.12658017884E+04  0.46999998093E+01 0. -1.
</event>
<event>
 5   0  0.7242214E-06  0.2299631E+04  0.7818609E-02  0.8478066E-01
        2   -1    0    0  501    0  0.00000000000E+00  0.00000000000E+00  0.15077565546E+04  0.15077565546E+04  0.25500000920E-02 0. -1.
       -2   -1    0    0    0  501  0.00000000000E+00  0.00000000000E+00 -0.87684989279E+03  0.87684989280E+03  0.25500000920E-02 0.  1.
    10030    2    1    2    0    0  0.00000000000E+00  0.00000000000E+00  0.63090666181E+03  0.23846064474E+04  0.22996314255E+04 0.  0.
        1    1    3    3  502    0 -0.95951236409E+03 -0.11217450627E+03  0.96205652552E+03  0.13633781042E+04  0.50400001928E-02 0. -1.
       -1    1    3    3    0  502  0.95951236409E+03  0.11217450627E+03 -0.33114986371E+03  0.10212283432E+04  0.50400001928E-02 0.  1.
</event>
<event>
 5   0  0.3238713E-06  0.2295176E+04  0.7818609E-02  0.8479825E-01
       -1   -1    0    0    0  501  0.00000000000E+00  0.00000000000E+00  0.73688421428E+03  0.73688421429E+03  0.50400001928E-02 0. -1.
        1   -1    0    0  501    0  0.00000000000E+00  0.00000000000E+00 -0.17871989668E+04  0.17871989668E+04  0.50400001928E-02 0.  1.
    10030    2    1    2    0    0  0.00000000000E+00  0.00000000000E+00 -0.10503147525E+04  0.25240831811E+04  0.22951764259E+04 0.  0.
        3    1    3    3  502    0  0.11199063013E+04 -0.21190313312E+03 -0.37816432232E+03  0.12008752335E+04  0.10100000352E+00 0. -1.
       -3    1    3    3    0  502 -0.11199063013E+04  0.21190313312E+03 -0.67215043023E+03  0.13232079476E+04  0.10100000352E+00 0.  1.
</event>
<event>
 5   0  0.3195296E-06  0.2263389E+04  0.7818609E-02  0.8492498E-01
       -1   -1    0    0    0  501  0.00000000000E+00  0.00000000000E+00  0.23789726883E+04  0.23789726883E+04  0.50400001928E-02 0. -1.
        1   -1    0    0  501    0  0.00000000000E+00  0.00000000000E+00 -0.53835544562E+03  0.53835544564E+03  0.50400001928E-02 0.  1.
    10030    2    1    2    0    0  0.00000000000E+00  0.00000000000E+00  0.18406172426E+04  0.29173281339E+04  0.22633894068E+04 0.  0.
        2    1    3    3  502    0  0.32460311795E+02 -0.63505685239E+03  0.21269347676E+04  0.22199554913E+04  0.25500000920E-02 0. -1.
       -2    1    3    3    0  502 -0.32460311795E+02  0.63505685239E+03 -0.28631752495E+03  0.69737264264E+03  0.25500000920E-02 0.  1.
</event>
<event>
 5   0  0.3226427E-06  0.2300672E+04  0.7818609E-02  0.8477656E-01
       -1   -1    0    0    0  501  0.00000000000E+00  0.00000000000E+00  0.53185707217E+03  0.53185707220E+03  0.50400001928E-02 0.  1.
        1   -1    0    0  501    0  0.00000000000E+00  0.00000000000E+00 -0.24880245851E+04  0.24880245851E+04  0.50400001928E-02 0. -1.
    10030    2    1    2    0    0  0.00000000000E+00  0.00000000000E+00 -0.19561675130E+04  0.30198816573E+04  0.23006724855E+04 0.  0.
        4    1    3    3  502    0  0.18311652367E+03 -0.90440817472E+03 -0.18796708241E+04  0.20939555458E+04  0.12699999809E+01 0. -1.
       -4    1    3    3    0  502 -0.18311652367E+03  0.90440817472E+03 -0.76496688826E+02  0.92592611155E+03  0.12699999809E+01 0.  1.
</event>
<event>
 5   0  0.3226427E-06  0.2299766E+04  0.7818609E-02  0.8478013E-01
       -1   -1    0    0    0  501  0.00000000000E+00  0.00000000000E+00  0.91320087933E+03  0.91320087935E+03  0.50400001928E-02 0. -1.
        1   -1    0    0  501    0  0.00000000000E+00  0.00000000000E+00 -0.14479086779E+04  0.14479086779E+04  0.50400001928E-02 0.  1.
    10030    2    1    2    0    0  0.00000000000E+00  0.00000000000E+00 -0.53470779860E+03  0.23611095573E+04  0.22997664907E+04 0.  0.
        4    1    3    3  502    0  0.53653164216E+03  0.43064464628E+03  0.67858465832E+03  0.96633315467E+03  0.12699999809E+01 0. -1.
       -4    1    3    3    0  502 -0.53653164216E+03 -0.43064464628E+03 -0.12132924569E+04  0.13947764026E+04  0.12699999809E+01 0.  1.
</event>
<event>
 5   0  0.3184492E-06  0.2298132E+04  0.7818609E-02  0.8478658E-01
       -1   -1    0    0    0  501  0.00000000000E+00  0.00000000000E+00  0.64366982128E+03  0.64366982130E+03  0.50400001928E-02 0.  1.
        1   -1    0    0  501    0  0.00000000000E+00  0.00000000000E+00 -0.20512892373E+04  0.20512892373E+04  0.50400001928E-02 0. -1.
    10030    2    1    2    0    0  0.00000000000E+00  0.00000000000E+00 -0.14076194160E+04  0.26949590586E+04  0.22981322649E+04 0.  0.
        1    1    3    3  502    0  0.63885219757E+02  0.58626376836E+03  0.45266674232E+03  0.74343372739E+03  0.50400001928E-02 0.  1.
       -1    1    3    3    0  502 -0.63885219757E+02 -0.58626376836E+03 -0.18602861583E+04  0.19515253312E+04  0.50400001928E-02 0. -1.
</event>
<event>
 5   0  0.3238713E-06  0.2307082E+04  0.7818609E-02  0.8475134E-01
       -1   -1    0    0    0  501  0.00000000000E+00  0.00000000000E+00  0.11009910365E+04  0.11009910365E+04  0.50400001928E-02 0. -1.
        1   -1    0    0  501    0  0.00000000000E+00  0.00000000000E+00 -0.12085990223E+04  0.12085990223E+04  0.50400001928E-02 0.  1.
    10030    2    1    2    0    0  0.00000000000E+00  0.00000000000E+00 -0.10760798575E+03  0.23095900588E+04  0.23070818713E+04 0.  0.
        3    1    3    3  502    0 -0.97901036987E+03  0.60305678490E+03  0.38588759928E+02  0.11504902836E+04  0.10100000352E+00 0. -1.
       -3    1    3    3    0  502  0.97901036987E+03 -0.60305678490E+03 -0.14619674568E+03  0.11590997752E+04  0.10100000352E+00 0.  1.
</event>
<event>
 5   0  0.3226427E-06  0.2279989E+04  0.7818609E-02  0.8485853E-01
        1   -1    0    0  501    0  0.00000000000E+00  0.00000000000E+00  0.10906447996E+04  0.10906447996E+04  0.50400001928E-02 0. -1.
       -1   -1    0    0    0  501  0.00000000000E+00  0.00000000000E+00 -0.11915774534E+04  0.11915774534E+04  0.50400001928E-02 0.  1.
    10030    2    1    2    0    0  0.00000000000E+00  0.00000000000E+00 -0.10093265379E+03  0.22822222530E+04  0.22799892569E+04 0.  0.
        4    1    3    3  502    0 -0.11145356343E+04 -0.10508674544E+03  0.16504254985E+03  0.11315801166E+04  0.12699999809E+01 0. -1.
       -4    1    3    3    0  502  0.11145356343E+04  0.10508674544E+03 -0.26597520364E+03  0.11506421364E+04  0.12699999809E+01 0.  1.
</event>
<event>
 5   0  0.7348107E-06  0.2300620E+04  0.7818609E-02  0.8477677E-01
        2   -1    0    0  501    0  0.00000000000E+00  0.00000000000E+00  0.81992981324E+03  0.81992981325E+03  0.25500000920E-02 0. -1.
       -2   -1    0    0    0  501  0.00000000000E+00  0.00000000000E+00 -0.16138132577E+04  0.16138132578E+04  0.25500000920E-02 0.  1.
    10030    2    1    2    0    0  0.00000000000E+00  0.00000000000E+00 -0.79388344451E+03  0.24337430710E+04  0.23006204407E+04 0.  0.
        3    1    3    3  502    0  0.67133666209E+03  0.93060546710E+03 -0.48219099785E+03  0.12446797250E+04  0.10100000352E+00 0. -1.
       -3    1    3    3    0  502 -0.67133666209E+03 -0.93060546710E+03 -0.31169244666E+03  0.11890633460E+04  0.10100000352E+00 0.  1.
</event>
<event>
 5   0  0.3195296E-06  0.2294381E+04  0.7818609E-02  0.8480140E-01
       -1   -1    0    0    0  501  0.00000000000E+00  0.00000000000E+00  0.79556428179E+03  0.79556428181E+03  0.50400001928E-02 0. -1.
        1   -1    0    0  501    0  0.00000000000E+00  0.00000000000E+00 -0.16542298795E+04  0.16542298795E+04  0.50400001928E-02 0.  1.
    10030    2    1    2    0    0  0.00000000000E+00  0.00000000000E+00 -0.85866559773E+03  0.24497941613E+04  0.22943811419E+04 0.  0.
        2    1    3    3  502    0 -0.66773494247E+03  0.93274831660E+03 -0.44270427435E+03  0.12295838524E+04  0.25500000920E-02 0. -1.
       -2    1    3    3    0  502  0.66773494247E+03 -0.93274831660E+03 -0.41596132338E+03  0.12202103089E+04  0.25500000920E-02 0.  1.
</event>
<event>
 5   0  0.3238713E-06  0.2302211E+04  0.7818609E-02  0.8477050E-01
       -1   -1    0    0    0  501  0.00000000000E+00  0.00000000000E+00  0.84600229987E+03  0.84600229988E+03  0.50400001928E-02 0.  1.
        1   -1    0    0  501    0  0.00000000000E+00  0.00000000000E+00 -0.15662407773E+04  0.15662407773E+04  0.50400001928E-02 0. -1.
    10030    2    1    2    0    0  0.00000000000E+00  0.00000000000E+00 -0.72023847739E+03  0.24122430771E+04  0.23022105027E+04 0.  0.
        3    1    3    3  502    0 -0.11416830519E+03  0.11348021126E+04 -0.52322905673E+03  0.12548222554E+04  0.10100000352E+00 0.  1.
       -3    1    3    3    0  502  0.11416830519E+03 -0.11348021126E+04 -0.19700942066E+03  0.11574208218E+04  0.10100000352E+00 0. -1.
</event>
<event>
 5   0  0.3195296E-06  0.2300741E+04  0.7818609E-02  0.8477629E-01
        1   -1    0    0  501    0  0.00000000000E+00  0.00000000000E+00  0.16429741452E+04  0.16429741452E+04  0.50400001928E-02 0. -1.
       -1   -1    0    0    0  501  0.00000000000E+00  0.00000000000E+00 -0.80546124145E+03  0.80546124147E+03  0.50400001928E-02 0.  1.
    10030    2    1    2    0    0  0.00000000000E+00  0.00000000000E+00  0.83751290373E+03  0.24484353867E+04  0.23007407457E+04 0.  0.
        2    1    3    3  502    0  0.21517630740E+03 -0.34456913366E+03 -0.72658730574E+03  0.83244089521E+03  0.25500000920E-02 0.  1.
       -2    1    3    3    0  502 -0.21517630740E+03  0.34456913366E+03  0.15641002095E+04  0.16159944915E+04  0.25500000920E-02 0. -1.
</event>
<event>
 5   0  0.7242214E-06  0.2301353E+04  0.7818609E-02  0.8477388E-01
       -2   -1    0    0    0  501  0.00000000000E+00  0.00000000000E+00  0.12611682108E+04  0.12611682108E+04  0.25500000920E-02 0.  1.
        2   -1    0    0  501    0  0.00000000000E+00  0.00000000000E+00 -0.10498647567E+04  0.10498647567E+04  0.25500000920E-02 0. -1.
    10030    2    1    2    0    0  0.00000000000E+00  0.00000000000E+00  0.21130345407E+03  0.23110329675E+04  0.23013526950E+04 0.  0.
        1    1    3    3  502    0  0.16284159879E+03 -0.96026172869E+03 -0.50965400944E+03  0.10992575600E+04  0.50400001928E-02 0. -1.
       -1    1    3    3    0  502 -0.16284159879E+03  0.96026172869E+03  0.72095746351E+03  0.12117754074E+04  0.50400001928E-02 0.  1.
</event>
<event>
 5   0  0.3184492E-06  0.2299320E+04  0.7818609E-02  0.8478189E-01
       -1   -1    0    0    0  501  0.00000000000E+00  0.00000000000E+00  0.86172882656E+03  0.86172882658E+03  0.50400001928E-02 0.  1.
        1   -1    0    0  501    0  0.00000000000E+00  0.00000000000E+00 -0.15337978909E+04  0.15337978909E+04  0.50400001928E-02 0. -1.
    10030    2    1    2    0    0  0.00000000000E+00  0.00000000000E+00 -0.67206906434E+03  0.23955267175E+04  0.22993197748E+04 0.  0.
        1    1    3    3  502    0 -0.10082254857E+04  0.46913177851E+03 -0.63998560367E+03  0.12830373449E+04  0.50400001928E-02 0. -1.
       -1    1    3    3    0  502  0.10082254857E+04 -0.46913177851E+03 -0.32083460671E+02  0.11124893726E+04  0.50400001928E-02 0.  1.
</event>
<event>
 5   0  0.7003852E-06  0.2288133E+04  0.7818609E-02  0.8482615E-01
       -2   -1    0    0    0  501  0.00000000000E+00  0.00000000000E+00  0.88966862730E+03  0.88966862731E+03  0.25500000920E-02 0.  1.
        2   -1    0    0  501    0  0.00000000000E+00  0.00000000000E+00 -0.14712088425E+04  0.14712088425E+04  0.25500000920E-02 0. -1.
    10030    2    1    2    0    0  0.00000000000E+00  0.00000000000E+00 -0.58154021518E+03  0.23608774698E+04  0.22881331704E+04 0.  0.
        2    1    3    3  502    0  0.47247076992E+03  0.41751304471E+03  0.69422252414E+03  0.93781164631E+03  0.25500000920E-02 0.  1.
       -2    1    3    3    0  502 -0.47247076992E+03 -0.41751304471E+03 -0.12757627393E+04  0.14230658235E+04  0.25500000920E-02 0. -1.
</event>
<event>
 5   0  0.2519625E-06  0.2272060E+04  0.7818609E-02  0.8489020E-01
        3   -1    0    0  501    0  0.00000000000E+00  0.00000000000E+00  0.98822999338E+03  0.98822999854E+03  0.10100000352E+00 0.  1.
       -3   -1    0    0    0  501  0.00000000000E+00  0.00000000000E+00 -0.13059350314E+04  0.13059350354E+04  0.10100000352E+00 0. -1.
    10030    2    1    2    0    0  0.00000000000E+00  0.00000000000E+00 -0.31770503806E+03  0.22941650339E+04  0.22720600150E+04 0.  0.
        4    1    3    3  502    0 -0.11274507534E+04  0.65881009556E+02 -0.34869234860E+02  0.11299128219E+04  0.12699999809E+01 0. -1.
       -4    1    3    3    0  502  0.11274507534E+04 -0.65881009556E+02 -0.28283580320E+03  0.11642522120E+04  0.12699999809E+01 0.  1.
</event>
<event>
 5   0  0.3184492E-06  0.2300565E+04  0.7818609E-02  0.8477698E-01
        1   -1    0    0  501    0  0.00000000000E+00  0.00000000000E+00  0.13422377970E+04  0.13422377970E+04  0.50400001928E-02 0.  1.
       -1   -1    0    0    0  501  0.00000000000E+00  0.00000000000E+00 -0.98577918801E+03  0.98577918803E+03  0.50400001928E-02 0. -1.
    10030    2    1    2    0    0  0.00000000000E+00  0.00000000000E+00  0.35645860895E+03  0.23280169850E+04  0.23005652224E+04 0.  0.
        1    1    3    3  502    0  0.54664452417E+03 -0.75883009853E+03 -0.49946849743E+03  0.10602415452E+04  0.50400001928E-02 0. -1.
       -1    1    3    3    0  502 -0.54664452417E+03  0.75883009853E+03  0.85592710638E+03  0.12677754398E+04  0.50400001928E-02 0.  1.
</event>
<event>
 5   0  0.3238713E-06  0.2296183E+04  0.7818609E-02  0.8479428E-01
       -1   -1    0    0    0  501  0.00000000000E+00  0.00000000000E+00  0.14950845763E+04  0.14950845763E+04  0.50400001928E-02 0. -1.
        1   -1    0    0  501    0  0.00000000000E+00  0.00000000000E+00 -0.88163155774E+03  0.88163155776E+03  0.50400001928E-02 0.  1.
    10030    2    1    2    0    0  0.00000000000E+00  0.00000000000E+00  0.61345301860E+03  0.23767161341E+04  0.22961826966E+04 0.  0.
        3    1    3    3  502    0 -0.29535419282E+03 -0.10432072835E+04 -0.84139490070E+02  0.10874718385E+04  0.10100000352E+00 0.  1.
       -3    1    3    3    0  502  0.29535419282E+03  0.10432072835E+04  0.69759250867E+03  0.12892442956E+04  0.10100000352E+00 0. -1.
</event>
<event>
 5   0  0.7348107E-06  0.2299156E+04  0.7818609E-02  0.8478254E-01
       -2   -1    0    0    0  501  0.00000000000E+00  0.00000000000E+00  0.51986301043E+03  0.51986301044E+03  0.25500000920E-02 0. -1.
        2   -1    0    0  501    0  0.00000000000E+00  0.00000000000E+00 -0.25420721546E+04  0.25420721546E+04  0.25500000920E-02 0.  1.
    10030    2    1    2    0    0  0.00000000000E+00  0.00000000000E+00 -0.20222091441E+04  0.30619351650E+04  0.22991557433E+04 0.  0.
        3    1    3    3  502    0 -0.58562473957E+02 -0.68706293932E+03  0.21386170410E+03  0.72195698253E+03  0.10100000352E+00 0. -1.
       -3    1    3    3    0  502  0.58562473957E+02  0.68706293932E+03 -0.22360708482E+04  0.23399781825E+04  0.10100000352E+00 0.  1.
</event>
<event>
 5   0  0.7044981E-06  0.2266597E+04  0.7818609E-02  0.8491209E-01
       -2   -1    0    0    0  501  0.00000000000E+00  0.00000000000E+00  0.91965445136E+03  0.91965445137E+03  0.25500000920E-02 0. -1.
        2   -1    0    0  501    0  0.00000000000E+00  0.00000000000E+00 -0.13965738174E+04  0.13965738174E+04  0.25500000920E-02 0.  1.
    10030    2    1    2    0    0  0.00000000000E+00  0.00000000000E+00 -0.47691936607E+03  0.23162282688E+04  0.22665968568E+04 0.  0.
        4    1    3    3  502    0  0.60726644902E+03  0.31151564058E+03  0.68608831934E+03  0.96774652119E+03  0.12699999809E+01 0. -1.
       -4    1    3    3    0  502 -0.60726644902E+03 -0.31151564058E+03 -0.11630076854E+04  0.13484817476E+04  0.12699999809E+01 0.  1.
</event>
<event>
 5   0  0.3184492E-06  0.2247652E+04  0.7818609E-02  0.8498852E-01
        1   -1    0    0  501    0  0.00000000000E+00  0.00000000000E+00  0.20214697573E+04  0.20214697573E+04  0.50400001928E-02 0.  1.
       -1   -1    0    0    0  501  0.00000000000E+00  0.00000000000E+00 -0.62478554970E+03  0.62478554972E+03  0.50400001928E-02 0. -1.
    10030    2    1    2    0    0  0.00000000000E+00  0.00000000000E+00  0.13966842076E+04  0.26462553070E+04  0.22476521915E+04 0.  0.
        1    1    3    3  502    0 -0.66682414572E+03  0.83778689416E+03  0.11000966195E+04  0.15351722684E+04  0.50400001928E-02 0.  1.
       -1    1    3    3    0  502  0.66682414572E+03 -0.83778689416E+03  0.29658758812E+03  0.11110830387E+04  0.50400001928E-02 0. -1.
</event>
<event>
 5   0  0.3338758E-06  0.2297597E+04  0.7818609E-02  0.8478869E-01
        1   -1    0    0  501    0  0.00000000000E+00  0.00000000000E+00  0.88817467361E+03  0.88817467363E+03  0.50400001928E-02 0. -1.
       -1   -1    0    0    0  501  0.00000000000E+00  0.00000000000E+00 -0.14858989582E+04  0.14858989583E+04  0.50400001928E-02 0.  1.
    10030    2    1    2    0    0  0.00000000000E+00  0.00000000000E+00 -0.59772428463E+03  0.23740736319E+04  0.22975968509E+04 0.  0.
        5    1    3    3  502    0 -0.64618849795E+03 -0.78712055628E+03 -0.84815560240E+03  0.13253333018E+04  0.46999998093E+01 0.  1.
       -5    1    3    3    0  502  0.64618849795E+03  0.78712055628E+03  0.25043131777E+03  0.10487403301E+04  0.46999998093E+01 0. -1.
</event>
<event>
 5   0  0.7348107E-06  0.2298158E+04  0.7818609E-02  0.8478648E-01
        2   -1    0    0  501    0  0.00000000000E+00  0.00000000000E+00  0.11389088071E+04  0.11389088071E+04  0.25500000920E-02 0. -1.
       -2   -1    0    0    0  501  0.00000000000E+00  0.00000000000E+00 -0.11593397721E+04  0.11593397721E+04  0.25500000920E-02 0.  1.
    10030    2    1    2    0    0  0.00000000000E+00  0.00000000000E+00 -0.20430965092E+02  0.22982485792E+04  0.22981577638E+04 0.  0.
        3    1    3    3  502    0 -0.73054018715E+03  0.88076556863E+03  0.94408509971E+02  0.11481942035E+04  0.10100000352E+00 0. -1.
       -3    1    3    3    0  502  0.73054018715E+03 -0.88076556863E+03 -0.11483947506E+03  0.11500543757E+04  0.10100000352E+00 0.  1.
</event>
<event>
 5   0  0.3226427E-06  0.2302265E+04  0.7818609E-02  0.8477029E-01
        1   -1    0    0  501    0  0.00000000000E+00  0.00000000000E+00  0.13138616660E+04  0.13138616661E+04  0.50400001928E-02 0. -1.
       -1   -1    0    0    0  501  0.00000000000E+00  0.00000000000E+00 -0.10085582141E+04  0.10085582141E+04  0.50400001928E-02 0.  1.
    10030    2    1    2    0    0  0.00000000000E+00  0.00000000000E+00  0.30530345196E+03  0.23224198802E+04  0.23022649504E+04 0.  0.
        4    1    3    3  502    0  0.51892094879E+03  0.10255425603E+04  0.88155559842E+02  0.11527313259E+04  0.12699999809E+01 0.  1.
       -4    1    3    3    0  502 -0.51892094879E+03 -0.10255425603E+04  0.21714789212E+03  0.11696885543E+04  0.12699999809E+01 0. -1.
</event>
<event>
 5   0  0.7348107E-06  0.2296062E+04  0.7818609E-02  0.8479475E-01
        2   -1    0    0  501    0  0.00000000000E+00  0.00000000000E+00  0.26613769967E+04  0.26613769967E+04  0.25500000920E-02 0.  1.
       -2   -1    0    0    0  501  0.00000000000E+00  0.00000000000E+00 -0.49522308894E+03  0.49522308895E+03  0.25500000920E-02 0. -1.
    10030    2    1    2    0    0  0.00000000000E+00  0.00000000000E+00  0.21661539077E+04  0.31566000856E+04  0.22960621395E+04 0.  0.
        3    1    3    3  502    0 -0.90083756030E+03 -0.36190952050E+03  0.19255077913E+04  0.21564014180E+04  0.10100000352E+00 0.  1.
       -3    1    3    3    0  502  0.90083756030E+03  0.36190952050E+03  0.24064611641E+03  0.10001986676E+04  0.10100000352E+00 0. -1.
</event>
<event>
 5   0  0.2519625E-06  0.2298518E+04  0.7818609E-02  0.8478506E-01
        3   -1    0    0  501    0  0.00000000000E+00  0.00000000000E+00  0.17670757698E+04  0.17670757727E+04  0.10100000352E+00 0.  1.
       -3   -1    0    0    0  501  0.00000000000E+00  0.00000000000E+00 -0.74744718970E+03  0.74744719652E+03  0.10100000352E+00 0. -1.
    10030    2    1    2    0    0  0.00000000000E+00  0.00000000000E+00  0.10196285801E+04  0.25145229692E+04  0.22985176356E+04 0.  0.
        2    1    3    3  502    0 -0.10192018272E+04 -0.11926639408E+03  0.10759391635E+04  0.14868227604E+04  0.25500000920E-02 0.  1.
       -2    1    3    3    0  502  0.10192018272E+04  0.11926639408E+03 -0.56310583401E+02  0.10277002088E+04  0.25500000920E-02 0. -1.
</event>
<event>
 5   0  0.3195296E-06  0.2298963E+04  0.7818609E-02  0.8478330E-01
       -1   -1    0    0    0  501  0.00000000000E+00  0.00000000000E+00  0.90955509195E+03  0.90955509197E+03  0.50400001928E-02 0. -1.
        1   -1    0    0  501    0  0.00000000000E+00  0.00000000000E+00 -0.14526964838E+04  0.14526964838E+04  0.50400001928E-02 0.  1.
    10030    2    1    2    0    0  0.00000000000E+00  0.00000000000E+00 -0.54314139185E+03  0.23622515758E+04  0.22989627956E+04 0.  0.
        2    1    3    3  502    0  0.10850091992E+04  0.24736730351E+03  0.24229156842E+02  0.11131139193E+04  0.25500000920E-02 0. -1.
       -2    1    3    3    0  502 -0.10850091992E+04 -0.24736730351E+03 -0.56737054870E+03  0.12491376565E+04  0.25500000920E-02 0.  1.
</event>
<event>
 5   0  0.7497344E-06  0.2298483E+04  0.7818609E-02  0.8478519E-01
        2   -1    0    0  501    0  0.00000000000E+00  0.00000000000E+00  0.11752704568E+04  0.11752704568E+04  0.25500000920E-02 0. -1.
       -2   -1    0    0    0  501  0.00000000000E+00  0.00000000000E+00 -0.11237890932E+04  0.11237890932E+04  0.25500000920E-02 0.  1.
    10030    2    1    2    0    0  0.00000000000E+00  0.00000000000E+00  0.51481363616E+02  0.22990595500E+04  0.22984830832E+04 0.  0.
        5    1    3    3  502    0 -0.66576323861E+03  0.44469593669E+03 -0.79892886959E+03  0.11310634795E+04  0.46999998093E+01 0.  1.
       -5    1    3    3    0  502  0.66576323861E+03 -0.44469593669E+03  0.85041023321E+03  0.11679960705E+04  0.46999998093E+01 0. -1.
</event>
<event>
 5   0  0.3184492E-06  0.2281027E+04  0.7818609E-02  0.8485440E-01
       -1   -1    0    0    0  501  0.00000000000E+00  0.00000000000E+00  0.10669517695E+04  0.10669517695E+04  0.50400001928E-02 0. -1.
        1   -1    0    0  501    0  0.00000000000E+00  0.00000000000E+00 -0.12191472838E+04  0.12191472838E+04  0.50400001928E-02 0.  1.
    10030    2    1    2    0    0  0.00000000000E+00  0.00000000000E+00 -0.15219551432E+03  0.22860990533E+04  0.22810272701E+04 0.  0.
        1    1    3    3  502    0 -0.55044827911E+03  0.95865608721E+03 -0.35735771583E+03  0.11617742202E+04  0.50400001928E-02 0.  1.
       -1    1    3    3    0  502  0.55044827911E+03 -0.95865608721E+03  0.20516220152E+03  0.11243248332E+04  0.50400001928E-02 0. -1.
</event>
<event>
 5   0  0.3184492E-06  0.2298170E+04  0.7818609E-02  0.8478643E-01
       -1   -1    0    0    0  501  0.00000000000E+00  0.00000000000E+00  0.97460344359E+03  0.97460344361E+03  0.50400001928E-02 0.  1.
        1   -1    0    0  501    0  0.00000000000E+00  0.00000000000E+00 -0.13548032724E+04  0.13548032725E+04  0.50400001928E-02 0. -1.
    10030    2    1    2    0    0  0.00000000000E+00  0.00000000000E+00 -0.38019982885E+03  0.23294067161E+04  0.22981696497E+04 0.  0.
        1    1    3    3  502    0  0.11414423630E+03  0.11186590221E+04  0.49693411377E+02  0.11255649024E+04  0.50400001928E-02 0. -1.
       -1    1    3    3    0  502 -0.11414423630E+03 -0.11186590221E+04 -0.42989324022E+03  0.12038418137E+04  0.50400001928E-02 0.  1.
</event>
<event>
 5   0  0.7348107E-06  0.2304942E+04  0.7818609E-02  0.8475975E-01
       -2   -1    0    0    0  501  0.00000000000E+00  0.00000000000E+00  0.10990229801E+04  0.10990229801E+04  0.25500000920E-02 0.  1.
        2   -1    0    0  501    0  0.00000000000E+00  0.00000000000E+00 -0.12085181979E+04  0.12085181979E+04  0.25500000920E-02 0. -1.
    10030    2    1    2    0    0  0.00000000000E+00  0.00000000000E+00 -0.10949521773E+03  0.23075411780E+04  0.23049418833E+04 0.  0.
        3    1    3    3  502    0  0.10924179629E+03  0.73947827895E+02 -0.12009348709E+04  0.12081583611E+04  0.10100000352E+00 0. -1.
       -3    1    3    3    0  502 -0.10924179629E+03 -0.73947827895E+02  0.10914396532E+04  0.10993828168E+04  0.10100000352E+00 0.  1.
</event>
<event>
 5   0  0.3226427E-06  0.2299921E+04  0.7818609E-02  0.8477952E-01
        1   -1    0    0  501    0  0.00000000000E+00  0.00000000000E+00  0.18740694579E+04  0.18740694579E+04  0.50400001928E-02 0. -1.
       -1   -1    0    0    0  501  0.00000000000E+00  0.00000000000E+00 -0.70563537315E+03  0.70563537317E+03  0.50400001928E-02 0.  1.
    10030    2    1    2    0    0  0.00000000000E+00  0.00000000000E+00  0.11684340848E+04  0.25797048311E+04  0.22999214780E+04 0.  0.
        4    1    3    3  502    0  0.97575780721E+02 -0.55316267674E+03  0.17097281115E+04  0.17996337983E+04  0.12699999809E+01 0. -1.
       -4    1    3    3    0  502 -0.97575780721E+02  0.55316267674E+03 -0.54129402672E+03  0.78007103278E+03  0.12699999809E+01 0.  1.
</event>
<event>
 5   0  0.3184492E-06  0.2303628E+04  0.7818609E-02  0.8476492E-01
       -1   -1    0    0    0  501  0.00000000000E+00  0.00000000000E+00  0.20949053403E+04  0.20949053403E+04  0.50400001928E-02 0. -1.
        1   -1    0    0  501    0  0.00000000000E+00  0.00000000000E+00 -0.63328676676E+03  0.63328676678E+03  0.50400001928E-02 0.  1.
    10030    2    1    2    0    0  0.00000000000E+00  0.00000000000E+00  0.14616185735E+04  0.27281921071E+04  0.23036282944E+04 0.  0.
        1    1    3    3  502    0 -0.11517432052E+04  0.10411670748E+02  0.72202498966E+03  0.13593898997E+04  0.50400001928E-02 0.  1.
       -1    1    3    3    0  502  0.11517432052E+04 -0.10411670748E+02  0.73959358385E+03  0.13688022074E+04  0.50400001928E-02 0. -1.
</event>
<event>
 5   0  0.7497344E-06  0.2294907E+04  0.7818609E-02  0.8479932E-01
        2   -1    0    0  501    0  0.00000000000E+00  0.00000000000E+00  0.24223029650E+04  0.24223029650E+04  0.25500000920E-02 0. -1.
       -2   -1    0    0    0  501  0.00000000000E+00  0.00000000000E+00 -0.54355298283E+03  0.54355298284E+03  0.25500000920E-02 0.  1.
    10030    2    1    2    0    0  0.00000000000E+00  0.00000000000E+00  0.18787499822E+04  0.29658559479E+04  0.22949074073E+04 0.  0.
        5    1    3    3  502    0  0.56242450286E+03 -0.73974974308E+03  0.69471948566E+02  0.93187952303E+03  0.46999998093E+01 0.  1.
       -5    1    3    3    0  502 -0.56242450286E+03  0.73974974308E+03  0.18092780336E+04  0.20339764248E+04  0.46999998093E+01 0. -1.
</event>
<event>
 5   0  0.3338758E-06  0.2329187E+04  0.7818609E-02  0.8466501E-01
       -1   -1    0    0    0  501  0.00000000000E+00  0.00000000000E+00  0.76881673715E+03  0.76881673716E+03  0.50400001928E-02 0. -1.
        1   -1    0    0  501    0  0.00000000000E+00  0.00000000000E+00 -0.17641115287E+04  0.17641115287E+04  0.50400001928E-02 0.  1.
    10030    2    1    2    0    0  0.00000000000E+00  0.00000000000E+00 -0.99529479157E+03  0.25329282659E+04  0.23291873858E+04 0.  0.
        5    1    3    3  502    0  0.80215803603E+03 -0.28759699668E+03 -0.13608617686E+04  0.16056576193E+04  0.46999998093E+01 0.  1.
       -5    1    3    3    0  502 -0.80215803603E+03  0.28759699668E+03  0.36556697703E+03  0.92727064656E+03  0.46999998093E+01 0. -1.
</event>
<event>
 5   0  0.7348107E-06  0.2301912E+04  0.7818609E-02  0.8477168E-01
       -2   -1    0    0    0  501  0.00000000000E+00  0.00000000000E+00  0.12736414078E+04  0.12736414078E+04  0.25500000920E-02 0. -1.
        2   -1    0    0  501    0  0.00000000000E+00  0.00000000000E+00 -0.10400882117E+04  0.10400882118E+04  0.25500000920E-02 0.  1.
    10030    2    1    2    0    0  0.00000000000E+00  0.00000000000E+00  0.23355319603E+03  0.23137296195E+04  0.23019117396E+04 0.  0.
        3    1    3    3  502    0 -0.82518294314E+03 -0.18200595042E+03 -0.66867390235E+03  0.10775796275E+04  0.10100000352E+00 0.  1.
       -3    1    3    3    0  502  0.82518294314E+03  0.18200595042E+03  0.90222709838E+03  0.12361499921E+04  0.10100000352E+00 0. -1.
</event>
<event>
 5   0  0.3195296E-06  0.2298169E+04  0.7818609E-02  0.8478643E-01
       -1   -1    0    0    0  501  0.00000000000E+00  0.00000000000E+00  0.25189208306E+04  0.25189208306E+04  0.50400001928E-02 0. -1.
        1   -1    0    0  501    0  0.00000000000E+00  0.00000000000E+00 -0.52419102653E+03  0.52419102655E+03  0.50400001928E-02 0.  1.
    10030    2    1    2    0    0  0.00000000000E+00  0.00000000000E+00  0.19947298041E+04  0.30431118572E+04  0.22981694420E+04 0.  0.
        2    1    3    3  502    0 -0.48442114964E+03  0.23085790342E+03 -0.34808502682E+03  0.63962677219E+03  0.25500000920E-02 0.  1.
       -2    1    3    3    0  502  0.48442114964E+03 -0.23085790342E+03  0.23428148309E+04  0.24034850850E+04  0.25500000920E-02 0. -1.
</event>
<event>
 5   0  0.3226427E-06  0.2302384E+04  0.7818609E-02  0.8476982E-01
       -1   -1    0    0    0  501  0.00000000000E+00  0.00000000000E+00  0.63925191749E+03  0.63925191751E+03  0.50400001928E-02 0. -1.
        1   -1    0    0  501    0  0.00000000000E+00  0.00000000000E+00 -0.20731154303E+04  0.20731154303E+04  0.50400001928E-02 0.  1.
    10030    2    1    2    0    0  0.00000000000E+00  0.00000000000E+00 -0.14338635128E+04  0.27123673478E+04  0.23023839940E+04 0.  0.
        4    1    3    3  502    0  0.62544811092E+03  0.79316894105E+03 -0.13674766945E+04  0.17000871835E+04  0.12699999809E+01 0.  1.
       -4    1    3    3    0  502 -0.62544811092E+03 -0.79316894105E+03 -0.66386818260E+02  0.10122801643E+04  0.12699999809E+01 0. -1.
</event>
<event>
 5   0  0.3184492E-06  0.2299238E+04  0.7818609E-02  0.8478222E-01
        1   -1    0    0  501    0  0.00000000000E+00  0.00000000000E+00  0.12500702361E+04  0.12500702361E+04  0.50400001928E-02 0. -1.
       -1   -1    0    0    0  501  0.00000000000E+00  0.00000000000E+00 -0.10572394678E+04  0.10572394678E+04  0.50400001928E-02 0.  1.
    10030    2    1    2    0    0  0.00000000000E+00  0.00000000000E+00  0.19283076833E+03  0.23073097039E+04  0.22992377791E+04 0.  0.
        1    1    3    3  502    0  0.12149750770E+03  0.11359458619E+04 -0.32444711194E+02  0.11428855169E+04  0.50400001928E-02 0.  1.
       -1    1    3    3    0  502 -0.12149750770E+03 -0.11359458619E+04  0.22527547952E+03  0.11644241870E+04  0.50400001928E-02 0. -1.
</event>
<event>
 5   0  0.3226427E-06  0.2302776E+04  0.7818609E-02  0.8476828E-01
       -1   -1    0    0    0  501  0.00000000000E+00  0.00000000000E+00  0.10861591657E+04  0.10861591657E+04  0.50400001928E-02 0. -1.
        1   -1    0    0  501    0  0.00000000000E+00  0.00000000000E+00 -0.12205336455E+04  0.12205336456E+04  0.50400001928E-02 0.  1.
    10030    2    1    2    0    0  0.00000000000E+00  0.00000000000E+00 -0.13437447981E+03  0.23066928113E+04  0.23027755481E+04 0.  0.
        4    1    3    3  502    0  0.95789063818E+03 -0.13416216311E+03 -0.69286023264E+03  0.11897944678E+04  0.12699999809E+01 0.  1.
       -4    1    3    3    0  502 -0.95789063818E+03  0.13416216311E+03  0.55848575283E+03  0.11168983435E+04  0.12699999809E+01 0. -1.
</event>
<event>
 5   0  0.7003852E-06  0.2319289E+04  0.7818609E-02  0.8470354E-01
       -2   -1    0    0    0  501  0.00000000000E+00  0.00000000000E+00  0.43061688513E+03  0.43061688514E+03  0.25500000920E-02 0.  1.
        2   -1    0    0  501    0  0.00000000000E+00  0.00000000000E+00 -0.31229047278E+04  0.31229047278E+04  0.25500000920E-02 0. -1.
    10030    2    1    2    0    0  0.00000000000E+00  0.00000000000E+00 -0.26922878427E+04  0.35535216129E+04  0.23192891208E+04 0.  0.
        2    1    3    3  502    0  0.95394714563E+03  0.61428768347E+03 -0.17132584692E+04  0.20549012378E+04  0.25500000920E-02 0. -1.
       -2    1    3    3    0  502 -0.95394714563E+03 -0.61428768347E+03 -0.97902937346E+03  0.14986203752E+04  0.25500000920E-02 0.  1.
</event>
<event>
 5   0  0.7242214E-06  0.2298266E+04  0.7818609E-02  0.8478605E-01
        2   -1    0    0  501    0  0.00000000000E+00  0.00000000000E+00  0.99917326420E+03  0.99917326421E+03  0.25500000920E-02 0. -1.
       -2   -1    0    0    0  501  0.00000000000E+00  0.00000000000E+00 -0.13215990991E+04  0.13215990991E+04  0.25500000920E-02 0.  1.
    10030    2    1    2    0    0  0.00000000000E+00  0.00000000000E+00 -0.32242583488E+03  0.23207723633E+04  0.22982658556E+04 0.  0.
        1    1    3    3  502    0 -0.10476508159E+04 -0.35613311162E+03 -0.47425432817E+03  0.12038771503E+04  0.50400001928E-02 0.  1.
       -1    1    3    3    0  502  0.10476508159E+04  0.35613311162E+03  0.15182849330E+03  0.11168952129E+04  0.50400001928E-02 0. -1.
</event>
<event>
 5   0  0.7348107E-06  0.2296963E+04  0.7818609E-02  0.8479120E-01
        2   -1    0    0  501    0  0.00000000000E+00  0.00000000000E+00  0.16697839308E+04  0.16697839308E+04  0.25500000920E-02 0. -1.
       -2   -1    0    0    0  501  0.00000000000E+00  0.00000000000E+00 -0.78992838816E+03  0.78992838816E+03  0.25500000920E-02 0.  1.
    10030    2    1    2    0    0  0.00000000000E+00  0.00000000000E+00  0.87985554262E+03  0.24597123189E+04  0.22969629766E+04 0.  0.
        3    1    3    3  502    0 -0.91388649892E+03  0.28315434442E+03 -0.24041849191E+03  0.98649175218E+03  0.10100000352E+00 0. -1.
       -3    1    3    3    0  502  0.91388649892E+03 -0.28315434442E+03  0.11202740345E+04  0.14732205668E+04  0.10100000352E+00 0.  1.
</event>
<event>
 5   0  0.7242214E-06  0.2303554E+04  0.7818609E-02  0.8476521E-01
       -2   -1    0    0    0  501  0.00000000000E+00  0.00000000000E+00  0.11768678540E+04  0.11768678540E+04  0.25500000920E-02 0. -1.
        2   -1    0    0  501    0  0.00000000000E+00  0.00000000000E+00 -0.11272212947E+04  0.11272212947E+04  0.25500000920E-02 0.  1.
    10030    2    1    2    0    0  0.00000000000E+00  0.00000000000E+00  0.49646559235E+02  0.23040891487E+04  0.23035542156E+04 0.  0.
        1    1    3    3  502    0 -0.99085450211E+03  0.24370074929E+03 -0.50953650288E+03  0.11405306429E+04  0.50400001928E-02 0.  1.
       -1    1    3    3    0  502  0.99085450211E+03 -0.24370074929E+03  0.55918306211E+03  0.11635585058E+04  0.50400001928E-02 0. -1.
</event>
<event>
 5   0  0.7044981E-06  0.2300530E+04  0.7818609E-02  0.8477712E-01
        2   -1    0    0  501    0  0.00000000000E+00  0.00000000000E+00  0.10205532891E+04  0.10205532891E+04  0.25500000920E-02 0. -1.
       -2   -1    0    0    0  501  0.00000000000E+00  0.00000000000E+00 -0.12964627786E+04  0.12964627786E+04  0.25500000920E-02 0.  1.
    10030    2    1    2    0    0  0.00000000000E+00  0.00000000000E+00 -0.27590948950E+03  0.23170160678E+04  0.23005298112E+04 0.  0.
        4    1    3    3  502    0  0.89062740561E+03 -0.29938022958E+03 -0.80623218771E+03  0.12380862857E+04  0.12699999809E+01 0.  1.
       -4    1    3    3    0  502 -0.89062740561E+03  0.29938022958E+03  0.53032269822E+03  0.10789297821E+04  0.12699999809E+01 0. -1.
</event>
<event>
 5   0  0.3238713E-06  0.2293493E+04  0.7818609E-02  0.8480491E-01
        1   -1    0    0  501    0  0.00000000000E+00  0.00000000000E+00  0.12703863305E+04  0.12703863305E+04  0.50400001928E-02 0.  1.
       -1   -1    0    0    0  501  0.00000000000E+00  0.00000000000E+00 -0.10351397768E+04  0.10351397768E+04  0.50400001928E-02 0. -1.
    10030    2    1    2    0    0  0.00000000000E+00  0.00000000000E+00  0.23524655363E+03  0.23055261073E+04  0.22934929018E+04 0.  0.
        3    1    3    3  502    0  0.62677986680E+03 -0.96025895130E+03  0.12645329531E+03  0.11536640330E+04  0.10100000352E+00 0.  1.
       -3    1    3    3    0  502 -0.62677986680E+03  0.96025895130E+03  0.10879325832E+03  0.11518620743E+04  0.10100000352E+00 0. -1.
</event>
<event>
 5   0  0.3184492E-06  0.2298354E+04  0.7818609E-02  0.8478570E-01
       -1   -1    0    0    0  501  0.00000000000E+00  0.00000000000E+00  0.42475613306E+03  0.42475613309E+03  0.50400001928E-02 0. -1.
        1   -1    0    0  501    0  0.00000000000E+00  0.00000000000E+00 -0.31090973360E+04  0.31090973360E+04  0.50400001928E-02 0.  1.
    10030    2    1    2    0    0  0.00000000000E+00  0.00000000000E+00 -0.26843412029E+04  0.35338534691E+04  0.22983543346E+04 0.  0.
        1    1    3    3  502    0 -0.26838991534E+03  0.70574625979E+03 -0.26741763550E+04  0.27787281457E+04  0.50400001928E-02 0.  1.
       -1    1    3    3    0  502  0.26838991534E+03 -0.70574625979E+03 -0.10164847898E+02  0.75512532339E+03  0.50400001928E-02 0. -1.
</event>
<event>
 5   0  0.2519625E-06  0.2300298E+04  0.7818609E-02  0.8477804E-01
        3   -1    0    0  501    0  0.00000000000E+00  0.00000000000E+00  0.16238189005E+04  0.16238189036E+04  0.10100000352E+00 0.  1.
       -3   -1    0    0    0  501  0.00000000000E+00  0.00000000000E+00 -0.81464893994E+03  0.81464894620E+03  0.10100000352E+00 0. -1.
    10030    2    1    2    0    0  0.00000000000E+00  0.00000000000E+00  0.80916996054E+03  0.24384678498E+04  0.23002976828E+04 0.  0.
        4    1    3    3  502    0  0.74171994857E+03 -0.66082063317E+03  0.10190653721E+04  0.14231402731E+04  0.12699999809E+01 0.  1.
       -4    1    3    3    0  502 -0.74171994857E+03  0.66082063317E+03 -0.20989541159E+03  0.10153275767E+04  0.12699999809E+01 0. -1.
</event>
<event>
 5   0  0.3184492E-06  0.2301054E+04  0.7818609E-02  0.8477506E-01
       -1   -1    0    0    0  501  0.00000000000E+00  0.00000000000E+00  0.80794815616E+03  0.80794815618E+03  0.50400001928E-02 0.  1.
        1   -1    0    0  501    0  0.00000000000E+00  0.00000000000E+00 -0.16383625925E+04  0.16383625925E+04  0.50400001928E-02 0. -1.
    10030    2    1    2    0    0  0.00000000000E+00  0.00000000000E+00 -0.83041443635E+03  0.24463107487E+04  0.23010537028E+04 0.  0.
        1    1    3    3  502    0  0.63375452808E+02 -0.10874299976E+04 -0.80898264486E+03  0.13568247372E+04  0.50400001928E-02 0. -1.
       -1    1    3    3    0  502 -0.63375452808E+02  0.10874299976E+04 -0.21431791488E+02  0.10894860115E+04  0.50400001928E-02 0.  1.
</event>
<event>
 5   0  0.3226427E-06  0.2301159E+04  0.7818609E-02  0.8477464E-01
        1   -1    0    0  501    0  0.00000000000E+00  0.00000000000E+00  0.23632858532E+04  0.23632858532E+04  0.50400001928E-02 0.  1.
       -1   -1    0    0    0  501  0.00000000000E+00  0.00000000000E+00 -0.56016657355E+03  0.56016657357E+03  0.50400001928E-02 0. -1.
    10030    2    1    2    0    0  0.00000000000E+00  0.00000000000E+00  0.18031192797E+04  0.29234524268E+04  0.23011594806E+04 0.  0.
        4    1    3    3  502    0 -0.59948405754E+03 -0.60675460662E+03 -0.79468937143E+02  0.85664999432E+03  0.12699999809E+01 0. -1.
       -4    1    3    3    0  502  0.59948405754E+03  0.60675460662E+03  0.18825882168E+04  0.20668024325E+04  0.12699999809E+01 0.  1.
</event>
<event>
 5   0  0.3238713E-06  0.2319162E+04  0.7818609E-02  0.8470404E-01
        1   -1    0    0  501    0  0.00000000000E+00  0.00000000000E+00  0.13668960942E+04  0.13668960943E+04  0.50400001928E-02 0.  1.
       -1   -1    0    0    0  501  0.00000000000E+00  0.00000000000E+00 -0.98370882057E+03  0.98370882058E+03  0.50400001928E-02 0. -1.
    10030    2    1    2    0    0  0.00000000000E+00  0.00000000000E+00  0.38318727368E+03  0.23506049148E+04  0.23191616974E+04 0.  0.
        3    1    3    3  502    0 -0.35307593913E+03 -0.10890524156E+04  0.37829187985E+03  0.12057373426E+04  0.10100000352E+00 0.  1.
       -3    1    3    3    0  502  0.35307593913E+03  0.10890524156E+04  0.48953938282E+01  0.11448675722E+04  0.10100000352E+00 0. -1.
</event>
<event>
 5   0  0.7044981E-06  0.2299980E+04  0.7818609E-02  0.8477929E-01
       -2   -1    0    0    0  501  0.00000000000E+00  0.00000000000E+00  0.13442403700E+04  0.13442403700E+04  0.25500000920E-02 0. -1.
        2   -1    0    0  501    0  0.00000000000E+00  0.00000000000E+00 -0.98380988214E+03  0.98380988214E+03  0.25500000920E-02 0.  1.
    10030    2    1    2    0    0  0.00000000000E+00  0.00000000000E+00  0.36043048786E+03  0.23280502521E+04  0.22999799651E+04 0.  0.
        4    1    3    3  502    0 -0.29460479550E+03  0.97773392972E+03 -0.35512493938E+03  0.10811433570E+04  0.12699999809E+01 0.  1.
       -4    1    3    3    0  502  0.29460479550E+03 -0.97773392972E+03  0.71555542724E+03  0.12469068952E+04  0.12699999809E+01 0. -1.
</event>
<event>
 5   0  0.3195296E-06  0.2322732E+04  0.7818609E-02  0.8469012E-01
        1   -1    0    0  501    0  0.00000000000E+00  0.00000000000E+00  0.98848085377E+03  0.98848085378E+03  0.50400001928E-02 0. -1.
       -1   -1    0    0    0  501  0.00000000000E+00  0.00000000000E+00 -0.13644889604E+04  0.13644889604E+04  0.50400001928E-02 0.  1.
    10030    2    1    2    0    0  0.00000000000E+00  0.00000000000E+00 -0.37600810664E+03  0.23529698142E+04  0.23227321951E+04 0.  0.
        2    1    3    3  502    0  0.11360175114E+04 -0.21191487711E+03 -0.30495176944E+03  0.11951733276E+04  0.25500000920E-02 0. -1.
       -2    1    3    3    0  502 -0.11360175114E+04  0.21191487711E+03 -0.71056337200E+02  0.11577964866E+04  0.25500000920E-02 0.  1.
</event>
<event>
 5   0  0.3238713E-06  0.2298376E+04  0.7818609E-02  0.8478562E-01
        1   -1    0    0  501    0  0.00000000000E+00  0.00000000000E+00  0.47242619624E+03  0.47242619626E+03  0.50400001928E-02 0.  1.
       -1   -1    0    0    0  501  0.00000000000E+00  0.00000000000E+00 -0.27954271652E+04  0.27954271652E+04  0.50400001928E-02 0. -1.
    10030    2    1    2    0    0  0.00000000000E+00  0.00000000000E+00 -0.23230009689E+04  0.32678533614E+04  0.22983759680E+04 0.  0.
        3    1    3    3  502    0 -0.55021395462E+03 -0.10766642321E+02  0.27289465939E+03  0.61426608385E+03  0.10100000352E+00 0.  1.
       -3    1    3    3    0  502  0.55021395462E+03  0.10766642321E+02 -0.25958956283E+04  0.26535872776E+04  0.10100000352E+00 0. -1.
</event>
<event>
 5   0  0.7497344E-06  0.2285057E+04  0.7818609E-02  0.8483836E-01
        2   -1    0    0  501    0  0.00000000000E+00  0.00000000000E+00  0.22996523184E+04  0.22996523184E+04  0.25500000920E-02 0.  1.
       -2   -1    0    0    0  501  0.00000000000E+00  0.00000000000E+00 -0.56763868280E+03  0.56763868281E+03  0.25500000920E-02 0. -1.
    10030    2    1    2    0    0  0.00000000000E+00  0.00000000000E+00  0.17320136356E+04  0.28672910012E+04  0.22850572097E+04 0.  0.
        5    1    3    3  502    0 -0.40381135532E+03 -0.78236286522E+03  0.17796827911E+04  0.19855599186E+04  0.46999998093E+01 0.  1.
       -5    1    3    3    0  502  0.40381135532E+03  0.78236286522E+03 -0.47669155517E+02  0.88173108256E+03  0.46999998093E+01 0. -1.
</event>
<event>
 5   0  0.3195296E-06  0.2310642E+04  0.7818609E-02  0.8473737E-01
       -1   -1    0    0    0  501  0.00000000000E+00  0.00000000000E+00  0.15781545245E+04  0.15781545245E+04  0.50400001928E-02 0.  1.
        1   -1    0    0  501    0  0.00000000000E+00  0.00000000000E+00 -0.84577675175E+03  0.84577675177E+03  0.50400001928E-02 0. -1.
    10030    2    1    2    0    0  0.00000000000E+00  0.00000000000E+00  0.73237777271E+03  0.24239312762E+04  0.23106418221E+04 0.  0.
        2    1    3    3  502    0 -0.53886332406E+03 -0.10015375617E+04  0.15296158929E+03  0.11475401594E+04  0.25500000920E-02 0. -1.
       -2    1    3    3    0  502  0.53886332406E+03  0.10015375617E+04  0.57941618341E+03  0.12763911169E+04  0.25500000920E-02 0.  1.
</event>
<event>
 5   0  0.3338758E-06  0.2298195E+04  0.7818609E-02  0.8478633E-01
        1   -1    0    0  501    0  0.00000000000E+00  0.00000000000E+00  0.16914376920E+04  0.16914376920E+04  0.50400001928E-02 0.  1.
       -1   -1    0    0    0  501  0.00000000000E+00  0.00000000000E+00 -0.78065259390E+03  0.78065259392E+03  0.50400001928E-02 0. -1.
    10030    2    1    2    0    0  0.00000000000E+00  0.00000000000E+00  0.91078509814E+03  0.24720902860E+04  0.22981951368E+04 0.  0.
        5    1    3    3  502    0 -0.26136665307E+03 -0.11185021485E+04  0.49014086068E+03  0.12488473633E+04  0.46999998093E+01 0. -1.
       -5    1    3    3    0  502  0.26136665307E+03  0.11185021485E+04  0.42064423746E+03  0.12232429227E+04  0.46999998093E+01 0.  1.
</event>
<event>
 5   0  0.3338758E-06  0.2302926E+04  0.7818609E-02  0.8476768E-01
        1   -1    0    0  501    0  0.00000000000E+00  0.00000000000E+00  0.11937698230E+04  0.11937698230E+04  0.50400001928E-02 0. -1.
       -1   -1    0    0    0  501  0.00000000000E+00  0.00000000000E+00 -0.11106552330E+04  0.11106552330E+04  0.50400001928E-02 0.  1.
    10030    2    1    2    0    0  0.00000000000E+00  0.00000000000E+00  0.83114590004E+02  0.23044250560E+04  0.23029257052E+04 0.  0.
        5    1    3    3  502    0  0.55471378013E+03  0.69018301652E+03  0.77809672967E+03  0.11787775808E+04  0.46999998093E+01 0. -1.
       -5    1    3    3    0  502 -0.55471378013E+03 -0.69018301652E+03 -0.69498213967E+03  0.11256474753E+04  0.46999998093E+01 0.  1.
</event>
<event>
 5   0  0.7003852E-06  0.2299338E+04  0.7818609E-02  0.8478182E-01
        2   -1    0    0  501    0  0.00000000000E+00  0.00000000000E+00  0.14137785689E+04  0.14137785689E+04  0.25500000920E-02 0. -1.
       -2   -1    0    0    0  501  0.00000000000E+00  0.00000000000E+00 -0.93489802896E+03  0.93489802896E+03  0.25500000920E-02 0.  1.
    10030    2    1    2    0    0  0.00000000000E+00  0.00000000000E+00  0.47888053998E+03  0.23486765979E+04  0.22993379895E+04 0.  0.
        2    1    3    3  502    0  0.58349867765E+03 -0.18224487036E+03  0.12340143778E+04  0.13771257692E+04  0.25500000920E-02 0. -1.
       -2    1    3    3    0  502 -0.58349867765E+03  0.18224487036E+03 -0.75513383786E+03  0.97155082866E+03  0.25500000920E-02 0.  1.
</event>
<event>
 5   0  0.7003852E-06  0.2299437E+04  0.7818609E-02  0.8478143E-01
        2   -1    0    0  501    0  0.00000000000E+00  0.00000000000E+00  0.12646781173E+04  0.12646781173E+04  0.25500000920E-02 0. -1.
       -2   -1    0    0    0  501  0.00000000000E+00  0.00000000000E+00 -0.10452088091E+04  0.10452088091E+04  0.25500000920E-02 0.  1.
    10030    2    1    2    0    0  0.00000000000E+00  0.00000000000E+00  0.21946930815E+03  0.23098869264E+04  0.22994370692E+04 0.  0.
        2    1    3    3  502    0 -0.37864343250E+02  0.53073469804E+03  0.11335521659E+04  0.12522194460E+04  0.25500000920E-02 0. -1.
       -2    1    3    3    0  502  0.37864343250E+02 -0.53073469804E+03 -0.91408285774E+03  0.10576674804E+04  0.25500000920E-02 0.  1.
</event>
<event>
 5   0  0.7348107E-06  0.2298067E+04  0.7818609E-02  0.8478684E-01
       -2   -1    0    0    0  501  0.00000000000E+00  0.00000000000E+00  0.11704437082E+04  0.11704437082E+04  0.25500000920E-02 0. -1.
        2   -1    0    0  501    0  0.00000000000E+00  0.00000000000E+00 -0.11280147444E+04  0.11280147444E+04  0.25500000920E-02 0.  1.
    10030    2    1    2    0    0  0.00000000000E+00  0.00000000000E+00  0.42428963781E+02  0.22984584526E+04  0.22980668052E+04 0.  0.
        3    1    3    3  502    0  0.76243990192E+03 -0.85854791991E+03 -0.21904526026E+02  0.11484332603E+04  0.10100000352E+00 0. -1.
       -3    1    3    3    0  502 -0.76243990192E+03  0.85854791991E+03  0.64333489807E+02  0.11500251923E+04  0.10100000352E+00 0.  1.
</event>
<event>
 5   0  0.7044981E-06  0.2297944E+04  0.7818609E-02  0.8478732E-01
        2   -1    0    0  501    0  0.00000000000E+00  0.00000000000E+00  0.13058634975E+04  0.13058634975E+04  0.25500000920E-02 0. -1.
       -2   -1    0    0    0  501  0.00000000000E+00  0.00000000000E+00 -0.10109298859E+04  0.10109298859E+04  0.25500000920E-02 0.  1.
    10030    2    1    2    0    0  0.00000000000E+00  0.00000000000E+00  0.29493361154E+03  0.23167933834E+04  0.22979438083E+04 0.  0.
        4    1    3    3  502    0 -0.61723446178E+03 -0.10223850515E+03 -0.82413093136E+03  0.10347098616E+04  0.12699999809E+01 0.  1.
       -4    1    3    3    0  502  0.61723446178E+03  0.10223850515E+03  0.11190645429E+04  0.12820835218E+04  0.12699999809E+01 0. -1.
</event>
<event>
 5   0  0.3184492E-06  0.2299477E+04  0.7818609E-02  0.8478127E-01
        1   -1    0    0  501    0  0.00000000000E+00  0.00000000000E+00  0.12389435634E+04  0.12389435635E+04  0.50400001928E-02 0. -1.
       -1   -1    0    0    0  501  0.00000000000E+00  0.00000000000E+00 -0.10669561842E+04  0.10669561842E+04  0.50400001928E-02 0.  1.
    10030    2    1    2    0    0  0.00000000000E+00  0.00000000000E+00  0.17198737923E+03  0.23058997477E+04  0.22994768944E+04 0.  0.
        1    1    3    3  502    0  0.65906451782E+03  0.90038609733E+03 -0.19197604708E+03  0.11322172784E+04  0.50400001928E-02 0. -1.
       -1    1    3    3    0  502 -0.65906451782E+03 -0.90038609733E+03  0.36396342630E+03  0.11736824693E+04  0.50400001928E-02 0.  1.
</event>
<event>
 5   0  0.7044981E-06  0.2301118E+04  0.7818609E-02  0.8477481E-01
       -2   -1    0    0    0  501  0.00000000000E+00  0.00000000000E+00  0.58128534675E+03  0.58128534676E+03  0.25500000920E-02 0.  1.
        2   -1    0    0  501    0  0.00000000000E+00  0.00000000000E+00 -0.22773423486E+04  0.22773423486E+04  0.25500000920E-02 0. -1.
    10030    2    1    2    0    0  0.00000000000E+00  0.00000000000E+00 -0.16960570019E+04  0.28586276954E+04  0.23011177604E+04 0.  0.
        4    1    3    3  502    0  0.18586855463E+03  0.48643452045E+01 -0.22585546715E+04  0.22661954017E+04  0.12699999809E+01 0. -1.
       -4    1    3    3    0  502 -0.18586855463E+03 -0.48643452045E+01  0.56249766961E+03  0.59243229374E+03  0.12699999809E+01 0.  1.
</event>
<event>
 5   0  0.3226427E-06  0.2298254E+04  0.7818609E-02  0.8478610E-01
        1   -1    0    0  501    0  0.00000000000E+00  0.00000000000E+00  0.16878615482E+04  0.16878615482E+04  0.50400001928E-02 0. -1.
       -1   -1    0    0    0  501  0.00000000000E+00  0.00000000000E+00 -0.78234650426E+03  0.78234650428E+03  0.50400001928E-02 0.  1.
    10030    2    1    2    0    0  0.00000000000E+00  0.00000000000E+00  0.90551504397E+03  0.24702080525E+04  0.22982537562E+04 0.  0.
        4    1    3    3  502    0 -0.72687349713E+03 -0.10064224555E+03  0.14032390017E+04  0.15835262080E+04  0.12699999809E+01 0. -1.
       -4    1    3    3    0  502  0.72687349713E+03  0.10064224555E+03 -0.49772395777E+03  0.88668184455E+03  0.12699999809E+01 0.  1.
</event>
<event>
 5   0  0.7242214E-06  0.2307598E+04  0.7818609E-02  0.8474931E-01
       -2   -1    0    0    0  501  0.00000000000E+00  0.00000000000E+00  0.55282914678E+03  0.55282914679E+03  0.25500000920E-02 0. -1.
        2   -1    0    0  501    0  0.00000000000E+00  0.00000000000E+00 -0.24080712497E+04  0.24080712497E+04  0.25500000920E-02 0.  1.
    10030    2    1    2    0    0  0.00000000000E+00  0.00000000000E+00 -0.18552421029E+04  0.29609003965E+04  0.23075978630E+04 0.  0.
        1    1    3    3  502    0 -0.79074364073E+03 -0.29588945200E+03  0.81416910034E+02  0.84820680640E+03  0.50400001928E-02 0. -1.
       -1    1    3    3    0  502  0.79074364073E+03  0.29588945200E+03 -0.19366590129E+04  0.21126935901E+04  0.50400001928E-02 0.  1.
</event>
<event>
 5   0  0.3238713E-06  0.2299165E+04  0.7818609E-02  0.8478250E-01
        1   -1    0    0  501    0  0.00000000000E+00  0.00000000000E+00  0.16030128695E+04  0.16030128695E+04  0.50400001928E-02 0.  1.
       -1   -1    0    0    0  501  0.00000000000E+00  0.00000000000E+00 -0.82441011792E+03  0.82441011793E+03  0.50400001928E-02 0. -1.
    10030    2    1    2    0    0  0.00000000000E+00  0.00000000000E+00  0.77860275161E+03  0.24274229875E+04  0.22991650909E+04 0.  0.
        3    1    3    3  502    0  0.63593129679E+03 -0.70310667081E+03  0.10757825382E+04  0.14339022577E+04  0.10100000352E+00 0.  1.
       -3    1    3    3    0  502 -0.63593129679E+03  0.70310667081E+03 -0.29717978662E+03  0.99352072980E+03  0.10100000352E+00 0. -1.
</event>
<event>
 5   0  0.7348107E-06  0.2300690E+04  0.7818609E-02  0.8477649E-01
        2   -1    0    0  501    0  0.00000000000E+00  0.00000000000E+00  0.16038783829E+04  0.16038783829E+04  0.25500000920E-02 0.  1.
       -2   -1    0    0    0  501  0.00000000000E+00  0.00000000000E+00 -0.82505859957E+03  0.82505859957E+03  0.25500000920E-02 0. -1.
    10030    2    1    2    0    0  0.00000000000E+00  0.00000000000E+00  0.77881978329E+03  0.24289369824E+04  0.23006900291E+04 0.  0.
        3    1    3    3  502    0  0.54620050939E+03  0.96121230950E+03  0.53840509053E+02  0.11068707743E+04  0.10100000352E+00 0. -1.
       -3    1    3    3    0  502 -0.54620050939E+03 -0.96121230950E+03  0.72497927424E+03  0.13220662081E+04  0.10100000352E+00 0.  1.
</event>
<event>
 5   0  0.3338758E-06  0.2300614E+04  0.7818609E-02  0.8477679E-01
       -1   -1    0    0    0  501  0.00000000000E+00  0.00000000000E+00  0.12511858783E+04  0.12511858783E+04  0.50400001928E-02 0.  1.
        1   -1    0    0  501    0  0.00000000000E+00  0.00000000000E+00 -0.10575620697E+04  0.10575620697E+04  0.50400001928E-02 0. -1.
    10030    2    1    2    0    0  0.00000000000E+00  0.00000000000E+00  0.19362380858E+03  0.23087479480E+04  0.23006144632E+04 0.  0.
        5    1    3    3  502    0  0.99217273255E+03  0.21618441833E+01 -0.48728811508E+03  0.11053882584E+04  0.46999998093E+01 0. -1.
       -5    1    3    3    0  502 -0.99217273255E+03 -0.21618441833E+01  0.68091192366E+03  0.12033596896E+04  0.46999998093E+01 0.  1.
</event>
<event>
 5   0  0.7242214E-06  0.2299189E+04  0.7818609E-02  0.8478241E-01
        2   -1    0    0  501    0  0.00000000000E+00  0.00000000000E+00  0.20943011084E+04  0.20943011084E+04  0.25500000920E-02 0. -1.
       -2   -1    0    0    0  501  0.00000000000E+00  0.00000000000E+00 -0.63103053040E+03  0.63103053041E+03  0.25500000920E-02 0.  1.
    10030    2    1    2    0    0  0.00000000000E+00  0.00000000000E+00  0.14632705780E+04  0.27253316388E+04  0.22991893696E+04 0.  0.
        1    1    3    3  502    0 -0.97327361191E+03  0.49007892028E+03  0.29751901397E+03  0.11295824164E+04  0.50400001928E-02 0.  1.
       -1    1    3    3    0  502  0.97327361191E+03 -0.49007892028E+03  0.11657515640E+04  0.15957492224E+04  0.50400001928E-02 0. -1.
</event>
<event>
 5   0  0.7348107E-06  0.2298431E+04  0.7818609E-02  0.8478540E-01
        2   -1    0    0  501    0  0.00000000000E+00  0.00000000000E+00  0.19515008682E+04  0.19515008682E+04  0.25500000920E-02 0.  1.
       -2   -1    0    0    0  501  0.00000000000E+00  0.00000000000E+00 -0.67675913656E+03  0.67675913657E+03  0.25500000920E-02 0. -1.
    10030    2    1    2    0    0  0.00000000000E+00  0.00000000000E+00  0.12747417316E+04  0.26282600048E+04  0.22984308061E+04 0.  0.
        3    1    3    3  502    0 -0.79544240519E+02  0.99763031966E+03 -0.85837261645E+01  0.10008332686E+04  0.10100000352E+00 0. -1.
       -3    1    3    3    0  502  0.79544240519E+02 -0.99763031966E+03  0.12833254578E+04  0.16274267362E+04  0.10100000352E+00 0.  1.
</event>
<event>
 5   0  0.2519625E-06  0.2298750E+04  0.7818609E-02  0.8478414E-01
       -3   -1    0    0    0  501  0.00000000000E+00  0.00000000000E+00  0.18476413046E+04  0.18476413074E+04  0.10100000352E+00 0. -1.
        3   -1    0    0  501    0  0.00000000000E+00  0.00000000000E+00 -0.71499962253E+03  0.71499962966E+03  0.10100000352E+00 0.  1.
    10030    2    1    2    0    0  0.00000000000E+00  0.00000000000E+00  0.11326416821E+04  0.25626409371E+04  0.22987499630E+04 0.  0.
        4    1    3    3  502    0  0.48782682064E+03 -0.17021502389E+03  0.17108836347E+04  0.17871968514E+04  0.12699999809E+01 0. -1.
       -4    1    3    3    0  502 -0.48782682064E+03  0.17021502389E+03 -0.57824195261E+03  0.77544408564E+03  0.12699999809E+01 0.  1.
</event>
<event>
 5   0  0.3226427E-06  0.2302856E+04  0.7818609E-02  0.8476796E-01
        1   -1    0    0  501    0  0.00000000000E+00  0.00000000000E+00  0.86973005335E+03  0.86973005337E+03  0.50400001928E-02 0. -1.
       -1   -1    0    0    0  501  0.00000000000E+00  0.00000000000E+00 -0.15243656816E+04  0.15243656816E+04  0.50400001928E-02 0.  1.
    10030    2    1    2    0    0  0.00000000000E+00  0.00000000000E+00 -0.65463562827E+03  0.23940957350E+04  0.23028561793E+04 0.  0.
        4    1    3    3  502    0 -0.67397909697E+03  0.24203973913E+03  0.61004490448E+03  0.94073771948E+03  0.12699999809E+01 0. -1.
       -4    1    3    3    0  502  0.67397909697E+03 -0.24203973913E+03 -0.12646805328E+04  0.14533580155E+04  0.12699999809E+01 0.  1.
</event>
<event>
 5   0  0.3195296E-06  0.2299793E+04  0.7818609E-02  0.8478003E-01
        1   -1    0    0  501    0  0.00000000000E+00  0.00000000000E+00  0.13240892677E+04  0.13240892678E+04  0.50400001928E-02 0. -1.
       -1   -1    0    0    0  501  0.00000000000E+00  0.00000000000E+00 -0.99861975409E+03  0.99861975410E+03  0.50400001928E-02 0.  1.
    10030    2    1    2    0    0  0.00000000000E+00  0.00000000000E+00  0.32546951366E+03  0.23227090219E+04  0.22997927724E+04 0.  0.
        2    1    3    3  502    0 -0.47292235795E+03  0.96797538670E+03 -0.24330336524E+03  0.11044584345E+04  0.25500000920E-02 0.  1.
       -2    1    3    3    0  502  0.47292235795E+03 -0.96797538670E+03  0.56877287889E+03  0.12182505874E+04  0.25500000920E-02 0. -1.
</event>
<event>
 5   0  0.7044981E-06  0.2303482E+04  0.7818609E-02  0.8476550E-01
       -2   -1    0    0    0  501  0.00000000000E+00  0.00000000000E+00  0.97572665755E+03  0.97572665755E+03  0.25500000920E-02 0.  1.
        2   -1    0    0  501    0  0.00000000000E+00  0.00000000000E+00 -0.13595066146E+04  0.13595066146E+04  0.25500000920E-02 0. -1.
    10030    2    1    2    0    0  0.00000000000E+00  0.00000000000E+00 -0.38377995708E+03  0.23352332722E+04  0.23034815780E+04 0.  0.
        4    1    3    3  502    0  0.44753742435E+03  0.63120436002E+03  0.67297939900E+03  0.10254811430E+04  0.12699999809E+01 0.  1.
       -4    1    3    3    0  502 -0.44753742435E+03 -0.63120436002E+03 -0.10567593561E+04  0.13097521292E+04  0.12699999809E+01 0. -1.
</event>
<event>
 5   0  0.7242214E-06  0.2313603E+04  0.7818609E-02  0.8472577E-01
        2   -1    0    0  501    0  0.00000000000E+00  0.00000000000E+00  0.18167894039E+04  0.18167894039E+04  0.25500000920E-02 0.  1.
       -2   -1    0    0    0  501  0.00000000000E+00  0.00000000000E+00 -0.73656866629E+03  0.73656866629E+03  0.25500000920E-02 0. -1.
    10030    2    1    2    0    0  0.00000000000E+00  0.00000000000E+00  0.10802207376E+04  0.25533580701E+04  0.23136033784E+04 0.  0.
        1    1    3    3  502    0 -0.64243082778E+03 -0.64231246888E+03 -0.25028124836E+03  0.94229686376E+03  0.50400001928E-02 0. -1.
       -1    1    3    3    0  502  0.64243082778E+03  0.64231246888E+03  0.13305019859E+04  0.16110612064E+04  0.50400001928E-02 0.  1.
</event>
<event>
 5   0  0.3184492E-06  0.2295977E+04  0.7818609E-02  0.8479509E-01
        1   -1    0    0  501    0  0.00000000000E+00  0.00000000000E+00  0.13072197099E+04  0.13072197099E+04  0.50400001928E-02 0.  1.
       -1   -1    0    0    0  501  0.00000000000E+00  0.00000000000E+00 -0.10081527681E+04  0.10081527682E+04  0.50400001928E-02 0. -1.
    10030    2    1    2    0    0  0.00000000000E+00  0.00000000000E+00  0.29906694178E+03  0.23153724781E+04  0.22959766281E+04 0.  0.
        1    1    3    3  502    0  0.42111241075E+03  0.94956904873E+02 -0.92318416780E+03  0.10191278055E+04  0.50400001928E-02 0. -1.
       -1    1    3    3    0  502 -0.42111241075E+03 -0.94956904873E+02  0.12222511096E+04  0.12962446726E+04  0.50400001928E-02 0.  1.
</event>
<event>
 5   0  0.7497344E-06  0.2301032E+04  0.7818609E-02  0.8477514E-01
       -2   -1    0    0    0  501  0.00000000000E+00  0.00000000000E+00  0.75577417696E+03  0.75577417696E+03  0.25500000920E-02 0. -1.
        2   -1    0    0  501    0  0.00000000000E+00  0.00000000000E+00 -0.17514313634E+04  0.17514313634E+04  0.25500000920E-02 0.  1.
    10030    2    1    2    0    0  0.00000000000E+00  0.00000000000E+00 -0.99565718648E+03  0.25072055404E+04  0.23010315923E+04 0.  0.
        5    1    3    3  502    0  0.86254948653E+03  0.35789069409E+03  0.23438559683E+03  0.96282712032E+03  0.46999998093E+01 0. -1.
       -5    1    3    3    0  502 -0.86254948653E+03 -0.35789069409E+03 -0.12300427833E+04  0.15443784201E+04  0.46999998093E+01 0.  1.
</event>
<event>
 5   0  0.3226427E-06  0.2312006E+04  0.7818609E-02  0.8473202E-01
       -1   -1    0    0    0  501  0.00000000000E+00  0.00000000000E+00  0.97865216751E+03  0.97865216753E+03  0.50400001928E-02 0.  1.
        1   -1    0    0  501    0  0.00000000000E+00  0.00000000000E+00 -0.13654936389E+04  0.13654936389E+04  0.50400001928E-02 0. -1.
    10030    2    1    2    0    0  0.00000000000E+00  0.00000000000E+00 -0.38684147142E+03  0.23441458065E+04  0.23120063231E+04 0.  0.
        4    1    3    3  502    0  0.69718801984E+03  0.37750834486E+03 -0.10463990713E+04  0.13128352199E+04  0.12699999809E+01 0. -1.
       -4    1    3    3    0  502 -0.69718801984E+03 -0.37750834486E+03  0.65955759986E+03  0.10313105865E+04  0.12699999809E+01 0.  1.
</event>
<event>
 5   0  0.3238713E-06  0.2296767E+04  0.7818609E-02  0.8479197E-01
        1   -1    0    0  501    0  0.00000000000E+00  0.00000000000E+00  0.10020796965E+04  0.10020796966E+04  0.50400001928E-02 0. -1.
       -1   -1    0    0    0  501  0.00000000000E+00  0.00000000000E+00 -0.13160471554E+04  0.13160471554E+04  0.50400001928E-02 0.  1.
    10030    2    1    2    0    0  0.00000000000E+00  0.00000000000E+00 -0.31396745888E+03  0.23181268520E+04  0.22967665394E+04 0.  0.
        3    1    3    3  502    0 -0.99960973147E+02 -0.64760336211E+03 -0.11088355621E+04  0.12879823852E+04  0.10100000352E+00 0.  1.
       -3    1    3    3    0  502  0.99960973147E+02  0.64760336211E+03  0.79486810318E+03  0.10301444668E+04  0.10100000352E+00 0. -1.
</event>
<event>
 5   0  0.3195296E-06  0.2300534E+04  0.7818609E-02  0.8477711E-01
        1   -1    0    0  501    0  0.00000000000E+00  0.00000000000E+00  0.84663573335E+03  0.84663573336E+03  0.50400001928E-02 0.  1.
       -1   -1    0    0    0  501  0.00000000000E+00  0.00000000000E+00 -0.15627905362E+04  0.15627905362E+04  0.50400001928E-02 0. -1.
    10030    2    1    2    0    0  0.00000000000E+00  0.00000000000E+00 -0.71615480286E+03  0.24094262696E+04  0.23005341221E+04 0.  0.
        2    1    3    3  502    0 -0.19984701475E+02  0.68729595652E+03  0.60770894151E+03  0.91765204611E+03  0.25500000920E-02 0.  1.
       -2    1    3    3    0  502  0.19984701475E+02 -0.68729595652E+03 -0.13238637444E+04  0.14917742235E+04  0.25500000920E-02 0. -1.
</event>
<event>
 5   0  0.7044981E-06  0.2299878E+04  0.7818609E-02  0.8477969E-01
        2   -1    0    0  501    0  0.00000000000E+00  0.00000000000E+00  0.19459161419E+04  0.19459161419E+04  0.25500000920E-02 0. -1.
       -2   -1    0    0    0  501  0.00000000000E+00  0.00000000000E+00 -0.67955655825E+03  0.67955655825E+03  0.25500000920E-02 0.  1.
    10030    2    1    2    0    0  0.00000000000E+00  0.00000000000E+00  0.12663595836E+04  0.26254727001E+04  0.22998783238E+04 0.  0.
        4    1    3    3  502    0 -0.77096394932E+03 -0.15181695756E+03 -0.32528022287E+03  0.85043673253E+03  0.12699999809E+01 0.  1.
       -4    1    3    3    0  502  0.77096394932E+03  0.15181695756E+03  0.15916398065E+04  0.17750359676E+04  0.12699999809E+01 0. -1.
</event>
<event>
 5   0  0.3184492E-06  0.2302089E+04  0.7818609E-02  0.8477098E-01
       -1   -1    0    0    0  501  0.00000000000E+00  0.00000000000E+00  0.13409034775E+04  0.13409034776E+04  0.50400001928E-02 0.  1.
        1   -1    0    0  501    0  0.00000000000E+00  0.00000000000E+00 -0.98806787476E+03  0.98806787477E+03  0.50400001928E-02 0. -1.
    10030    2    1    2    0    0  0.00000000000E+00  0.00000000000E+00  0.35283560279E+03  0.23289713523E+04  0.23020891810E+04 0.  0.
        1    1    3    3  502    0 -0.88643223929E+03  0.25108588515E+03  0.87447323728E+03  0.12702400085E+04  0.50400001928E-02 0.  1.
       -1    1    3    3    0  502  0.88643223929E+03 -0.25108588515E+03 -0.52163763449E+03  0.10587313438E+04  0.50400001928E-02 0. -1.
</event>
<event>
 5   0  0.3238713E-06  0.2303296E+04  0.7818609E-02  0.8476623E-01
       -1   -1    0    0    0  501  0.00000000000E+00  0.00000000000E+00  0.15207670769E+04  0.15207670769E+04  0.50400001928E-02 0.  1.
        1   -1    0    0  501    0  0.00000000000E+00  0.00000000000E+00 -0.87212141094E+03  0.87212141096E+03  0.50400001928E-02 0. -1.
    10030    2    1    2    0    0  0.00000000000E+00  0.00000000000E+00  0.64864566599E+03  0.23928884879E+04  0.23032963586E+04 0.  0.
        3    1    3    3  502    0  0.70811072340E+03  0.14856224180E+03 -0.60652106781E+03  0.94411829353E+03  0.10100000352E+00 0. -1.
       -3    1    3    3    0  502 -0.70811072340E+03 -0.14856224180E+03  0.12551667338E+04  0.14487701944E+04  0.10100000352E+00 0.  1.
</event>
<event>
 5   0  0.7003852E-06  0.2301946E+04  0.7818609E-02  0.8477154E-01
       -2   -1    0    0    0  501  0.00000000000E+00  0.00000000000E+00  0.12349856172E+04  0.12349856172E+04  0.25500000920E-02 0.  1.
        2   -1    0    0  501    0  0.00000000000E+00  0.00000000000E+00 -0.10726757071E+04  0.10726757071E+04  0.25500000920E-02 0. -1.
    10030    2    1    2    0    0  0.00000000000E+00  0.00000000000E+00  0.16230991014E+03  0.23076613243E+04  0.23019461941E+04 0.  0.
        2    1    3    3  502    0 -0.68949903267E+03 -0.92131861072E+03  0.58690131893E+02  0.11522505935E+04  0.25500000920E-02 0.  1.
       -2    1    3    3    0  502  0.68949903267E+03  0.92131861072E+03  0.10361977825E+03  0.11554107309E+04  0.25500000920E-02 0. -1.
</event>
<event>
 5   0  0.7044981E-06  0.2347533E+04  0.7818609E-02  0.8459412E-01
        2   -1    0    0  501    0  0.00000000000E+00  0.00000000000E+00  0.13419828452E+04  0.13419828452E+04  0.25500000920E-02 0. -1.
       -2   -1    0    0    0  501  0.00000000000E+00  0.00000000000E+00 -0.10266359207E+04  0.10266359207E+04  0.25500000920E-02 0.  1.
    10030    2    1    2    0    0  0.00000000000E+00  0.00000000000E+00  0.31534692449E+03  0.23686187659E+04  0.23475329977E+04 0.  0.
        4    1    3    3  502    0  0.92044208838E+02  0.10463575555E+04 -0.37085396480E+03  0.11139436909E+04  0.12699999809E+01 0. -1.
       -4    1    3    3    0  502 -0.92044208838E+02 -0.10463575555E+04  0.68620088928E+03  0.12546750750E+04  0.12699999809E+01 0.  1.
</event>
<event>
 5   0  0.3338758E-06  0.2309232E+04  0.7818609E-02  0.8474290E-01
       -1   -1    0    0    0  501  0.00000000000E+00  0.00000000000E+00  0.15825012528E+04  0.15825012528E+04  0.50400001928E-02 0. -1.
        1   -1    0    0  501    0  0.00000000000E+00  0.00000000000E+00 -0.84242443395E+03  0.84242443397E+03  0.50400001928E-02 0.  1.
    10030    2    1    2    0    0  0.00000000000E+00  0.00000000000E+00  0.74007681884E+03  0.24249256868E+04  0.23092316663E+04 0.  0.
        5    1    3    3  502    0 -0.14955691979E+03  0.15300105821E+03 -0.82141591784E+03  0.84883614211E+03  0.46999998093E+01 0.  1.
       -5    1    3    3    0  502  0.14955691979E+03 -0.15300105821E+03  0.15614927367E+04  0.15760895447E+04  0.46999998093E+01 0. -1.
</event>
<event>
 5   0  0.7044981E-06  0.2302546E+04  0.7818609E-02  0.8476918E-01
       -2   -1    0    0    0  501  0.00000000000E+00  0.00000000000E+00  0.46249398728E+03  0.46249398729E+03  0.25500000920E-02 0. -1.
        2   -1    0    0  501    0  0.00000000000E+00  0.00000000000E+00 -0.28658307638E+04  0.28658307638E+04  0.25500000920E-02 0.  1.
    10030    2    1    2    0    0  0.00000000000E+00  0.00000000000E+00 -0.24033367765E+04  0.33283247511E+04  0.23025459794E+04 0.  0.
        4    1    3    3  502    0 -0.86566232429E+03 -0.44554562743E+02 -0.10645086864E+03  0.87332111453E+03  0.12699999809E+01 0. -1.
       -4    1    3    3    0  502  0.86566232429E+03  0.44554562743E+02 -0.22968859079E+04  0.24550036365E+04  0.12699999809E+01 0.  1.
</event>
<event>
 5   0  0.3195296E-06  0.2296101E+04  0.7818609E-02  0.8479460E-01
        1   -1    0    0  501    0  0.00000000000E+00  0.00000000000E+00  0.81811644064E+03  0.81811644065E+03  0.50400001928E-02 0.  1.
       -1   -1    0    0    0  501  0.00000000000E+00  0.00000000000E+00 -0.16110413234E+04  0.16110413234E+04  0.50400001928E-02 0. -1.
    10030    2    1    2    0    0  0.00000000000E+00  0.00000000000E+00 -0.79292488279E+03  0.24291577641E+04  0.22961005146E+04 0.  0.
        2    1    3    3  502    0  0.32809454048E+03 -0.77008514948E+03 -0.12277050912E+04  0.14859128359E+04  0.25500000920E-02 0. -1.
       -2    1    3    3    0  502 -0.32809454048E+03  0.77008514948E+03  0.43478020840E+03  0.94324492820E+03  0.25500000920E-02 0.  1.
</event>
<event>
 5   0  0.7497344E-06  0.2300982E+04  0.7818609E-02  0.8477534E-01
       -2   -1    0    0    0  501  0.00000000000E+00  0.00000000000E+00  0.73686968167E+03  0.73686968168E+03  0.25500000920E-02 0. -1.
        2   -1    0    0  501    0  0.00000000000E+00  0.00000000000E+00 -0.17962873533E+04  0.17962873533E+04  0.25500000920E-02 0.  1.
    10030    2    1    2    0    0  0.00000000000E+00  0.00000000000E+00 -0.10594176717E+04  0.25331570350E+04  0.23009821297E+04 0.  0.
        5    1    3    3  502    0 -0.48141667451E+03 -0.14401403037E+03 -0.16690794161E+04  0.17430864128E+04  0.46999998093E+01 0.  1.
       -5    1    3    3    0  502  0.48141667451E+03  0.14401403037E+03  0.60966174441E+03  0.79007062218E+03  0.46999998093E+01 0. -1.
</event>
<event>
 5   0  0.3226427E-06  0.2278774E+04  0.7818609E-02  0.8486337E-01
       -1   -1    0    0    0  501  0.00000000000E+00  0.00000000000E+00  0.87583753805E+03  0.87583753807E+03  0.50400001928E-02 0.  1.
        1   -1    0    0  501    0  0.00000000000E+00  0.00000000000E+00 -0.14822419208E+04  0.14822419209E+04  0.50400001928E-02 0. -1.
    10030    2    1    2    0    0  0.00000000000E+00  0.00000000000E+00 -0.60640438280E+03  0.23580794589E+04  0.22787743326E+04 0.  0.
        4    1    3    3  502    0 -0.10527157642E+02  0.11386182369E+04 -0.34509813402E+03  0.11898137020E+04  0.12699999809E+01 0. -1.
       -4    1    3    3    0  502  0.10527157642E+02 -0.11386182369E+04 -0.26130624878E+03  0.11682657570E+04  0.12699999809E+01 0.  1.
</event>
<event>
 5   0  0.7348107E-06  0.2298491E+04  0.7818609E-02  0.8478516E-01
        2   -1    0    0  501    0  0.00000000000E+00  0.00000000000E+00  0.11723068790E+04  0.11723068790E+04  0.25500000920E-02 0. -1.
       -2   -1    0    0    0  501  0.00000000000E+00  0.00000000000E+00 -0.11266377244E+04  0.11266377244E+04  0.25500000920E-02 0.  1.
    10030    2    1    2    0    0  0.00000000000E+00  0.00000000000E+00  0.45669154661E+02  0.22989446034E+04  0.22984909436E+04 0.  0.
        3    1    3    3  502    0 -0.52361581244E+03  0.87672699437E+03 -0.50447095989E+03  0.11389972350E+04  0.10100000352E+00 0.  1.
       -3    1    3    3    0  502  0.52361581244E+03 -0.87672699437E+03  0.55014011455E+03  0.11599473684E+04  0.10100000352E+00 0. -1.
</event>
<event>
 5   0  0.2519625E-06  0.2300414E+04  0.7818609E-02  0.8477758E-01
       -4   -1    0    0    0  501  0.00000000000E+00  0.00000000000E+00  0.84141967700E+03  0.84142063544E+03  0.12699999809E+01 0.  1.
        4   -1    0    0  501    0  0.00000000000E+00  0.00000000000E+00 -0.15723116312E+04  0.15723121441E+04  0.12699999809E+01 0. -1.
    10030    2    1    2    0    0  0.00000000000E+00  0.00000000000E+00 -0.73089195424E+03  0.24137327796E+04  0.23004136329E+04 0.  0.
        3    1    3    3  502    0  0.94615676969E+02  0.19350250280E+03 -0.15509617485E+04  0.15658472787E+04  0.10100000352E+00 0. -1.
       -3    1    3    3    0  502 -0.94615676969E+02 -0.19350250280E+03  0.82006979424E+03  0.84788550084E+03  0.10100000352E+00 0.  1.
</event>
<event>
 5   0  0.7003852E-06  0.2297303E+04  0.7818609E-02  0.8478985E-01
       -2   -1    0    0    0  501  0.00000000000E+00  0.00000000000E+00  0.66015317164E+03  0.66015317164E+03  0.25500000920E-02 0. -1.
        2   -1    0    0  501    0  0.00000000000E+00  0.00000000000E+00 -0.19986278120E+04  0.19986278120E+04  0.25500000920E-02 0.  1.
    10030    2    1    2    0    0  0.00000000000E+00  0.00000000000E+00 -0.13384746404E+04  0.26587809837E+04  0.22973031920E+04 0.  0.
        2    1    3    3  502    0 -0.86760810604E+03  0.29537038191E+03 -0.14705816190E+04  0.17328005616E+04  0.25500000920E-02 0.  1.
       -2    1    3    3    0  502  0.86760810604E+03 -0.29537038191E+03  0.13210697863E+03  0.92598042203E+03  0.25500000920E-02 0. -1.
</event>
<event>
 5   0  0.2519625E-06  0.2309108E+04  0.7818609E-02  0.8474339E-01
       -3   -1    0    0    0  501  0.00000000000E+00  0.00000000000E+00  0.94073172001E+03  0.94073172543E+03  0.10100000352E+00 0. -1.
        3   -1    0    0  501    0  0.00000000000E+00  0.00000000000E+00 -0.14169767603E+04  0.14169767639E+04  0.10100000352E+00 0.  1.
    10030    2    1    2    0    0  0.00000000000E+00  0.00000000000E+00 -0.47624504034E+03  0.23577084894E+04  0.23091080491E+04 0.  0.
        5    1    3    3  502    0  0.26536155689E+03  0.14101066751E+03  0.90009203057E+03  0.94894073457E+03  0.46999998093E+01 0. -1.
       -5    1    3    3    0  502 -0.26536155689E+03 -0.14101066751E+03 -0.13763370709E+04  0.14087677548E+04  0.46999998093E+01 0.  1.
</event>
<event>
 5   0  0.7044981E-06  0.2301981E+04  0.7818609E-02  0.8477140E-01
        2   -1    0    0  501    0  0.00000000000E+00  0.00000000000E+00  0.14084628109E+04  0.14084628109E+04  0.25500000920E-02 0. -1.
       -2   -1    0    0    0  501  0.00000000000E+00  0.00000000000E+00 -0.94058515769E+03  0.94058515770E+03  0.25500000920E-02 0.  1.
    10030    2    1    2    0    0  0.00000000000E+00  0.00000000000E+00  0.46787765324E+03  0.23490479686E+04  0.23019810730E+04 0.  0.
        4    1    3    3  502    0 -0.22114578914E+03 -0.44686954251E+02 -0.91779886928E+03  0.94512367513E+03  0.12699999809E+01 0.  1.
       -4    1    3    3    0  502  0.22114578914E+03  0.44686954251E+02  0.13856765225E+04  0.14039242935E+04  0.12699999809E+01 0. -1.
</event>
<event>
 5   0  0.7497344E-06  0.2301183E+04  0.7818609E-02  0.8477455E-01
       -2   -1    0    0    0  501  0.00000000000E+00  0.00000000000E+00  0.88730768243E+03  0.88730768243E+03  0.25500000920E-02 0. -1.
        2   -1    0    0  501    0  0.00000000000E+00  0.00000000000E+00 -0.14919969039E+04  0.14919969039E+04  0.25500000920E-02 0.  1.
    10030    2    1    2    0    0  0.00000000000E+00  0.00000000000E+00 -0.60468922147E+03  0.23793045863E+04  0.23011825786E+04 0.  0.
        5    1    3    3  502    0 -0.77641947128E+03 -0.25791828078E+03  0.53412506875E+03  0.97706740505E+03  0.46999998093E+01 0. -1.
       -5    1    3    3    0  502  0.77641947128E+03  0.25791828078E+03 -0.11388142902E+04  0.14022371813E+04  0.46999998093E+01 0.  1.
</event>
<event>
 5   0  0.3226427E-06  0.2298920E+04  0.7818609E-02  0.8478347E-01
        1   -1    0    0  501    0  0.00000000000E+00  0.00000000000E+00  0.10146509051E+04  0.10146509052E+04  0.50400001928E-02 0. -1.
       -1   -1    0    0    0  501  0.00000000000E+00  0.00000000000E+00 -0.13021802441E+04  0.13021802441E+04  0.50400001928E-02 0.  1.
    10030    2    1    2    0    0  0.00000000000E+00  0.00000000000E+00 -0.28752933893E+03  0.23168311492E+04  0.22989200624E+04 0.  0.
        4    1    3    3  502    0 -0.89749801543E+03 -0.62961140395E+03 -0.49191753667E+03  0.12016229373E+04  0.12699999809E+01 0.  1.
       -4    1    3    3    0  502  0.89749801543E+03  0.62961140395E+03  0.20438819774E+03  0.11152082119E+04  0.12699999809E+01 0. -1.
</event>
<event>
 5   0  0.3195296E-06  0.2299787E+04  0.7818609E-02  0.8478005E-01
        1   -1    0    0  501    0  0.00000000000E+00  0.00000000000E+00  0.16138048231E+04  0.16138048232E+04  0.50400001928E-02 0.  1.
       -1   -1    0    0    0  501  0.00000000000E+00  0.00000000000E+00 -0.81933989629E+03  0.81933989630E+03  0.50400001928E-02 0. -1.
    10030    2    1    2    0    0  0.00000000000E+00  0.00000000000E+00  0.79446492686E+03  0.24331447195E+04  0.22997866653E+04 0.  0.
        2    1    3    3  502    0 -0.11223015580E+04 -0.13060082806E+03  0.62324910785E+03  0.12903708048E+04  0.25500000920E-02 0.  1.
       -2    1    3    3    0  502  0.11223015580E+04  0.13060082806E+03  0.17121581901E+03  0.11427739147E+04  0.25500000920E-02 0. -1.
</event>
<event>
 5   0  0.7497344E-06  0.2300751E+04  0.7818609E-02  0.8477625E-01
       -2   -1    0    0    0  501  0.00000000000E+00  0.00000000000E+00  0.63104028798E+03  0.63104028799E+03  0.25500000920E-02 0.  1.
        2   -1    0    0  501    0  0.00000000000E+00  0.00000000000E+00 -0.20971151130E+04  0.20971151130E+04  0.25500000920E-02 0. -1.
    10030    2    1    2    0    0  0.00000000000E+00  0.00000000000E+00 -0.14660748250E+04  0.27281554010E+04  0.23007512902E+04 0.  0.
        5    1    3    3  502    0  0.41459117409E+03 -0.40106464469E+03  0.44714550873E+03  0.72986292332E+03  0.46999998093E+01 0.  1.
       -5    1    3    3    0  502 -0.41459117409E+03  0.40106464469E+03 -0.19132203338E+04  0.19982924777E+04  0.46999998093E+01 0. -1.
</event>
<event>
 5   0  0.3238713E-06  0.2299145E+04  0.7818609E-02  0.8478258E-01
        1   -1    0    0  501    0  0.00000000000E+00  0.00000000000E+00  0.15596872227E+04  0.15596872227E+04  0.50400001928E-02 0.  1.
       -1   -1    0    0    0  501  0.00000000000E+00  0.00000000000E+00 -0.84729618917E+03  0.84729618918E+03  0.50400001928E-02 0. -1.
    10030    2    1    2    0    0  0.00000000000E+00  0.00000000000E+00  0.71239103349E+03  0.24069834118E+04  0.22991450934E+04 0.  0.
        3    1    3    3  502    0 -0.37720886488E+03 -0.94818406540E+03  0.91034040379E+03  0.13675010825E+04  0.10100000352E+00 0.  1.
       -3    1    3    3    0  502  0.37720886488E+03  0.94818406540E+03 -0.19794937030E+03  0.10394823294E+04  0.10100000352E+00 0. -1.
</event>
<event>
 5   0  0.7242214E-06  0.2276582E+04  0.7818609E-02  0.8487212E-01
        2   -1    0    0  501    0  0.00000000000E+00  0.00000000000E+00  0.15259164424E+04  0.15259164424E+04  0.25500000920E-02 0. -1.
       -2   -1    0    0    0  501  0.00000000000E+00  0.00000000000E+00 -0.84913318201E+03  0.84913318202E+03  0.25500000920E-02 0.  1.
    10030    2    1    2    0    0  0.00000000000E+00  0.00000000000E+00  0.67678326038E+03  0.23750496244E+04  0.22765818977E+04 0.  0.
        1    1    3    3  502    0  0.10146905899E+03  0.97351212008E+03  0.94463213792E+03  0.13602763300E+04  0.50400001928E-02 0. -1.
       -1    1    3    3    0  502 -0.10146905899E+03 -0.97351212008E+03 -0.26784887755E+03  0.10147732944E+04  0.50400001928E-02 0.  1.
</event>
<event>
 5   0  0.3184492E-06  0.2291939E+04  0.7818609E-02  0.8481106E-01
        1   -1    0    0  501    0  0.00000000000E+00  0.00000000000E+00  0.21000737278E+04  0.21000737278E+04  0.50400001928E-02 0.  1.
       -1   -1    0    0    0  501  0.00000000000E+00  0.00000000000E+00 -0.62533330550E+03  0.62533330552E+03  0.50400001928E-02 0. -1.
    10030    2    1    2    0    0  0.00000000000E+00  0.00000000000E+00  0.14747404223E+04  0.27254070334E+04  0.22919389573E+04 0.  0.
        1    1    3    3  502    0 -0.48666706398E+03  0.17523834582E+03 -0.47862081952E+03  0.70472065239E+03  0.50400001928E-02 0. -1.
       -1    1    3    3    0  502  0.48666706398E+03 -0.17523834582E+03  0.19533612419E+04  0.20206863810E+04  0.50400001928E-02 0.  1.
</event>
<event>
 5   0  0.7242214E-06  0.2303921E+04  0.7818609E-02  0.8476377E-01
        2   -1    0    0  501    0  0.00000000000E+00  0.00000000000E+00  0.11206676497E+04  0.11206676497E+04  0.25500000920E-02 0.  1.
       -2   -1    0    0    0  501  0.00000000000E+00  0.00000000000E+00 -0.11841268322E+04  0.11841268322E+04  0.25500000920E-02 0. -1.
    10030    2    1    2    0    0  0.00000000000E+00  0.00000000000E+00 -0.63459182476E+02  0.23047944819E+04  0.23039206878E+04 0.  0.
        1    1    3    3  502    0 -0.96135694587E+03  0.50667244603E+03  0.35063060832E+03  0.11418695059E+04  0.50400001928E-02 0.  1.
       -1    1    3    3    0  502  0.96135694587E+03 -0.50667244603E+03 -0.41408979080E+03  0.11629249760E+04  0.50400001928E-02 0. -1.
</event>
<event>
 5   0  0.7242214E-06  0.2301334E+04  0.7818609E-02  0.8477395E-01
        2   -1    0    0  501    0  0.00000000000E+00  0.00000000000E+00  0.99143988122E+03  0.99143988122E+03  0.25500000920E-02 0. -1.
       -2   -1    0    0    0  501  0.00000000000E+00  0.00000000000E+00 -0.13354661991E+04  0.13354661991E+04  0.25500000920E-02 0.  1.
    10030    2    1    2    0    0  0.00000000000E+00  0.00000000000E+00 -0.34402631787E+03  0.23269060803E+04  0.23013339174E+04 0.  0.
        1    1    3    3  502    0  0.92457031613E+03 -0.14162070482E+03 -0.84964504483E+03  0.12636389499E+04  0.50400001928E-02 0.  1.
       -1    1    3    3    0  502 -0.92457031613E+03  0.14162070482E+03  0.50561872696E+03  0.10632671304E+04  0.50400001928E-02 0. -1.
</event>
<event>
 5   0  0.7497344E-06  0.2303462E+04  0.7818609E-02  0.8476557E-01
       -2   -1    0    0    0  501  0.00000000000E+00  0.00000000000E+00  0.83762735917E+03  0.83762735917E+03  0.25500000920E-02 0. -1.
        2   -1    0    0  501    0  0.00000000000E+00  0.00000000000E+00 -0.15836216560E+04  0.15836216560E+04  0.25500000920E-02 0.  1.
    10030    2    1    2    0    0  0.00000000000E+00  0.00000000000E+00 -0.74599429680E+03  0.24212490151E+04  0.23034624595E+04 0.  0.
        5    1    3    3  502    0 -0.37536902402E+03  0.10865483669E+04 -0.29886810274E+03  0.11877851197E+04  0.46999998093E+01 0. -1.
       -5    1    3    3    0  502  0.37536902402E+03 -0.10865483669E+04 -0.44712619406E+03  0.12334638954E+04  0.46999998093E+01 0.  1.
</event>
<event>
 5   0  0.7348107E-06  0.2299560E+04  0.7818609E-02  0.8478095E-01
        2   -1    0    0  501    0  0.00000000000E+00  0.00000000000E+00  0.64877184261E+03  0.64877184262E+03  0.25500000920E-02 0. -1.
       -2   -1    0    0    0  501  0.00000000000E+00  0.00000000000E+00 -0.20376866935E+04  0.20376866936E+04  0.25500000920E-02 0.  1.
    10030    2    1    2    0    0  0.00000000000E+00  0.00000000000E+00 -0.13889148509E+04  0.26864585362E+04  0.22995597412E+04 0.  0.
        3    1    3    3  502    0  0.55921980586E+03 -0.36858601977E+03  0.39734699213E+03  0.77875996789E+03  0.10100000352E+00 0. -1.
       -3    1    3    3    0  502 -0.55921980586E+03  0.36858601977E+03 -0.17862618431E+04  0.19076985683E+04  0.10100000352E+00 0.  1.
</event>
<event>
 5   0  0.3195296E-06  0.2303073E+04  0.7818609E-02  0.8476710E-01
        1   -1    0    0  501    0  0.00000000000E+00  0.00000000000E+00  0.26069166232E+04  0.26069166232E+04  0.50400001928E-02 0. -1.
       -1   -1    0    0    0  501  0.00000000000E+00  0.00000000000E+00 -0.50866100830E+03  0.50866100833E+03  0.50400001928E-02 0.  1.
    10030    2    1    2    0    0  0.00000000000E+00  0.00000000000E+00  0.20982556149E+04  0.31155776315E+04  0.23030734579E+04 0.  0.
        2    1    3    3  502    0 -0.20604655734E+03 -0.51638477234E+03 -0.31506570376E+03  0.63904210705E+03  0.25500000920E-02 0.  1.
       -2    1    3    3    0  502  0.20604655734E+03  0.51638477234E+03  0.24133213186E+04  0.24765355245E+04  0.25500000920E-02 0. -1.
</event>
<event>
 5   0  0.3238713E-06  0.2297225E+04  0.7818609E-02  0.8479016E-01
        1   -1    0    0  501    0  0.00000000000E+00  0.00000000000E+00  0.22433091190E+04  0.22433091190E+04  0.50400001928E-02 0.  1.
       -1   -1    0    0    0  501  0.00000000000E+00  0.00000000000E+00 -0.58810912766E+03  0.58810912769E+03  0.50400001928E-02 0. -1.
    10030    2    1    2    0    0  0.00000000000E+00  0.00000000000E+00  0.16551999914E+04  0.28314182467E+04  0.22972249077E+04 0.  0.
        3    1    3    3  502    0  0.52143569506E+02 -0.65952495385E+03 -0.32968638772E+03  0.73917876123E+03  0.10100000352E+00 0. -1.
       -3    1    3    3    0  502 -0.52143569506E+02  0.65952495385E+03  0.19848863791E+04  0.20922394855E+04  0.10100000352E+00 0.  1.
</event>
<event>
 5   0  0.3195296E-06  0.2296742E+04  0.7818609E-02  0.8479207E-01
        1   -1    0    0  501    0  0.00000000000E+00  0.00000000000E+00  0.15900097310E+04  0.15900097310E+04  0.50400001928E-02 0. -1.
       -1   -1    0    0    0  501  0.00000000000E+00  0.00000000000E+00 -0.82940111240E+03  0.82940111241E+03  0.50400001928E-02 0.  1.
    10030    2    1    2    0    0  0.00000000000E+00  0.00000000000E+00  0.76060861856E+03  0.24194108434E+04  0.22967419007E+04 0.  0.
        2    1    3    3  502    0  0.43944726047E+02 -0.76827407987E+03 -0.51761857673E+03  0.92741856339E+03  0.25500000920E-02 0.  1.
       -2    1    3    3    0  502 -0.43944726047E+02  0.76827407987E+03  0.12782271953E+04  0.14919922800E+04  0.25500000920E-02 0. -1.
</event>
<event>
 5   0  0.3184492E-06  0.2294242E+04  0.7818609E-02  0.8480195E-01
       -1   -1    0    0    0  501  0.00000000000E+00  0.00000000000E+00  0.12079495712E+04  0.12079495712E+04  0.50400001928E-02 0. -1.
        1   -1    0    0  501    0  0.00000000000E+00  0.00000000000E+00 -0.10893551639E+04  0.10893551639E+04  0.50400001928E-02 0.  1.
    10030    2    1    2    0    0  0.00000000000E+00  0.00000000000E+00  0.11859440732E+03  0.22973047351E+04  0.22942415768E+04 0.  0.
        1    1    3    3  502    0 -0.32603182228E+03 -0.31622523060E+03  0.11140748475E+04  0.12031034500E+04  0.50400001928E-02 0. -1.
       -1    1    3    3    0  502  0.32603182228E+03  0.31622523060E+03 -0.99548044016E+03  0.10942012851E+04  0.50400001928E-02 0.  1.
</event>
<event>
 5   0  0.7044981E-06  0.2301511E+04  0.7818609E-02  0.8477325E-01
        2   -1    0    0  501    0  0.00000000000E+00  0.00000000000E+00  0.16447679883E+04  0.16447679883E+04  0.25500000920E-02 0.  1.
       -2   -1    0    0    0  501  0.00000000000E+00  0.00000000000E+00 -0.80512180468E+03  0.80512180468E+03  0.25500000920E-02 0. -1.
    10030    2    1    2    0    0  0.00000000000E+00  0.00000000000E+00  0.83964618360E+03  0.24498897930E+04  0.23015113043E+04 0.  0.
        4    1    3    3  502    0  0.71527876087E+02  0.74682597187E+03 -0.50899742030E+03  0.90661196555E+03  0.12699999809E+01 0. -1.
       -4    1    3    3    0  502 -0.71527876087E+02 -0.74682597187E+03  0.13486436039E+04  0.15432778274E+04  0.12699999809E+01 0.  1.
</event>
<event>
 5   0  0.3238713E-06  0.2298831E+04  0.7818609E-02  0.8478382E-01
        1   -1    0    0  501    0  0.00000000000E+00  0.00000000000E+00  0.11424240763E+04  0.11424240763E+04  0.50400001928E-02 0.  1.
       -1   -1    0    0    0  501  0.00000000000E+00  0.00000000000E+00 -0.11564500306E+04  0.11564500306E+04  0.50400001928E-02 0. -1.
    10030    2    1    2    0    0  0.00000000000E+00  0.00000000000E+00 -0.14025954370E+02  0.22988741069E+04  0.22988313187E+04 0.  0.
        3    1    3    3  502    0 -0.70747854355E+03  0.81064920705E+02  0.89525596349E+03  0.11439321052E+04  0.10100000352E+00 0.  1.
       -3    1    3    3    0  502  0.70747854355E+03 -0.81064920705E+02 -0.90928191786E+03  0.11549420017E+04  0.10100000352E+00 0. -1.
</event>
<event>
 5   0  0.7003852E-06  0.2297432E+04  0.7818609E-02  0.8478934E-01
       -2   -1    0    0    0  501  0.00000000000E+00  0.00000000000E+00  0.83446691832E+03  0.83446691832E+03  0.25500000920E-02 0. -1.
        2   -1    0    0  501    0  0.00000000000E+00  0.00000000000E+00 -0.15813071946E+04  0.15813071946E+04  0.25500000920E-02 0.  1.
    10030    2    1    2    0    0  0.00000000000E+00  0.00000000000E+00 -0.74684027628E+03  0.24157741129E+04  0.22974320809E+04 0.  0.
        2    1    3    3  502    0 -0.78641357608E+03  0.68161131945E+03 -0.88479194226E+03  0.13659784349E+04  0.25500000920E-02 0.  1.
       -2    1    3    3    0  502  0.78641357608E+03 -0.68161131945E+03  0.13795166599E+03  0.10497956780E+04  0.25500000920E-02 0. -1.
</event>
<event>
 5   0  0.3338758E-06  0.2300442E+04  0.7818609E-02  0.8477747E-01
       -1   -1    0    0    0  501  0.00000000000E+00  0.00000000000E+00  0.63996024213E+03  0.63996024215E+03  0.50400001928E-02 0.  1.
        1   -1    0    0  501    0  0.00000000000E+00  0.00000000000E+00 -0.20673283231E+04  0.20673283231E+04  0.50400001928E-02 0. -1.
    10030    2    1    2    0    0  0.00000000000E+00  0.00000000000E+00 -0.14273680810E+04  0.27072885653E+04  0.23004416396E+04 0.  0.
        5    1    3    3  502    0  0.95260818591E+03  0.58907951695E+03 -0.40565153783E+03  0.11912398135E+04  0.46999998093E+01 0.  1.
       -5    1    3    3    0  502 -0.95260818591E+03 -0.58907951695E+03 -0.10217165432E+04  0.15160487518E+04  0.46999998093E+01 0. -1.
</event>
<event>
 5   0  0.7044981E-06  0.2308401E+04  0.7818609E-02  0.8474616E-01
       -2   -1    0    0    0  501  0.00000000000E+00  0.00000000000E+00  0.15145160150E+04  0.15145160150E+04  0.25500000920E-02 0.  1.
        2   -1    0    0  501    0  0.00000000000E+00  0.00000000000E+00 -0.87960677076E+03  0.87960677076E+03  0.25500000920E-02 0. -1.
    10030    2    1    2    0    0  0.00000000000E+00  0.00000000000E+00  0.63490924419E+03  0.23941227857E+04  0.23084007808E+04 0.  0.
        4    1    3    3  502    0 -0.46270820529E+03 -0.26283401897E+03 -0.74478425087E+03  0.91536102059E+03  0.12699999809E+01 0. -1.
       -4    1    3    3    0  502  0.46270820529E+03  0.26283401897E+03  0.13796934951E+04  0.14787617651E+04  0.12699999809E+01 0.  1.
</event>
<event>
 5   0  0.7242214E-06  0.2299599E+04  0.7818609E-02  0.8478079E-01
        2   -1    0    0  501    0  0.00000000000E+00  0.00000000000E+00  0.75464080070E+03  0.75464080071E+03  0.25500000920E-02 0. -1.
       -2   -1    0    0    0  501  0.00000000000E+00  0.00000000000E+00 -0.17518776593E+04  0.17518776593E+04  0.25500000920E-02 0.  1.
    10030    2    1    2    0    0  0.00000000000E+00  0.00000000000E+00 -0.99723685860E+03  0.25065184600E+04  0.22995985385E+04 0.  0.
        1    1    3    3  502    0 -0.13175261711E+03 -0.45751657646E+03  0.64214860716E+03  0.79939664970E+03  0.50400001928E-02 0. -1.
       -1    1    3    3    0  502  0.13175261711E+03  0.45751657646E+03 -0.16393854658E+04  0.17071218103E+04  0.50400001928E-02 0.  1.
</event>
<event>
 5   0  0.7242214E-06  0.2297686E+04  0.7818609E-02  0.8478834E-01
       -2   -1    0    0    0  501  0.00000000000E+00  0.00000000000E+00  0.66678556154E+03  0.66678556154E+03  0.25500000920E-02 0. -1.
        2   -1    0    0  501    0  0.00000000000E+00  0.00000000000E+00 -0.19794072248E+04  0.19794072248E+04  0.25500000920E-02 0.  1.
    10030    2    1    2    0    0  0.00000000000E+00  0.00000000000E+00 -0.13126216632E+04  0.26461927863E+04  0.22976859297E+04 0.  0.
        1    1    3    3  502    0  0.34230481494E+03 -0.87390858010E+03  0.10671460917E+03  0.94460404432E+03  0.50400001928E-02 0. -1.
       -1    1    3    3    0  502 -0.34230481494E+03  0.87390858010E+03 -0.14193362724E+04  0.17015887420E+04  0.50400001928E-02 0.  1.
</event>
<event>
 5   0  0.3226427E-06  0.2302138E+04  0.7818609E-02  0.8477079E-01
        1   -1    0    0  501    0  0.00000000000E+00  0.00000000000E+00  0.22591744958E+04  0.22591744958E+04  0.50400001928E-02 0.  1.
       -1   -1    0    0    0  501  0.00000000000E+00  0.00000000000E+00 -0.58647945594E+03  0.58647945596E+03  0.50400001928E-02 0. -1.
    10030    2    1    2    0    0  0.00000000000E+00  0.00000000000E+00  0.16726950399E+04  0.28456539518E+04  0.23021376407E+04 0.  0.
        4    1    3    3  502    0  0.72615467873E+03  0.74952619133E+03  0.14366705783E+04  0.17757010144E+04  0.12699999809E+01 0.  1.
       -4    1    3    3    0  502 -0.72615467873E+03 -0.74952619133E+03  0.23602446156E+03  0.10699529374E+04  0.12699999809E+01 0. -1.
</event>
<event>
 5   0  0.7044981E-06  0.2320514E+04  0.7818609E-02  0.8469876E-01
       -2   -1    0    0    0  501  0.00000000000E+00  0.00000000000E+00  0.92810078827E+03  0.92810078827E+03  0.25500000920E-02 0.  1.
        2   -1    0    0  501    0  0.00000000000E+00  0.00000000000E+00 -0.14504850604E+04  0.14504850604E+04  0.25500000920E-02 0. -1.
    10030    2    1    2    0    0  0.00000000000E+00  0.00000000000E+00 -0.52238427215E+03  0.23785858487E+04  0.23205140189E+04 0.  0.
        4    1    3    3  502    0 -0.55355901497E+03 -0.42172161318E+03  0.69043674230E+03  0.98029649091E+03  0.12699999809E+01 0.  1.
       -4    1    3    3    0  502  0.55355901497E+03  0.42172161318E+03 -0.12128210145E+04  0.13982893578E+04  0.12699999809E+01 0. -1.
</event>
<event>
 5   0  0.7044981E-06  0.2303967E+04  0.7818609E-02  0.8476359E-01
       -2   -1    0    0    0  501  0.00000000000E+00  0.00000000000E+00  0.97734133477E+03  0.97734133477E+03  0.25500000920E-02 0. -1.
        2   -1    0    0  501    0  0.00000000000E+00  0.00000000000E+00 -0.13578324727E+04  0.13578324727E+04  0.25500000920E-02 0.  1.
    10030    2    1    2    0    0  0.00000000000E+00  0.00000000000E+00 -0.38049113790E+03  0.23351738074E+04  0.23039668411E+04 0.  0.
        4    1    3    3  502    0 -0.10121916973E+04 -0.78334421262E+02  0.36155108635E+03  0.10776776487E+04  0.12699999809E+01 0. -1.
       -4    1    3    3    0  502  0.10121916973E+04  0.78334421262E+02 -0.74204222425E+03  0.12574961587E+04  0.12699999809E+01 0.  1.
</event>
<event>
 5   0  0.3195296E-06  0.2300532E+04  0.7818609E-02  0.8477711E-01
        1   -1    0    0  501    0  0.00000000000E+00  0.00000000000E+00  0.85591273161E+03  0.85591273163E+03  0.50400001928E-02 0.  1.
       -1   -1    0    0    0  501  0.00000000000E+00  0.00000000000E+00 -0.15458493097E+04  0.15458493097E+04  0.50400001928E-02 0. -1.
    10030    2    1    2    0    0  0.00000000000E+00  0.00000000000E+00 -0.68993657805E+03  0.24017620413E+04  0.23005322039E+04 0.  0.
        2    1    3    3  502    0 -0.18611848451E+03 -0.10580827980E+04  0.84131854417E+02  0.10776165675E+04  0.25500000920E-02 0.  1.
       -2    1    3    3    0  502  0.18611848451E+03  0.10580827980E+04 -0.77406843247E+03  0.13241454738E+04  0.25500000920E-02 0. -1.
</event>
<event>
 5   0  0.7044981E-06  0.2293815E+04  0.7818609E-02  0.8480364E-01
        2   -1    0    0  501    0  0.00000000000E+00  0.00000000000E+00  0.14533378331E+04  0.14533378331E+04  0.25500000920E-02 0.  1.
       -2   -1    0    0    0  501  0.00000000000E+00  0.00000000000E+00 -0.90508643974E+03  0.90508643975E+03  0.25500000920E-02 0. -1.
    10030    2    1    2    0    0  0.00000000000E+00  0.00000000000E+00  0.54825139338E+03  0.23584242729E+04  0.22938146090E+04 0.  0.
        4    1    3    3  502    0 -0.10776214881E+04 -0.67284980967E+02 -0.12354955513E+03  0.10867665093E+04  0.12699999809E+01 0. -1.
       -4    1    3    3    0  502  0.10776214881E+04  0.67284980967E+02  0.67180094851E+03  0.12716577636E+04  0.12699999809E+01 0.  1.
</event>
<event>
 5   0  0.3338758E-06  0.2302402E+04  0.7818609E-02  0.8476974E-01
       -1   -1    0    0    0  501  0.00000000000E+00  0.00000000000E+00  0.82722933505E+03  0.82722933506E+03  0.50400001928E-02 0. -1.
        1   -1    0    0  501    0  0.00000000000E+00  0.00000000000E+00 -0.16020517993E+04  0.16020517993E+04  0.50400001928E-02 0.  1.
    10030    2    1    2    0    0  0.00000000000E+00  0.00000000000E+00 -0.77482246426E+03  0.24292811344E+04  0.23024024363E+04 0.  0.
        5    1    3    3  502    0 -0.48258897964E+03  0.55108569757E+03  0.54958955925E+03  0.91578291258E+03  0.46999998093E+01 0. -1.
       -5    1    3    3    0  502  0.48258897964E+03 -0.55108569757E+03 -0.13244120235E+04  0.15134982218E+04  0.46999998093E+01 0.  1.
</event>
<event>
 5   0  0.3338758E-06  0.2321486E+04  0.7818609E-02  0.8469498E-01
        1   -1    0    0  501    0  0.00000000000E+00  0.00000000000E+00  0.12924334080E+04  0.12924334080E+04  0.50400001928E-02 0.  1.
       -1   -1    0    0    0  501  0.00000000000E+00  0.00000000000E+00 -0.10424706006E+04  0.10424706006E+04  0.50400001928E-02 0. -1.
    10030    2    1    2    0    0  0.00000000000E+00  0.00000000000E+00  0.24996280741E+03  0.23349040085E+04  0.23214855856E+04 0.  0.
        5    1    3    3  502    0 -0.14773308705E+03  0.22276947332E+03 -0.10110829229E+04  0.10458308038E+04  0.46999998093E+01 0. -1.
       -5    1    3    3    0  502  0.14773308705E+03 -0.22276947332E+03  0.12610457303E+04  0.12890732047E+04  0.46999998093E+01 0.  1.
</event>
<event>
 5   0  0.3338758E-06  0.2312284E+04  0.7818609E-02  0.8473094E-01
        1   -1    0    0  501    0  0.00000000000E+00  0.00000000000E+00  0.19824598213E+04  0.19824598213E+04  0.50400001928E-02 0. -1.
       -1   -1    0    0    0  501  0.00000000000E+00  0.00000000000E+00 -0.67424508054E+03  0.67424508056E+03  0.50400001928E-02 0.  1.
    10030    2    1    2    0    0  0.00000000000E+00  0.00000000000E+00  0.13082147408E+04  0.26567049019E+04  0.23122835310E+04 0.  0.
        5    1    3    3  502    0  0.30882699748E+03 -0.70791379914E+03 -0.33434319269E+03  0.84161958264E+03  0.46999998093E+01 0.  1.
       -5    1    3    3    0  502 -0.30882699748E+03  0.70791379914E+03  0.16425579335E+04  0.18150853193E+04  0.46999998093E+01 0. -1.
</event>
<event>
 5   0  0.3195296E-06  0.2302736E+04  0.7818609E-02  0.8476843E-01
        1   -1    0    0  501    0  0.00000000000E+00  0.00000000000E+00  0.16008892235E+04  0.16008892235E+04  0.50400001928E-02 0. -1.
       -1   -1    0    0    0  501  0.00000000000E+00  0.00000000000E+00 -0.82806966972E+03  0.82806966973E+03  0.50400001928E-02 0.  1.
    10030    2    1    2    0    0  0.00000000000E+00  0.00000000000E+00  0.77281955381E+03  0.24289588933E+04  0.23027355998E+04 0.  0.
        2    1    3    3  502    0  0.52023805022E+03  0.87900893910E+03 -0.17407647115E+03  0.10361500672E+04  0.25500000920E-02 0.  1.
       -2    1    3    3    0  502 -0.52023805022E+03 -0.87900893910E+03  0.94689602496E+03  0.13928088261E+04  0.25500000920E-02 0. -1.
</event>
<event>
 5   0  0.7348107E-06  0.2297100E+04  0.7818609E-02  0.8479065E-01
        2   -1    0    0  501    0  0.00000000000E+00  0.00000000000E+00  0.19313781624E+04  0.19313781624E+04  0.25500000920E-02 0. -1.
       -2   -1    0    0    0  501  0.00000000000E+00  0.00000000000E+00 -0.68301847390E+03  0.68301847390E+03  0.25500000920E-02 0.  1.
    10030    2    1    2    0    0  0.00000000000E+00  0.00000000000E+00  0.12483596885E+04  0.26143966363E+04  0.22970998803E+04 0.  0.
        3    1    3    3  502    0  0.15380654813E+03  0.93152173930E+03 -0.12021043421E+03  0.95175614720E+03  0.10100000352E+00 0.  1.
       -3    1    3    3    0  502 -0.15380654813E+03 -0.93152173930E+03  0.13685701227E+04  0.16626404891E+04  0.10100000352E+00 0. -1.
</event>
<event>
 5   0  0.7497344E-06  0.2300578E+04  0.7818609E-02  0.8477693E-01
       -2   -1    0    0    0  501  0.00000000000E+00  0.00000000000E+00  0.66057649821E+03  0.66057649822E+03  0.25500000920E-02 0. -1.
        2   -1    0    0  501    0  0.00000000000E+00  0.00000000000E+00 -0.20030458499E+04  0.20030458499E+04  0.25500000920E-02 0.  1.
    10030    2    1    2    0    0  0.00000000000E+00  0.00000000000E+00 -0.13424693517E+04  0.26636223481E+04  0.23005781997E+04 0.  0.
        5    1    3    3  502    0 -0.10505507966E+04 -0.81747950006E+02 -0.13713200814E+03  0.10626226900E+04  0.46999998093E+01 0. -1.
       -5    1    3    3    0  502  0.10505507966E+04  0.81747950006E+02 -0.12053373435E+04  0.16009996581E+04  0.46999998093E+01 0.  1.
</event>
<event>
 5   0  0.7003852E-06  0.2302037E+04  0.7818609E-02  0.8477118E-01
        2   -1    0    0  501    0  0.00000000000E+00  0.00000000000E+00  0.15033886586E+04  0.15033886586E+04  0.25500000920E-02 0.  1.
       -2   -1    0    0    0  501  0.00000000000E+00  0.00000000000E+00 -0.88123830230E+03  0.88123830231E+03  0.25500000920E-02 0. -1.
    10030    2    1    2    0    0  0.00000000000E+00  0.00000000000E+00  0.62215035634E+03  0.23846269610E+04  0.23020370712E+04 0.  0.
        2    1    3    3  502    0  0.69591757976E+03  0.76604571617E+03  0.83284909609E+03  0.13284445543E+04  0.25500000920E-02 0.  1.
       -2    1    3    3    0  502 -0.69591757976E+03 -0.76604571617E+03 -0.21069873976E+03  0.10561824066E+04  0.25500000920E-02 0. -1.
</event>
<event>
 5   0  0.3195296E-06  0.2298254E+04  0.7818609E-02  0.8478610E-01
       -1   -1    0    0    0  501  0.00000000000E+00  0.00000000000E+00  0.75046630003E+03  0.75046630005E+03  0.50400001928E-02 0.  1.
        1   -1    0    0  501    0  0.00000000000E+00  0.00000000000E+00 -0.17595627947E+04  0.17595627947E+04  0.50400001928E-02 0. -1.
    10030    2    1    2    0    0  0.00000000000E+00  0.00000000000E+00 -0.10090964947E+04  0.25100290948E+04  0.22982537547E+04 0.  0.
        2    1    3    3  502    0  0.10769681434E+04 -0.38822686995E+03 -0.61328178672E+03  0.12987282373E+04  0.25500000920E-02 0. -1.
       -2    1    3    3    0  502 -0.10769681434E+04  0.38822686995E+03 -0.39581470798E+03  0.12113008575E+04  0.25500000920E-02 0.  1.
</event>
<event>
 5   0  0.7242214E-06  0.2302469E+04  0.7818609E-02  0.8476948E-01
        2   -1    0    0  501    0  0.00000000000E+00  0.00000000000E+00  0.12489428521E+04  0.12489428521E+04  0.25500000920E-02 0.  1.
       -2   -1    0    0    0  501  0.00000000000E+00  0.00000000000E+00 -0.10611701867E+04  0.10611701867E+04  0.25500000920E-02 0. -1.
    10030    2    1    2    0    0  0.00000000000E+00  0.00000000000E+00  0.18777266536E+03  0.23101130388E+04  0.23024690395E+04 0.  0.
        1    1    3    3  502    0 -0.11467433661E+04 -0.72953251481E+02  0.16482037635E+03  0.11608222435E+04  0.50400001928E-02 0.  1.
       -1    1    3    3    0  502  0.11467433661E+04  0.72953251481E+02  0.22952289011E+02  0.11492907953E+04  0.50400001928E-02 0. -1.
</event>
<event>
 5   0  0.3195296E-06  0.2301575E+04  0.7818609E-02  0.8477300E-01
        1   -1    0    0  501    0  0.00000000000E+00  0.00000000000E+00  0.21125300102E+04  0.21125300102E+04  0.50400001928E-02 0. -1.
       -1   -1    0    0    0  501  0.00000000000E+00  0.00000000000E+00 -0.62688440502E+03  0.62688440505E+03  0.50400001928E-02 0.  1.
    10030    2    1    2    0    0  0.00000000000E+00  0.00000000000E+00  0.14856456052E+04  0.27394144153E+04  0.23015752159E+04 0.  0.
        2    1    3    3  502    0  0.10928425755E+02  0.62546361632E+03  0.18924858765E+04  0.19931951632E+04  0.25500000920E-02 0. -1.
       -2    1    3    3    0  502 -0.10928425755E+02 -0.62546361632E+03 -0.40684027129E+03  0.74621925209E+03  0.25500000920E-02 0.  1.
</event>
<event>
 5   0  0.3184492E-06  0.2298486E+04  0.7818609E-02  0.8478518E-01
       -1   -1    0    0    0  501  0.00000000000E+00  0.00000000000E+00  0.14601533191E+04  0.14601533191E+04  0.50400001928E-02 0. -1.
        1   -1    0    0  501    0  0.00000000000E+00  0.00000000000E+00 -0.90453475768E+03  0.90453475770E+03  0.50400001928E-02 0.  1.
    10030    2    1    2    0    0  0.00000000000E+00  0.00000000000E+00  0.55561856144E+03  0.23646880768E+04  0.22984859614E+04 0.  0.
        1    1    3    3  502    0 -0.12810367803E+03  0.33502661951E+03  0.14010929639E+04  0.14462762121E+04  0.50400001928E-02 0. -1.
       -1    1    3    3    0  502  0.12810367803E+03 -0.33502661951E+03 -0.84547440245E+03  0.91841186476E+03  0.50400001928E-02 0.  1.
</event>
<event>
 5   0  0.3238713E-06  0.2299156E+04  0.7818609E-02  0.8478254E-01
       -1   -1    0    0    0  501  0.00000000000E+00  0.00000000000E+00  0.74881676342E+03  0.74881676343E+03  0.50400001928E-02 0.  1.
        1   -1    0    0  501    0  0.00000000000E+00  0.00000000000E+00 -0.17648238689E+04  0.17648238689E+04  0.50400001928E-02 0. -1.
    10030    2    1    2    0    0  0.00000000000E+00  0.00000000000E+00 -0.10160071054E+04  0.25136406323E+04  0.22991561039E+04 0.  0.
        3    1    3    3  502    0 -0.54034428024E+03 -0.34807704627E+03 -0.15500169897E+04  0.16779994785E+04  0.10100000352E+00 0. -1.
       -3    1    3    3    0  502  0.54034428024E+03  0.34807704627E+03  0.53400988422E+03  0.83564115383E+03  0.10100000352E+00 0.  1.
</event>
<event>
 5   0  0.3195296E-06  0.2301955E+04  0.7818609E-02  0.8477151E-01
        1   -1    0    0  501    0  0.00000000000E+00  0.00000000000E+00  0.66503553014E+03  0.66503553016E+03  0.50400001928E-02 0. -1.
       -1   -1    0    0    0  501  0.00000000000E+00  0.00000000000E+00 -0.19919973055E+04  0.19919973055E+04  0.50400001928E-02 0.  1.
    10030    2    1    2    0    0  0.00000000000E+00  0.00000000000E+00 -0.13269617753E+04  0.26570328356E+04  0.23019548076E+04 0.  0.
        2    1    3    3  502    0 -0.10072122221E+03 -0.80484273998E+03 -0.16060397243E+04  0.17992443405E+04  0.25500000920E-02 0.  1.
       -2    1    3    3    0  502  0.10072122221E+03  0.80484273998E+03  0.27907794902E+03  0.85778849511E+03  0.25500000920E-02 0. -1.
</event>
<event>
 5   0  0.3238713E-06  0.2308487E+04  0.7818609E-02  0.8474582E-01
        1   -1    0    0  501    0  0.00000000000E+00  0.00000000000E+00  0.12705460836E+04  0.12705460836E+04  0.50400001928E-02 0. -1.
       -1   -1    0    0    0  501  0.00000000000E+00  0.00000000000E+00 -0.10485865482E+04  0.10485865482E+04  0.50400001928E-02 0.  1.
    10030    2    1    2    0    0  0.00000000000E+00  0.00000000000E+00  0.22195953546E+03  0.23191326318E+04  0.23084865450E+04 0.  0.
        3    1    3    3  502    0  0.27891580780E+03 -0.67006142278E+03  0.10126159484E+04  0.12458601074E+04  0.10100000352E+00 0.  1.
       -3    1    3    3    0  502 -0.27891580780E+03  0.67006142278E+03 -0.79065641292E+03  0.10732725244E+04  0.10100000352E+00 0. -1.
</event>
<event>
 5   0  0.3184492E-06  0.2298546E+04  0.7818609E-02  0.8478495E-01
        1   -1    0    0  501    0  0.00000000000E+00  0.00000000000E+00  0.13260464330E+04  0.13260464330E+04  0.50400001928E-02 0.  1.
       -1   -1    0    0    0  501  0.00000000000E+00  0.00000000000E+00 -0.99606514320E+03  0.99606514321E+03  0.50400001928E-02 0. -1.
    10030    2    1    2    0    0  0.00000000000E+00  0.00000000000E+00  0.32998128981E+03  0.23221115762E+04  0.22985461755E+04 0.  0.
        1    1    3    3  502    0 -0.39887650135E+03  0.88902674425E+03  0.78062949409E+03  0.12485405169E+04  0.50400001928E-02 0.  1.
       -1    1    3    3    0  502  0.39887650135E+03 -0.88902674425E+03 -0.45064820429E+03  0.10735710593E+04  0.50400001928E-02 0. -1.
</event>
<event>
 5   0  0.3195296E-06  0.2295920E+04  0.7818609E-02  0.8479531E-01
        1   -1    0    0  501    0  0.00000000000E+00  0.00000000000E+00  0.62935351433E+03  0.62935351435E+03  0.50400001928E-02 0.  1.
       -1   -1    0    0    0  501  0.00000000000E+00  0.00000000000E+00 -0.20939147194E+04  0.20939147194E+04  0.50400001928E-02 0. -1.
    10030    2    1    2    0    0  0.00000000000E+00  0.00000000000E+00 -0.14645612051E+04  0.27232682338E+04  0.22959203709E+04 0.  0.
        2    1    3    3  502    0 -0.87040344569E+03  0.11856641841E+02 -0.16199570470E+04  0.18390224502E+04  0.25500000920E-02 0. -1.
       -2    1    3    3    0  502  0.87040344569E+03 -0.11856641841E+02  0.15539584185E+03  0.88424578364E+03  0.25500000920E-02 0.  1.
</event>
<event>
 5   0  0.7003852E-06  0.2300344E+04  0.7818609E-02  0.8477785E-01
        2   -1    0    0  501    0  0.00000000000E+00  0.00000000000E+00  0.13441342547E+04  0.13441342547E+04  0.25500000920E-02 0.  1.
       -2   -1    0    0    0  501  0.00000000000E+00  0.00000000000E+00 -0.98419935231E+03  0.98419935231E+03  0.25500000920E-02 0. -1.
    10030    2    1    2    0    0  0.00000000000E+00  0.00000000000E+00  0.35993490244E+03  0.23283336071E+04  0.23003443768E+04 0.  0.
        2    1    3    3  502    0 -0.12038072744E+03  0.45230012039E+03  0.12433836645E+04  0.13285593158E+04  0.25500000920E-02 0.  1.
       -2    1    3    3    0  502  0.12038072744E+03 -0.45230012039E+03 -0.88344876202E+03  0.99977429131E+03  0.25500000920E-02 0. -1.
</event>
<event>
 5   0  0.3195296E-06  0.2302465E+04  0.7818609E-02  0.8476950E-01
        1   -1    0    0  501    0  0.00000000000E+00  0.00000000000E+00  0.12429151601E+04  0.12429151601E+04  0.50400001928E-02 0. -1.
       -1   -1    0    0    0  501  0.00000000000E+00  0.00000000000E+00 -0.10663126231E+04  0.10663126231E+04  0.50400001928E-02 0.  1.
    10030    2    1    2    0    0  0.00000000000E+00  0.00000000000E+00  0.17660253702E+03  0.23092277832E+04  0.23024648746E+04 0.  0.
        2    1    3    3  502    0  0.65916433005E+03 -0.51543737812E+03 -0.70469351648E+03  0.10939681243E+04  0.25500000920E-02 0.  1.
       -2    1    3    3    0  502 -0.65916433005E+03  0.51543737812E+03  0.88129605350E+03  0.12152596590E+04  0.25500000920E-02 0. -1.
</event>
<event>
 5   0  0.3338758E-06  0.2304051E+04  0.7818609E-02  0.8476326E-01
       -1   -1    0    0    0  501  0.00000000000E+00  0.00000000000E+00  0.10083151473E+04  0.10083151473E+04  0.50400001928E-02 0. -1.
        1   -1    0    0  501    0  0.00000000000E+00  0.00000000000E+00 -0.13162178929E+04  0.13162178930E+04  0.50400001928E-02 0.  1.
    10030    2    1    2    0    0  0.00000000000E+00  0.00000000000E+00 -0.30790274563E+03  0.23245330403E+04  0.23040507274E+04 0.  0.
        5    1    3    3  502    0  0.27754563601E+03  0.26847702745E+03 -0.12489703632E+04  0.13073104269E+04  0.46999998093E+01 0.  1.
       -5    1    3    3    0  502 -0.27754563601E+03 -0.26847702745E+03  0.94106761753E+03  0.10172226133E+04  0.46999998093E+01 0. -1.
</event>
<event>
 5   0  0.7348107E-06  0.2301336E+04  0.7818609E-02  0.8477395E-01
        2   -1    0    0  501    0  0.00000000000E+00  0.00000000000E+00  0.87647460691E+03  0.87647460692E+03  0.25500000920E-02 0.  1.
       -2   -1    0    0    0  501  0.00000000000E+00  0.00000000000E+00 -0.15106390249E+04  0.15106390249E+04  0.25500000920E-02 0. -1.
    10030    2    1    2    0    0  0.00000000000E+00  0.00000000000E+00 -0.63416441795E+03  0.23871136318E+04  0.23013359125E+04 0.  0.
        3    1    3    3  502    0 -0.87885808911E+03 -0.43392438498E+03  0.30817476223E+03  0.10274500508E+04  0.10100000352E+00 0. -1.
       -3    1    3    3    0  502  0.87885808911E+03  0.43392438498E+03 -0.94233918018E+03  0.13596635810E+04  0.10100000352E+00 0.  1.
</event>
<event>
 5   0  0.7348107E-06  0.2300434E+04  0.7818609E-02  0.8477750E-01
        2   -1    0    0  501    0  0.00000000000E+00  0.00000000000E+00  0.21611970608E+04  0.21611970608E+04  0.25500000920E-02 0.  1.
       -2   -1    0    0    0  501  0.00000000000E+00  0.00000000000E+00 -0.61216013432E+03  0.61216013433E+03  0.25500000920E-02 0. -1.
    10030    2    1    2    0    0  0.00000000000E+00  0.00000000000E+00  0.15490369264E+04  0.27733571951E+04  0.23004335965E+04 0.  0.
        3    1    3    3  502    0 -0.83638271373E+03 -0.45244704124E+03  0.15546642160E+04  0.18224228937E+04  0.10100000352E+00 0.  1.
       -3    1    3    3    0  502  0.83638271373E+03  0.45244704124E+03 -0.56272895102E+01  0.95093430138E+03  0.10100000352E+00 0. -1.
</event>
<event>
 5   0  0.7044981E-06  0.2302884E+04  0.7818609E-02  0.8476785E-01
       -2   -1    0    0    0  501  0.00000000000E+00  0.00000000000E+00  0.11023157178E+04  0.11023157178E+04  0.25500000920E-02 0. -1.
        2   -1    0    0  501    0  0.00000000000E+00  0.00000000000E+00 -0.12027578107E+04  0.12027578107E+04  0.25500000920E-02 0.  1.
    10030    2    1    2    0    0  0.00000000000E+00  0.00000000000E+00 -0.10044209290E+03  0.23050735286E+04  0.23028841391E+04 0.  0.
        4    1    3    3  502    0 -0.52305687123E+03 -0.18901060408E+03 -0.10593976711E+04  0.11965109851E+04  0.12699999809E+01 0.  1.
       -4    1    3    3    0  502  0.52305687123E+03  0.18901060408E+03  0.95895557820E+03  0.11085625435E+04  0.12699999809E+01 0. -1.
</event>
<event>
 5   0  0.7348107E-06  0.2300858E+04  0.7818609E-02  0.8477583E-01
       -2   -1    0    0    0  501  0.00000000000E+00  0.00000000000E+00  0.84769784195E+03  0.84769784195E+03  0.25500000920E-02 0.  1.
        2   -1    0    0  501    0  0.00000000000E+00  0.00000000000E+00 -0.15612724559E+04  0.15612724559E+04  0.25500000920E-02 0. -1.
    10030    2    1    2    0    0  0.00000000000E+00  0.00000000000E+00 -0.71357461397E+03  0.24089702979E+04  0.23008583542E+04 0.  0.
        3    1    3    3  502    0  0.94043963409E+03  0.15763862337E+03 -0.10306201693E+04  0.14040849635E+04  0.10100000352E+00 0. -1.
       -3    1    3    3    0  502 -0.94043963409E+03 -0.15763862337E+03  0.31704555537E+03  0.10048853344E+04  0.10100000352E+00 0.  1.
</event>
<event>
 5   0  0.7242214E-06  0.2298982E+04  0.7818609E-02  0.8478322E-01
        2   -1    0    0  501    0  0.00000000000E+00  0.00000000000E+00  0.25142308122E+04  0.25142308122E+04  0.25500000920E-02 0.  1.
       -2   -1    0    0    0  501  0.00000000000E+00  0.00000000000E+00 -0.52554048936E+03  0.52554048936E+03  0.25500000920E-02 0. -1.
    10030    2    1    2    0    0  0.00000000000E+00  0.00000000000E+00  0.19886903228E+04  0.30397713015E+04  0.22989824631E+04 0.  0.
        1    1    3    3  502    0 -0.71898859857E+03 -0.47545259217E+02  0.21785484439E+04  0.22946194628E+04  0.50400001928E-02 0.  1.
       -1    1    3    3    0  502  0.71898859857E+03  0.47545259217E+02 -0.18985812113E+03  0.74515183871E+03  0.50400001928E-02 0. -1.
</event>
<event>
 5   0  0.7348107E-06  0.2304420E+04  0.7818609E-02  0.8476180E-01
       -2   -1    0    0    0  501  0.00000000000E+00  0.00000000000E+00  0.53266011111E+03  0.53266011111E+03  0.25500000920E-02 0.  1.
        2   -1    0    0  501    0  0.00000000000E+00  0.00000000000E+00 -0.24923743829E+04  0.24923743829E+04  0.25500000920E-02 0. -1.
    10030    2    1    2    0    0  0.00000000000E+00  0.00000000000E+00 -0.19597142718E+04  0.30250344940E+04  0.23044204614E+04 0.  0.
        3    1    3    3  502    0 -0.10674017442E+04 -0.42978791877E+03 -0.90192743656E+03  0.14620318908E+04  0.10100000352E+00 0. -1.
       -3    1    3    3    0  502  0.10674017442E+04  0.42978791877E+03 -0.10577868352E+04  0.15630026032E+04  0.10100000352E+00 0.  1.
</event>
<event>
 5   0  0.7497344E-06  0.2299066E+04  0.7818609E-02  0.8478289E-01
        2   -1    0    0  501    0  0.00000000000E+00  0.00000000000E+00  0.14629522614E+04  0.14629522614E+04  0.25500000920E-02 0. -1.
       -2   -1    0    0    0  501  0.00000000000E+00  0.00000000000E+00 -0.90326025441E+03  0.90326025441E+03  0.25500000920E-02 0.  1.
    10030    2    1    2    0    0  0.00000000000E+00  0.00000000000E+00  0.55969200704E+03  0.23662125159E+04  0.22990664469E+04 0.  0.
        5    1    3    3  502    0  0.16861499676E+03 -0.66674210204E+03  0.12278492983E+04  0.14073421891E+04  0.46999998093E+01 0. -1.
       -5    1    3    3    0  502 -0.16861499676E+03  0.66674210204E+03 -0.66815729126E+03  0.95887032680E+03  0.46999998093E+01 0.  1.
</event>
<event>
 5   0  0.3238713E-06  0.2314035E+04  0.7818609E-02  0.8472408E-01
        1   -1    0    0  501    0  0.00000000000E+00  0.00000000000E+00  0.65254086268E+03  0.65254086270E+03  0.50400001928E-02 0.  1.
       -1   -1    0    0    0  501  0.00000000000E+00  0.00000000000E+00 -0.20515027763E+04  0.20515027763E+04  0.50400001928E-02 0. -1.
    10030    2    1    2    0    0  0.00000000000E+00  0.00000000000E+00 -0.13989619136E+04  0.27040436390E+04  0.23140349103E+04 0.  0.
        3    1    3    3  502    0  0.90222695752E+03 -0.11328097512E+03 -0.15354925675E+04  0.17845401361E+04  0.10100000352E+00 0.  1.
       -3    1    3    3    0  502 -0.90222695752E+03  0.11328097512E+03  0.13653065390E+03  0.91950350291E+03  0.10100000352E+00 0. -1.
</event>
<event>
 5   0  0.3184492E-06  0.2300636E+04  0.7818609E-02  0.8477670E-01
       -1   -1    0    0    0  501  0.00000000000E+00  0.00000000000E+00  0.11023806615E+04  0.11023806615E+04  0.50400001928E-02 0. -1.
        1   -1    0    0  501    0  0.00000000000E+00  0.00000000000E+00 -0.12003403232E+04  0.12003403232E+04  0.50400001928E-02 0.  1.
    10030    2    1    2    0    0  0.00000000000E+00  0.00000000000E+00 -0.97959661675E+02  0.23027209847E+04  0.23006363985E+04 0.  0.
        1    1    3    3  502    0  0.17005334410E+03  0.98237130919E+03 -0.62331194799E+03  0.11757930573E+04  0.50400001928E-02 0.  1.
       -1    1    3    3    0  502 -0.17005334410E+03 -0.98237130919E+03  0.52535228631E+03  0.11269279275E+04  0.50400001928E-02 0. -1.
</event>
<event>
 5   0  0.3238713E-06  0.2299474E+04  0.7818609E-02  0.8478129E-01
        1   -1    0    0  501    0  0.00000000000E+00  0.00000000000E+00  0.13976160011E+04  0.13976160011E+04  0.50400001928E-02 0.  1.
       -1   -1    0    0    0  501  0.00000000000E+00  0.00000000000E+00 -0.94582136898E+03  0.94582136900E+03  0.50400001928E-02 0. -1.
    10030    2    1    2    0    0  0.00000000000E+00  0.00000000000E+00  0.45179463210E+03  0.23434373701E+04  0.22994739220E+04 0.  0.
        3    1    3    3  502    0  0.30460192073E+03 -0.48772754623E+01  0.13557362072E+04  0.13895419359E+04  0.10100000352E+00 0.  1.
       -3    1    3    3    0  502 -0.30460192073E+03  0.48772754623E+01 -0.90394157511E+03  0.95389543417E+03  0.10100000352E+00 0. -1.
</event>
<event>
 5   0  0.3184492E-06  0.2299061E+04  0.7818609E-02  0.8478291E-01
       -1   -1    0    0    0  501  0.00000000000E+00  0.00000000000E+00  0.86931328282E+03  0.86931328283E+03  0.50400001928E-02 0. -1.
        1   -1    0    0  501    0  0.00000000000E+00  0.00000000000E+00 -0.15200736733E+04  0.15200736733E+04  0.50400001928E-02 0.  1.
    10030    2    1    2    0    0  0.00000000000E+00  0.00000000000E+00 -0.65076039051E+03  0.23893869562E+04  0.22990608823E+04 0.  0.
        1    1    3    3  502    0 -0.79855663741E+03  0.27446273544E+03 -0.11360235222E+04  0.14154758703E+04  0.50400001928E-02 0.  1.
       -1    1    3    3    0  502  0.79855663741E+03 -0.27446273544E+03  0.48526313167E+03  0.97391108592E+03  0.50400001928E-02 0. -1.
</event>
<event>
 5   0  0.3226427E-06  0.2299820E+04  0.7818609E-02  0.8477992E-01
       -1   -1    0    0    0  501  0.00000000000E+00  0.00000000000E+00  0.70711558389E+03  0.70711558390E+03  0.50400001928E-02 0. -1.
        1   -1    0    0  501    0  0.00000000000E+00  0.00000000000E+00 -0.18699819675E+04  0.18699819675E+04  0.50400001928E-02 0.  1.
    10030    2    1    2    0    0  0.00000000000E+00  0.00000000000E+00 -0.11628663836E+04  0.25770975514E+04  0.22998203328E+04 0.  0.
        4    1    3    3  502    0  0.13474300921E+03 -0.10437352813E+04 -0.62147533848E+02  0.10542309732E+04  0.12699999809E+01 0. -1.
       -4    1    3    3    0  502 -0.13474300921E+03  0.10437352813E+04 -0.11007188498E+04  0.15228665782E+04  0.12699999809E+01 0.  1.
</event>
<event>
 5   0  0.7044981E-06  0.2306176E+04  0.7818609E-02  0.8475490E-01
       -2   -1    0    0    0  501  0.00000000000E+00  0.00000000000E+00  0.12519194270E+04  0.12519194270E+04  0.25500000920E-02 0. -1.
        2   -1    0    0  501    0  0.00000000000E+00  0.00000000000E+00 -0.10620586562E+04  0.10620586562E+04  0.25500000920E-02 0.  1.
    10030    2    1    2    0    0  0.00000000000E+00  0.00000000000E+00  0.18986077089E+03  0.23139780832E+04  0.23061759380E+04 0.  0.
        4    1    3    3  502    0 -0.35365771335E+02 -0.70053124121E+03  0.10132400516E+04  0.12323359009E+04  0.12699999809E+01 0. -1.
       -4    1    3    3    0  502  0.35365771335E+02  0.70053124121E+03 -0.82337928070E+03  0.10816421823E+04  0.12699999809E+01 0.  1.
</event>
<event>
 5   0  0.7497344E-06  0.2298886E+04  0.7818609E-02  0.8478361E-01
        2   -1    0    0  501    0  0.00000000000E+00  0.00000000000E+00  0.80415181736E+03  0.80415181736E+03  0.25500000920E-02 0. -1.
       -2   -1    0    0    0  501  0.00000000000E+00  0.00000000000E+00 -0.16429970511E+04  0.16429970511E+04  0.25500000920E-02 0.  1.
    10030    2    1    2    0    0  0.00000000000E+00  0.00000000000E+00 -0.83884523375E+03  0.24471488685E+04  0.22988858733E+04 0.  0.
        5    1    3    3  502    0  0.95869276256E+03  0.44041069062E+03  0.66228613864E+02  0.10571006143E+04  0.46999998093E+01 0. -1.
       -5    1    3    3    0  502 -0.95869276256E+03 -0.44041069062E+03 -0.90507384761E+03  0.13900482542E+04  0.46999998093E+01 0.  1.
</event>
<event>
 5   0  0.3184492E-06  0.2308346E+04  0.7818609E-02  0.8474638E-01
        1   -1    0    0  501    0  0.00000000000E+00  0.00000000000E+00  0.18019458315E+04  0.18019458315E+04  0.50400001928E-02 0.  1.
       -1   -1    0    0    0  501  0.00000000000E+00  0.00000000000E+00 -0.73926513516E+03  0.73926513518E+03  0.50400001928E-02 0. -1.
    10030    2    1    2    0    0  0.00000000000E+00  0.00000000000E+00  0.10626806964E+04  0.25412109667E+04  0.23083463594E+04 0.  0.
        1    1    3    3  502    0 -0.69382719598E+03 -0.89401589394E+03  0.78106079094E+03  0.13750332926E+04  0.50400001928E-02 0.  1.
       -1    1    3    3    0  502  0.69382719598E+03  0.89401589394E+03  0.28161990541E+03  0.11661776741E+04  0.50400001928E-02 0. -1.
</event>
<event>
 5   0  0.7348107E-06  0.2296716E+04  0.7818609E-02  0.8479217E-01
        2   -1    0    0  501    0  0.00000000000E+00  0.00000000000E+00  0.19721651657E+04  0.19721651657E+04  0.25500000920E-02 0. -1.
       -2   -1    0    0    0  501  0.00000000000E+00  0.00000000000E+00 -0.66866908870E+03  0.66866908871E+03  0.25500000920E-02 0.  1.
    10030    2    1    2    0    0  0.00000000000E+00  0.00000000000E+00  0.13034960770E+04  0.26408342544E+04  0.22967158153E+04 0.  0.
        3    1    3    3  502    0  0.42236170961E+03 -0.98499473073E+03  0.11260052244E+04  0.15545069343E+04  0.10100000352E+00 0.  1.
       -3    1    3    3    0  502 -0.42236170961E+03  0.98499473073E+03  0.17749085255E+03  0.10863273200E+04  0.10100000352E+00 0. -1.
</event>
<event>
 5   0  0.7242214E-06  0.2298703E+04  0.7818609E-02  0.8478433E-01
       -2   -1    0    0    0  501  0.00000000000E+00  0.00000000000E+00  0.61648522689E+03  0.61648522690E+03  0.25500000920E-02 0.  1.
        2   -1    0    0  501    0  0.00000000000E+00  0.00000000000E+00 -0.21428073924E+04  0.21428073924E+04  0.25500000920E-02 0. -1.
    10030    2    1    2    0    0  0.00000000000E+00  0.00000000000E+00 -0.15263221655E+04  0.27592926193E+04  0.22987032009E+04 0.  0.
        1    1    3    3  502    0 -0.77357415452E+03 -0.93038211768E+02 -0.17774098899E+04  0.19406851878E+04  0.50400001928E-02 0. -1.
       -1    1    3    3    0  502  0.77357415452E+03  0.93038211768E+02  0.25108772446E+03  0.81860743143E+03  0.50400001928E-02 0.  1.
</event>
<event>
 5   0  0.7003852E-06  0.2321347E+04  0.7818609E-02  0.8469552E-01
        2   -1    0    0  501    0  0.00000000000E+00  0.00000000000E+00  0.48902899973E+03  0.48902899973E+03  0.25500000920E-02 0.  1.
       -2   -1    0    0    0  501  0.00000000000E+00  0.00000000000E+00 -0.27547705828E+04  0.27547705828E+04  0.25500000920E-02 0. -1.
    10030    2    1    2    0    0  0.00000000000E+00  0.00000000000E+00 -0.22657415831E+04  0.32437995825E+04  0.23213467665E+04 0.  0.
        2    1    3    3  502    0 -0.95476032682E+03 -0.28334770243E+03 -0.29992372567E+03  0.10400997276E+04  0.25500000920E-02 0.  1.
       -2    1    3    3    0  502  0.95476032682E+03  0.28334770243E+03 -0.19658178574E+04  0.22036998549E+04  0.25500000920E-02 0. -1.
</event>
<event>
 5   0  0.3195296E-06  0.2280377E+04  0.7818609E-02  0.8485698E-01
       -1   -1    0    0    0  501  0.00000000000E+00  0.00000000000E+00  0.82483480332E+03  0.82483480333E+03  0.50400001928E-02 0. -1.
        1   -1    0    0  501    0  0.00000000000E+00  0.00000000000E+00 -0.15761099728E+04  0.15761099728E+04  0.50400001928E-02 0.  1.
    10030    2    1    2    0    0  0.00000000000E+00  0.00000000000E+00 -0.75127516944E+03  0.24009447761E+04  0.22803774770E+04 0.  0.
        2    1    3    3  502    0 -0.11795089030E+03  0.98754149666E+03  0.21140774538E+03  0.10167811244E+04  0.25500000920E-02 0. -1.
       -2    1    3    3    0  502  0.11795089030E+03 -0.98754149666E+03 -0.96268291482E+03  0.13841636517E+04  0.25500000920E-02 0.  1.
</event>
<event>
 5   0  0.3226427E-06  0.2298651E+04  0.7818609E-02  0.8478453E-01
       -1   -1    0    0    0  501  0.00000000000E+00  0.00000000000E+00  0.53294513464E+03  0.53294513466E+03  0.50400001928E-02 0.  1.
        1   -1    0    0  501    0  0.00000000000E+00  0.00000000000E+00 -0.24785837998E+04  0.24785837998E+04  0.50400001928E-02 0. -1.
    10030    2    1    2    0    0  0.00000000000E+00  0.00000000000E+00 -0.19456386651E+04  0.30115289345E+04  0.22986510626E+04 0.  0.
        4    1    3    3  502    0 -0.59127343001E+03  0.40956714281E+03  0.20162767984E+03  0.74699722067E+03  0.12699999809E+01 0.  1.
       -4    1    3    3    0  502  0.59127343001E+03 -0.40956714281E+03 -0.21472663450E+04  0.22645317138E+04  0.12699999809E+01 0. -1.
</event>
<event>
 5   0  0.7497344E-06  0.2300837E+04  0.7818609E-02  0.8477591E-01
        2   -1    0    0  501    0  0.00000000000E+00  0.00000000000E+00  0.92269852075E+03  0.92269852076E+03  0.25500000920E-02 0.  1.
       -2   -1    0    0    0  501  0.00000000000E+00  0.00000000000E+00 -0.14343396837E+04  0.14343396837E+04  0.25500000920E-02 0. -1.
    10030    2    1    2    0    0  0.00000000000E+00  0.00000000000E+00 -0.51164116290E+03  0.23570382044E+04  0.23008373296E+04 0.  0.
        5    1    3    3  502    0  0.49143073272E+03  0.26443388095E+03 -0.12863809716E+04  0.14022223564E+04  0.46999998093E+01 0. -1.
       -5    1    3    3    0  502 -0.49143073272E+03 -0.26443388095E+03  0.77473980874E+03  0.95481584806E+03  0.46999998093E+01 0.  1.
</event>
<event>
 5   0  0.2519625E-06  0.2299489E+04  0.7818609E-02  0.8478123E-01
        4   -1    0    0  501    0  0.00000000000E+00  0.00000000000E+00  0.97863337267E+03  0.97863419673E+03  0.12699999809E+01 0.  1.
       -4   -1    0    0    0  501  0.00000000000E+00  0.00000000000E+00 -0.13507721596E+04  0.13507727566E+04  0.12699999809E+01 0. -1.
    10030    2    1    2    0    0  0.00000000000E+00  0.00000000000E+00 -0.37213878688E+03  0.23294069533E+04  0.22994889601E+04 0.  0.
        3    1    3    3  502    0  0.43671563318E+03 -0.45878763818E+03  0.78594894557E+03  0.10094168596E+04  0.10100000352E+00 0.  1.
       -3    1    3    3    0  502 -0.43671563318E+03  0.45878763818E+03 -0.11580877325E+04  0.13199900937E+04  0.10100000352E+00 0. -1.
</event>
<event>
 5   0  0.3338758E-06  0.2290635E+04  0.7818609E-02  0.8481623E-01
        1   -1    0    0  501    0  0.00000000000E+00  0.00000000000E+00  0.14250465513E+04  0.14250465513E+04  0.50400001928E-02 0.  1.
       -1   -1    0    0    0  501  0.00000000000E+00  0.00000000000E+00 -0.92049771624E+03  0.92049771625E+03  0.50400001928E-02 0. -1.
    10030    2    1    2    0    0  0.00000000000E+00  0.00000000000E+00  0.50454883506E+03  0.23455442676E+04  0.22906349303E+04 0.  0.
        5    1    3    3  502    0 -0.76766779942E+03 -0.43742144057E+03  0.99849491045E+03  0.13332912447E+04  0.46999998093E+01 0.  1.
       -5    1    3    3    0  502  0.76766779942E+03  0.43742144057E+03 -0.49394607539E+03  0.10122530229E+04  0.46999998093E+01 0. -1.
</event>
<event>
 5   0  0.3226427E-06  0.2279874E+04  0.7818609E-02  0.8485899E-01
       -1   -1    0    0    0  501  0.00000000000E+00  0.00000000000E+00  0.13293029731E+04  0.13293029732E+04  0.50400001928E-02 0.  1.
        1   -1    0    0  501    0  0.00000000000E+00  0.00000000000E+00 -0.97754679580E+03  0.97754679581E+03  0.50400001928E-02 0. -1.
    10030    2    1    2    0    0  0.00000000000E+00  0.00000000000E+00  0.35175617734E+03  0.23068497690E+04  0.22798735597E+04 0.  0.
        4    1    3    3  502    0 -0.14642603687E+03  0.44253808119E+03  0.12284627582E+04  0.13139265195E+04  0.12699999809E+01 0.  1.
       -4    1    3    3    0  502  0.14642603687E+03 -0.44253808119E+03 -0.87670658082E+03  0.99292324946E+03  0.12699999809E+01 0. -1.
</event>
<event>
 5   0  0.3238713E-06  0.2296136E+04  0.7818609E-02  0.8479446E-01
        1   -1    0    0  501    0  0.00000000000E+00  0.00000000000E+00  0.11795848886E+04  0.11795848886E+04  0.50400001928E-02 0.  1.
       -1   -1    0    0    0  501  0.00000000000E+00  0.00000000000E+00 -0.11173931037E+04  0.11173931037E+04  0.50400001928E-02 0. -1.
    10030    2    1    2    0    0  0.00000000000E+00  0.00000000000E+00  0.62191784929E+02  0.22969779923E+04  0.22961359017E+04 0.  0.
        3    1    3    3  502    0 -0.79577592258E+03 -0.27333400048E+03  0.81246442789E+03  0.11696449254E+04  0.10100000352E+00 0.  1.
       -3    1    3    3    0  502  0.79577592258E+03  0.27333400048E+03 -0.75027264296E+03  0.11273330669E+04  0.10100000352E+00 0. -1.
</event>
<event>
 5   0  0.3338758E-06  0.2300914E+04  0.7818609E-02  0.8477561E-01
        1   -1    0    0  501    0  0.00000000000E+00  0.00000000000E+00  0.13897760613E+04  0.13897760613E+04  0.50400001928E-02 0.  1.
       -1   -1    0    0    0  501  0.00000000000E+00  0.00000000000E+00 -0.95234862431E+03  0.95234862432E+03  0.50400001928E-02 0. -1.
    10030    2    1    2    0    0  0.00000000000E+00  0.00000000000E+00  0.43742743697E+03  0.23421246856E+04  0.23009140098E+04 0.  0.
        5    1    3    3  502    0  0.32782493254E+03  0.99966876573E+03  0.69258624038E+03  0.12595652496E+04  0.46999998093E+01 0.  1.
       -5    1    3    3    0  502 -0.32782493254E+03 -0.99966876573E+03 -0.25515880341E+03  0.10825594360E+04  0.46999998093E+01 0. -1.
</event>
<event>
 5   0  0.3184492E-06  0.2297282E+04  0.7818609E-02  0.8478993E-01
        1   -1    0    0  501    0  0.00000000000E+00  0.00000000000E+00  0.12301155848E+04  0.12301155849E+04  0.50400001928E-02 0.  1.
       -1   -1    0    0    0  501  0.00000000000E+00  0.00000000000E+00 -0.10725631055E+04  0.10725631055E+04  0.50400001928E-02 0. -1.
    10030    2    1    2    0    0  0.00000000000E+00  0.00000000000E+00  0.15755247939E+03  0.23026786903E+04  0.22972823873E+04 0.  0.
        1    1    3    3  502    0 -0.90198245618E+03  0.18994788809E+03 -0.60819784296E+03  0.11043356227E+04  0.50400001928E-02 0. -1.
       -1    1    3    3    0  502  0.90198245618E+03 -0.18994788809E+03  0.76575032235E+03  0.11983430676E+04  0.50400001928E-02 0.  1.
</event>
<event>
 5   0  0.7242214E-06  0.2300796E+04  0.7818609E-02  0.8477607E-01
        2   -1    0    0  501    0  0.00000000000E+00  0.00000000000E+00  0.12767624530E+04  0.12767624530E+04  0.25500000920E-02 0.  1.
       -2   -1    0    0    0  501  0.00000000000E+00  0.00000000000E+00 -0.10365398614E+04  0.10365398615E+04  0.25500000920E-02 0. -1.
    10030    2    1    2    0    0  0.00000000000E+00  0.00000000000E+00  0.24022259154E+03  0.23133023144E+04  0.23007956677E+04 0.  0.
        1    1    3    3  502    0  0.43978201461E+03  0.82121738586E+03  0.79876850987E+03  0.12271256446E+04  0.50400001928E-02 0.  1.
       -1    1    3    3    0  502 -0.43978201461E+03 -0.82121738586E+03 -0.55854591833E+03  0.10861766699E+04  0.50400001928E-02 0. -1.
</event>
<event>
 5   0  0.3184492E-06  0.2290788E+04  0.7818609E-02  0.8481562E-01
        1   -1    0    0  501    0  0.00000000000E+00  0.00000000000E+00  0.12348322491E+04  0.12348322491E+04  0.50400001928E-02 0. -1.
       -1   -1    0    0    0  501  0.00000000000E+00  0.00000000000E+00 -0.10624334429E+04  0.10624334429E+04  0.50400001928E-02 0.  1.
    10030    2    1    2    0    0  0.00000000000E+00  0.00000000000E+00  0.17239880618E+03  0.22972656920E+04  0.22907877054E+04 0.  0.
        1    1    3    3  502    0  0.69694436326E+03 -0.51745706004E+03 -0.66319809800E+03  0.10923941467E+04  0.50400001928E-02 0.  1.
       -1    1    3    3    0  502 -0.69694436326E+03  0.51745706004E+03  0.83559690418E+03  0.12048715453E+04  0.50400001928E-02 0. -1.
</event>
<event>
 5   0  0.7044981E-06  0.2307740E+04  0.7818609E-02  0.8474875E-01
        2   -1    0    0  501    0  0.00000000000E+00  0.00000000000E+00  0.15630748176E+04  0.15630748176E+04  0.25500000920E-02 0. -1.
       -2   -1    0    0    0  501  0.00000000000E+00  0.00000000000E+00 -0.85179312535E+03  0.85179312536E+03  0.25500000920E-02 0.  1.
    10030    2    1    2    0    0  0.00000000000E+00  0.00000000000E+00  0.71128169221E+03  0.24148679429E+04  0.23077403528E+04 0.  0.
        4    1    3    3  502    0 -0.69541411648E+03 -0.78410328613E+03  0.86074470710E+03  0.13562086198E+04  0.12699999809E+01 0. -1.
       -4    1    3    3    0  502  0.69541411648E+03  0.78410328613E+03 -0.14946301489E+03  0.10586593231E+04  0.12699999809E+01 0.  1.
</event>
<event>
 5   0  0.7497344E-06  0.2315531E+04  0.7818609E-02  0.8471823E-01
        2   -1    0    0  501    0  0.00000000000E+00  0.00000000000E+00  0.15842091004E+04  0.15842091004E+04  0.25500000920E-02 0.  1.
       -2   -1    0    0    0  501  0.00000000000E+00  0.00000000000E+00 -0.84611352507E+03  0.84611352507E+03  0.25500000920E-02 0. -1.
    10030    2    1    2    0    0  0.00000000000E+00  0.00000000000E+00  0.73809557536E+03  0.24303226255E+04  0.23155308216E+04 0.  0.
        5    1    3    3  502    0  0.58003255507E+03 -0.40896264850E+03  0.13291134981E+04  0.15067358739E+04  0.46999998093E+01 0.  1.
       -5    1    3    3    0  502 -0.58003255507E+03  0.40896264850E+03 -0.59101792273E+03  0.92358675163E+03  0.46999998093E+01 0. -1.
</event>
<event>
 5   0  0.3195296E-06  0.2301359E+04  0.7818609E-02  0.8477385E-01
        1   -1    0    0  501    0  0.00000000000E+00  0.00000000000E+00  0.79411870109E+03  0.79411870110E+03  0.50400001928E-02 0.  1.
       -1   -1    0    0    0  501  0.00000000000E+00  0.00000000000E+00 -0.16673367770E+04  0.16673367770E+04  0.50400001928E-02 0. -1.
    10030    2    1    2    0    0  0.00000000000E+00  0.00000000000E+00 -0.87321807591E+03  0.24614554781E+04  0.23013590034E+04 0.  0.
        2    1    3    3  502    0  0.52927549845E+02  0.10105023813E+04  0.14935985782E+03  0.10228512870E+04  0.25500000920E-02 0.  1.
       -2    1    3    3    0  502 -0.52927549845E+02 -0.10105023813E+04 -0.10225779337E+04  0.14386041911E+04  0.25500000920E-02 0. -1.
</event>
<event>
 5   0  0.3184492E-06  0.2312090E+04  0.7818609E-02  0.8473169E-01
       -1   -1    0    0    0  501  0.00000000000E+00  0.00000000000E+00  0.11536412195E+04  0.11536412195E+04  0.50400001928E-02 0.  1.
        1   -1    0    0  501    0  0.00000000000E+00  0.00000000000E+00 -0.11584542682E+04  0.11584542682E+04  0.50400001928E-02 0. -1.
    10030    2    1    2    0    0  0.00000000000E+00  0.00000000000E+00 -0.48130486971E+01  0.23120954877E+04  0.23120904780E+04 0.  0.
        1    1    3    3  502    0 -0.86417402683E+03 -0.26105636438E+03  0.71974005388E+03  0.11545444639E+04  0.50400001928E-02 0.  1.
       -1    1    3    3    0  502  0.86417402683E+03  0.26105636438E+03 -0.72455310258E+03  0.11575510237E+04  0.50400001928E-02 0. -1.
</event>
<event>
 5   0  0.7003852E-06  0.2300517E+04  0.7818609E-02  0.8477717E-01
       -2   -1    0    0    0  501  0.00000000000E+00  0.00000000000E+00  0.11592722432E+04  0.11592722432E+04  0.25500000920E-02 0.  1.
        2   -1    0    0  501    0  0.00000000000E+00  0.00000000000E+00 -0.11413149370E+04  0.11413149370E+04  0.25500000920E-02 0. -1.
    10030    2    1    2    0    0  0.00000000000E+00  0.00000000000E+00  0.17957306164E+02  0.23005871802E+04  0.23005170960E+04 0.  0.
        2    1    3    3  502    0 -0.33665881923E+02 -0.14732499632E+03  0.11493013731E+04  0.11591944152E+04  0.25500000920E-02 0.  1.
       -2    1    3    3    0  502  0.33665881923E+02  0.14732499632E+03 -0.11313440669E+04  0.11413927650E+04  0.25500000920E-02 0. -1.
</event>
<event>
 5   0  0.3238713E-06  0.2300184E+04  0.7818609E-02  0.8477849E-01
        1   -1    0    0  501    0  0.00000000000E+00  0.00000000000E+00  0.94001998278E+03  0.94001998279E+03  0.50400001928E-02 0.  1.
       -1   -1    0    0    0  501  0.00000000000E+00  0.00000000000E+00 -0.14071095877E+04  0.14071095877E+04  0.50400001928E-02 0. -1.
    10030    2    1    2    0    0  0.00000000000E+00  0.00000000000E+00 -0.46708960491E+03  0.23471295705E+04  0.23001835843E+04 0.  0.
        3    1    3    3  502    0 -0.29657467229E+03 -0.15762619004E+03  0.88886342477E+03  0.95020037367E+03  0.10100000352E+00 0.  1.
       -3    1    3    3    0  502  0.29657467229E+03  0.15762619004E+03 -0.13559530297E+04  0.13969291968E+04  0.10100000352E+00 0. -1.
</event>
<event>
 5   0  0.3238713E-06  0.2303289E+04  0.7818609E-02  0.8476625E-01
        1   -1    0    0  501    0  0.00000000000E+00  0.00000000000E+00  0.10162414218E+04  0.10162414219E+04  0.50400001928E-02 0. -1.
       -1   -1    0    0    0  501  0.00000000000E+00  0.00000000000E+00 -0.13050884770E+04  0.13050884771E+04  0.50400001928E-02 0.  1.
    10030    2    1    2    0    0  0.00000000000E+00  0.00000000000E+00 -0.28884705520E+03  0.23213298989E+04  0.23032889264E+04 0.  0.
        3    1    3    3  502    0 -0.68615077219E+03 -0.45436102620E+03  0.66751575406E+03  0.10596339540E+04  0.10100000352E+00 0. -1.
       -3    1    3    3    0  502  0.68615077219E+03  0.45436102620E+03 -0.95636280927E+03  0.12616959449E+04  0.10100000352E+00 0.  1.
</event>
<event>
 5   0  0.7003852E-06  0.2288113E+04  0.7818609E-02  0.8482623E-01
        2   -1    0    0  501    0  0.00000000000E+00  0.00000000000E+00  0.19353045869E+04  0.19353045869E+04  0.25500000920E-02 0.  1.
       -2   -1    0    0    0  501  0.00000000000E+00  0.00000000000E+00 -0.67630959959E+03  0.67630959960E+03  0.25500000920E-02 0. -1.
    10030    2    1    2    0    0  0.00000000000E+00  0.00000000000E+00  0.12589949873E+04  0.26116141865E+04  0.22881128209E+04 0.  0.
        2    1    3    3  502    0 -0.34882652064E+03 -0.95974031898E+03  0.12182607223E+04  0.15896353698E+04  0.25500000920E-02 0.  1.
       -2    1    3    3    0  502  0.34882652064E+03  0.95974031898E+03  0.40734264957E+02  0.10219788167E+04  0.25500000920E-02 0. -1.
</event>
<event>
 5   0  0.3338758E-06  0.2300052E+04  0.7818609E-02  0.8477901E-01
        1   -1    0    0  501    0  0.00000000000E+00  0.00000000000E+00  0.19144757350E+04  0.19144757350E+04  0.50400001928E-02 0.  1.
       -1   -1    0    0    0  501  0.00000000000E+00  0.00000000000E+00 -0.69082088263E+03  0.69082088265E+03  0.50400001928E-02 0. -1.
    10030    2    1    2    0    0  0.00000000000E+00  0.00000000000E+00  0.12236548524E+04  0.26052966176E+04  0.23000520142E+04 0.  0.
        5    1    3    3  502    0  0.94480818057E+03 -0.59940386209E+03  0.91277569168E+03  0.14439975905E+04  0.46999998093E+01 0.  1.
       -5    1    3    3    0  502 -0.94480818057E+03  0.59940386209E+03  0.31087916068E+03  0.11612990272E+04  0.46999998093E+01 0. -1.
</event>
<event>
 5   0  0.7348107E-06  0.2302102E+04  0.7818609E-02  0.8477093E-01
       -2   -1    0    0    0  501  0.00000000000E+00  0.00000000000E+00  0.10363731828E+04  0.10363731828E+04  0.25500000920E-02 0.  1.
        2   -1    0    0  501    0  0.00000000000E+00  0.00000000000E+00 -0.12784182462E+04  0.12784182462E+04  0.25500000920E-02 0. -1.
    10030    2    1    2    0    0  0.00000000000E+00  0.00000000000E+00 -0.24204506333E+03  0.23147914290E+04  0.23021019845E+04 0.  0.
        3    1    3    3  502    0 -0.36664339637E+03  0.97682813715E+03 -0.60980670314E+03  0.12085051986E+04  0.10100000352E+00 0. -1.
       -3    1    3    3    0  502  0.36664339637E+03 -0.97682813715E+03  0.36776163981E+03  0.11062862304E+04  0.10100000352E+00 0.  1.
</event>
<event>
 5   0  0.7348107E-06  0.2299494E+04  0.7818609E-02  0.8478121E-01
        2   -1    0    0  501    0  0.00000000000E+00  0.00000000000E+00  0.61575899267E+03  0.61575899267E+03  0.25500000920E-02 0.  1.
       -2   -1    0    0    0  501  0.00000000000E+00  0.00000000000E+00 -0.21468102359E+04  0.21468102359E+04  0.25500000920E-02 0. -1.
    10030    2    1    2    0    0  0.00000000000E+00  0.00000000000E+00 -0.15310512432E+04  0.27625692286E+04  0.22994936036E+04 0.  0.
        3    1    3    3  502    0  0.92486605070E+03  0.65308203347E+03 -0.10058750397E+04  0.15144893397E+04  0.10100000352E+00 0. -1.
       -3    1    3    3    0  502 -0.92486605070E+03 -0.65308203347E+03 -0.52517620349E+03  0.12480798889E+04  0.10100000352E+00 0.  1.
</event>
<event>
 5   0  0.7003852E-06  0.2300303E+04  0.7818609E-02  0.8477802E-01
       -2   -1    0    0    0  501  0.00000000000E+00  0.00000000000E+00  0.58914016185E+03  0.58914016185E+03  0.25500000920E-02 0.  1.
        2   -1    0    0  501    0  0.00000000000E+00  0.00000000000E+00 -0.22453882363E+04  0.22453882363E+04  0.25500000920E-02 0. -1.
    10030    2    1    2    0    0  0.00000000000E+00  0.00000000000E+00 -0.16562480744E+04  0.28345283981E+04  0.23003029270E+04 0.  0.
        2    1    3    3  502    0  0.48400179043E+03 -0.92000065067E+03 -0.14345438730E+04  0.17716023973E+04  0.25500000920E-02 0. -1.
       -2    1    3    3    0  502 -0.48400179043E+03  0.92000065067E+03 -0.22170420141E+03  0.10629260009E+04  0.25500000920E-02 0.  1.
</event>
<event>
 5   0  0.3226427E-06  0.2300995E+04  0.7818609E-02  0.8477529E-01
       -1   -1    0    0    0  501  0.00000000000E+00  0.00000000000E+00  0.11145363252E+04  0.11145363252E+04  0.50400001928E-02 0. -1.
        1   -1    0    0  501    0  0.00000000000E+00  0.00000000000E+00 -0.11876185313E+04  0.11876185313E+04  0.50400001928E-02 0.  1.
    10030    2    1    2    0    0  0.00000000000E+00  0.00000000000E+00 -0.73082206097E+02  0.23021548565E+04  0.23009945620E+04 0.  0.
        4    1    3    3  502    0 -0.94263643074E+03 -0.58829604264E+03 -0.33499792323E+03  0.11605519789E+04  0.12699999809E+01 0. -1.
       -4    1    3    3    0  502  0.94263643074E+03  0.58829604264E+03  0.26191571713E+03  0.11416028776E+04  0.12699999809E+01 0.  1.
</event>
<event>
 5   0  0.7242214E-06  0.2311237E+04  0.7818609E-02  0.8473504E-01
        2   -1    0    0  501    0  0.00000000000E+00  0.00000000000E+00  0.21456337650E+04  0.21456337650E+04  0.25500000920E-02 0.  1.
       -2   -1    0    0    0  501  0.00000000000E+00  0.00000000000E+00 -0.62240547699E+03  0.62240547700E+03  0.25500000920E-02 0. -1.
    10030    2    1    2    0    0  0.00000000000E+00  0.00000000000E+00  0.15232282880E+04  0.27680392420E+04  0.23112370774E+04 0.  0.
        1    1    3    3  502    0 -0.75207646827E+03  0.61354261146E+03  0.10431946167E+02  0.97065049102E+03  0.50400001928E-02 0. -1.
       -1    1    3    3    0  502  0.75207646827E+03 -0.61354261146E+03  0.15127963418E+04  0.17973887509E+04  0.50400001928E-02 0.  1.
</event>
<event>
 5   0  0.7003852E-06  0.2295378E+04  0.7818609E-02  0.8479746E-01
       -2   -1    0    0    0  501  0.00000000000E+00  0.00000000000E+00  0.10852729658E+04  0.10852729658E+04  0.25500000920E-02 0.  1.
        2   -1    0    0  501    0  0.00000000000E+00  0.00000000000E+00 -0.12136942746E+04  0.12136942746E+04  0.25500000920E-02 0. -1.
    10030    2    1    2    0    0  0.00000000000E+00  0.00000000000E+00 -0.12842130878E+03  0.22989672405E+04  0.22953776029E+04 0.  0.
        2    1    3    3  502    0 -0.27737164544E+03 -0.83993271310E+03  0.66821101274E+03  0.11085702277E+04  0.25500000920E-02 0.  1.
       -2    1    3    3    0  502  0.27737164544E+03  0.83993271310E+03 -0.79663232152E+03  0.11903970127E+04  0.25500000920E-02 0. -1.
</event>
<event>
 5   0  0.7044981E-06  0.2292144E+04  0.7818609E-02  0.8481025E-01
       -2   -1    0    0    0  501  0.00000000000E+00  0.00000000000E+00  0.59098310497E+03  0.59098310498E+03  0.25500000920E-02 0.  1.
        2   -1    0    0  501    0  0.00000000000E+00  0.00000000000E+00 -0.22225358861E+04  0.22225358861E+04  0.25500000920E-02 0. -1.
    10030    2    1    2    0    0  0.00000000000E+00  0.00000000000E+00 -0.16315527812E+04  0.28135189911E+04  0.22921441132E+04 0.  0.
        4    1    3    3  502    0 -0.28228349715E+03  0.99024300411E+03 -0.19811265684E+03  0.10485778072E+04  0.12699999809E+01 0.  1.
       -4    1    3    3    0  502  0.28228349715E+03 -0.99024300411E+03 -0.14334401243E+04  0.17649411840E+04  0.12699999809E+01 0. -1.
</event>
<event>
 5   0  0.7348107E-06  0.2298009E+04  0.7818609E-02  0.8478707E-01
       -2   -1    0    0    0  501  0.00000000000E+00  0.00000000000E+00  0.71258631544E+03  0.71258631545E+03  0.25500000920E-02 0.  1.
        2   -1    0    0  501    0  0.00000000000E+00  0.00000000000E+00 -0.18527029826E+04  0.18527029826E+04  0.25500000920E-02 0. -1.
    10030    2    1    2    0    0  0.00000000000E+00  0.00000000000E+00 -0.11401166672E+04  0.25652892981E+04  0.22980085222E+04 0.  0.
        3    1    3    3  502    0  0.28739719004E+03  0.11021543854E+04 -0.40124311225E+03  0.12076164455E+04  0.10100000352E+00 0. -1.
       -3    1    3    3    0  502 -0.28739719004E+03 -0.11021543854E+04 -0.73887355495E+03  0.13576728526E+04  0.10100000352E+00 0.  1.
</event>
<event>
 5   0  0.3195296E-06  0.2300756E+04  0.7818609E-02  0.8477623E-01
       -1   -1    0    0    0  501  0.00000000000E+00  0.00000000000E+00  0.82976620998E+03  0.82976621000E+03  0.50400001928E-02 0.  1.
        1   -1    0    0  501    0  0.00000000000E+00  0.00000000000E+00 -0.15948703273E+04  0.15948703273E+04  0.50400001928E-02 0. -1.
    10030    2    1    2    0    0  0.00000000000E+00  0.00000000000E+00 -0.76510411733E+03  0.24246365373E+04  0.23007559688E+04 0.  0.
        2    1    3    3  502    0 -0.76446741685E+03 -0.32814071153E+03 -0.12198654726E+04  0.14765359898E+04  0.25500000920E-02 0. -1.
       -2    1    3    3    0  502  0.76446741685E+03  0.32814071153E+03  0.45476135524E+03  0.94810054752E+03  0.25500000920E-02 0.  1.
</event>
<event>
 5   0  0.7242214E-06  0.2299613E+04  0.7818609E-02  0.8478074E-01
       -2   -1    0    0    0  501  0.00000000000E+00  0.00000000000E+00  0.55241427436E+03  0.55241427436E+03  0.25500000920E-02 0.  1.
        2   -1    0    0  501    0  0.00000000000E+00  0.00000000000E+00 -0.23932308244E+04  0.23932308244E+04  0.25500000920E-02 0. -1.
    10030    2    1    2    0    0  0.00000000000E+00  0.00000000000E+00 -0.18408165501E+04  0.29456450988E+04  0.22996128972E+04 0.  0.
        1    1    3    3  502    0 -0.23654992499E+03 -0.50196933192E+03 -0.22103544789E+04  0.22789462477E+04  0.50400001928E-02 0. -1.
       -1    1    3    3    0  502  0.23654992499E+03  0.50196933192E+03  0.36953792886E+03  0.66669885113E+03  0.50400001928E-02 0.  1.
</event>
<event>
 5   0  0.7044981E-06  0.2299506E+04  0.7818609E-02  0.8478116E-01
        2   -1    0    0  501    0  0.00000000000E+00  0.00000000000E+00  0.10112630173E+04  0.10112630173E+04  0.25500000920E-02 0. -1.
       -2   -1    0    0    0  501  0.00000000000E+00  0.00000000000E+00 -0.13072086493E+04  0.13072086493E+04  0.25500000920E-02 0.  1.
    10030    2    1    2    0    0  0.00000000000E+00  0.00000000000E+00 -0.29594563200E+03  0.23184716667E+04  0.22995058278E+04 0.  0.
        4    1    3    3  502    0 -0.97187626722E+03  0.43864366484E+03  0.28566564602E+03  0.11038832446E+04  0.12699999809E+01 0. -1.
       -4    1    3    3    0  502  0.97187626722E+03 -0.43864366484E+03 -0.58161127802E+03  0.12145884221E+04  0.12699999809E+01 0.  1.
</event>
<event>
 5   0  0.3184492E-06  0.2279093E+04  0.7818609E-02  0.8486210E-01
       -1   -1    0    0    0  501  0.00000000000E+00  0.00000000000E+00  0.81791059171E+03  0.81791059172E+03  0.50400001928E-02 0.  1.
        1   -1    0    0  501    0  0.00000000000E+00  0.00000000000E+00 -0.15876628875E+04  0.15876628875E+04  0.50400001928E-02 0. -1.
    10030    2    1    2    0    0  0.00000000000E+00  0.00000000000E+00 -0.76975229575E+03  0.24055734792E+04  0.22790930580E+04 0.  0.
        1    1    3    3  502    0 -0.24588213766E+03  0.71771497476E+02  0.78713179504E+03  0.82775940723E+03  0.50400001928E-02 0.  1.
       -1    1    3    3    0  502  0.24588213766E+03 -0.71771497476E+02 -0.15568840908E+04  0.15778140720E+04  0.50400001928E-02 0. -1.
</event>
<event>
 5   0  0.3195296E-06  0.2294815E+04  0.7818609E-02  0.8479968E-01
       -1   -1    0    0    0  501  0.00000000000E+00  0.00000000000E+00  0.12158063517E+04  0.12158063517E+04  0.50400001928E-02 0.  1.
        1   -1    0    0  501    0  0.00000000000E+00  0.00000000000E+00 -0.10828566828E+04  0.10828566828E+04  0.50400001928E-02 0. -1.
    10030    2    1    2    0    0  0.00000000000E+00  0.00000000000E+00  0.13294966890E+03  0.22986630345E+04  0.22948150539E+04 0.  0.
        2    1    3    3  502    0 -0.66164978418E+03  0.97034353089E+02 -0.86747690207E+03  0.10953137807E+04  0.25500000920E-02 0. -1.
       -2    1    3    3    0  502  0.66164978418E+03 -0.97034353089E+02  0.10004265710E+04  0.12033492537E+04  0.25500000920E-02 0.  1.
</event>
<event>
 5   0  0.3338758E-06  0.2300839E+04  0.7818609E-02  0.8477590E-01
       -1   -1    0    0    0  501  0.00000000000E+00  0.00000000000E+00  0.76843090613E+03  0.76843090615E+03  0.50400001928E-02 0.  1.
        1   -1    0    0  501    0  0.00000000000E+00  0.00000000000E+00 -0.17222961479E+04  0.17222961479E+04  0.50400001928E-02 0. -1.
    10030    2    1    2    0    0  0.00000000000E+00  0.00000000000E+00 -0.95386524173E+03  0.24907270540E+04  0.23008394899E+04 0.  0.
        5    1    3    3  502    0 -0.50691914684E+03  0.97855799340E+03 -0.11969662387E+03  0.11085540761E+04  0.46999998093E+01 0.  1.
       -5    1    3    3    0  502  0.50691914684E+03 -0.97855799340E+03 -0.83416861786E+03  0.13821729779E+04  0.46999998093E+01 0. -1.
</event>
<event>
 5   0  0.2519625E-06  0.2324370E+04  0.7818609E-02  0.8468374E-01
        3   -1    0    0  501    0  0.00000000000E+00  0.00000000000E+00  0.13164272720E+04  0.13164272759E+04  0.10100000352E+00 0.  1.
       -3   -1    0    0    0  501  0.00000000000E+00  0.00000000000E+00 -0.10260147526E+04  0.10260147576E+04  0.10100000352E+00 0. -1.
    10030    2    1    2    0    0  0.00000000000E+00  0.00000000000E+00  0.29041251934E+03  0.23424420335E+04  0.23243698606E+04 0.  0.
        5    1    3    3  502    0  0.73095559201E+03 -0.87682803691E+03  0.36491102466E+03  0.11984596905E+04  0.46999998093E+01 0.  1.
       -5    1    3    3    0  502 -0.73095559201E+03  0.87682803691E+03 -0.74498505324E+02  0.11439823430E+04  0.46999998093E+01 0. -1.
</event>
<event>
 5   0  0.3238713E-06  0.2302137E+04  0.7818609E-02  0.8477079E-01
        1   -1    0    0  501    0  0.00000000000E+00  0.00000000000E+00  0.90238294369E+03  0.90238294370E+03  0.50400001928E-02 0. -1.
       -1   -1    0    0    0  501  0.00000000000E+00  0.00000000000E+00 -0.14682885530E+04  0.14682885531E+04  0.50400001928E-02 0.  1.
    10030    2    1    2    0    0  0.00000000000E+00  0.00000000000E+00 -0.56590560936E+03  0.23706714968E+04  0.23021368740E+04 0.  0.
        3    1    3    3  502    0 -0.95887542945E+02 -0.17432974005E+03 -0.14504473683E+04  0.14640296642E+04  0.10100000352E+00 0.  1.
       -3    1    3    3    0  502  0.95887542945E+02  0.17432974005E+03  0.88454175892E+03  0.90664183261E+03  0.10100000352E+00 0. -1.
</event>
<event>
 5   0  0.7044981E-06  0.2302365E+04  0.7818609E-02  0.8476989E-01
        2   -1    0    0  501    0  0.00000000000E+00  0.00000000000E+00  0.16965478148E+04  0.16965478148E+04  0.25500000920E-02 0.  1.
       -2   -1    0    0    0  501  0.00000000000E+00  0.00000000000E+00 -0.78112790454E+03  0.78112790455E+03  0.25500000920E-02 0. -1.
    10030    2    1    2    0    0  0.00000000000E+00  0.00000000000E+00  0.91541991021E+03  0.24776757193E+04  0.23023647318E+04 0.  0.
        4    1    3    3  502    0  0.71887881102E+03  0.47964358452E+03  0.12761274688E+04  0.15412162868E+04  0.12699999809E+01 0.  1.
       -4    1    3    3    0  502 -0.71887881102E+03 -0.47964358452E+03 -0.36070755856E+03  0.93645943255E+03  0.12699999809E+01 0. -1.
</event>
<event>
 5   0  0.3184492E-06  0.2298957E+04  0.7818609E-02  0.8478333E-01
       -1   -1    0    0    0  501  0.00000000000E+00  0.00000000000E+00  0.79833421522E+03  0.79833421524E+03  0.50400001928E-02 0.  1.
        1   -1    0    0  501    0  0.00000000000E+00  0.00000000000E+00 -0.16550718557E+04  0.16550718557E+04  0.50400001928E-02 0. -1.
    10030    2    1    2    0    0  0.00000000000E+00  0.00000000000E+00 -0.85673764047E+03  0.24534060709E+04  0.22989567121E+04 0.  0.
        1    1    3    3  502    0  0.47947622050E+03  0.54805370392E+03 -0.13775255126E+04  0.15581517405E+04  0.50400001928E-02 0. -1.
       -1    1    3    3    0  502 -0.47947622050E+03 -0.54805370392E+03  0.52078787215E+03  0.89525433046E+03  0.50400001928E-02 0.  1.
</event>
<event>
 5   0  0.7497344E-06  0.2303405E+04  0.7818609E-02  0.8476580E-01
       -2   -1    0    0    0  501  0.00000000000E+00  0.00000000000E+00  0.84075169627E+03  0.84075169627E+03  0.25500000920E-02 0.  1.
        2   -1    0    0  501    0  0.00000000000E+00  0.00000000000E+00 -0.15776577632E+04  0.15776577632E+04  0.25500000920E-02 0. -1.
    10030    2    1    2    0    0  0.00000000000E+00  0.00000000000E+00 -0.73690606694E+03  0.24184094595E+04  0.23034048194E+04 0.  0.
        5    1    3    3  502    0 -0.83981450928E+02  0.70414629442E+03 -0.13212426659E+04  0.14995263119E+04  0.46999998093E+01 0. -1.
       -5    1    3    3    0  502  0.83981450928E+02 -0.70414629442E+03  0.58433659892E+03  0.91888314756E+03  0.46999998093E+01 0.  1.
</event>
<event>
 5   0  0.7497344E-06  0.2300936E+04  0.7818609E-02  0.8477552E-01
        2   -1    0    0  501    0  0.00000000000E+00  0.00000000000E+00  0.12023515978E+04  0.12023515978E+04  0.25500000920E-02 0. -1.
       -2   -1    0    0    0  501  0.00000000000E+00  0.00000000000E+00 -0.11008234458E+04  0.11008234458E+04  0.25500000920E-02 0.  1.
    10030    2    1    2    0    0  0.00000000000E+00  0.00000000000E+00  0.10152815197E+03  0.23031750437E+04  0.23009361825E+04 0.  0.
        5    1    3    3  502    0  0.20741351536E+02  0.69845301510E+03 -0.86406608238E+03  0.11112601418E+04  0.46999998093E+01 0.  1.
       -5    1    3    3    0  502 -0.20741351536E+02 -0.69845301510E+03  0.96559423435E+03  0.11919149019E+04  0.46999998093E+01 0. -1.
</event>
<event>
 5   0  0.7497344E-06  0.2304657E+04  0.7818609E-02  0.8476087E-01
        2   -1    0    0  501    0  0.00000000000E+00  0.00000000000E+00  0.11257021927E+04  0.11257021927E+04  0.25500000920E-02 0. -1.
       -2   -1    0    0    0  501  0.00000000000E+00  0.00000000000E+00 -0.11795848026E+04  0.11795848026E+04  0.25500000920E-02 0.  1.
    10030    2    1    2    0    0  0.00000000000E+00  0.00000000000E+00 -0.53882609947E+02  0.23052869953E+04  0.23046571969E+04 0.  0.
        5    1    3    3  502    0 -0.70788108640E+03 -0.87003809784E+03  0.23728459481E+03  0.11464676154E+04  0.46999998093E+01 0. -1.
       -5    1    3    3    0  502  0.70788108640E+03  0.87003809784E+03 -0.29116720476E+03  0.11588193799E+04  0.46999998093E+01 0.  1.
</event>
<event>
 5   0  0.7003852E-06  0.2301896E+04  0.7818609E-02  0.8477174E-01
        2   -1    0    0  501    0  0.00000000000E+00  0.00000000000E+00  0.26643543944E+04  0.26643543944E+04  0.25500000920E-02 0.  1.
       -2   -1    0    0    0  501  0.00000000000E+00  0.00000000000E+00 -0.49718655697E+03  0.49718655697E+03  0.25500000920E-02 0. -1.
    10030    2    1    2    0    0  0.00000000000E+00  0.00000000000E+00  0.21671678375E+04  0.31615409514E+04  0.23018959037E+04 0.  0.
        2    1    3    3  502    0 -0.31660796495E+03  0.96095664563E+03  0.18371103289E+04  0.20972965071E+04  0.25500000920E-02 0.  1.
       -2    1    3    3    0  502  0.31660796495E+03 -0.96095664563E+03  0.33005750860E+03  0.10642444443E+04  0.25500000920E-02 0. -1.
</event>
<event>
 5   0  0.3226427E-06  0.2302703E+04  0.7818609E-02  0.8476856E-01
        1   -1    0    0  501    0  0.00000000000E+00  0.00000000000E+00  0.10511828910E+04  0.10511828910E+04  0.50400001928E-02 0.  1.
       -1   -1    0    0    0  501  0.00000000000E+00  0.00000000000E+00 -0.12610655666E+04  0.12610655666E+04  0.50400001928E-02 0. -1.
    10030    2    1    2    0    0  0.00000000000E+00  0.00000000000E+00 -0.20988267558E+03  0.23122484577E+04  0.23027032359E+04 0.  0.
        4    1    3    3  502    0  0.53062653341E+03 -0.70155107141E+02  0.91865786445E+03  0.10632121810E+04  0.12699999809E+01 0.  1.
       -4    1    3    3    0  502 -0.53062653341E+03  0.70155107141E+02 -0.11285405400E+04  0.12490362767E+04  0.12699999809E+01 0. -1.
</event>
<event>
 5   0  0.7242214E-06  0.2276293E+04  0.7818609E-02  0.8487328E-01
        2   -1    0    0  501    0  0.00000000000E+00  0.00000000000E+00  0.23451599173E+04  0.23451599173E+04  0.25500000920E-02 0.  1.
       -2   -1    0    0    0  501  0.00000000000E+00  0.00000000000E+00 -0.55236197733E+03  0.55236197734E+03  0.25500000920E-02 0. -1.
    10030    2    1    2    0    0  0.00000000000E+00  0.00000000000E+00  0.17927979400E+04  0.28975218946E+04  0.22762927484E+04 0.  0.
        1    1    3    3  502    0 -0.51912055672E+03  0.21090877474E+03 -0.36462551782E+03  0.66852107816E+03  0.50400001928E-02 0. -1.
       -1    1    3    3    0  502  0.51912055672E+03 -0.21090877474E+03  0.21574234578E+04  0.22290008165E+04  0.50400001928E-02 0.  1.
</event>
<event>
 5   0  0.7497344E-06  0.2298802E+04  0.7818609E-02  0.8478394E-01
       -2   -1    0    0    0  501  0.00000000000E+00  0.00000000000E+00  0.61535415419E+03  0.61535415420E+03  0.25500000920E-02 0.  1.
        2   -1    0    0  501    0  0.00000000000E+00  0.00000000000E+00 -0.21469308784E+04  0.21469308784E+04  0.25500000920E-02 0. -1.
    10030    2    1    2    0    0  0.00000000000E+00  0.00000000000E+00 -0.15315767242E+04  0.27622850326E+04  0.22988021531E+04 0.  0.
        5    1    3    3  502    0  0.60995096329E+03  0.10823261748E+03 -0.19291558489E+04  0.20261833225E+04  0.46999998093E+01 0. -1.
       -5    1    3    3    0  502 -0.60995096329E+03 -0.10823261748E+03  0.39757912473E+03  0.73610171004E+03  0.46999998093E+01 0.  1.
</event>
<event>
 5   0  0.7044981E-06  0.2294184E+04  0.7818609E-02  0.8480218E-01
        2   -1    0    0  501    0  0.00000000000E+00  0.00000000000E+00  0.19238107523E+04  0.19238107523E+04  0.25500000920E-02 0.  1.
       -2   -1    0    0    0  501  0.00000000000E+00  0.00000000000E+00 -0.68396553083E+03  0.68396553084E+03  0.25500000920E-02 0. -1.
    10030    2    1    2    0    0  0.00000000000E+00  0.00000000000E+00  0.12398452214E+04  0.26077762831E+04  0.22941841621E+04 0.  0.
        4    1    3    3  502    0 -0.74660244851E+03  0.77744892932E+03  0.10659580664E+04  0.15159519339E+04  0.12699999809E+01 0.  1.
       -4    1    3    3    0  502  0.74660244851E+03 -0.77744892932E+03  0.17388715504E+03  0.10918243492E+04  0.12699999809E+01 0. -1.
</event>
<event>
 5   0  0.7348107E-06  0.2305219E+04  0.7818609E-02  0.8475866E-01
        2   -1    0    0  501    0  0.00000000000E+00  0.00000000000E+00  0.91903433045E+03  0.91903433046E+03  0.25500000920E-02 0. -1.
       -2   -1    0    0    0  501  0.00000000000E+00  0.00000000000E+00 -0.14455490013E+04  0.14455490013E+04  0.25500000920E-02 0.  1.
    10030    2    1    2    0    0  0.00000000000E+00  0.00000000000E+00 -0.52651467084E+03  0.23645833318E+04  0.23052194330E+04 0.  0.
        3    1    3    3  502    0 -0.57660537037E+03 -0.99637702631E+03 -0.20461682100E+03  0.11692343586E+04  0.10100000352E+00 0. -1.
       -3    1    3    3    0  502  0.57660537037E+03  0.99637702631E+03 -0.32189784984E+03  0.11953489732E+04  0.10100000352E+00 0.  1.
</event>
<event>
 5   0  0.7497344E-06  0.2294916E+04  0.7818609E-02  0.8479928E-01
        2   -1    0    0  501    0  0.00000000000E+00  0.00000000000E+00  0.85354262011E+03  0.85354262012E+03  0.25500000920E-02 0. -1.
       -2   -1    0    0    0  501  0.00000000000E+00  0.00000000000E+00 -0.15425828349E+04  0.15425828349E+04  0.25500000920E-02 0.  1.
    10030    2    1    2    0    0  0.00000000000E+00  0.00000000000E+00 -0.68904021479E+03  0.23961254550E+04  0.22949162901E+04 0.  0.
        5    1    3    3  502    0  0.23023694460E+03 -0.54535520361E+03 -0.13708334771E+04  0.14931938456E+04  0.46999998093E+01 0.  1.
       -5    1    3    3    0  502 -0.23023694460E+03  0.54535520361E+03  0.68179326228E+03  0.90293160940E+03  0.46999998093E+01 0. -1.
</event>
<event>
 5   0  0.3226427E-06  0.2318423E+04  0.7818609E-02  0.8470692E-01
        1   -1    0    0  501    0  0.00000000000E+00  0.00000000000E+00  0.93176747692E+03  0.93176747694E+03  0.50400001928E-02 0. -1.
       -1   -1    0    0    0  501  0.00000000000E+00  0.00000000000E+00 -0.14421747666E+04  0.14421747666E+04  0.50400001928E-02 0.  1.
    10030    2    1    2    0    0  0.00000000000E+00  0.00000000000E+00 -0.51040728970E+03  0.23739422436E+04  0.23184232087E+04 0.  0.
        4    1    3    3  502    0  0.64975247374E+02  0.41448587148E+02 -0.14395478096E+04  0.14416099601E+04  0.12699999809E+01 0.  1.
       -4    1    3    3    0  502 -0.64975247374E+02 -0.41448587148E+02  0.92914051989E+03  0.93233228344E+03  0.12699999809E+01 0. -1.
</event>
<event>
 5   0  0.3238713E-06  0.2300776E+04  0.7818609E-02  0.8477615E-01
        1   -1    0    0  501    0  0.00000000000E+00  0.00000000000E+00  0.21051657415E+04  0.21051657415E+04  0.50400001928E-02 0. -1.
       -1   -1    0    0    0  501  0.00000000000E+00  0.00000000000E+00 -0.62864072985E+03  0.62864072987E+03  0.50400001928E-02 0.  1.
    10030    2    1    2    0    0  0.00000000000E+00  0.00000000000E+00  0.14765250116E+04  0.27338064713E+04  0.23007763283E+04 0.  0.
        3    1    3    3  502    0  0.68368320568E+03  0.56336798292E+03 -0.13374692595E+03  0.89593217394E+03  0.10100000352E+00 0.  1.
       -3    1    3    3    0  502 -0.68368320568E+03 -0.56336798292E+03  0.16102719376E+04  0.18378742974E+04  0.10100000352E+00 0. -1.
</event>
<event>
 5   0  0.3338758E-06  0.2299996E+04  0.7818609E-02  0.8477923E-01
        1   -1    0    0  501    0  0.00000000000E+00  0.00000000000E+00  0.16719970356E+04  0.16719970356E+04  0.50400001928E-02 0.  1.
       -1   -1    0    0    0  501  0.00000000000E+00  0.00000000000E+00 -0.79096749390E+03  0.79096749392E+03  0.50400001928E-02 0. -1.
    10030    2    1    2    0    0  0.00000000000E+00  0.00000000000E+00  0.88102954170E+03  0.24629645295E+04  0.22999959175E+04 0.  0.
        5    1    3    3  502    0 -0.24407836250E+03  0.18561531150E+02 -0.76273600002E+03  0.80106621025E+03  0.46999998093E+01 0. -1.
       -5    1    3    3    0  502  0.24407836250E+03 -0.18561531150E+02  0.16437655417E+04  0.16618983193E+04  0.46999998093E+01 0.  1.
</event>
<event>
 5   0  0.7242214E-06  0.2237551E+04  0.7818609E-02  0.8502959E-01
        2   -1    0    0  501    0  0.00000000000E+00  0.00000000000E+00  0.89046395853E+03  0.89046395854E+03  0.25500000920E-02 0.  1.
       -2   -1    0    0    0  501  0.00000000000E+00  0.00000000000E+00 -0.14056254728E+04  0.14056254728E+04  0.25500000920E-02 0. -1.
    10030    2    1    2    0    0  0.00000000000E+00  0.00000000000E+00 -0.51516151426E+03  0.22960894313E+04  0.22375511817E+04 0.  0.
        1    1    3    3  502    0 -0.55801665313E+03 -0.39090503868E+03  0.65302981703E+03  0.94373580858E+03  0.50400001928E-02 0.  1.
       -1    1    3    3    0  502  0.55801665313E+03  0.39090503868E+03 -0.11681913313E+04  0.13523536228E+04  0.50400001928E-02 0. -1.
</event>
<event>
 5   0  0.7497344E-06  0.2293758E+04  0.7818609E-02  0.8480386E-01
       -2   -1    0    0    0  501  0.00000000000E+00  0.00000000000E+00  0.11770001886E+04  0.11770001886E+04  0.25500000920E-02 0.  1.
        2   -1    0    0  501    0  0.00000000000E+00  0.00000000000E+00 -0.11175283184E+04  0.11175283184E+04  0.25500000920E-02 0. -1.
    10030    2    1    2    0    0  0.00000000000E+00  0.00000000000E+00  0.59471870161E+02  0.22945285070E+04  0.22937576520E+04 0.  0.
        5    1    3    3  502    0 -0.44599012547E+02  0.15414145550E+03 -0.11062337797E+04  0.11178210615E+04  0.46999998093E+01 0. -1.
       -5    1    3    3    0  502  0.44599012547E+02 -0.15414145550E+03  0.11657056498E+04  0.11767074455E+04  0.46999998093E+01 0.  1.
</event>
<event>
 5   0  0.3338758E-06  0.2288591E+04  0.7818609E-02  0.8482433E-01
       -1   -1    0    0    0  501  0.00000000000E+00  0.00000000000E+00  0.95774298271E+03  0.95774298272E+03  0.50400001928E-02 0. -1.
        1   -1    0    0  501    0  0.00000000000E+00  0.00000000000E+00 -0.13671859277E+04  0.13671859277E+04  0.50400001928E-02 0.  1.
    10030    2    1    2    0    0  0.00000000000E+00  0.00000000000E+00 -0.40944294496E+03  0.23249289104E+04  0.22885914693E+04 0.  0.
        5    1    3    3  502    0  0.73380075829E+03 -0.44531275712E+03 -0.97345538004E+03  0.12978460893E+04  0.46999998093E+01 0.  1.
       -5    1    3    3    0  502 -0.73380075829E+03  0.44531275712E+03  0.56401243508E+03  0.10270828211E+04  0.46999998093E+01 0. -1.
</event>
<event>
 5   0  0.3184492E-06  0.2295169E+04  0.7818609E-02  0.8479828E-01
        1   -1    0    0  501    0  0.00000000000E+00  0.00000000000E+00  0.92558105272E+03  0.92558105274E+03  0.50400001928E-02 0.  1.
       -1   -1    0    0    0  501  0.00000000000E+00  0.00000000000E+00 -0.14228364930E+04  0.14228364930E+04  0.50400001928E-02 0. -1.
    10030    2    1    2    0    0  0.00000000000E+00  0.00000000000E+00 -0.49725544032E+03  0.23484175458E+04  0.22951692740E+04 0.  0.
        1    1    3    3  502    0  0.66063919280E+03  0.62174417071E+03  0.47048659181E+03  0.10219430463E+04  0.50400001928E-02 0.  1.
       -1    1    3    3    0  502 -0.66063919280E+03 -0.62174417071E+03 -0.96774203213E+03  0.13264744994E+04  0.50400001928E-02 0. -1.
</event>
<event>
 5   0  0.7003852E-06  0.2301342E+04  0.7818609E-02  0.8477392E-01
        2   -1    0    0  501    0  0.00000000000E+00  0.00000000000E+00  0.12754250847E+04  0.12754250847E+04  0.25500000920E-02 0.  1.
       -2   -1    0    0    0  501  0.00000000000E+00  0.00000000000E+00 -0.10381198417E+04  0.10381198417E+04  0.25500000920E-02 0. -1.
    10030    2    1    2    0    0  0.00000000000E+00  0.00000000000E+00  0.23730524301E+03  0.23135449264E+04  0.23013422927E+04 0.  0.
        2    1    3    3  502    0 -0.19867684205E+03 -0.11212970472E+04 -0.47342657638E+02  0.11397459730E+04  0.25500000920E-02 0.  1.
       -2    1    3    3    0  502  0.19867684205E+03  0.11212970472E+04  0.28464790064E+03  0.11737989534E+04  0.25500000920E-02 0. -1.
</event>
<event>
 5   0  0.3184492E-06  0.2294950E+04  0.7818609E-02  0.8479915E-01
       -1   -1    0    0    0  501  0.00000000000E+00  0.00000000000E+00  0.17423428377E+04  0.17423428377E+04  0.50400001928E-02 0.  1.
        1   -1    0    0  501    0  0.00000000000E+00  0.00000000000E+00 -0.75570624416E+03  0.75570624418E+03  0.50400001928E-02 0. -1.
    10030    2    1    2    0    0  0.00000000000E+00  0.00000000000E+00  0.98663659352E+03  0.24980490819E+04  0.22949504238E+04 0.  0.
        1    1    3    3  502    0  0.71133352832E+03 -0.57326369351E+03 -0.26244175640E+03  0.95052739379E+03  0.50400001928E-02 0. -1.
       -1    1    3    3    0  502 -0.71133352832E+03  0.57326369351E+03  0.12490783499E+04  0.15475216881E+04  0.50400001928E-02 0.  1.
</event>
<event>
 5   0  0.7044981E-06  0.2297738E+04  0.7818609E-02  0.8478813E-01
        2   -1    0    0  501    0  0.00000000000E+00  0.00000000000E+00  0.67018985414E+03  0.67018985415E+03  0.25500000920E-02 0. -1.
       -2   -1    0    0    0  501  0.00000000000E+00  0.00000000000E+00 -0.19694423786E+04  0.19694423786E+04  0.25500000920E-02 0.  1.
    10030    2    1    2    0    0  0.00000000000E+00  0.00000000000E+00 -0.12992525245E+04  0.26396322328E+04  0.22977382797E+04 0.  0.
        4    1    3    3  502    0  0.49141587018E+03  0.69777976037E+02 -0.18399141438E+04  0.19056873282E+04  0.12699999809E+01 0.  1.
       -4    1    3    3    0  502 -0.49141587018E+03 -0.69777976037E+02  0.54066161934E+03  0.73394490456E+03  0.12699999809E+01 0. -1.
</event>
<event>
 5   0  0.7242214E-06  0.2299973E+04  0.7818609E-02  0.8477932E-01
        2   -1    0    0  501    0  0.00000000000E+00  0.00000000000E+00  0.18059952598E+04  0.18059952598E+04  0.25500000920E-02 0.  1.
       -2   -1    0    0    0  501  0.00000000000E+00  0.00000000000E+00 -0.73226628569E+03  0.73226628569E+03  0.25500000920E-02 0. -1.
    10030    2    1    2    0    0  0.00000000000E+00  0.00000000000E+00  0.10737289741E+04  0.25382615455E+04  0.22999734267E+04 0.  0.
        1    1    3    3  502    0  0.75012756270E+03  0.17891986219E+03 -0.40461174920E+03  0.87086987836E+03  0.50400001928E-02 0. -1.
       -1    1    3    3    0  502 -0.75012756270E+03 -0.17891986219E+03  0.14783407233E+04  0.16673916671E+04  0.50400001928E-02 0.  1.
</event>
<event>
 5   0  0.2519625E-06  0.2297763E+04  0.7818609E-02  0.8478804E-01
        4   -1    0    0  501    0  0.00000000000E+00  0.00000000000E+00  0.10878423890E+04  0.10878431303E+04  0.12699999809E+01 0. -1.
       -4   -1    0    0    0  501  0.00000000000E+00  0.00000000000E+00 -0.12133442632E+04  0.12133449279E+04  0.12699999809E+01 0.  1.
    10030    2    1    2    0    0  0.00000000000E+00  0.00000000000E+00 -0.12550187427E+03  0.23011880582E+04  0.22977632077E+04 0.  0.
        1    1    3    3  502    0 -0.52578297512E+03 -0.22906350462E+03 -0.10597301491E+04  0.12049671427E+04  0.50400001928E-02 0.  1.
       -1    1    3    3    0  502  0.52578297512E+03  0.22906350462E+03  0.93422827481E+03  0.10962209155E+04  0.50400001928E-02 0. -1.
</event>
<event>
 5   0  0.3184492E-06  0.2301206E+04  0.7818609E-02  0.8477446E-01
        1   -1    0    0  501    0  0.00000000000E+00  0.00000000000E+00  0.72263170324E+03  0.72263170325E+03  0.50400001928E-02 0. -1.
       -1   -1    0    0    0  501  0.00000000000E+00  0.00000000000E+00 -0.18320365151E+04  0.18320365151E+04  0.50400001928E-02 0.  1.
    10030    2    1    2    0    0  0.00000000000E+00  0.00000000000E+00 -0.11094048118E+04  0.25546682183E+04  0.23012063509E+04 0.  0.
        1    1    3    3  502    0 -0.41391945002E+03 -0.37039896874E+03 -0.16733404866E+04  0.17631202713E+04  0.50400001928E-02 0.  1.
       -1    1    3    3    0  502  0.41391945002E+03  0.37039896874E+03  0.56393567474E+03  0.79154794701E+03  0.50400001928E-02 0. -1.
</event>
<event>
 5   0  0.2519625E-06  0.2298726E+04  0.7818609E-02  0.8478424E-01
        3   -1    0    0  501    0  0.00000000000E+00  0.00000000000E+00  0.15755976282E+04  0.15755976314E+04  0.10100000352E+00 0. -1.
       -3   -1    0    0    0  501  0.00000000000E+00  0.00000000000E+00 -0.83843444849E+03  0.83843445457E+03  0.10100000352E+00 0.  1.
    10030    2    1    2    0    0  0.00000000000E+00  0.00000000000E+00  0.73716317969E+03  0.24140320860E+04  0.22987260295E+04 0.  0.
        3    1    3    3  502    0  0.15109549623E+03 -0.25159380971E+03  0.15355867631E+04  0.15633796759E+04  0.10100000352E+00 0. -1.
       -3    1    3    3    0  502 -0.15109549623E+03  0.25159380971E+03 -0.79842358336E+03  0.85065241005E+03  0.10100000352E+00 0.  1.
</event>
<event>
 5   0  0.7044981E-06  0.2298768E+04  0.7818609E-02  0.8478407E-01
        2   -1    0    0  501    0  0.00000000000E+00  0.00000000000E+00  0.20361042333E+04  0.20361042333E+04  0.25500000920E-02 0. -1.
       -2   -1    0    0    0  501  0.00000000000E+00  0.00000000000E+00 -0.64882908933E+03  0.64882908933E+03  0.25500000920E-02 0.  1.
    10030    2    1    2    0    0  0.00000000000E+00  0.00000000000E+00  0.13872751440E+04  0.26849333226E+04  0.22987680661E+04 0.  0.
        4    1    3    3  502    0  0.15447102682E+03  0.10109567431E+04  0.80931096004E+02  0.10258880493E+04  0.12699999809E+01 0.  1.
       -4    1    3    3    0  502 -0.15447102682E+03 -0.10109567431E+04  0.13063440480E+04  0.16590452734E+04  0.12699999809E+01 0. -1.
</event>
<event>
 5   0  0.3226427E-06  0.2300745E+04  0.7818609E-02  0.8477628E-01
       -1   -1    0    0    0  501  0.00000000000E+00  0.00000000000E+00  0.96372805918E+03  0.96372805919E+03  0.50400001928E-02 0. -1.
        1   -1    0    0  501    0  0.00000000000E+00  0.00000000000E+00 -0.13731638205E+04  0.13731638205E+04  0.50400001928E-02 0.  1.
    10030    2    1    2    0    0  0.00000000000E+00  0.00000000000E+00 -0.40943576132E+03  0.23368918797E+04  0.23007446653E+04 0.  0.
        4    1    3    3  502    0  0.72745797218E+03 -0.88874956274E+03 -0.13823724836E+03  0.11567981830E+04  0.12699999809E+01 0.  1.
       -4    1    3    3    0  502 -0.72745797218E+03  0.88874956274E+03 -0.27119851296E+03  0.11800936967E+04  0.12699999809E+01 0. -1.
</event>
<event>
 5   0  0.7044981E-06  0.2311037E+04  0.7818609E-02  0.8473582E-01
       -2   -1    0    0    0  501  0.00000000000E+00  0.00000000000E+00  0.89435299112E+03  0.89435299112E+03  0.25500000920E-02 0.  1.
        2   -1    0    0  501    0  0.00000000000E+00  0.00000000000E+00 -0.14929488359E+04  0.14929488359E+04  0.25500000920E-02 0. -1.
    10030    2    1    2    0    0  0.00000000000E+00  0.00000000000E+00 -0.59859584479E+03  0.23873018270E+04  0.23110372191E+04 0.  0.
        4    1    3    3  502    0 -0.33228035796E+03 -0.66967263885E+03 -0.12094818439E+04  0.14218718729E+04  0.12699999809E+01 0. -1.
       -4    1    3    3    0  502  0.33228035796E+03  0.66967263885E+03  0.61088599907E+03  0.96542995410E+03  0.12699999809E+01 0.  1.
</event>
<event>
 5   0  0.3195296E-06  0.2299192E+04  0.7818609E-02  0.8478240E-01
       -1   -1    0    0    0  501  0.00000000000E+00  0.00000000000E+00  0.86183337462E+03  0.86183337463E+03  0.50400001928E-02 0.  1.
        1   -1    0    0  501    0  0.00000000000E+00  0.00000000000E+00 -0.15334415253E+04  0.15334415253E+04  0.50400001928E-02 0. -1.
    10030    2    1    2    0    0  0.00000000000E+00  0.00000000000E+00 -0.67160815064E+03  0.23952748999E+04  0.22991921055E+04 0.  0.
        2    1    3    3  502    0  0.10906986248E+04 -0.29962599105E+03 -0.54974382416E+03  0.12576237501E+04  0.25500000920E-02 0. -1.
       -2    1    3    3    0  502 -0.10906986248E+04  0.29962599105E+03 -0.12186432649E+03  0.11376511498E+04  0.25500000920E-02 0.  1.
</event>
<event>
 5   0  0.7242214E-06  0.2306106E+04  0.7818609E-02  0.8475518E-01
        2   -1    0    0  501    0  0.00000000000E+00  0.00000000000E+00  0.16817968186E+04  0.16817968186E+04  0.25500000920E-02 0. -1.
       -2   -1    0    0    0  501  0.00000000000E+00  0.00000000000E+00 -0.79054206510E+03  0.79054206511E+03  0.25500000920E-02 0.  1.
    10030    2    1    2    0    0  0.00000000000E+00  0.00000000000E+00  0.89125475352E+03  0.24723388837E+04  0.23061059213E+04 0.  0.
        1    1    3    3  502    0  0.42919059807E+03 -0.94722436022E+03  0.97962045683E+03  0.14286688901E+04  0.50400001928E-02 0. -1.
       -1    1    3    3    0  502 -0.42919059807E+03  0.94722436022E+03 -0.88365703317E+02  0.10436699936E+04  0.50400001928E-02 0.  1.
</event>
<event>
 5   0  0.3238713E-06  0.2304640E+04  0.7818609E-02  0.8476094E-01
        1   -1    0    0  501    0  0.00000000000E+00  0.00000000000E+00  0.14955090859E+04  0.14955090859E+04  0.50400001928E-02 0. -1.
       -1   -1    0    0    0  501  0.00000000000E+00  0.00000000000E+00 -0.88788602312E+03  0.88788602313E+03  0.50400001928E-02 0.  1.
    10030    2    1    2    0    0  0.00000000000E+00  0.00000000000E+00  0.60762306282E+03  0.23833951091E+04  0.23046402017E+04 0.  0.
        3    1    3    3  502    0  0.22365055636E+03  0.83625723081E+03 -0.48276873107E+03  0.99116667889E+03  0.10100000352E+00 0.  1.
       -3    1    3    3    0  502 -0.22365055636E+03 -0.83625723081E+03  0.10903917939E+04  0.13922284302E+04  0.10100000352E+00 0. -1.
</event>
<event>
 5   0  0.3184492E-06  0.2296819E+04  0.7818609E-02  0.8479176E-01
       -1   -1    0    0    0  501  0.00000000000E+00  0.00000000000E+00  0.15082509855E+04  0.15082509855E+04  0.50400001928E-02 0.  1.
        1   -1    0    0  501    0  0.00000000000E+00  0.00000000000E+00 -0.87442006488E+03  0.87442006489E+03  0.50400001928E-02 0. -1.
    10030    2    1    2    0    0  0.00000000000E+00  0.00000000000E+00  0.63383092059E+03  0.23826710504E+04  0.22968194745E+04 0.  0.
        1    1    3    3  502    0 -0.57746904484E+03 -0.42027748262E+03 -0.61599943586E+03  0.94316433623E+03  0.50400001928E-02 0. -1.
       -1    1    3    3    0  502  0.57746904484E+03  0.42027748262E+03  0.12498303564E+04  0.14395067141E+04  0.50400001928E-02 0.  1.
</event>
<event>
 5   0  0.3238713E-06  0.2306768E+04  0.7818609E-02  0.8475257E-01
       -1   -1    0    0    0  501  0.00000000000E+00  0.00000000000E+00  0.11225262038E+04  0.11225262038E+04  0.50400001928E-02 0. -1.
        1   -1    0    0  501    0  0.00000000000E+00  0.00000000000E+00 -0.11850902402E+04  0.11850902402E+04  0.50400001928E-02 0.  1.
    10030    2    1    2    0    0  0.00000000000E+00  0.00000000000E+00 -0.62564036323E+02  0.23076164440E+04  0.23067681708E+04 0.  0.
        3    1    3    3  502    0 -0.58189879937E+03  0.83038049189E+03  0.51860808978E+03  0.11388996159E+04  0.10100000352E+00 0. -1.
       -3    1    3    3    0  502  0.58189879937E+03 -0.83038049189E+03 -0.58117212611E+03  0.11687168281E+04  0.10100000352E+00 0.  1.
</event>
<event>
 5   0  0.7348107E-06  0.2309442E+04  0.7818609E-02  0.8474208E-01
        2   -1    0    0  501    0  0.00000000000E+00  0.00000000000E+00  0.14847446046E+04  0.14847446046E+04  0.25500000920E-02 0. -1.
       -2   -1    0    0    0  501  0.00000000000E+00  0.00000000000E+00 -0.89805386211E+03  0.89805386211E+03  0.25500000920E-02 0.  1.
    10030    2    1    2    0    0  0.00000000000E+00  0.00000000000E+00  0.58669074247E+03  0.23827984667E+04  0.23094420334E+04 0.  0.
        3    1    3    3  502    0 -0.45134033633E+03 -0.60090583343E+03  0.11978819047E+04  0.14141134989E+04  0.10100000352E+00 0. -1.
       -3    1    3    3    0  502  0.45134033633E+03  0.60090583343E+03 -0.61119116226E+03  0.96868496781E+03  0.10100000352E+00 0.  1.
</event>
<event>
 5   0  0.7003852E-06  0.2301378E+04  0.7818609E-02  0.8477378E-01
        2   -1    0    0  501    0  0.00000000000E+00  0.00000000000E+00  0.11438048063E+04  0.11438048063E+04  0.25500000920E-02 0.  1.
       -2   -1    0    0    0  501  0.00000000000E+00  0.00000000000E+00 -0.11576147600E+04  0.11576147600E+04  0.25500000920E-02 0. -1.
    10030    2    1    2    0    0  0.00000000000E+00  0.00000000000E+00 -0.13809953632E+02  0.23014195663E+04  0.23013781318E+04 0.  0.
        2    1    3    3  502    0  0.10466802803E+04 -0.37153207163E+03  0.29394863548E+03  0.11489044737E+04  0.25500000920E-02 0.  1.
       -2    1    3    3    0  502 -0.10466802803E+04  0.37153207163E+03 -0.30775858911E+03  0.11525150926E+04  0.25500000920E-02 0. -1.
</event>
<event>
 5   0  0.3226427E-06  0.2299492E+04  0.7818609E-02  0.8478121E-01
        1   -1    0    0  501    0  0.00000000000E+00  0.00000000000E+00  0.22383613394E+04  0.22383613394E+04  0.50400001928E-02 0. -1.
       -1   -1    0    0    0  501  0.00000000000E+00  0.00000000000E+00 -0.59057314128E+03  0.59057314130E+03  0.50400001928E-02 0.  1.
    10030    2    1    2    0    0  0.00000000000E+00  0.00000000000E+00  0.16477881981E+04  0.28289344807E+04  0.22994921940E+04 0.  0.
        4    1    3    3  502    0 -0.58661683770E+03 -0.38412326269E+03  0.19448639902E+04  0.20674059951E+04  0.12699999809E+01 0. -1.
       -4    1    3    3    0  502  0.58661683770E+03  0.38412326269E+03 -0.29707579211E+03  0.76152848559E+03  0.12699999809E+01 0.  1.
</event>
<event>
 5   0  0.7044981E-06  0.2298887E+04  0.7818609E-02  0.8478360E-01
        2   -1    0    0  501    0  0.00000000000E+00  0.00000000000E+00  0.10136975755E+04  0.10136975755E+04  0.25500000920E-02 0.  1.
       -2   -1    0    0    0  501  0.00000000000E+00  0.00000000000E+00 -0.13033673144E+04  0.13033673144E+04  0.25500000920E-02 0. -1.
    10030    2    1    2    0    0  0.00000000000E+00  0.00000000000E+00 -0.28966973884E+03  0.23170648899E+04  0.22988869364E+04 0.  0.
        4    1    3    3  502    0 -0.95017744235E+01  0.75021860382E+03 -0.10225250450E+04  0.12682575912E+04  0.12699999809E+01 0. -1.
       -4    1    3    3    0  502  0.95017744235E+01 -0.75021860382E+03  0.73285530612E+03  0.10488072987E+04  0.12699999809E+01 0.  1.
</event>
<event>
 5   0  0.7497344E-06  0.2299695E+04  0.7818609E-02  0.8478041E-01
        2   -1    0    0  501    0  0.00000000000E+00  0.00000000000E+00  0.11854562098E+04  0.11854562098E+04  0.25500000920E-02 0. -1.
       -2   -1    0    0    0  501  0.00000000000E+00  0.00000000000E+00 -0.11153084638E+04  0.11153084638E+04  0.25500000920E-02 0.  1.
    10030    2    1    2    0    0  0.00000000000E+00  0.00000000000E+00  0.70147746019E+02  0.23007646736E+04  0.22996950617E+04 0.  0.
        5    1    3    3  502    0 -0.10266827564E+04  0.49180396965E+03 -0.12679948814E+03  0.11454469988E+04  0.46999998093E+01 0.  1.
       -5    1    3    3    0  502  0.10266827564E+04 -0.49180396965E+03  0.19694723416E+03  0.11553176748E+04  0.46999998093E+01 0. -1.
</event>
<event>
 5   0  0.3226427E-06  0.2288231E+04  0.7818609E-02  0.8482576E-01
       -1   -1    0    0    0  501  0.00000000000E+00  0.00000000000E+00  0.22019216681E+04  0.22019216681E+04  0.50400001928E-02 0. -1.
        1   -1    0    0  501    0  0.00000000000E+00  0.00000000000E+00 -0.59448075763E+03  0.59448075765E+03  0.50400001928E-02 0.  1.
    10030    2    1    2    0    0  0.00000000000E+00  0.00000000000E+00  0.16074409105E+04  0.27964024257E+04  0.22882308114E+04 0.  0.
        4    1    3    3  502    0  0.17996045887E+03  0.10738887755E+04  0.12329745474E+04  0.16449470254E+04  0.12699999809E+01 0.  1.
       -4    1    3    3    0  502 -0.17996045887E+03 -0.10738887755E+04  0.37446636307E+03  0.11514554003E+04  0.12699999809E+01 0. -1.
</event>
<event>
 5   0  0.7044981E-06  0.2297157E+04  0.7818609E-02  0.8479043E-01
       -2   -1    0    0    0  501  0.00000000000E+00  0.00000000000E+00  0.10219930106E+04  0.10219930106E+04  0.25500000920E-02 0. -1.
        2   -1    0    0  501    0  0.00000000000E+00  0.00000000000E+00 -0.12908430421E+04  0.12908430421E+04  0.25500000920E-02 0.  1.
    10030    2    1    2    0    0  0.00000000000E+00  0.00000000000E+00 -0.26885003145E+03  0.23128360527E+04  0.22971569967E+04 0.  0.
        4    1    3    3  502    0  0.34817150326E+03 -0.11581801035E+03  0.96139414219E+03  0.10290371795E+04  0.12699999809E+01 0. -1.
       -4    1    3    3    0  502 -0.34817150326E+03  0.11581801035E+03 -0.12302441736E+04  0.12837988732E+04  0.12699999809E+01 0.  1.
</event>
<event>
 5   0  0.3184492E-06  0.2293255E+04  0.7818609E-02  0.8480585E-01
       -1   -1    0    0    0  501  0.00000000000E+00  0.00000000000E+00  0.10820243435E+04  0.10820243435E+04  0.50400001928E-02 0. -1.
        1   -1    0    0  501    0  0.00000000000E+00  0.00000000000E+00 -0.12150881443E+04  0.12150881443E+04  0.50400001928E-02 0.  1.
    10030    2    1    2    0    0  0.00000000000E+00  0.00000000000E+00 -0.13306380079E+03  0.22971124879E+04  0.22932552860E+04 0.  0.
        1    1    3    3  502    0  0.13066015736E+02  0.10620865173E+04 -0.49918020534E+03  0.11736180675E+04  0.50400001928E-02 0.  1.
       -1    1    3    3    0  502 -0.13066015736E+02 -0.10620865173E+04  0.36611640455E+03  0.11234944204E+04  0.50400001928E-02 0. -1.
</event>
<event>
 5   0  0.7242214E-06  0.2298701E+04  0.7818609E-02  0.8478434E-01
       -2   -1    0    0    0  501  0.00000000000E+00  0.00000000000E+00  0.89802693194E+03  0.89802693194E+03  0.25500000920E-02 0. -1.
        2   -1    0    0  501    0  0.00000000000E+00  0.00000000000E+00 -0.14710096322E+04  0.14710096322E+04  0.25500000920E-02 0.  1.
    10030    2    1    2    0    0  0.00000000000E+00  0.00000000000E+00 -0.57298270023E+03  0.23690365641E+04  0.22987007346E+04 0.  0.
        1    1    3    3  502    0 -0.10745571898E+04  0.40782376830E+03 -0.28279169721E+03  0.11836234723E+04  0.50400001928E-02 0.  1.
       -1    1    3    3    0  502  0.10745571898E+04 -0.40782376830E+03 -0.29019100301E+03  0.11854130918E+04  0.50400001928E-02 0. -1.
</event>
<event>
 5   0  0.3226427E-06  0.2302628E+04  0.7818609E-02  0.8476886E-01
        1   -1    0    0  501    0  0.00000000000E+00  0.00000000000E+00  0.15925479627E+04  0.15925479627E+04  0.50400001928E-02 0.  1.
       -1   -1    0    0    0  501  0.00000000000E+00  0.00000000000E+00 -0.83232916550E+03  0.83232916552E+03  0.50400001928E-02 0. -1.
    10030    2    1    2    0    0  0.00000000000E+00  0.00000000000E+00  0.76021879721E+03  0.24248771282E+04  0.23026281652E+04 0.  0.
        4    1    3    3  502    0 -0.10751891626E+04  0.41120055977E+03  0.40129899704E+03  0.12190816764E+04  0.12699999809E+01 0.  1.
       -4    1    3    3    0  502  0.10751891626E+04 -0.41120055977E+03  0.35891980017E+03  0.12057954518E+04  0.12699999809E+01 0. -1.
</event>
<event>
 5   0  0.7003852E-06  0.2299266E+04  0.7818609E-02  0.8478211E-01
        2   -1    0    0  501    0  0.00000000000E+00  0.00000000000E+00  0.15935073252E+04  0.15935073252E+04  0.25500000920E-02 0. -1.
       -2   -1    0    0    0  501  0.00000000000E+00  0.00000000000E+00 -0.82940041292E+03  0.82940041292E+03  0.25500000920E-02 0.  1.
    10030    2    1    2    0    0  0.00000000000E+00  0.00000000000E+00  0.76410691226E+03  0.24229077381E+04  0.22992656510E+04 0.  0.
        2    1    3    3  502    0  0.66246436508E+03  0.25800359444E+03 -0.56998436099E+03  0.91121186423E+03  0.25500000920E-02 0.  1.
       -2    1    3    3    0  502 -0.66246436508E+03 -0.25800359444E+03  0.13340912732E+04  0.15116958739E+04  0.25500000920E-02 0. -1.
</event>
<event>
 5   0  0.7003852E-06  0.2299641E+04  0.7818609E-02  0.8478063E-01
        2   -1    0    0  501    0  0.00000000000E+00  0.00000000000E+00  0.10745396313E+04  0.10745396313E+04  0.25500000920E-02 0.  1.
       -2   -1    0    0    0  501  0.00000000000E+00  0.00000000000E+00 -0.12303751600E+04  0.12303751601E+04  0.25500000920E-02 0. -1.
    10030    2    1    2    0    0  0.00000000000E+00  0.00000000000E+00 -0.15583552879E+03  0.23049147913E+04  0.22996407292E+04 0.  0.
        2    1    3    3  502    0  0.27520572035E+03 -0.11113093068E+04  0.28817341795E+02  0.11452410240E+04  0.25500000920E-02 0. -1.
       -2    1    3    3    0  502 -0.27520572035E+03  0.11113093068E+04 -0.18465287059E+03  0.11596737673E+04  0.25500000920E-02 0.  1.
</event>
<event>
 5   0  0.3226427E-06  0.2259737E+04  0.7818609E-02  0.8493968E-01
       -1   -1    0    0    0  501  0.00000000000E+00  0.00000000000E+00  0.13967769274E+04  0.13967769274E+04  0.50400001928E-02 0. -1.
        1   -1    0    0  501    0  0.00000000000E+00  0.00000000000E+00 -0.91396293820E+03  0.91396293822E+03  0.50400001928E-02 0.  1.
    10030    2    1    2    0    0  0.00000000000E+00  0.00000000000E+00  0.48281398920E+03  0.23107398656E+04  0.22597365728E+04 0.  0.
        4    1    3    3  502    0 -0.83221874086E+03  0.66864448216E+03 -0.13698173668E+03  0.10763080810E+04  0.12699999809E+01 0.  1.
       -4    1    3    3    0  502  0.83221874086E+03 -0.66864448216E+03  0.61979572589E+03  0.12344317846E+04  0.12699999809E+01 0. -1.
</event>
<event>
 5   0  0.3338758E-06  0.2296807E+04  0.7818609E-02  0.8479181E-01
       -1   -1    0    0    0  501  0.00000000000E+00  0.00000000000E+00  0.17723840009E+04  0.17723840009E+04  0.50400001928E-02 0. -1.
        1   -1    0    0  501    0  0.00000000000E+00  0.00000000000E+00 -0.74409983788E+03  0.74409983789E+03  0.50400001928E-02 0.  1.
    10030    2    1    2    0    0  0.00000000000E+00  0.00000000000E+00  0.10282841631E+04  0.25164838388E+04  0.22968070426E+04 0.  0.
        5    1    3    3  502    0  0.51278195425E+03 -0.76943186229E+02 -0.60852888061E+03  0.79949676363E+03  0.46999998093E+01 0.  1.
       -5    1    3    3    0  502 -0.51278195425E+03  0.76943186229E+02  0.16368130437E+04  0.17169870752E+04  0.46999998093E+01 0. -1.
</event>
<event>
 5   0  0.3195296E-06  0.2300154E+04  0.7818609E-02  0.8477860E-01
        1   -1    0    0  501    0  0.00000000000E+00  0.00000000000E+00  0.11568521393E+04  0.11568521393E+04  0.50400001928E-02 0.  1.
       -1   -1    0    0    0  501  0.00000000000E+00  0.00000000000E+00 -0.11433415750E+04  0.11433415750E+04  0.50400001928E-02 0. -1.
    10030    2    1    2    0    0  0.00000000000E+00  0.00000000000E+00  0.13510564363E+02  0.23001937143E+04  0.23001540357E+04 0.  0.
        2    1    3    3  502    0 -0.42383335151E+03  0.62176282779E+03  0.87651359435E+03  0.11552055250E+04  0.25500000920E-02 0.  1.
       -2    1    3    3    0  502  0.42383335151E+03 -0.62176282779E+03 -0.86300302999E+03  0.11449881893E+04  0.25500000920E-02 0. -1.
</event>
<event>
 5   0  0.7348107E-06  0.2303082E+04  0.7818609E-02  0.8476707E-01
       -2   -1    0    0    0  501  0.00000000000E+00  0.00000000000E+00  0.10957251270E+04  0.10957251271E+04  0.25500000920E-02 0.  1.
        2   -1    0    0  501    0  0.00000000000E+00  0.00000000000E+00 -0.12102003501E+04  0.12102003501E+04  0.25500000920E-02 0. -1.
    10030    2    1    2    0    0  0.00000000000E+00  0.00000000000E+00 -0.11447522305E+03  0.23059254772E+04  0.23030822238E+04 0.  0.
        3    1    3    3  502    0 -0.93211111622E+03 -0.58137775848E+03  0.28846490011E+03  0.11358007043E+04  0.10100000352E+00 0.  1.
       -3    1    3    3    0  502  0.93211111622E+03  0.58137775848E+03 -0.40294012315E+03  0.11701247729E+04  0.10100000352E+00 0. -1.
</event>
<event>
 5   0  0.3195296E-06  0.2300763E+04  0.7818609E-02  0.8477620E-01
       -1   -1    0    0    0  501  0.00000000000E+00  0.00000000000E+00  0.77256918181E+03  0.77256918183E+03  0.50400001928E-02 0. -1.
        1   -1    0    0  501    0  0.00000000000E+00  0.00000000000E+00 -0.17129573407E+04  0.17129573407E+04  0.50400001928E-02 0.  1.
    10030    2    1    2    0    0  0.00000000000E+00  0.00000000000E+00 -0.94038815888E+03  0.24855265225E+04  0.23007633961E+04 0.  0.
        2    1    3    3  502    0  0.43932434084E+03 -0.88538598268E+02  0.67438556669E+03  0.80971652595E+03  0.25500000920E-02 0. -1.
       -2    1    3    3    0  502 -0.43932434084E+03  0.88538598268E+02 -0.16147737256E+04  0.16758099966E+04  0.25500000920E-02 0.  1.
</event>
<event>
 5   0  0.3184492E-06  0.2275670E+04  0.7818609E-02  0.8487576E-01
        1   -1    0    0  501    0  0.00000000000E+00  0.00000000000E+00  0.16158765977E+04  0.16158765977E+04  0.50400001928E-02 0.  1.
       -1   -1    0    0    0  501  0.00000000000E+00  0.00000000000E+00 -0.80121715404E+03  0.80121715406E+03  0.50400001928E-02 0. -1.
    10030    2    1    2    0    0  0.00000000000E+00  0.00000000000E+00  0.81465944366E+03  0.24170937518E+04  0.22756696148E+04 0.  0.
        1    1    3    3  502    0 -0.37027930795E+03 -0.77424778543E+03  0.12008187721E+04  0.14759851363E+04  0.50400001928E-02 0.  1.
       -1    1    3    3    0  502  0.37027930795E+03  0.77424778543E+03 -0.38615932844E+03  0.94110861547E+03  0.50400001928E-02 0. -1.
</event>
<event>
 5   0  0.7242214E-06  0.2301996E+04  0.7818609E-02  0.8477134E-01
        2   -1    0    0  501    0  0.00000000000E+00  0.00000000000E+00  0.18158990553E+04  0.18158990553E+04  0.25500000920E-02 0. -1.
       -2   -1    0    0    0  501  0.00000000000E+00  0.00000000000E+00 -0.72955423369E+03  0.72955423369E+03  0.25500000920E-02 0.  1.
    10030    2    1    2    0    0  0.00000000000E+00  0.00000000000E+00  0.10863448216E+04  0.25454532889E+04  0.23019963890E+04 0.  0.
        1    1    3    3  502    0  0.58527969935E+03  0.90462113605E+03  0.99084113127E+03  0.14637820445E+04  0.50400001928E-02 0. -1.
       -1    1    3    3    0  502 -0.58527969935E+03 -0.90462113605E+03  0.95503690294E+02  0.10816712445E+04  0.50400001928E-02 0.  1.
</event>
<event>
 5   0  0.2519625E-06  0.2303974E+04  0.7818609E-02  0.8476356E-01
       -3   -1    0    0    0  501  0.00000000000E+00  0.00000000000E+00  0.12351218958E+04  0.12351218999E+04  0.10100000352E+00 0. -1.
        3   -1    0    0  501    0  0.00000000000E+00  0.00000000000E+00 -0.10744474033E+04  0.10744474081E+04  0.10100000352E+00 0.  1.
    10030    2    1    2    0    0  0.00000000000E+00  0.00000000000E+00  0.16067449247E+03  0.23095693080E+04  0.23039735450E+04 0.  0.
        2    1    3    3  502    0 -0.33437701297E+03 -0.15651789941E+03 -0.10135360779E+04  0.10786849498E+04  0.25500000920E-02 0.  1.
       -2    1    3    3    0  502  0.33437701297E+03  0.15651789941E+03  0.11742105704E+04  0.12308843582E+04  0.25500000920E-02 0. -1.
</event>
<event>
 5   0  0.3338758E-06  0.2281349E+04  0.7818609E-02  0.8485311E-01
        1   -1    0    0  501    0  0.00000000000E+00  0.00000000000E+00  0.27389712990E+04  0.27389712990E+04  0.50400001928E-02 0. -1.
       -1   -1    0    0    0  501  0.00000000000E+00  0.00000000000E+00 -0.47504644431E+03  0.47504644434E+03  0.50400001928E-02 0.  1.
    10030    2    1    2    0    0  0.00000000000E+00  0.00000000000E+00  0.22639248547E+04  0.32140177434E+04  0.22813492295E+04 0.  0.
        5    1    3    3  502    0 -0.59381017642E+02 -0.11321073955E+04  0.95418687554E+03  0.14817853905E+04  0.46999998093E+01 0.  1.
       -5    1    3    3    0  502  0.59381017642E+02  0.11321073955E+04  0.13097379792E+04  0.17322323528E+04  0.46999998093E+01 0. -1.
</event>
<event>
 5   0  0.7003852E-06  0.2298014E+04  0.7818609E-02  0.8478705E-01
       -2   -1    0    0    0  501  0.00000000000E+00  0.00000000000E+00  0.59030221615E+03  0.59030221616E+03  0.25500000920E-02 0.  1.
        2   -1    0    0  501    0  0.00000000000E+00  0.00000000000E+00 -0.22365099010E+04  0.22365099010E+04  0.25500000920E-02 0. -1.
    10030    2    1    2    0    0  0.00000000000E+00  0.00000000000E+00 -0.16462076849E+04  0.28268121172E+04  0.22980137084E+04 0.  0.
        2    1    3    3  502    0 -0.45237604579E+03 -0.56366291121E+02 -0.21205039868E+04  0.21689532968E+04  0.25500000920E-02 0. -1.
       -2    1    3    3    0  502  0.45237604579E+03  0.56366291121E+02  0.47429630191E+03  0.65785882041E+03  0.25500000920E-02 0.  1.
</event>
<event>
 5   0  0.7003852E-06  0.2302105E+04  0.7818609E-02  0.8477092E-01
       -2   -1    0    0    0  501  0.00000000000E+00  0.00000000000E+00  0.71566980856E+03  0.71566980856E+03  0.25500000920E-02 0. -1.
        2   -1    0    0  501    0  0.00000000000E+00  0.00000000000E+00 -0.18513028981E+04  0.18513028981E+04  0.25500000920E-02 0.  1.
    10030    2    1    2    0    0  0.00000000000E+00  0.00000000000E+00 -0.11356330895E+04  0.25669727066E+04  0.23021047679E+04 0.  0.
        2    1    3    3  502    0  0.88478894729E+03  0.56542246607E+03 -0.10936302076E+04  0.15161072117E+04  0.25500000920E-02 0.  1.
       -2    1    3    3    0  502 -0.88478894729E+03 -0.56542246607E+03 -0.42002881940E+02  0.10508654950E+04  0.25500000920E-02 0. -1.
</event>
<event>
 5   0  0.3238713E-06  0.2294114E+04  0.7818609E-02  0.8480246E-01
        1   -1    0    0  501    0  0.00000000000E+00  0.00000000000E+00  0.12143388596E+04  0.12143388596E+04  0.50400001928E-02 0. -1.
       -1   -1    0    0    0  501  0.00000000000E+00  0.00000000000E+00 -0.10835026104E+04  0.10835026105E+04  0.50400001928E-02 0.  1.
    10030    2    1    2    0    0  0.00000000000E+00  0.00000000000E+00  0.13083624915E+03  0.22978414701E+04  0.22941136191E+04 0.  0.
        3    1    3    3  502    0  0.58369750624E+03 -0.96785116502E+03  0.26144167725E+03  0.11600820735E+04  0.10100000352E+00 0. -1.
       -3    1    3    3    0  502 -0.58369750624E+03  0.96785116502E+03 -0.13060542810E+03  0.11377593966E+04  0.10100000352E+00 0.  1.
</event>
<event>
 5   0  0.7497344E-06  0.2300868E+04  0.7818609E-02  0.8477579E-01
       -2   -1    0    0    0  501  0.00000000000E+00  0.00000000000E+00  0.69417730215E+03  0.69417730216E+03  0.25500000920E-02 0.  1.
        2   -1    0    0  501    0  0.00000000000E+00  0.00000000000E+00 -0.19065704407E+04  0.19065704407E+04  0.25500000920E-02 0. -1.
    10030    2    1    2    0    0  0.00000000000E+00  0.00000000000E+00 -0.12123931385E+04  0.26007477428E+04  0.23008675971E+04 0.  0.
        5    1    3    3  502    0  0.21935731618E+03 -0.11073416326E+04 -0.85679615118E+03  0.14171961255E+04  0.46999998093E+01 0. -1.
       -5    1    3    3    0  502 -0.21935731618E+03  0.11073416326E+04 -0.35559698734E+03  0.11835516173E+04  0.46999998093E+01 0.  1.
</event>
<event>
 5   0  0.3226427E-06  0.2301866E+04  0.7818609E-02  0.8477186E-01
       -1   -1    0    0    0  501  0.00000000000E+00  0.00000000000E+00  0.11349079201E+04  0.11349079201E+04  0.50400001928E-02 0. -1.
        1   -1    0    0  501    0  0.00000000000E+00  0.00000000000E+00 -0.11671841675E+04  0.11671841675E+04  0.50400001928E-02 0.  1.
    10030    2    1    2    0    0  0.00000000000E+00  0.00000000000E+00 -0.32276247349E+02  0.23020920876E+04  0.23018658136E+04 0.  0.
        4    1    3    3  502    0  0.17855526524E+02  0.92007334638E+03 -0.70743046351E+03  0.11607382376E+04  0.12699999809E+01 0.  1.
       -4    1    3    3    0  502 -0.17855526524E+02 -0.92007334638E+03  0.67515421616E+03  0.11413538501E+04  0.12699999809E+01 0. -1.
</event>
<event>
 5   0  0.7003852E-06  0.2290133E+04  0.7818609E-02  0.8481822E-01
       -2   -1    0    0    0  501  0.00000000000E+00  0.00000000000E+00  0.75078980700E+03  0.75078980700E+03  0.25500000920E-02 0. -1.
        2   -1    0    0  501    0  0.00000000000E+00  0.00000000000E+00 -0.17463966693E+04  0.17463966693E+04  0.25500000920E-02 0.  1.
    10030    2    1    2    0    0  0.00000000000E+00  0.00000000000E+00 -0.99560686235E+03  0.24971864763E+04  0.22901325886E+04 0.  0.
        2    1    3    3  502    0 -0.54734253891E+03 -0.80105313409E+03  0.16538436890E+03  0.98418594179E+03  0.25500000920E-02 0. -1.
       -2    1    3    3    0  502  0.54734253891E+03  0.80105313409E+03 -0.11609912313E+04  0.15130005346E+04  0.25500000920E-02 0.  1.
</event>
<event>
 5   0  0.3338758E-06  0.2300212E+04  0.7818609E-02  0.8477838E-01
        1   -1    0    0  501    0  0.00000000000E+00  0.00000000000E+00  0.29493939209E+04  0.29493939209E+04  0.50400001928E-02 0.  1.
       -1   -1    0    0    0  501  0.00000000000E+00  0.00000000000E+00 -0.44847989768E+03  0.44847989770E+03  0.50400001928E-02 0. -1.
    10030    2    1    2    0    0  0.00000000000E+00  0.00000000000E+00  0.25009140232E+04  0.33978738186E+04  0.23002120632E+04 0.  0.
        5    1    3    3  502    0 -0.92044381869E+03  0.37728155399E+03  0.21031018026E+04  0.23265032724E+04  0.46999998093E+01 0.  1.
       -5    1    3    3    0  502  0.92044381869E+03 -0.37728155399E+03  0.39781222057E+03  0.10713705462E+04  0.46999998093E+01 0. -1.
</event>
<event>
 5   0  0.2519625E-06  0.2307138E+04  0.7818609E-02  0.8475112E-01
        3   -1    0    0  501    0  0.00000000000E+00  0.00000000000E+00  0.78895771470E+03  0.78895772116E+03  0.10100000352E+00 0. -1.
       -3   -1    0    0    0  501  0.00000000000E+00  0.00000000000E+00 -0.16866826214E+04  0.16866826244E+04  0.10100000352E+00 0.  1.
    10030    2    1    2    0    0  0.00000000000E+00  0.00000000000E+00 -0.89772490666E+03  0.24756403455E+04  0.23071378616E+04 0.  0.
        4    1    3    3  502    0 -0.12462095937E+03 -0.11399361163E+04 -0.58346288321E+03  0.12866294267E+04  0.12699999809E+01 0. -1.
       -4    1    3    3    0  502  0.12462095937E+03  0.11399361163E+04 -0.31426202345E+03  0.11890109188E+04  0.12699999809E+01 0.  1.
</event>
<event>
 5   0  0.3195296E-06  0.2301131E+04  0.7818609E-02  0.8477475E-01
       -1   -1    0    0    0  501  0.00000000000E+00  0.00000000000E+00  0.98916714901E+03  0.98916714902E+03  0.50400001928E-02 0.  1.
        1   -1    0    0  501    0  0.00000000000E+00  0.00000000000E+00 -0.13382985463E+04  0.13382985463E+04  0.50400001928E-02 0. -1.
    10030    2    1    2    0    0  0.00000000000E+00  0.00000000000E+00 -0.34913139732E+03  0.23274656954E+04  0.23011309894E+04 0.  0.
        2    1    3    3  502    0 -0.11649786851E+03 -0.70266127623E+03  0.73937720975E+03  0.10266368787E+04  0.25500000920E-02 0.  1.
       -2    1    3    3    0  502  0.11649786851E+03  0.70266127623E+03 -0.10885086071E+04  0.13008288166E+04  0.25500000920E-02 0. -1.
</event>
<event>
 5   0  0.3338758E-06  0.2310827E+04  0.7818609E-02  0.8473664E-01
        1   -1    0    0  501    0  0.00000000000E+00  0.00000000000E+00  0.11145479163E+04  0.11145479163E+04  0.50400001928E-02 0. -1.
       -1   -1    0    0    0  501  0.00000000000E+00  0.00000000000E+00 -0.11977776676E+04  0.11977776676E+04  0.50400001928E-02 0.  1.
    10030    2    1    2    0    0  0.00000000000E+00  0.00000000000E+00 -0.83229751293E+02  0.23123255839E+04  0.23108272144E+04 0.  0.
        5    1    3    3  502    0  0.10217572344E+04 -0.39018997774E+03 -0.41431100643E+03  0.11695776011E+04  0.46999998093E+01 0.  1.
       -5    1    3    3    0  502 -0.10217572344E+04  0.39018997774E+03  0.33108125513E+03  0.11427479829E+04  0.46999998093E+01 0. -1.
</event>
<event>
 5   0  0.7003852E-06  0.2299727E+04  0.7818609E-02  0.8478029E-01
       -2   -1    0    0    0  501  0.00000000000E+00  0.00000000000E+00  0.60292530928E+03  0.60292530929E+03  0.25500000920E-02 0.  1.
        2   -1    0    0  501    0  0.00000000000E+00  0.00000000000E+00 -0.21929513707E+04  0.21929513707E+04  0.25500000920E-02 0. -1.
    10030    2    1    2    0    0  0.00000000000E+00  0.00000000000E+00 -0.15900260615E+04  0.27958766800E+04  0.22997268390E+04 0.  0.
        2    1    3    3  502    0 -0.19872311368E+03 -0.63945656157E+03  0.34142398500E+03  0.75164214064E+03  0.25500000920E-02 0.  1.
       -2    1    3    3    0  502  0.19872311368E+03  0.63945656157E+03 -0.19314500465E+04  0.20442345394E+04  0.25500000920E-02 0. -1.
</event>
<event>
 5   0  0.7003852E-06  0.2312689E+04  0.7818609E-02  0.8472935E-01
        2   -1    0    0  501    0  0.00000000000E+00  0.00000000000E+00  0.13348481685E+04  0.13348481685E+04  0.25500000920E-02 0.  1.
       -2   -1    0    0    0  501  0.00000000000E+00  0.00000000000E+00 -0.10017115273E+04  0.10017115273E+04  0.25500000920E-02 0. -1.
    10030    2    1    2    0    0  0.00000000000E+00  0.00000000000E+00  0.33313664115E+03  0.23365596958E+04  0.23126891685E+04 0.  0.
        2    1    3    3  502    0  0.19585453095E+03  0.38576494420E+03 -0.91686161789E+03  0.10138090628E+04  0.25500000920E-02 0. -1.
       -2    1    3    3    0  502 -0.19585453095E+03 -0.38576494420E+03  0.12499982590E+04  0.13227506330E+04  0.25500000920E-02 0.  1.
</event>
<event>
 5   0  0.3226427E-06  0.2294831E+04  0.7818609E-02  0.8479962E-01
        1   -1    0    0  501    0  0.00000000000E+00  0.00000000000E+00  0.13503658312E+04  0.13503658312E+04  0.50400001928E-02 0. -1.
       -1   -1    0    0    0  501  0.00000000000E+00  0.00000000000E+00 -0.97496722161E+03  0.97496722162E+03  0.50400001928E-02 0.  1.
    10030    2    1    2    0    0  0.00000000000E+00  0.00000000000E+00  0.37539860961E+03  0.23253330528E+04  0.22948310811E+04 0.  0.
        4    1    3    3  502    0  0.55470534219E+03  0.12625545896E+01  0.12054704902E+04  0.13269741242E+04  0.12699999809E+01 0. -1.
       -4    1    3    3    0  502 -0.55470534219E+03 -0.12625545896E+01 -0.83007188054E+03  0.99835892868E+03  0.12699999809E+01 0.  1.
</event>
<event>
 5   0  0.7044981E-06  0.2301301E+04  0.7818609E-02  0.8477408E-01
       -2   -1    0    0    0  501  0.00000000000E+00  0.00000000000E+00  0.12240921783E+04  0.12240921783E+04  0.25500000920E-02 0.  1.
        2   -1    0    0  501    0  0.00000000000E+00  0.00000000000E+00 -0.10816150776E+04  0.10816150776E+04  0.25500000920E-02 0. -1.
    10030    2    1    2    0    0  0.00000000000E+00  0.00000000000E+00  0.14247710067E+03  0.23057072559E+04  0.23013009854E+04 0.  0.
        4    1    3    3  502    0 -0.14742139507E+03  0.38975649042E+03 -0.10033595595E+04  0.10864507389E+04  0.12699999809E+01 0. -1.
       -4    1    3    3    0  502  0.14742139507E+03 -0.38975649042E+03  0.11458366601E+04  0.12192565170E+04  0.12699999809E+01 0.  1.
</event>
<event>
 5   0  0.2519625E-06  0.2301377E+04  0.7818609E-02  0.8477378E-01
        3   -1    0    0  501    0  0.00000000000E+00  0.00000000000E+00  0.23063242027E+04  0.23063242049E+04  0.10100000352E+00 0.  1.
       -3   -1    0    0    0  501  0.00000000000E+00  0.00000000000E+00 -0.57411030982E+03  0.57411031871E+03  0.10100000352E+00 0. -1.
    10030    2    1    2    0    0  0.00000000000E+00  0.00000000000E+00  0.17322138929E+04  0.28804345237E+04  0.23013774298E+04 0.  0.
        5    1    3    3  502    0  0.82298253083E+03  0.52419868865E+03  0.16294657830E+04  0.18992802160E+04  0.46999998093E+01 0.  1.
       -5    1    3    3    0  502 -0.82298253083E+03 -0.52419868865E+03  0.10274810995E+03  0.98115430761E+03  0.46999998093E+01 0. -1.
</event>
<event>
 5   0  0.2519625E-06  0.2301697E+04  0.7818609E-02  0.8477252E-01
       -3   -1    0    0    0  501  0.00000000000E+00  0.00000000000E+00  0.18692279756E+04  0.18692279783E+04  0.10100000352E+00 0. -1.
        3   -1    0    0  501    0  0.00000000000E+00  0.00000000000E+00 -0.70855587879E+03  0.70855588599E+03  0.10100000352E+00 0.  1.
    10030    2    1    2    0    0  0.00000000000E+00  0.00000000000E+00  0.11606720968E+04  0.25777838643E+04  0.23016971857E+04 0.  0.
        4    1    3    3  502    0 -0.26739868122E+03  0.31578015024E+02  0.18334544046E+04  0.18531205823E+04  0.12699999809E+01 0. -1.
       -4    1    3    3    0  502  0.26739868122E+03 -0.31578015024E+02 -0.67278230780E+03  0.72466328204E+03  0.12699999809E+01 0.  1.
</event>
<event>
 5   0  0.3238713E-06  0.2297806E+04  0.7818609E-02  0.8478787E-01
        1   -1    0    0  501    0  0.00000000000E+00  0.00000000000E+00  0.17620932795E+04  0.17620932795E+04  0.50400001928E-02 0.  1.
       -1   -1    0    0    0  501  0.00000000000E+00  0.00000000000E+00 -0.74909628818E+03  0.74909628820E+03  0.50400001928E-02 0. -1.
    10030    2    1    2    0    0  0.00000000000E+00  0.00000000000E+00  0.10129969913E+04  0.25111895677E+04  0.22978055053E+04 0.  0.
        3    1    3    3  502    0 -0.71344117962E+03 -0.57091182996E+03 -0.25462392233E+03  0.94856311672E+03  0.10100000352E+00 0.  1.
       -3    1    3    3    0  502  0.71344117962E+03  0.57091182996E+03  0.12676209136E+04  0.15626264509E+04  0.10100000352E+00 0. -1.
</event>
<event>
 5   0  0.7003852E-06  0.2325678E+04  0.7818609E-02  0.8467865E-01
        2   -1    0    0  501    0  0.00000000000E+00  0.00000000000E+00  0.13783786414E+04  0.13783786414E+04  0.25500000920E-02 0. -1.
       -2   -1    0    0    0  501  0.00000000000E+00  0.00000000000E+00 -0.98100328940E+03  0.98100328940E+03  0.25500000920E-02 0.  1.
    10030    2    1    2    0    0  0.00000000000E+00  0.00000000000E+00  0.39737535196E+03  0.23593819308E+04  0.23256775195E+04 0.  0.
        2    1    3    3  502    0  0.96988084471E+03 -0.46886162463E+03 -0.24548609227E+03  0.11048816667E+04  0.25500000920E-02 0. -1.
       -2    1    3    3    0  502 -0.96988084471E+03  0.46886162463E+03  0.64286144423E+03  0.12545002640E+04  0.25500000920E-02 0.  1.
</event>
<event>
 5   0  0.3184492E-06  0.2300932E+04  0.7818609E-02  0.8477554E-01
        1   -1    0    0  501    0  0.00000000000E+00  0.00000000000E+00  0.10482364737E+04  0.10482364737E+04  0.50400001928E-02 0. -1.
       -1   -1    0    0    0  501  0.00000000000E+00  0.00000000000E+00 -0.12626651960E+04  0.12626651960E+04  0.50400001928E-02 0.  1.
    10030    2    1    2    0    0  0.00000000000E+00  0.00000000000E+00 -0.21442872230E+03  0.23109016698E+04  0.23009317353E+04 0.  0.
        1    1    3    3  502    0  0.93073923784E+02  0.11326267205E+04 -0.28705916205E+03  0.11721386461E+04  0.50400001928E-02 0.  1.
       -1    1    3    3    0  502 -0.93073923784E+02 -0.11326267205E+04  0.72630439753E+02  0.11387630236E+04  0.50400001928E-02 0. -1.
</event>
<event>
 5   0  0.7003852E-06  0.2302347E+04  0.7818609E-02  0.8476996E-01
       -2   -1    0    0    0  501  0.00000000000E+00  0.00000000000E+00  0.80801398073E+03  0.80801398073E+03  0.25500000920E-02 0.  1.
        2   -1    0    0  501    0  0.00000000000E+00  0.00000000000E+00 -0.16400713686E+04  0.16400713686E+04  0.25500000920E-02 0. -1.
    10030    2    1    2    0    0  0.00000000000E+00  0.00000000000E+00 -0.83205738790E+03  0.24480853494E+04  0.23023471461E+04 0.  0.
        2    1    3    3  502    0 -0.40693686472E+03 -0.47228170901E+03 -0.14450442043E+04  0.15737853656E+04  0.25500000920E-02 0. -1.
       -2    1    3    3    0  502  0.40693686472E+03  0.47228170901E+03  0.61298681641E+03  0.87429998378E+03  0.25500000920E-02 0.  1.
</event>
<event>
 5   0  0.7003852E-06  0.2300680E+04  0.7818609E-02  0.8477653E-01
        2   -1    0    0  501    0  0.00000000000E+00  0.00000000000E+00  0.14892917957E+04  0.14892917957E+04  0.25500000920E-02 0.  1.
       -2   -1    0    0    0  501  0.00000000000E+00  0.00000000000E+00 -0.88853137447E+03  0.88853137448E+03  0.25500000920E-02 0. -1.
    10030    2    1    2    0    0  0.00000000000E+00  0.00000000000E+00  0.60076042127E+03  0.23778231702E+04  0.23006803222E+04 0.  0.
        2    1    3    3  502    0  0.34445268695E+03  0.86507535056E+03  0.99851413336E+03  0.13652961181E+04  0.25500000920E-02 0.  1.
       -2    1    3    3    0  502 -0.34445268695E+03 -0.86507535056E+03 -0.39775371210E+03  0.10125270521E+04  0.25500000920E-02 0. -1.
</event>
<event>
 5   0  0.3238713E-06  0.2299407E+04  0.7818609E-02  0.8478155E-01
       -1   -1    0    0    0  501  0.00000000000E+00  0.00000000000E+00  0.79539312511E+03  0.79539312512E+03  0.50400001928E-02 0. -1.
        1   -1    0    0  501    0  0.00000000000E+00  0.00000000000E+00 -0.16618428679E+04  0.16618428679E+04  0.50400001928E-02 0.  1.
    10030    2    1    2    0    0  0.00000000000E+00  0.00000000000E+00 -0.86644974280E+03  0.24572359930E+04  0.22994072212E+04 0.  0.
        3    1    3    3  502    0 -0.50833755890E+03 -0.42419932155E+03  0.57121965709E+03  0.87443927464E+03  0.10100000352E+00 0. -1.
       -3    1    3    3    0  502  0.50833755890E+03  0.42419932155E+03 -0.14376693999E+04  0.15827967184E+04  0.10100000352E+00 0.  1.
</event>
<event>
 5   0  0.3184492E-06  0.2300686E+04  0.7818609E-02  0.8477651E-01
        1   -1    0    0  501    0  0.00000000000E+00  0.00000000000E+00  0.20063734491E+04  0.20063734491E+04  0.50400001928E-02 0. -1.
       -1   -1    0    0    0  501  0.00000000000E+00  0.00000000000E+00 -0.65954260217E+03  0.65954260219E+03  0.50400001928E-02 0.  1.
    10030    2    1    2    0    0  0.00000000000E+00  0.00000000000E+00  0.13468308469E+04  0.26659160513E+04  0.23006857809E+04 0.  0.
        1    1    3    3  502    0  0.39989656052E+03 -0.27018410903E+03  0.18833907575E+04  0.19442421293E+04  0.50400001928E-02 0. -1.
       -1    1    3    3    0  502 -0.39989656052E+03  0.27018410903E+03 -0.53655991063E+03  0.72167392194E+03  0.50400001928E-02 0.  1.
</event>
<event>
 5   0  0.3238713E-06  0.2300847E+04  0.7818609E-02  0.8477587E-01
       -1   -1    0    0    0  501  0.00000000000E+00  0.00000000000E+00  0.87412000396E+03  0.87412000398E+03  0.50400001928E-02 0. -1.
        1   -1    0    0  501    0  0.00000000000E+00  0.00000000000E+00 -0.15140651936E+04  0.15140651936E+04  0.50400001928E-02 0.  1.
    10030    2    1    2    0    0  0.00000000000E+00  0.00000000000E+00 -0.63994518960E+03  0.23881851975E+04  0.23008473857E+04 0.  0.
        3    1    3    3  502    0  0.36337943318E+03  0.29436161646E+03  0.77101131192E+03  0.90174931495E+03  0.10100000352E+00 0. -1.
       -3    1    3    3    0  502 -0.36337943318E+03 -0.29436161646E+03 -0.14109565015E+04  0.14864358826E+04  0.10100000352E+00 0.  1.
</event>
<event>
 5   0  0.2519625E-06  0.2283662E+04  0.7818609E-02  0.8484391E-01
       -3   -1    0    0    0  501  0.00000000000E+00  0.00000000000E+00  0.11832550784E+04  0.11832550827E+04  0.10100000352E+00 0. -1.
        3   -1    0    0  501    0  0.00000000000E+00  0.00000000000E+00 -0.11018573757E+04  0.11018573803E+04  0.10100000352E+00 0.  1.
    10030    2    1    2    0    0  0.00000000000E+00  0.00000000000E+00  0.81397702678E+02  0.22851124630E+04  0.22836622742E+04 0.  0.
        3    1    3    3  502    0  0.41340631698E+03 -0.39747056410E+03 -0.94729368988E+03  0.11073630739E+04  0.10100000352E+00 0.  1.
       -3    1    3    3    0  502 -0.41340631698E+03  0.39747056410E+03  0.10286913926E+04  0.11777493891E+04  0.10100000352E+00 0. -1.
</event>
<event>
 5   0  0.3226427E-06  0.2304138E+04  0.7818609E-02  0.8476291E-01
        1   -1    0    0  501    0  0.00000000000E+00  0.00000000000E+00  0.16132727003E+04  0.16132727004E+04  0.50400001928E-02 0.  1.
       -1   -1    0    0    0  501  0.00000000000E+00  0.00000000000E+00 -0.82271479881E+03  0.82271479882E+03  0.50400001928E-02 0. -1.
    10030    2    1    2    0    0  0.00000000000E+00  0.00000000000E+00  0.79055790154E+03  0.24359874992E+04  0.23041382989E+04 0.  0.
        4    1    3    3  502    0 -0.10009715279E+04  0.55715187342E+03  0.26623061885E+03  0.11761133300E+04  0.12699999809E+01 0. -1.
       -4    1    3    3    0  502  0.10009715279E+04 -0.55715187342E+03  0.52432728269E+03  0.12598741691E+04  0.12699999809E+01 0.  1.
</event>
<event>
 5   0  0.3226427E-06  0.2301585E+04  0.7818609E-02  0.8477296E-01
        1   -1    0    0  501    0  0.00000000000E+00  0.00000000000E+00  0.16065507683E+04  0.16065507683E+04  0.50400001928E-02 0.  1.
       -1   -1    0    0    0  501  0.00000000000E+00  0.00000000000E+00 -0.82432719513E+03  0.82432719514E+03  0.50400001928E-02 0. -1.
    10030    2    1    2    0    0  0.00000000000E+00  0.00000000000E+00  0.78222357316E+03  0.24308779634E+04  0.23015850961E+04 0.  0.
        4    1    3    3  502    0 -0.68374658982E+03  0.87818001508E+03  0.70014438830E+03  0.13148814834E+04  0.12699999809E+01 0. -1.
       -4    1    3    3    0  502  0.68374658982E+03 -0.87818001508E+03  0.82079184857E+02  0.11159964800E+04  0.12699999809E+01 0.  1.
</event>
<event>
 5   0  0.7242214E-06  0.2333553E+04  0.7818609E-02  0.8464808E-01
       -2   -1    0    0    0  501  0.00000000000E+00  0.00000000000E+00  0.11324075502E+04  0.11324075502E+04  0.25500000920E-02 0. -1.
        2   -1    0    0  501    0  0.00000000000E+00  0.00000000000E+00 -0.12021889004E+04  0.12021889004E+04  0.25500000920E-02 0.  1.
    10030    2    1    2    0    0  0.00000000000E+00  0.00000000000E+00 -0.69781350166E+02  0.23345964506E+04  0.23335533313E+04 0.  0.
        1    1    3    3  502    0  0.44153185733E+03  0.79450652250E+03  0.69699412239E+03  0.11454221065E+04  0.50400001928E-02 0. -1.
       -1    1    3    3    0  502 -0.44153185733E+03 -0.79450652250E+03 -0.76677547256E+03  0.11891743441E+04  0.50400001928E-02 0.  1.
</event>
<event>
 5   0  0.7348107E-06  0.2304115E+04  0.7818609E-02  0.8476301E-01
        2   -1    0    0  501    0  0.00000000000E+00  0.00000000000E+00  0.91085956422E+03  0.91085956422E+03  0.25500000920E-02 0. -1.
       -2   -1    0    0    0  501  0.00000000000E+00  0.00000000000E+00 -0.14571246946E+04  0.14571246946E+04  0.25500000920E-02 0.  1.
    10030    2    1    2    0    0  0.00000000000E+00  0.00000000000E+00 -0.54626513043E+03  0.23679842589E+04  0.23041145496E+04 0.  0.
        3    1    3    3  502    0  0.20662037057E+02  0.32696444296E+02 -0.14564572411E+04  0.14569707212E+04  0.10100000352E+00 0.  1.
       -3    1    3    3    0  502 -0.20662037057E+02 -0.32696444296E+02  0.91019211066E+03  0.91101353763E+03  0.10100000352E+00 0. -1.
</event>
<event>
 5   0  0.2519625E-06  0.2297594E+04  0.7818609E-02  0.8478871E-01
        3   -1    0    0  501    0  0.00000000000E+00  0.00000000000E+00  0.23907233909E+04  0.23907233930E+04  0.10100000352E+00 0. -1.
       -3   -1    0    0    0  501  0.00000000000E+00  0.00000000000E+00 -0.55202286487E+03  0.55202287411E+03  0.10100000352E+00 0.  1.
    10030    2    1    2    0    0  0.00000000000E+00  0.00000000000E+00  0.18387005260E+04  0.29427462671E+04  0.22975935168E+04 0.  0.
        4    1    3    3  502    0 -0.11840033185E+02  0.72176462603E+03  0.20639597187E+04  0.21865533826E+04  0.12699999809E+01 0. -1.
       -4    1    3    3    0  502  0.11840033185E+02 -0.72176462603E+03 -0.22525919268E+03  0.75619288450E+03  0.12699999809E+01 0.  1.
</event>
<event>
 5   0  0.7003852E-06  0.2298133E+04  0.7818609E-02  0.8478658E-01
        2   -1    0    0  501    0  0.00000000000E+00  0.00000000000E+00  0.15665484015E+04  0.15665484015E+04  0.25500000920E-02 0.  1.
       -2   -1    0    0    0  501  0.00000000000E+00  0.00000000000E+00 -0.84284265541E+03  0.84284265542E+03  0.25500000920E-02 0. -1.
    10030    2    1    2    0    0  0.00000000000E+00  0.00000000000E+00  0.72370574605E+03  0.24093910569E+04  0.22981329940E+04 0.  0.
        2    1    3    3  502    0  0.66054635974E+03 -0.18023868240E+03  0.13293201376E+04  0.14952924477E+04  0.25500000920E-02 0.  1.
       -2    1    3    3    0  502 -0.66054635974E+03  0.18023868240E+03 -0.60561439155E+03  0.91409860915E+03  0.25500000920E-02 0. -1.
</event>
<event>
 5   0  0.7044981E-06  0.2299158E+04  0.7818609E-02  0.8478253E-01
       -2   -1    0    0    0  501  0.00000000000E+00  0.00000000000E+00  0.73507145658E+03  0.73507145658E+03  0.25500000920E-02 0.  1.
        2   -1    0    0  501    0  0.00000000000E+00  0.00000000000E+00 -0.17978283738E+04  0.17978283738E+04  0.25500000920E-02 0. -1.
    10030    2    1    2    0    0  0.00000000000E+00  0.00000000000E+00 -0.10627569172E+04  0.25328998303E+04  0.22991583864E+04 0.  0.
        4    1    3    3  502    0  0.20734576718E+03  0.45118747894E+03 -0.16735910761E+04  0.17457007508E+04  0.12699999809E+01 0. -1.
       -4    1    3    3    0  502 -0.20734576718E+03 -0.45118747894E+03  0.61083415891E+03  0.78719907959E+03  0.12699999809E+01 0.  1.
</event>
<event>
 5   0  0.3226427E-06  0.2302164E+04  0.7818609E-02  0.8477068E-01
        1   -1    0    0  501    0  0.00000000000E+00  0.00000000000E+00  0.15111571661E+04  0.15111571661E+04  0.50400001928E-02 0.  1.
       -1   -1    0    0    0  501  0.00000000000E+00  0.00000000000E+00 -0.87680452857E+03  0.87680452859E+03  0.50400001928E-02 0. -1.
    10030    2    1    2    0    0  0.00000000000E+00  0.00000000000E+00  0.63435263750E+03  0.23879616947E+04  0.23021637184E+04 0.  0.
        4    1    3    3  502    0  0.19447051248E+03 -0.11328916631E+04  0.25386441570E+03  0.11771622892E+04  0.12699999809E+01 0.  1.
       -4    1    3    3    0  502 -0.19447051248E+03  0.11328916631E+04  0.38048822180E+03  0.12107994055E+04  0.12699999809E+01 0. -1.
</event>
<event>
 5   0  0.7497344E-06  0.2294512E+04  0.7818609E-02  0.8480088E-01
       -2   -1    0    0    0  501  0.00000000000E+00  0.00000000000E+00  0.79217376930E+03  0.79217376931E+03  0.25500000920E-02 0. -1.
        2   -1    0    0  501    0  0.00000000000E+00  0.00000000000E+00 -0.16615001363E+04  0.16615001363E+04  0.25500000920E-02 0.  1.
    10030    2    1    2    0    0  0.00000000000E+00  0.00000000000E+00 -0.86932636701E+03  0.24536739056E+04  0.22945124325E+04 0.  0.
        5    1    3    3  502    0 -0.18439149158E+03  0.92070134062E+03 -0.11395397953E+04  0.14765717781E+04  0.46999998093E+01 0.  1.
       -5    1    3    3    0  502  0.18439149158E+03 -0.92070134062E+03  0.27021342830E+03  0.97710212752E+03  0.46999998093E+01 0. -1.
</event>
<event>
 5   0  0.7242214E-06  0.2302059E+04  0.7818609E-02  0.8477110E-01
        2   -1    0    0  501    0  0.00000000000E+00  0.00000000000E+00  0.15990682372E+04  0.15990682372E+04  0.25500000920E-02 0.  1.
       -2   -1    0    0    0  501  0.00000000000E+00  0.00000000000E+00 -0.82852557296E+03  0.82852557297E+03  0.25500000920E-02 0. -1.
    10030    2    1    2    0    0  0.00000000000E+00  0.00000000000E+00  0.77054266423E+03  0.24275938102E+04  0.23020590153E+04 0.  0.
        1    1    3    3  502    0  0.44904086515E+03 -0.10353643907E+03 -0.72700273130E+03  0.86074994286E+03  0.50400001928E-02 0. -1.
       -1    1    3    3    0  502 -0.44904086515E+03  0.10353643907E+03  0.14975453955E+04  0.15668438673E+04  0.50400001928E-02 0.  1.
</event>
<event>
 5   0  0.3226427E-06  0.2276531E+04  0.7818609E-02  0.8487232E-01
       -1   -1    0    0    0  501  0.00000000000E+00  0.00000000000E+00  0.56194305004E+03  0.56194305006E+03  0.50400001928E-02 0.  1.
        1   -1    0    0  501    0  0.00000000000E+00  0.00000000000E+00 -0.23056580624E+04  0.23056580624E+04  0.50400001928E-02 0. -1.
    10030    2    1    2    0    0  0.00000000000E+00  0.00000000000E+00 -0.17437150124E+04  0.28676011125E+04  0.22765311542E+04 0.  0.
        4    1    3    3  502    0  0.71568309841E+03  0.49119095335E+03 -0.17993604811E+04  0.19977914315E+04  0.12699999809E+01 0. -1.
       -4    1    3    3    0  502 -0.71568309841E+03 -0.49119095335E+03  0.55645468721E+02  0.86980968096E+03  0.12699999809E+01 0.  1.
</event>
<event>
 5   0  0.3238713E-06  0.2296102E+04  0.7818609E-02  0.8479460E-01
       -1   -1    0    0    0  501  0.00000000000E+00  0.00000000000E+00  0.11283527421E+04  0.11283527421E+04  0.50400001928E-02 0.  1.
        1   -1    0    0  501    0  0.00000000000E+00  0.00000000000E+00 -0.11680926406E+04  0.11680926406E+04  0.50400001928E-02 0. -1.
    10030    2    1    2    0    0  0.00000000000E+00  0.00000000000E+00 -0.39739898498E+02  0.22964453827E+04  0.22961015083E+04 0.  0.
        3    1    3    3  502    0 -0.39553529011E+03  0.65980805704E+03 -0.87218633881E+03  0.11629719935E+04  0.10100000352E+00 0. -1.
       -3    1    3    3    0  502  0.39553529011E+03 -0.65980805704E+03  0.83244644031E+03  0.11334733892E+04  0.10100000352E+00 0.  1.
</event>
<event>
 5   0  0.7044981E-06  0.2298214E+04  0.7818609E-02  0.8478626E-01
        2   -1    0    0  501    0  0.00000000000E+00  0.00000000000E+00  0.78999626643E+03  0.78999626643E+03  0.25500000920E-02 0. -1.
       -2   -1    0    0    0  501  0.00000000000E+00  0.00000000000E+00 -0.16714601206E+04  0.16714601206E+04  0.25500000920E-02 0.  1.
    10030    2    1    2    0    0  0.00000000000E+00  0.00000000000E+00 -0.88146385420E+03  0.24614563871E+04  0.22982143110E+04 0.  0.
        4    1    3    3  502    0  0.23292997682E+03  0.97972085598E+01 -0.16458635229E+04  0.16622938092E+04  0.12699999809E+01 0.  1.
       -4    1    3    3    0  502 -0.23292997682E+03 -0.97972085598E+01  0.76439966869E+03  0.79916257782E+03  0.12699999809E+01 0. -1.
</event>
<event>
 5   0  0.7348107E-06  0.2299866E+04  0.7818609E-02  0.8477974E-01
        2   -1    0    0  501    0  0.00000000000E+00  0.00000000000E+00  0.19235901524E+04  0.19235901524E+04  0.25500000920E-02 0.  1.
       -2   -1    0    0    0  501  0.00000000000E+00  0.00000000000E+00 -0.68743669854E+03  0.68743669854E+03  0.25500000920E-02 0. -1.
    10030    2    1    2    0    0  0.00000000000E+00  0.00000000000E+00  0.12361534538E+04  0.26110268509E+04  0.22998664863E+04 0.  0.
        3    1    3    3  502    0 -0.68678506788E+03 -0.44997020654E+03  0.15321122439E+04  0.17382505154E+04  0.10100000352E+00 0. -1.
       -3    1    3    3    0  502  0.68678506788E+03  0.44997020654E+03 -0.29595879004E+03  0.87277633552E+03  0.10100000352E+00 0.  1.
</event>
<event>
 5   0  0.7003852E-06  0.2306899E+04  0.7818609E-02  0.8475206E-01
       -2   -1    0    0    0  501  0.00000000000E+00  0.00000000000E+00  0.77711134248E+03  0.77711134249E+03  0.25500000920E-02 0.  1.
        2   -1    0    0  501    0  0.00000000000E+00  0.00000000000E+00 -0.17120406592E+04  0.17120406592E+04  0.25500000920E-02 0. -1.
    10030    2    1    2    0    0  0.00000000000E+00  0.00000000000E+00 -0.93492931669E+03  0.24891520017E+04  0.23068994040E+04 0.  0.
        2    1    3    3  502    0 -0.64668963564E+03 -0.28663233461E+03 -0.14505311704E+04  0.16138172933E+04  0.25500000920E-02 0. -1.
       -2    1    3    3    0  502  0.64668963564E+03  0.28663233461E+03  0.51560185367E+03  0.87533470833E+03  0.25500000920E-02 0.  1.
</event>
<event>
 5   0  0.7003852E-06  0.2279723E+04  0.7818609E-02  0.8485959E-01
        2   -1    0    0  501    0  0.00000000000E+00  0.00000000000E+00  0.78406341239E+03  0.78406341240E+03  0.25500000920E-02 0. -1.
       -2   -1    0    0    0  501  0.00000000000E+00  0.00000000000E+00 -0.16571163149E+04  0.16571163149E+04  0.25500000920E-02 0.  1.
    10030    2    1    2    0    0  0.00000000000E+00  0.00000000000E+00 -0.87305290249E+03  0.24411797273E+04  0.22797230293E+04 0.  0.
        2    1    3    3  502    0  0.73645894205E+03  0.81363339007E+03 -0.10662745849E+03  0.11026062224E+04  0.25500000920E-02 0. -1.
       -2    1    3    3    0  502 -0.73645894205E+03 -0.81363339007E+03 -0.76642544400E+03  0.13385735049E+04  0.25500000920E-02 0.  1.
</event>
<event>
 5   0  0.7044981E-06  0.2333961E+04  0.7818609E-02  0.8464650E-01
       -2   -1    0    0    0  501  0.00000000000E+00  0.00000000000E+00  0.13644758577E+04  0.13644758577E+04  0.25500000920E-02 0.  1.
        2   -1    0    0  501    0  0.00000000000E+00  0.00000000000E+00 -0.99807039557E+03  0.99807039557E+03  0.25500000920E-02 0. -1.
    10030    2    1    2    0    0  0.00000000000E+00  0.00000000000E+00  0.36640546212E+03  0.23625462533E+04  0.23339605473E+04 0.  0.
        4    1    3    3  502    0 -0.10697292238E+04 -0.34580620524E+03  0.49998743519E+03  0.12304030202E+04  0.12699999809E+01 0.  1.
       -4    1    3    3    0  502  0.10697292238E+04  0.34580620524E+03 -0.13358197306E+03  0.11321432331E+04  0.12699999809E+01 0. -1.
</event>
<event>
 5   0  0.7497344E-06  0.2285941E+04  0.7818609E-02  0.8483485E-01
       -2   -1    0    0    0  501  0.00000000000E+00  0.00000000000E+00  0.88285232248E+03  0.88285232248E+03  0.25500000920E-02 0. -1.
        2   -1    0    0  501    0  0.00000000000E+00  0.00000000000E+00 -0.14797285690E+04  0.14797285690E+04  0.25500000920E-02 0.  1.
    10030    2    1    2    0    0  0.00000000000E+00  0.00000000000E+00 -0.59687624650E+03  0.23625808915E+04  0.22859412099E+04 0.  0.
        5    1    3    3  502    0 -0.52299041974E+03  0.88397821902E+03  0.21979401459E+03  0.10503656362E+04  0.46999998093E+01 0. -1.
       -5    1    3    3    0  502  0.52299041974E+03 -0.88397821902E+03 -0.81667026109E+03  0.13122152553E+04  0.46999998093E+01 0.  1.
</event>
<event>
 5   0  0.7497344E-06  0.2281875E+04  0.7818609E-02  0.8485102E-01
       -2   -1    0    0    0  501  0.00000000000E+00  0.00000000000E+00  0.58385602959E+03  0.58385602959E+03  0.25500000920E-02 0. -1.
        2   -1    0    0  501    0  0.00000000000E+00  0.00000000000E+00 -0.22295544700E+04  0.22295544700E+04  0.25500000920E-02 0.  1.
    10030    2    1    2    0    0  0.00000000000E+00  0.00000000000E+00 -0.16456984404E+04  0.28134104996E+04  0.22818753871E+04 0.  0.
        5    1    3    3  502    0 -0.22472927756E+03  0.93267978428E+03 -0.61494480964E+02  0.96135242725E+03  0.46999998093E+01 0. -1.
       -5    1    3    3    0  502  0.22472927756E+03 -0.93267978428E+03 -0.15842039595E+04  0.18520580723E+04  0.46999998093E+01 0.  1.
</event>
<event>
 5   0  0.7348107E-06  0.2301958E+04  0.7818609E-02  0.8477149E-01
       -2   -1    0    0    0  501  0.00000000000E+00  0.00000000000E+00  0.65722873809E+03  0.65722873809E+03  0.25500000920E-02 0. -1.
        2   -1    0    0  501    0  0.00000000000E+00  0.00000000000E+00 -0.20156653730E+04  0.20156653730E+04  0.25500000920E-02 0.  1.
    10030    2    1    2    0    0  0.00000000000E+00  0.00000000000E+00 -0.13584366349E+04  0.26728941111E+04  0.23019584788E+04 0.  0.
        3    1    3    3  502    0  0.50955449042E+03 -0.35806831723E+03 -0.18031233431E+04  0.19076458002E+04  0.10100000352E+00 0.  1.
       -3    1    3    3    0  502 -0.50955449042E+03  0.35806831723E+03  0.44468670824E+03  0.76524831081E+03  0.10100000352E+00 0. -1.
</event>
<event>
 5   0  0.3184492E-06  0.2296188E+04  0.7818609E-02  0.8479425E-01
       -1   -1    0    0    0  501  0.00000000000E+00  0.00000000000E+00  0.98405027308E+03  0.98405027309E+03  0.50400001928E-02 0. -1.
        1   -1    0    0  501    0  0.00000000000E+00  0.00000000000E+00 -0.13394847034E+04  0.13394847034E+04  0.50400001928E-02 0.  1.
    10030    2    1    2    0    0  0.00000000000E+00  0.00000000000E+00 -0.35543443029E+03  0.23235349765E+04  0.22961883966E+04 0.  0.
        1    1    3    3  502    0  0.19080060984E+03  0.10627440805E+04 -0.57260891893E+03  0.12221746304E+04  0.50400001928E-02 0.  1.
       -1    1    3    3    0  502 -0.19080060984E+03 -0.10627440805E+04  0.21717448864E+03  0.11013603460E+04  0.50400001928E-02 0. -1.
</event>
<event>
 5   0  0.3184492E-06  0.2301665E+04  0.7818609E-02  0.8477265E-01
        1   -1    0    0  501    0  0.00000000000E+00  0.00000000000E+00  0.18575972673E+04  0.18575972673E+04  0.50400001928E-02 0. -1.
       -1   -1    0    0    0  501  0.00000000000E+00  0.00000000000E+00 -0.71297250355E+03  0.71297250357E+03  0.50400001928E-02 0.  1.
    10030    2    1    2    0    0  0.00000000000E+00  0.00000000000E+00  0.11446247638E+04  0.25705697709E+04  0.23016652878E+04 0.  0.
        1    1    3    3  502    0  0.92284370408E+03 -0.54387865926E+03  0.10421400831E+04  0.14944900304E+04  0.50400001928E-02 0.  1.
       -1    1    3    3    0  502 -0.92284370408E+03  0.54387865926E+03  0.10248468069E+03  0.10760797405E+04  0.50400001928E-02 0. -1.
</event>
<event>
 5   0  0.7003852E-06  0.2230052E+04  0.7818609E-02  0.8506023E-01
        2   -1    0    0  501    0  0.00000000000E+00  0.00000000000E+00  0.10669867880E+04  0.10669867880E+04  0.25500000920E-02 0.  1.
       -2   -1    0    0    0  501  0.00000000000E+00  0.00000000000E+00 -0.11652281413E+04  0.11652281413E+04  0.25500000920E-02 0. -1.
    10030    2    1    2    0    0  0.00000000000E+00  0.00000000000E+00 -0.98241353237E+02  0.22322149293E+04  0.22300520458E+04 0.  0.
        2    1    3    3  502    0  0.82245200760E+03  0.75164553790E+03 -0.92576056068E+02  0.11180199666E+04  0.25500000920E-02 0. -1.
       -2    1    3    3    0  502 -0.82245200760E+03 -0.75164553790E+03 -0.56652971689E+01  0.11141949628E+04  0.25500000920E-02 0.  1.
</event>
<event>
 5   0  0.7044981E-06  0.2302229E+04  0.7818609E-02  0.8477043E-01
       -2   -1    0    0    0  501  0.00000000000E+00  0.00000000000E+00  0.12234356347E+04  0.12234356347E+04  0.25500000920E-02 0. -1.
        2   -1    0    0  501    0  0.00000000000E+00  0.00000000000E+00 -0.10830684043E+04  0.10830684043E+04  0.25500000920E-02 0.  1.
    10030    2    1    2    0    0  0.00000000000E+00  0.00000000000E+00  0.14036723038E+03  0.23065040390E+04  0.23022289032E+04 0.  0.
        4    1    3    3  502    0 -0.42612493647E+02 -0.57659417376E+03 -0.92704720541E+03  0.10925634077E+04  0.12699999809E+01 0.  1.
       -4    1    3    3    0  502  0.42612493647E+02  0.57659417376E+03  0.10674144358E+04  0.12139406314E+04  0.12699999809E+01 0. -1.
</event>
<event>
 5   0  0.3338758E-06  0.2303241E+04  0.7818609E-02  0.8476644E-01
        1   -1    0    0  501    0  0.00000000000E+00  0.00000000000E+00  0.14663706935E+04  0.14663706935E+04  0.50400001928E-02 0.  1.
       -1   -1    0    0    0  501  0.00000000000E+00  0.00000000000E+00 -0.90442998438E+03  0.90442998439E+03  0.50400001928E-02 0. -1.
    10030    2    1    2    0    0  0.00000000000E+00  0.00000000000E+00  0.56194070911E+03  0.23708006779E+04  0.23032408675E+04 0.  0.
        5    1    3    3  502    0  0.10188973766E+04 -0.31566941146E+03  0.72776290349E+03  0.12913016592E+04  0.46999998093E+01 0.  1.
       -5    1    3    3    0  502 -0.10188973766E+04  0.31566941146E+03 -0.16582219438E+03  0.10794990187E+04  0.46999998093E+01 0. -1.
</event>
<event>
 5   0  0.7044981E-06  0.2297290E+04  0.7818609E-02  0.8478991E-01
        2   -1    0    0  501    0  0.00000000000E+00  0.00000000000E+00  0.19639377116E+04  0.19639377116E+04  0.25500000920E-02 0. -1.
       -2   -1    0    0    0  501  0.00000000000E+00  0.00000000000E+00 -0.67180586241E+03  0.67180586242E+03  0.25500000920E-02 0.  1.
    10030    2    1    2    0    0  0.00000000000E+00  0.00000000000E+00  0.12921318492E+04  0.26357435740E+04  0.22972895926E+04 0.  0.
        4    1    3    3  502    0  0.62878765964E+03 -0.42218711931E+03 -0.34474115295E+03  0.83214419427E+03  0.12699999809E+01 0.  1.
       -4    1    3    3    0  502 -0.62878765964E+03  0.42218711931E+03  0.16368730021E+04  0.18035993797E+04  0.12699999809E+01 0. -1.
</event>
<event>
 5   0  0.3338758E-06  0.2301295E+04  0.7818609E-02  0.8477411E-01
       -1   -1    0    0    0  501  0.00000000000E+00  0.00000000000E+00  0.13025752545E+04  0.13025752546E+04  0.50400001928E-02 0. -1.
        1   -1    0    0  501    0  0.00000000000E+00  0.00000000000E+00 -0.10164399623E+04  0.10164399623E+04  0.50400001928E-02 0.  1.
    10030    2    1    2    0    0  0.00000000000E+00  0.00000000000E+00  0.28613529229E+03  0.23190152168E+04  0.23012948899E+04 0.  0.
        5    1    3    3  502    0 -0.54997551571E+03 -0.40825160515E+03 -0.78861913924E+03  0.10445499882E+04  0.46999998093E+01 0.  1.
       -5    1    3    3    0  502  0.54997551571E+03  0.40825160515E+03  0.10747544315E+04  0.12744652287E+04  0.46999998093E+01 0. -1.
</event>
<event>
 5   0  0.3226427E-06  0.2300334E+04  0.7818609E-02  0.8477789E-01
        1   -1    0    0  501    0  0.00000000000E+00  0.00000000000E+00  0.20238513602E+04  0.20238513602E+04  0.50400001928E-02 0.  1.
       -1   -1    0    0    0  501  0.00000000000E+00  0.00000000000E+00 -0.65364696889E+03  0.65364696891E+03  0.50400001928E-02 0. -1.
    10030    2    1    2    0    0  0.00000000000E+00  0.00000000000E+00  0.13702043913E+04  0.26774983291E+04  0.23003341558E+04 0.  0.
        4    1    3    3  502    0 -0.69347509367E+03 -0.70705567899E+03  0.43620934152E+01  0.99038178472E+03  0.12699999809E+01 0. -1.
       -4    1    3    3    0  502  0.69347509367E+03  0.70705567899E+03  0.13658422979E+04  0.16871165444E+04  0.12699999809E+01 0.  1.
</event>
<event>
 5   0  0.3184492E-06  0.2292173E+04  0.7818609E-02  0.8481014E-01
       -1   -1    0    0    0  501  0.00000000000E+00  0.00000000000E+00  0.10346934852E+04  0.10346934852E+04  0.50400001928E-02 0. -1.
        1   -1    0    0  501    0  0.00000000000E+00  0.00000000000E+00 -0.12694717481E+04  0.12694717481E+04  0.50400001928E-02 0.  1.
    10030    2    1    2    0    0  0.00000000000E+00  0.00000000000E+00 -0.23477826291E+03  0.23041652333E+04  0.22921728969E+04 0.  0.
        1    1    3    3  502    0 -0.74626412380E+03  0.12228566837E+03 -0.98308592986E+03  0.12402910435E+04  0.50400001928E-02 0.  1.
       -1    1    3    3    0  502  0.74626412380E+03 -0.12228566837E+03  0.74830766694E+03  0.10638741897E+04  0.50400001928E-02 0. -1.
</event>
<event>
 5   0  0.3184492E-06  0.2306913E+04  0.7818609E-02  0.8475201E-01
        1   -1    0    0  501    0  0.00000000000E+00  0.00000000000E+00  0.15376106172E+04  0.15376106172E+04  0.50400001928E-02 0. -1.
       -1   -1    0    0    0  501  0.00000000000E+00  0.00000000000E+00 -0.86527859680E+03  0.86527859682E+03  0.50400001928E-02 0.  1.
    10030    2    1    2    0    0  0.00000000000E+00  0.00000000000E+00  0.67233202039E+03  0.24028892140E+04  0.23069127052E+04 0.  0.
        1    1    3    3  502    0 -0.28497186242E+03  0.27806591152E+03 -0.79143065593E+03  0.88594136188E+03  0.50400001928E-02 0.  1.
       -1    1    3    3    0  502  0.28497186242E+03 -0.27806591152E+03  0.14637626763E+04  0.15169478521E+04  0.50400001928E-02 0. -1.
</event>
<event>
 5   0  0.3184492E-06  0.2299615E+04  0.7818609E-02  0.8478073E-01
        1   -1    0    0  501    0  0.00000000000E+00  0.00000000000E+00  0.10060044448E+04  0.10060044448E+04  0.50400001928E-02 0.  1.
       -1   -1    0    0    0  501  0.00000000000E+00  0.00000000000E+00 -0.13141662525E+04  0.13141662525E+04  0.50400001928E-02 0. -1.
    10030    2    1    2    0    0  0.00000000000E+00  0.00000000000E+00 -0.30816180768E+03  0.23201706973E+04  0.22996148297E+04 0.  0.
        1    1    3    3  502    0 -0.47507663510E+03  0.48390121529E+03  0.78276587540E+03  0.10356546775E+04  0.50400001928E-02 0.  1.
       -1    1    3    3    0  502  0.47507663510E+03 -0.48390121529E+03 -0.10909276831E+04  0.12845160198E+04  0.50400001928E-02 0. -1.
</event>
<event>
 5   0  0.3195296E-06  0.2299917E+04  0.7818609E-02  0.8477954E-01
        1   -1    0    0  501    0  0.00000000000E+00  0.00000000000E+00  0.83633435491E+03  0.83633435493E+03  0.50400001928E-02 0.  1.
       -1   -1    0    0    0  501  0.00000000000E+00  0.00000000000E+00 -0.15811907438E+04  0.15811907438E+04  0.50400001928E-02 0. -1.
    10030    2    1    2    0    0  0.00000000000E+00  0.00000000000E+00 -0.74485638890E+03  0.24175250988E+04  0.22999166426E+04 0.  0.
        2    1    3    3  502    0 -0.24913070187E+03 -0.40498449481E+03  0.72816968582E+03  0.86966064588E+03  0.25500000920E-02 0.  1.
       -2    1    3    3    0  502  0.24913070187E+03  0.40498449481E+03 -0.14730260747E+04  0.15478644529E+04  0.25500000920E-02 0. -1.
</event>
<event>
 5   0  0.3338758E-06  0.2301003E+04  0.7818609E-02  0.8477526E-01
        1   -1    0    0  501    0  0.00000000000E+00  0.00000000000E+00  0.12090212826E+04  0.12090212826E+04  0.50400001928E-02 0. -1.
       -1   -1    0    0    0  501  0.00000000000E+00  0.00000000000E+00 -0.10948146608E+04  0.10948146608E+04  0.50400001928E-02 0.  1.
    10030    2    1    2    0    0  0.00000000000E+00  0.00000000000E+00  0.11420662187E+03  0.23038359434E+04  0.23010034554E+04 0.  0.
        5    1    3    3  502    0 -0.58527680426E+03  0.95392442671E+03 -0.20989213290E+03  0.11386823731E+04  0.46999998093E+01 0.  1.
       -5    1    3    3    0  502  0.58527680426E+03 -0.95392442671E+03  0.32409875477E+03  0.11651535703E+04  0.46999998093E+01 0. -1.
</event>
<event>
 5   0  0.7348107E-06  0.2300565E+04  0.7818609E-02  0.8477698E-01
       -2   -1    0    0    0  501  0.00000000000E+00  0.00000000000E+00  0.95098846086E+03  0.95098846087E+03  0.25500000920E-02 0. -1.
        2   -1    0    0  501    0  0.00000000000E+00  0.00000000000E+00 -0.13913416708E+04  0.13913416708E+04  0.25500000920E-02 0.  1.
    10030    2    1    2    0    0  0.00000000000E+00  0.00000000000E+00 -0.44035320992E+03  0.23423301316E+04  0.23005650385E+04 0.  0.
        3    1    3    3  502    0 -0.38046638610E+03 -0.76060105718E+03  0.56840424132E+03  0.10229135012E+04  0.10100000352E+00 0. -1.
       -3    1    3    3    0  502  0.38046638610E+03  0.76060105718E+03 -0.10087574512E+04  0.13194166305E+04  0.10100000352E+00 0.  1.
</event>
<event>
 5   0  0.3238713E-06  0.2295637E+04  0.7818609E-02  0.8479643E-01
        1   -1    0    0  501    0  0.00000000000E+00  0.00000000000E+00  0.20332355792E+04  0.20332355792E+04  0.50400001928E-02 0.  1.
       -1   -1    0    0    0  501  0.00000000000E+00  0.00000000000E+00 -0.64797574004E+03  0.64797574006E+03  0.50400001928E-02 0. -1.
    10030    2    1    2    0    0  0.00000000000E+00  0.00000000000E+00  0.13852598392E+04  0.26812113193E+04  0.22956370176E+04 0.  0.
        3    1    3    3  502    0  0.10533517141E+04 -0.45576923803E+03  0.67562870498E+03  0.13318219059E+04  0.10100000352E+00 0.  1.
       -3    1    3    3    0  502 -0.10533517141E+04  0.45576923803E+03  0.70963113418E+03  0.13493894133E+04  0.10100000352E+00 0. -1.
</event>
<event>
 5   0  0.3195296E-06  0.2304264E+04  0.7818609E-02  0.8476242E-01
        1   -1    0    0  501    0  0.00000000000E+00  0.00000000000E+00  0.14251054860E+04  0.14251054860E+04  0.50400001928E-02 0. -1.
       -1   -1    0    0    0  501  0.00000000000E+00  0.00000000000E+00 -0.93144548484E+03  0.93144548486E+03  0.50400001928E-02 0.  1.
    10030    2    1    2    0    0  0.00000000000E+00  0.00000000000E+00  0.49366000114E+03  0.23565509708E+04  0.23042639349E+04 0.  0.
        2    1    3    3  502    0 -0.38339610370E+03  0.56280197752E+03 -0.70359617717E+03  0.97917629606E+03  0.25500000920E-02 0.  1.
       -2    1    3    3    0  502  0.38339610370E+03 -0.56280197752E+03  0.11972561783E+04  0.13773746748E+04  0.25500000920E-02 0. -1.
</event>
<event>
 5   0  0.7497344E-06  0.2301850E+04  0.7818609E-02  0.8477192E-01
        2   -1    0    0  501    0  0.00000000000E+00  0.00000000000E+00  0.16493661590E+04  0.16493661590E+04  0.25500000920E-02 0. -1.
       -2   -1    0    0    0  501  0.00000000000E+00  0.00000000000E+00 -0.80311354858E+03  0.80311354858E+03  0.25500000920E-02 0.  1.
    10030    2    1    2    0    0  0.00000000000E+00  0.00000000000E+00  0.84625261042E+03  0.24524797076E+04  0.23018499594E+04 0.  0.
        5    1    3    3  502    0  0.10615763116E+04  0.56028496326E+02 -0.46782543913E+02  0.10640931135E+04  0.46999998093E+01 0.  1.
       -5    1    3    3    0  502 -0.10615763116E+04 -0.56028496326E+02  0.89303515434E+03  0.13883865941E+04  0.46999998093E+01 0. -1.
</event>
<event>
 5   0  0.7348107E-06  0.2301356E+04  0.7818609E-02  0.8477387E-01
        2   -1    0    0  501    0  0.00000000000E+00  0.00000000000E+00  0.13371763324E+04  0.13371763324E+04  0.25500000920E-02 0.  1.
       -2   -1    0    0    0  501  0.00000000000E+00  0.00000000000E+00 -0.99019093495E+03  0.99019093496E+03  0.25500000920E-02 0. -1.
    10030    2    1    2    0    0  0.00000000000E+00  0.00000000000E+00  0.34698539743E+03  0.23273672673E+04  0.23013560201E+04 0.  0.
        3    1    3    3  502    0  0.72730776507E+03 -0.75056292987E+03 -0.31334060421E+03  0.10911020306E+04  0.10100000352E+00 0. -1.
       -3    1    3    3    0  502 -0.72730776507E+03  0.75056292987E+03  0.66032600164E+03  0.12362652367E+04  0.10100000352E+00 0.  1.
</event>
<event>
 5   0  0.3184492E-06  0.2303433E+04  0.7818609E-02  0.8476569E-01
       -1   -1    0    0    0  501  0.00000000000E+00  0.00000000000E+00  0.10415204751E+04  0.10415204752E+04  0.50400001928E-02 0.  1.
        1   -1    0    0  501    0  0.00000000000E+00  0.00000000000E+00 -0.12735718203E+04  0.12735718203E+04  0.50400001928E-02 0. -1.
    10030    2    1    2    0    0  0.00000000000E+00  0.00000000000E+00 -0.23205134516E+03  0.23150922955E+04  0.23034332006E+04 0.  0.
        1    1    3    3  502    0 -0.53844793580E+03  0.27692548865E+02  0.90684764624E+03  0.10550192938E+04  0.50400001928E-02 0.  1.
       -1    1    3    3    0  502  0.53844793580E+03 -0.27692548865E+02 -0.11388989914E+04  0.12600730017E+04  0.50400001928E-02 0. -1.
</event>
<event>
 5   0  0.7044981E-06  0.2299932E+04  0.7818609E-02  0.8477948E-01
       -2   -1    0    0    0  501  0.00000000000E+00  0.00000000000E+00  0.66920678492E+03  0.66920678493E+03  0.25500000920E-02 0.  1.
        2   -1    0    0  501    0  0.00000000000E+00  0.00000000000E+00 -0.19761032008E+04  0.19761032008E+04  0.25500000920E-02 0. -1.
    10030    2    1    2    0    0  0.00000000000E+00  0.00000000000E+00 -0.13068964159E+04  0.26453099858E+04  0.22999318857E+04 0.  0.
        4    1    3    3  502    0  0.48668964126E+03 -0.97092394575E+03 -0.10881754251E+04  0.15374288549E+04  0.12699999809E+01 0. -1.
       -4    1    3    3    0  502 -0.48668964126E+03  0.97092394575E+03 -0.21872099086E+03  0.11078811308E+04  0.12699999809E+01 0.  1.
</event>
<event>
 5   0  0.7242214E-06  0.2297658E+04  0.7818609E-02  0.8478845E-01
        2   -1    0    0  501    0  0.00000000000E+00  0.00000000000E+00  0.27621074927E+04  0.27621074927E+04  0.25500000920E-02 0.  1.
       -2   -1    0    0    0  501  0.00000000000E+00  0.00000000000E+00 -0.47782653733E+03  0.47782653733E+03  0.25500000920E-02 0. -1.
    10030    2    1    2    0    0  0.00000000000E+00  0.00000000000E+00  0.22842809553E+04  0.32399340300E+04  0.22976581634E+04 0.  0.
        1    1    3    3  502    0 -0.98083433315E+03 -0.55731489050E+02  0.30236982135E+03  0.10278956644E+04  0.50400001928E-02 0.  1.
       -1    1    3    3    0  502  0.98083433315E+03  0.55731489050E+02  0.19819111340E+04  0.22120383656E+04  0.50400001928E-02 0. -1.
</event>
<event>
 5   0  0.7348107E-06  0.2278256E+04  0.7818609E-02  0.8486544E-01
        2   -1    0    0  501    0  0.00000000000E+00  0.00000000000E+00  0.17717249863E+04  0.17717249863E+04  0.25500000920E-02 0.  1.
       -2   -1    0    0    0  501  0.00000000000E+00  0.00000000000E+00 -0.73240088086E+03  0.73240088087E+03  0.25500000920E-02 0. -1.
    10030    2    1    2    0    0  0.00000000000E+00  0.00000000000E+00  0.10393241054E+04  0.25041258672E+04  0.22782562987E+04 0.  0.
        3    1    3    3  502    0 -0.21873287045E+03 -0.10449688814E+04  0.95629783117E+03  0.14332862881E+04  0.10100000352E+00 0.  1.
       -3    1    3    3    0  502  0.21873287045E+03  0.10449688814E+04  0.83026274272E+02  0.10708395790E+04  0.10100000352E+00 0. -1.
</event>
<event>
 5   0  0.3338758E-06  0.2296966E+04  0.7818609E-02  0.8479118E-01
        1   -1    0    0  501    0  0.00000000000E+00  0.00000000000E+00  0.60074253708E+03  0.60074253710E+03  0.50400001928E-02 0. -1.
       -1   -1    0    0    0  501  0.00000000000E+00  0.00000000000E+00 -0.21956388225E+04  0.21956388225E+04  0.50400001928E-02 0.  1.
    10030    2    1    2    0    0  0.00000000000E+00  0.00000000000E+00 -0.15948962854E+04  0.27963813596E+04  0.22969663792E+04 0.  0.
        5    1    3    3  502    0 -0.33463430295E+03  0.24416468886E+03  0.50661386711E+03  0.65442815675E+03  0.46999998093E+01 0. -1.
       -5    1    3    3    0  502  0.33463430295E+03 -0.24416468886E+03 -0.21015101526E+04  0.21419532029E+04  0.46999998093E+01 0.  1.
</event>
<event>
 5   0  0.3195296E-06  0.2291983E+04  0.7818609E-02  0.8481089E-01
        1   -1    0    0  501    0  0.00000000000E+00  0.00000000000E+00  0.97608633086E+03  0.97608633088E+03  0.50400001928E-02 0.  1.
       -1   -1    0    0    0  501  0.00000000000E+00  0.00000000000E+00 -0.13454716569E+04  0.13454716569E+04  0.50400001928E-02 0. -1.
    10030    2    1    2    0    0  0.00000000000E+00  0.00000000000E+00 -0.36938532603E+03  0.23215579878E+04  0.22919829780E+04 0.  0.
        2    1    3    3  502    0  0.11212835258E+04  0.47220716081E+02 -0.41961197773E+03  0.11981572322E+04  0.25500000920E-02 0. -1.
       -2    1    3    3    0  502 -0.11212835258E+04 -0.47220716081E+02  0.50226651697E+02  0.11234007556E+04  0.25500000920E-02 0.  1.
</event>
<event>
 5   0  0.3184492E-06  0.2307029E+04  0.7818609E-02  0.8475155E-01
        1   -1    0    0  501    0  0.00000000000E+00  0.00000000000E+00  0.10483081213E+04  0.10483081213E+04  0.50400001928E-02 0. -1.
       -1   -1    0    0    0  501  0.00000000000E+00  0.00000000000E+00 -0.12692787428E+04  0.12692787428E+04  0.50400001928E-02 0.  1.
    10030    2    1    2    0    0  0.00000000000E+00  0.00000000000E+00 -0.22097062150E+03  0.23175868642E+04  0.23070285775E+04 0.  0.
        1    1    3    3  502    0  0.40480820231E+03  0.51982356543E+03  0.84068956863E+03  0.10681035393E+04  0.50400001928E-02 0. -1.
       -1    1    3    3    0  502 -0.40480820231E+03 -0.51982356543E+03 -0.10616601901E+04  0.12494833249E+04  0.50400001928E-02 0.  1.
</event>
<event>
 5   0  0.7003852E-06  0.2300093E+04  0.7818609E-02  0.8477884E-01
       -2   -1    0    0    0  501  0.00000000000E+00  0.00000000000E+00  0.79440641739E+03  0.79440641739E+03  0.25500000920E-02 0.  1.
        2   -1    0    0  501    0  0.00000000000E+00  0.00000000000E+00 -0.16648999443E+04  0.16648999443E+04  0.25500000920E-02 0. -1.
    10030    2    1    2    0    0  0.00000000000E+00  0.00000000000E+00 -0.87049352690E+03  0.24593063617E+04  0.23000932155E+04 0.  0.
        2    1    3    3  502    0 -0.76720058010E+03 -0.26693623482E+03  0.43520332128E+03  0.92154957242E+03  0.25500000920E-02 0.  1.
       -2    1    3    3    0  502  0.76720058010E+03  0.26693623482E+03 -0.13056968482E+04  0.15377567893E+04  0.25500000920E-02 0. -1.
</event>
<event>
 5   0  0.7044981E-06  0.2310919E+04  0.7818609E-02  0.8473628E-01
        2   -1    0    0  501    0  0.00000000000E+00  0.00000000000E+00  0.82433522093E+03  0.82433522094E+03  0.25500000920E-02 0.  1.
       -2   -1    0    0    0  501  0.00000000000E+00  0.00000000000E+00 -0.16195919429E+04  0.16195919429E+04  0.25500000920E-02 0. -1.
    10030    2    1    2    0    0  0.00000000000E+00  0.00000000000E+00 -0.79525672196E+03  0.24439271638E+04  0.23109190224E+04 0.  0.
        4    1    3    3  502    0 -0.17208381809E+03  0.42224999959E+03 -0.15204211695E+04  0.15873216587E+04  0.12699999809E+01 0. -1.
       -4    1    3    3    0  502  0.17208381809E+03 -0.42224999959E+03  0.72516444753E+03  0.85660550515E+03  0.12699999809E+01 0.  1.
</event>
<event>
 5   0  0.3195296E-06  0.2304181E+04  0.7818609E-02  0.8476274E-01
        1   -1    0    0  501    0  0.00000000000E+00  0.00000000000E+00  0.14737706960E+04  0.14737706960E+04  0.50400001928E-02 0.  1.
       -1   -1    0    0    0  501  0.00000000000E+00  0.00000000000E+00 -0.90062375863E+03  0.90062375864E+03  0.50400001928E-02 0. -1.
    10030    2    1    2    0    0  0.00000000000E+00  0.00000000000E+00  0.57314693741E+03  0.23743944547E+04  0.23041813328E+04 0.  0.
        2    1    3    3  502    0 -0.91341780715E+03 -0.38936408315E+03  0.88865177294E+03  0.13325308451E+04  0.25500000920E-02 0.  1.
       -2    1    3    3    0  502  0.91341780715E+03  0.38936408315E+03 -0.31550483554E+03  0.10418636096E+04  0.25500000920E-02 0. -1.
</event>
<event>
 5   0  0.3338758E-06  0.2298729E+04  0.7818609E-02  0.8478422E-01
       -1   -1    0    0    0  501  0.00000000000E+00  0.00000000000E+00  0.55653646348E+03  0.55653646350E+03  0.50400001928E-02 0.  1.
        1   -1    0    0  501    0  0.00000000000E+00  0.00000000000E+00 -0.23736785716E+04  0.23736785716E+04  0.50400001928E-02 0. -1.
    10030    2    1    2    0    0  0.00000000000E+00  0.00000000000E+00 -0.18171421081E+04  0.29302150351E+04  0.22987289337E+04 0.  0.
        5    1    3    3  502    0  0.67488869630E+03  0.79103856998E+03 -0.28435324787E+03  0.10780053948E+04  0.46999998093E+01 0.  1.
       -5    1    3    3    0  502 -0.67488869630E+03 -0.79103856998E+03 -0.15327888602E+04  0.18522096403E+04  0.46999998093E+01 0. -1.
</event>
<event>
 5   0  0.3195296E-06  0.2300814E+04  0.7818609E-02  0.8477600E-01
        1   -1    0    0  501    0  0.00000000000E+00  0.00000000000E+00  0.91029107037E+03  0.91029107038E+03  0.50400001928E-02 0.  1.
       -1   -1    0    0    0  501  0.00000000000E+00  0.00000000000E+00 -0.14538603820E+04  0.14538603821E+04  0.50400001928E-02 0. -1.
    10030    2    1    2    0    0  0.00000000000E+00  0.00000000000E+00 -0.54356931168E+03  0.23641514524E+04  0.23008138763E+04 0.  0.
        2    1    3    3  502    0  0.63457176527E+03 -0.48731821301E+03  0.57757536117E+03  0.98678957425E+03  0.25500000920E-02 0.  1.
       -2    1    3    3    0  502 -0.63457176527E+03  0.48731821301E+03 -0.11211446729E+04  0.13773618782E+04  0.25500000920E-02 0. -1.
</event>
<event>
 5   0  0.7003852E-06  0.2292186E+04  0.7818609E-02  0.8481008E-01
       -2   -1    0    0    0  501  0.00000000000E+00  0.00000000000E+00  0.89320099135E+03  0.89320099135E+03  0.25500000920E-02 0. -1.
        2   -1    0    0  501    0  0.00000000000E+00  0.00000000000E+00 -0.14705865750E+04  0.14705865750E+04  0.25500000920E-02 0.  1.
    10030    2    1    2    0    0  0.00000000000E+00  0.00000000000E+00 -0.57738558366E+03  0.23637875664E+04  0.22921861937E+04 0.  0.
        2    1    3    3  502    0  0.43570439038E+03 -0.60740983356E+03  0.60720505154E+03  0.96305918630E+03  0.25500000920E-02 0. -1.
       -2    1    3    3    0  502 -0.43570439038E+03  0.60740983356E+03 -0.11845906352E+04  0.14007283801E+04  0.25500000920E-02 0.  1.
</event>
<event>
 5   0  0.7348107E-06  0.2301469E+04  0.7818609E-02  0.8477342E-01
       -2   -1    0    0    0  501  0.00000000000E+00  0.00000000000E+00  0.12121026504E+04  0.12121026504E+04  0.25500000920E-02 0.  1.
        2   -1    0    0  501    0  0.00000000000E+00  0.00000000000E+00 -0.10924735381E+04  0.10924735381E+04  0.25500000920E-02 0. -1.
    10030    2    1    2    0    0  0.00000000000E+00  0.00000000000E+00  0.11962911229E+03  0.23045761885E+04  0.23014691578E+04 0.  0.
        3    1    3    3  502    0 -0.10097436222E+04 -0.54981883856E+03  0.10791192184E+03  0.11547847985E+04  0.10100000352E+00 0.  1.
       -3    1    3    3    0  502  0.10097436222E+04  0.54981883856E+03  0.11717190447E+02  0.11497913900E+04  0.10100000352E+00 0. -1.
</event>
<event>
 5   0  0.7003852E-06  0.2301433E+04  0.7818609E-02  0.8477356E-01
       -2   -1    0    0    0  501  0.00000000000E+00  0.00000000000E+00  0.74628858425E+03  0.74628858426E+03  0.25500000920E-02 0. -1.
        2   -1    0    0  501    0  0.00000000000E+00  0.00000000000E+00 -0.17743109090E+04  0.17743109090E+04  0.25500000920E-02 0.  1.
    10030    2    1    2    0    0  0.00000000000E+00  0.00000000000E+00 -0.10280223247E+04  0.25205994933E+04  0.23014325767E+04 0.  0.
        2    1    3    3  502    0 -0.18411369157E+03  0.50320194222E+03  0.60131761787E+03  0.80541475256E+03  0.25500000920E-02 0. -1.
       -2    1    3    3    0  502  0.18411369157E+03 -0.50320194222E+03 -0.16293399426E+04  0.17151847407E+04  0.25500000920E-02 0.  1.
</event>
<event>
 5   0  0.3238713E-06  0.2303318E+04  0.7818609E-02  0.8476614E-01
       -1   -1    0    0    0  501  0.00000000000E+00  0.00000000000E+00  0.90824465239E+03  0.90824465240E+03  0.50400001928E-02 0. -1.
        1   -1    0    0  501    0  0.00000000000E+00  0.00000000000E+00 -0.14603102683E+04  0.14603102683E+04  0.50400001928E-02 0.  1.
    10030    2    1    2    0    0  0.00000000000E+00  0.00000000000E+00 -0.55206561589E+03  0.23685549207E+04  0.23033184687E+04 0.  0.
        3    1    3    3  502    0 -0.31498862501E+03  0.43540088563E+02  0.86220739805E+03  0.91897507075E+03  0.10100000352E+00 0. -1.
       -3    1    3    3    0  502  0.31498862501E+03 -0.43540088563E+02 -0.14142730139E+04  0.14495798499E+04  0.10100000352E+00 0.  1.
</event>
<event>
 5   0  0.3338758E-06  0.2297176E+04  0.7818609E-02  0.8479035E-01
        1   -1    0    0  501    0  0.00000000000E+00  0.00000000000E+00  0.18983700971E+04  0.18983700972E+04  0.50400001928E-02 0. -1.
       -1   -1    0    0    0  501  0.00000000000E+00  0.00000000000E+00 -0.69494072207E+03  0.69494072209E+03  0.50400001928E-02 0.  1.
    10030    2    1    2    0    0  0.00000000000E+00  0.00000000000E+00  0.12034293751E+04  0.25933108192E+04  0.22971762545E+04 0.  0.
        5    1    3    3  502    0 -0.80405933204E+03 -0.37978721466E+03 -0.21896882032E+03  0.91581612353E+03  0.46999998093E+01 0.  1.
       -5    1    3    3    0  502  0.80405933204E+03  0.37978721466E+03  0.14223981954E+04  0.16774946957E+04  0.46999998093E+01 0. -1.
</event>
<event>
 5   0  0.7497344E-06  0.2310123E+04  0.7818609E-02  0.8473941E-01
       -2   -1    0    0    0  501  0.00000000000E+00  0.00000000000E+00  0.59831913750E+03  0.59831913751E+03  0.25500000920E-02 0.  1.
        2   -1    0    0  501    0  0.00000000000E+00  0.00000000000E+00 -0.22298580143E+04  0.22298580143E+04  0.25500000920E-02 0. -1.
    10030    2    1    2    0    0  0.00000000000E+00  0.00000000000E+00 -0.16315388768E+04  0.28281771518E+04  0.23101227014E+04 0.  0.
        5    1    3    3  502    0 -0.85757753295E+03 -0.76789806303E+03 -0.93215714143E+03  0.14812311388E+04  0.46999998093E+01 0. -1.
       -5    1    3    3    0  502  0.85757753295E+03  0.76789806303E+03 -0.69938173540E+03  0.13469460130E+04  0.46999998093E+01 0.  1.
</event>
<event>
 5   0  0.3338758E-06  0.2298333E+04  0.7818609E-02  0.8478579E-01
       -1   -1    0    0    0  501  0.00000000000E+00  0.00000000000E+00  0.59688196310E+03  0.59688196312E+03  0.50400001928E-02 0. -1.
        1   -1    0    0  501    0  0.00000000000E+00  0.00000000000E+00 -0.22124700175E+04  0.22124700175E+04  0.50400001928E-02 0.  1.
    10030    2    1    2    0    0  0.00000000000E+00  0.00000000000E+00 -0.16155880544E+04  0.28093519806E+04  0.22983328283E+04 0.  0.
        5    1    3    3  502    0 -0.35357506996E+03  0.10561320497E+04 -0.11538081644E+04  0.16036600658E+04  0.46999998093E+01 0.  1.
       -5    1    3    3    0  502  0.35357506996E+03 -0.10561320497E+04 -0.46177988996E+03  0.12056919147E+04  0.46999998093E+01 0. -1.
</event>
<event>
 5   0  0.3195296E-06  0.2299121E+04  0.7818609E-02  0.8478268E-01
        1   -1    0    0  501    0  0.00000000000E+00  0.00000000000E+00  0.17885258419E+04  0.17885258420E+04  0.50400001928E-02 0.  1.
       -1   -1    0    0    0  501  0.00000000000E+00  0.00000000000E+00 -0.73887099685E+03  0.73887099687E+03  0.50400001928E-02 0. -1.
    10030    2    1    2    0    0  0.00000000000E+00  0.00000000000E+00  0.10496548451E+04  0.25273968388E+04  0.22991214598E+04 0.  0.
        2    1    3    3  502    0  0.65990646107E+03 -0.94053132219E+03  0.56616659477E+03  0.12808670182E+04  0.25500000920E-02 0. -1.
       -2    1    3    3    0  502 -0.65990646107E+03  0.94053132219E+03  0.48348825033E+03  0.12465298206E+04  0.25500000920E-02 0.  1.
</event>
<event>
 5   0  0.7497344E-06  0.2298953E+04  0.7818609E-02  0.8478334E-01
       -2   -1    0    0    0  501  0.00000000000E+00  0.00000000000E+00  0.79132279442E+03  0.79132279442E+03  0.25500000920E-02 0. -1.
        2   -1    0    0  501    0  0.00000000000E+00  0.00000000000E+00 -0.16697303492E+04  0.16697303492E+04  0.25500000920E-02 0.  1.
    10030    2    1    2    0    0  0.00000000000E+00  0.00000000000E+00 -0.87840755480E+03  0.24610531436E+04  0.22989525318E+04 0.  0.
        5    1    3    3  502    0  0.44053932572E+03 -0.12934930686E+03 -0.15672941822E+04  0.16331684801E+04  0.46999998093E+01 0.  1.
       -5    1    3    3    0  502 -0.44053932572E+03  0.12934930686E+03  0.68888662743E+03  0.82788466356E+03  0.46999998093E+01 0. -1.
</event>
<event>
 5   0  0.3184492E-06  0.2302083E+04  0.7818609E-02  0.8477100E-01
       -1   -1    0    0    0  501  0.00000000000E+00  0.00000000000E+00  0.93584492043E+03  0.93584492045E+03  0.50400001928E-02 0.  1.
        1   -1    0    0  501    0  0.00000000000E+00  0.00000000000E+00 -0.14157223639E+04  0.14157223639E+04  0.50400001928E-02 0. -1.
    10030    2    1    2    0    0  0.00000000000E+00  0.00000000000E+00 -0.47987744342E+03  0.23515672843E+04  0.23020830419E+04 0.  0.
        1    1    3    3  502    0  0.81883898966E+03 -0.72507431354E+03  0.12647288417E+03  0.11010110997E+04  0.50400001928E-02 0.  1.
       -1    1    3    3    0  502 -0.81883898966E+03  0.72507431354E+03 -0.60635032760E+03  0.12505561846E+04  0.50400001928E-02 0. -1.
</event>
<event>
 5   0  0.7348107E-06  0.2298033E+04  0.7818609E-02  0.8478697E-01
        2   -1    0    0  501    0  0.00000000000E+00  0.00000000000E+00  0.12864491645E+04  0.12864491645E+04  0.25500000920E-02 0. -1.
       -2   -1    0    0    0  501  0.00000000000E+00  0.00000000000E+00 -0.10262660318E+04  0.10262660318E+04  0.25500000920E-02 0.  1.
    10030    2    1    2    0    0  0.00000000000E+00  0.00000000000E+00  0.26018313274E+03  0.23127151962E+04  0.22980331408E+04 0.  0.
        3    1    3    3  502    0  0.89587031149E+03 -0.25108647568E+03  0.80864781397E+03  0.12326959603E+04  0.10100000352E+00 0. -1.
       -3    1    3    3    0  502 -0.89587031149E+03  0.25108647568E+03 -0.54846468123E+03  0.10800192360E+04  0.10100000352E+00 0.  1.
</event>
<event>
 5   0  0.7044981E-06  0.2301622E+04  0.7818609E-02  0.8477282E-01
       -2   -1    0    0    0  501  0.00000000000E+00  0.00000000000E+00  0.18660165145E+04  0.18660165145E+04  0.25500000920E-02 0.  1.
        2   -1    0    0  501    0  0.00000000000E+00  0.00000000000E+00 -0.70972900310E+03  0.70972900311E+03  0.25500000920E-02 0. -1.
    10030    2    1    2    0    0  0.00000000000E+00  0.00000000000E+00  0.11562875114E+04  0.25757455176E+04  0.23016220720E+04 0.  0.
        4    1    3    3  502    0  0.20749021183E+03 -0.97370147693E+03  0.12241444027E+04  0.15778713147E+04  0.12699999809E+01 0.  1.
       -4    1    3    3    0  502 -0.20749021183E+03  0.97370147693E+03 -0.67856891337E+02  0.99787420289E+03  0.12699999809E+01 0. -1.
</event>
<event>
 5   0  0.7348107E-06  0.2297127E+04  0.7818609E-02  0.8479055E-01
        2   -1    0    0  501    0  0.00000000000E+00  0.00000000000E+00  0.91885724864E+03  0.91885724864E+03  0.25500000920E-02 0.  1.
       -2   -1    0    0    0  501  0.00000000000E+00  0.00000000000E+00 -0.14356936959E+04  0.14356936959E+04  0.25500000920E-02 0. -1.
    10030    2    1    2    0    0  0.00000000000E+00  0.00000000000E+00 -0.51683644728E+03  0.23545509446E+04  0.22971265175E+04 0.  0.
        3    1    3    3  502    0  0.38446569252E+03 -0.10749012699E+04 -0.38795360856E+03  0.12057091778E+04  0.10100000352E+00 0. -1.
       -3    1    3    3    0  502 -0.38446569252E+03  0.10749012699E+04 -0.12888283871E+03  0.11488417668E+04  0.10100000352E+00 0.  1.
</event>
<event>
 5   0  0.3195296E-06  0.2317666E+04  0.7818609E-02  0.8470988E-01
       -1   -1    0    0    0  501  0.00000000000E+00  0.00000000000E+00  0.50489323807E+03  0.50489323809E+03  0.50400001928E-02 0. -1.
        1   -1    0    0  501    0  0.00000000000E+00  0.00000000000E+00 -0.26597590506E+04  0.26597590506E+04  0.50400001928E-02 0.  1.
    10030    2    1    2    0    0  0.00000000000E+00  0.00000000000E+00 -0.21548658125E+04  0.31646522887E+04  0.23176663777E+04 0.  0.
        2    1    3    3  502    0  0.25046294083E+03 -0.34361082823E+03 -0.25493920631E+04  0.25846082831E+04  0.25500000920E-02 0.  1.
       -2    1    3    3    0  502 -0.25046294083E+03  0.34361082823E+03  0.39452625054E+03  0.58004400555E+03  0.25500000920E-02 0. -1.
</event>
<event>
 5   0  0.7044981E-06  0.2306483E+04  0.7818609E-02  0.8475369E-01
       -2   -1    0    0    0  501  0.00000000000E+00  0.00000000000E+00  0.64496664089E+03  0.64496664089E+03  0.25500000920E-02 0. -1.
        2   -1    0    0  501    0  0.00000000000E+00  0.00000000000E+00 -0.20620697329E+04  0.20620697329E+04  0.25500000920E-02 0.  1.
    10030    2    1    2    0    0  0.00000000000E+00  0.00000000000E+00 -0.14171030920E+04  0.27070363738E+04  0.23064832008E+04 0.  0.
        4    1    3    3  502    0 -0.22753231666E+03  0.94385896717E+03  0.21882364748E+02  0.97114425078E+03  0.12699999809E+01 0.  1.
       -4    1    3    3    0  502  0.22753231666E+03 -0.94385896717E+03 -0.14389854567E+04  0.17358921230E+04  0.12699999809E+01 0. -1.
</event>
<event>
 5   0  0.3338758E-06  0.2298602E+04  0.7818609E-02  0.8478472E-01
        1   -1    0    0  501    0  0.00000000000E+00  0.00000000000E+00  0.16509391978E+04  0.16509391978E+04  0.50400001928E-02 0.  1.
       -1   -1    0    0    0  501  0.00000000000E+00  0.00000000000E+00 -0.80008577813E+03  0.80008577814E+03  0.50400001928E-02 0. -1.
    10030    2    1    2    0    0  0.00000000000E+00  0.00000000000E+00  0.85085341970E+03  0.24510249760E+04  0.22986021602E+04 0.  0.
        5    1    3    3  502    0  0.27510227581E+03 -0.86610464555E+03  0.11756827411E+04  0.14859577777E+04  0.46999998093E+01 0.  1.
       -5    1    3    3    0  502 -0.27510227581E+03  0.86610464555E+03 -0.32482932143E+03  0.96506719832E+03  0.46999998093E+01 0. -1.
</event>
<event>
 5   0  0.2519625E-06  0.2300115E+04  0.7818609E-02  0.8477876E-01
        4   -1    0    0  501    0  0.00000000000E+00  0.00000000000E+00  0.16256902776E+04  0.16256907737E+04  0.12699999809E+01 0.  1.
       -4   -1    0    0    0  501  0.00000000000E+00  0.00000000000E+00 -0.81358053617E+03  0.81358152741E+03  0.12699999809E+01 0. -1.
    10030    2    1    2    0    0  0.00000000000E+00  0.00000000000E+00  0.81210974143E+03  0.24392723011E+04  0.23001145899E+04 0.  0.
        5    1    3    3  502    0 -0.44430119093E+02  0.55979174107E+03 -0.65829280470E+03  0.86528165101E+03  0.46999998093E+01 0. -1.
       -5    1    3    3    0  502  0.44430119093E+02 -0.55979174107E+03  0.14704025461E+04  0.15739906501E+04  0.46999998093E+01 0.  1.
</event>
<event>
 5   0  0.3195296E-06  0.2298159E+04  0.7818609E-02  0.8478647E-01
       -1   -1    0    0    0  501  0.00000000000E+00  0.00000000000E+00  0.61411199312E+03  0.61411199314E+03  0.50400001928E-02 0. -1.
        1   -1    0    0  501    0  0.00000000000E+00  0.00000000000E+00 -0.21500705375E+04  0.21500705375E+04  0.50400001928E-02 0.  1.
    10030    2    1    2    0    0  0.00000000000E+00  0.00000000000E+00 -0.15359585444E+04  0.27641825307E+04  0.22981593532E+04 0.  0.
        2    1    3    3  502    0  0.21989277620E+03  0.52899349353E+03  0.43010003506E+03  0.71636093514E+03  0.25500000920E-02 0. -1.
       -2    1    3    3    0  502 -0.21989277620E+03 -0.52899349353E+03 -0.19660585795E+04  0.20478215955E+04  0.25500000920E-02 0.  1.
</event>
<event>
 5   0  0.3238713E-06  0.2297056E+04  0.7818609E-02  0.8479083E-01
       -1   -1    0    0    0  501  0.00000000000E+00  0.00000000000E+00  0.12872987136E+04  0.12872987136E+04  0.50400001928E-02 0. -1.
        1   -1    0    0  501    0  0.00000000000E+00  0.00000000000E+00 -0.10247166224E+04  0.10247166225E+04  0.50400001928E-02 0.  1.
    10030    2    1    2    0    0  0.00000000000E+00  0.00000000000E+00  0.26258209120E+03  0.23120153361E+04  0.22970558460E+04 0.  0.
        3    1    3    3  502    0  0.26101948473E+03  0.91640189556E+03 -0.51412817380E+03  0.10827055901E+04  0.10100000352E+00 0.  1.
       -3    1    3    3    0  502 -0.26101948473E+03 -0.91640189556E+03  0.77671026500E+03  0.12293097460E+04  0.10100000352E+00 0. -1.
</event>
<event>
 5   0  0.3338758E-06  0.2294424E+04  0.7818609E-02  0.8480123E-01
        1   -1    0    0  501    0  0.00000000000E+00  0.00000000000E+00  0.92299179891E+03  0.92299179892E+03  0.50400001928E-02 0.  1.
       -1   -1    0    0    0  501  0.00000000000E+00  0.00000000000E+00 -0.14259017693E+04  0.14259017693E+04  0.50400001928E-02 0. -1.
    10030    2    1    2    0    0  0.00000000000E+00  0.00000000000E+00 -0.50290997038E+03  0.23488935682E+04  0.22944242320E+04 0.  0.
        5    1    3    3  502    0 -0.69143622450E+02  0.55555890181E+03 -0.12765488887E+04  0.13939245636E+04  0.46999998093E+01 0. -1.
       -5    1    3    3    0  502  0.69143622450E+02 -0.55555890181E+03  0.77363891828E+03  0.95496900462E+03  0.46999998093E+01 0.  1.
</event>
<event>
 5   0  0.7497344E-06  0.2304522E+04  0.7818609E-02  0.8476140E-01
        2   -1    0    0  501    0  0.00000000000E+00  0.00000000000E+00  0.21281095656E+04  0.21281095656E+04  0.25500000920E-02 0. -1.
       -2   -1    0    0    0  501  0.00000000000E+00  0.00000000000E+00 -0.62388964573E+03  0.62388964574E+03  0.25500000920E-02 0.  1.
    10030    2    1    2    0    0  0.00000000000E+00  0.00000000000E+00  0.15042199199E+04  0.27519992113E+04  0.23045220962E+04 0.  0.
        5    1    3    3  502    0 -0.20865802825E+03 -0.32459343631E+03 -0.54442613341E+03  0.66732374181E+03  0.46999998093E+01 0.  1.
       -5    1    3    3    0  502  0.20865802825E+03  0.32459343631E+03  0.20486460533E+04  0.20846754695E+04  0.46999998093E+01 0. -1.
</event>
<event>
 5   0  0.3184492E-06  0.2297280E+04  0.7818609E-02  0.8478994E-01
        1   -1    0    0  501    0  0.00000000000E+00  0.00000000000E+00  0.20335107583E+04  0.20335107583E+04  0.50400001928E-02 0.  1.
       -1   -1    0    0    0  501  0.00000000000E+00  0.00000000000E+00 -0.64881564730E+03  0.64881564732E+03  0.50400001928E-02 0. -1.
    10030    2    1    2    0    0  0.00000000000E+00  0.00000000000E+00  0.13846951110E+04  0.26823264057E+04  0.22972797818E+04 0.  0.
        1    1    3    3  502    0  0.25952968735E+03 -0.10876210167E+04  0.38542279017E+03  0.11827196886E+04  0.50400001928E-02 0. -1.
       -1    1    3    3    0  502 -0.25952968735E+03  0.10876210167E+04  0.99927232086E+03  0.14996067171E+04  0.50400001928E-02 0.  1.
</event>
<event>
 5   0  0.3338758E-06  0.2302430E+04  0.7818609E-02  0.8476964E-01
        1   -1    0    0  501    0  0.00000000000E+00  0.00000000000E+00  0.90539615458E+03  0.90539615460E+03  0.50400001928E-02 0. -1.
       -1   -1    0    0    0  501  0.00000000000E+00  0.00000000000E+00 -0.14637741709E+04  0.14637741709E+04  0.50400001928E-02 0.  1.
    10030    2    1    2    0    0  0.00000000000E+00  0.00000000000E+00 -0.55837801636E+03  0.23691703255E+04  0.23024295912E+04 0.  0.
        5    1    3    3  502    0 -0.26841673383E+03 -0.10309505071E+04  0.16976894862E+03  0.10787724862E+04  0.46999998093E+01 0. -1.
       -5    1    3    3    0  502  0.26841673383E+03  0.10309505071E+04 -0.72814696498E+03  0.12903978393E+04  0.46999998093E+01 0.  1.
</event>
<event>
 5   0  0.3226427E-06  0.2319037E+04  0.7818609E-02  0.8470453E-01
        1   -1    0    0  501    0  0.00000000000E+00  0.00000000000E+00  0.13218893164E+04  0.13218893165E+04  0.50400001928E-02 0.  1.
       -1   -1    0    0    0  501  0.00000000000E+00  0.00000000000E+00 -0.10170924071E+04  0.10170924072E+04  0.50400001928E-02 0. -1.
    10030    2    1    2    0    0  0.00000000000E+00  0.00000000000E+00  0.30479690930E+03  0.23389817236E+04  0.23190373752E+04 0.  0.
        4    1    3    3  502    0  0.79488237927E+03 -0.12604381888E+03  0.99429694272E+03  0.12792001659E+04  0.12699999809E+01 0.  1.
       -4    1    3    3    0  502 -0.79488237927E+03  0.12604381888E+03 -0.68950003342E+03  0.10597815577E+04  0.12699999809E+01 0. -1.
</event>
<event>
 5   0  0.3195296E-06  0.2300051E+04  0.7818609E-02  0.8477901E-01
       -1   -1    0    0    0  501  0.00000000000E+00  0.00000000000E+00  0.10116709038E+04  0.10116709039E+04  0.50400001928E-02 0.  1.
        1   -1    0    0  501    0  0.00000000000E+00  0.00000000000E+00 -0.13073012845E+04  0.13073012845E+04  0.50400001928E-02 0. -1.
    10030    2    1    2    0    0  0.00000000000E+00  0.00000000000E+00 -0.29563038067E+03  0.23189721884E+04  0.23000510187E+04 0.  0.
        2    1    3    3  502    0  0.10005377500E+04  0.56398770207E+03 -0.20661091296E+03  0.11669815708E+04  0.25500000920E-02 0.  1.
       -2    1    3    3    0  502 -0.10005377500E+04 -0.56398770207E+03 -0.89019467710E+02  0.11519906176E+04  0.25500000920E-02 0. -1.
</event>
<event>
 5   0  0.7003852E-06  0.2303136E+04  0.7818609E-02  0.8476686E-01
        2   -1    0    0  501    0  0.00000000000E+00  0.00000000000E+00  0.20553959903E+04  0.20553959903E+04  0.25500000920E-02 0. -1.
       -2   -1    0    0    0  501  0.00000000000E+00  0.00000000000E+00 -0.64518403218E+03  0.64518403218E+03  0.25500000920E-02 0.  1.
    10030    2    1    2    0    0  0.00000000000E+00  0.00000000000E+00  0.14102119581E+04  0.27005800225E+04  0.23031358386E+04 0.  0.
        2    1    3    3  502    0  0.92060507889E+03 -0.20211351139E+03 -0.70691098074E+02  0.94517766273E+03  0.25500000920E-02 0.  1.
       -2    1    3    3    0  502 -0.92060507889E+03  0.20211351139E+03  0.14809030562E+04  0.17554023597E+04  0.25500000920E-02 0. -1.
</event>
<event>
 5   0  0.7348107E-06  0.2303848E+04  0.7818609E-02  0.8476405E-01
        2   -1    0    0  501    0  0.00000000000E+00  0.00000000000E+00  0.21399241374E+04  0.21399241374E+04  0.25500000920E-02 0. -1.
       -2   -1    0    0    0  501  0.00000000000E+00  0.00000000000E+00 -0.62008228064E+03  0.62008228065E+03  0.25500000920E-02 0.  1.
    10030    2    1    2    0    0  0.00000000000E+00  0.00000000000E+00  0.15198418568E+04  0.27600064181E+04  0.23038481196E+04 0.  0.
        3    1    3    3  502    0  0.10189625210E+04  0.22056148067E+03  0.17302757276E+03  0.10568209579E+04  0.10100000352E+00 0.  1.
       -3    1    3    3    0  502 -0.10189625210E+04 -0.22056148067E+03  0.13468142840E+04  0.17031854602E+04  0.10100000352E+00 0. -1.
</event>
<event>
 5   0  0.7044981E-06  0.2298063E+04  0.7818609E-02  0.8478685E-01
        2   -1    0    0  501    0  0.00000000000E+00  0.00000000000E+00  0.10369451640E+04  0.10369451640E+04  0.25500000920E-02 0.  1.
       -2   -1    0    0    0  501  0.00000000000E+00  0.00000000000E+00 -0.12732333818E+04  0.12732333818E+04  0.25500000920E-02 0. -1.
    10030    2    1    2    0    0  0.00000000000E+00  0.00000000000E+00 -0.23628821780E+03  0.23101785458E+04  0.22980628346E+04 0.  0.
        4    1    3    3  502    0  0.45203487313E+03  0.76525905350E+03 -0.85021047676E+03  0.12299660211E+04  0.12699999809E+01 0. -1.
       -4    1    3    3    0  502 -0.45203487313E+03 -0.76525905350E+03  0.61392225896E+03  0.10802125247E+04  0.12699999809E+01 0.  1.
</event>
<event>
 5   0  0.3338758E-06  0.2303906E+04  0.7818609E-02  0.8476383E-01
        1   -1    0    0  501    0  0.00000000000E+00  0.00000000000E+00  0.24826889869E+04  0.24826889869E+04  0.50400001928E-02 0.  1.
       -1   -1    0    0    0  501  0.00000000000E+00  0.00000000000E+00 -0.53449941657E+03  0.53449941659E+03  0.50400001928E-02 0. -1.
    10030    2    1    2    0    0  0.00000000000E+00  0.00000000000E+00  0.19481895704E+04  0.30171884035E+04  0.23039060876E+04 0.  0.
        5    1    3    3  502    0 -0.20339325782E+03  0.42902665898E+03 -0.40038386220E+03  0.62109743080E+03  0.46999998093E+01 0. -1.
       -5    1    3    3    0  502  0.20339325782E+03 -0.42902665898E+03  0.23485734326E+04  0.23960909727E+04  0.46999998093E+01 0.  1.
</event>
<event>
 5   0  0.7044981E-06  0.2315338E+04  0.7818609E-02  0.8471898E-01
       -2   -1    0    0    0  501  0.00000000000E+00  0.00000000000E+00  0.90188020122E+03  0.90188020122E+03  0.25500000920E-02 0. -1.
        2   -1    0    0  501    0  0.00000000000E+00  0.00000000000E+00 -0.14860040104E+04  0.14860040104E+04  0.25500000920E-02 0.  1.
    10030    2    1    2    0    0  0.00000000000E+00  0.00000000000E+00 -0.58412380914E+03  0.23878842116E+04  0.23153380711E+04 0.  0.
        4    1    3    3  502    0 -0.20518530188E+03 -0.58675479691E+03 -0.12992965326E+04  0.14403316605E+04  0.12699999809E+01 0.  1.
       -4    1    3    3    0  502  0.20518530188E+03  0.58675479691E+03  0.71517272343E+03  0.94755255107E+03  0.12699999809E+01 0. -1.
</event>
<event>
 5   0  0.7497344E-06  0.2301936E+04  0.7818609E-02  0.8477158E-01
        2   -1    0    0  501    0  0.00000000000E+00  0.00000000000E+00  0.15056579755E+04  0.15056579755E+04  0.25500000920E-02 0. -1.
       -2   -1    0    0    0  501  0.00000000000E+00  0.00000000000E+00 -0.87983300180E+03  0.87983300181E+03  0.25500000920E-02 0.  1.
    10030    2    1    2    0    0  0.00000000000E+00  0.00000000000E+00  0.62582497365E+03  0.23854909773E+04  0.23019362078E+04 0.  0.
        5    1    3    3  502    0 -0.10929550812E+04  0.31279120282E+03  0.49920507620E+03  0.12416186791E+04  0.46999998093E+01 0. -1.
       -5    1    3    3    0  502  0.10929550812E+04 -0.31279120282E+03  0.12661989745E+03  0.11438722982E+04  0.46999998093E+01 0.  1.
</event>
<event>
 5   0  0.3226427E-06  0.2292266E+04  0.7818609E-02  0.8480977E-01
       -1   -1    0    0    0  501  0.00000000000E+00  0.00000000000E+00  0.77215940447E+03  0.77215940448E+03  0.50400001928E-02 0.  1.
        1   -1    0    0  501    0  0.00000000000E+00  0.00000000000E+00 -0.17012308038E+04  0.17012308038E+04  0.50400001928E-02 0. -1.
    10030    2    1    2    0    0  0.00000000000E+00  0.00000000000E+00 -0.92907139936E+03  0.24733902083E+04  0.22922664456E+04 0.  0.
        4    1    3    3  502    0 -0.44438104343E+03  0.66630450672E+03 -0.13491856919E+04  0.15689932605E+04  0.12699999809E+01 0. -1.
       -4    1    3    3    0  502  0.44438104343E+03 -0.66630450672E+03  0.42011429256E+03  0.90439694778E+03  0.12699999809E+01 0.  1.
</event>
<event>
 5   0  0.3195296E-06  0.2298975E+04  0.7818609E-02  0.8478325E-01
       -1   -1    0    0    0  501  0.00000000000E+00  0.00000000000E+00  0.98826082317E+03  0.98826082318E+03  0.50400001928E-02 0. -1.
        1   -1    0    0  501    0  0.00000000000E+00  0.00000000000E+00 -0.13370167545E+04  0.13370167545E+04  0.50400001928E-02 0.  1.
    10030    2    1    2    0    0  0.00000000000E+00  0.00000000000E+00 -0.34875593133E+03  0.23252775777E+04  0.22989747962E+04 0.  0.
        2    1    3    3  502    0  0.60554515982E+03  0.96642869630E+03 -0.29026058348E+02  0.11408382347E+04  0.25500000920E-02 0.  1.
       -2    1    3    3    0  502 -0.60554515982E+03 -0.96642869630E+03 -0.31972987298E+03  0.11844393430E+04  0.25500000920E-02 0. -1.
</event>
<event>
 5   0  0.3195296E-06  0.2292286E+04  0.7818609E-02  0.8480969E-01
       -1   -1    0    0    0  501  0.00000000000E+00  0.00000000000E+00  0.98060820448E+03  0.98060820449E+03  0.50400001928E-02 0.  1.
        1   -1    0    0  501    0  0.00000000000E+00  0.00000000000E+00 -0.13396209221E+04  0.13396209221E+04  0.50400001928E-02 0. -1.
    10030    2    1    2    0    0  0.00000000000E+00  0.00000000000E+00 -0.35901271761E+03  0.23202291266E+04  0.22922855556E+04 0.  0.
        2    1    3    3  502    0  0.63067563333E+03 -0.49070344685E+03 -0.10111681284E+04  0.12887989025E+04  0.25500000920E-02 0. -1.
       -2    1    3    3    0  502 -0.63067563333E+03  0.49070344685E+03  0.65215541082E+03  0.10314302241E+04  0.25500000920E-02 0.  1.
</event>
<event>
 5   0  0.3338758E-06  0.2301209E+04  0.7818609E-02  0.8477445E-01
       -1   -1    0    0    0  501  0.00000000000E+00  0.00000000000E+00  0.79918910355E+03  0.79918910357E+03  0.50400001928E-02 0.  1.
        1   -1    0    0  501    0  0.00000000000E+00  0.00000000000E+00 -0.16565420856E+04  0.16565420856E+04  0.50400001928E-02 0. -1.
    10030    2    1    2    0    0  0.00000000000E+00  0.00000000000E+00 -0.85735298206E+03  0.24557311892E+04  0.23012087123E+04 0.  0.
        5    1    3    3  502    0  0.96871562790E+03 -0.57779618248E+03 -0.18624372440E+03  0.11432266665E+04  0.46999998093E+01 0. -1.
       -5    1    3    3    0  502 -0.96871562790E+03  0.57779618248E+03 -0.67110925766E+03  0.13125045226E+04  0.46999998093E+01 0.  1.
</event>
<event>
 5   0  0.3195296E-06  0.2297590E+04  0.7818609E-02  0.8478872E-01
        1   -1    0    0  501    0  0.00000000000E+00  0.00000000000E+00  0.21029098701E+04  0.21029098701E+04  0.50400001928E-02 0. -1.
       -1   -1    0    0    0  501  0.00000000000E+00  0.00000000000E+00 -0.62757338941E+03  0.62757338943E+03  0.50400001928E-02 0.  1.
    10030    2    1    2    0    0  0.00000000000E+00  0.00000000000E+00  0.14753364807E+04  0.27304832595E+04  0.22975902810E+04 0.  0.
        2    1    3    3  502    0  0.38260568314E+03  0.10460835862E+04  0.10718049399E+04  0.15457825873E+04  0.25500000920E-02 0. -1.
       -2    1    3    3    0  502 -0.38260568314E+03 -0.10460835862E+04  0.40353154078E+03  0.11847006722E+04  0.25500000920E-02 0.  1.
</event>
<event>
 5   0  0.7003852E-06  0.2302622E+04  0.7818609E-02  0.8476888E-01
        2   -1    0    0  501    0  0.00000000000E+00  0.00000000000E+00  0.94989233996E+03  0.94989233996E+03  0.25500000920E-02 0.  1.
       -2   -1    0    0    0  501  0.00000000000E+00  0.00000000000E+00 -0.13954397426E+04  0.13954397426E+04  0.25500000920E-02 0. -1.
    10030    2    1    2    0    0  0.00000000000E+00  0.00000000000E+00 -0.44554740267E+03  0.23453320826E+04  0.23026224375E+04 0.  0.
        2    1    3    3  502    0  0.10878580719E+04  0.96984313188E+02 -0.59377755466E+03  0.12431463816E+04  0.25500000920E-02 0.  1.
       -2    1    3    3    0  502 -0.10878580719E+04 -0.96984313188E+02  0.14823015199E+03  0.11021857010E+04  0.25500000920E-02 0. -1.
</event>
<event>
 5   0  0.7003852E-06  0.2281556E+04  0.7818609E-02  0.8485229E-01
       -2   -1    0    0    0  501  0.00000000000E+00  0.00000000000E+00  0.14708960355E+04  0.14708960355E+04  0.25500000920E-02 0. -1.
        2   -1    0    0  501    0  0.00000000000E+00  0.00000000000E+00 -0.88474941980E+03  0.88474941981E+03  0.25500000920E-02 0.  1.
    10030    2    1    2    0    0  0.00000000000E+00  0.00000000000E+00  0.58614661573E+03  0.23556454553E+04  0.22815559726E+04 0.  0.
        2    1    3    3  502    0 -0.39995578321E+03 -0.13449050419E+03 -0.80121295670E+03  0.90553549142E+03  0.25500000920E-02 0.  1.
       -2    1    3    3    0  502  0.39995578321E+03  0.13449050419E+03  0.13873595724E+04  0.14501099639E+04  0.25500000920E-02 0. -1.
</event>
<event>
 5   0  0.7348107E-06  0.2299933E+04  0.7818609E-02  0.8477947E-01
        2   -1    0    0  501    0  0.00000000000E+00  0.00000000000E+00  0.13195677128E+04  0.13195677128E+04  0.25500000920E-02 0.  1.
       -2   -1    0    0    0  501  0.00000000000E+00  0.00000000000E+00 -0.10021641404E+04  0.10021641404E+04  0.25500000920E-02 0. -1.
    10030    2    1    2    0    0  0.00000000000E+00  0.00000000000E+00  0.31740357240E+03  0.23217318532E+04  0.22999334274E+04 0.  0.
        3    1    3    3  502    0 -0.44279130724E+03  0.60297079474E+02  0.12283308898E+04  0.13070947420E+04  0.10100000352E+00 0.  1.
       -3    1    3    3    0  502  0.44279130724E+03 -0.60297079474E+02 -0.91092731742E+03  0.10146371112E+04  0.10100000352E+00 0. -1.
</event>
<event>
 5   0  0.3184492E-06  0.2294220E+04  0.7818609E-02  0.8480204E-01
       -1   -1    0    0    0  501  0.00000000000E+00  0.00000000000E+00  0.98465677919E+03  0.98465677920E+03  0.50400001928E-02 0. -1.
        1   -1    0    0  501    0  0.00000000000E+00  0.00000000000E+00 -0.13363653340E+04  0.13363653340E+04  0.50400001928E-02 0.  1.
    10030    2    1    2    0    0  0.00000000000E+00  0.00000000000E+00 -0.35170855483E+03  0.23210221132E+04  0.22942198549E+04 0.  0.
        1    1    3    3  502    0 -0.34410298197E+03  0.19884721421E+03  0.91278103372E+03  0.99554823707E+03  0.50400001928E-02 0. -1.
       -1    1    3    3    0  502  0.34410298197E+03 -0.19884721421E+03 -0.12644895885E+04  0.13254738762E+04  0.50400001928E-02 0.  1.
</event>
<event>
 5   0  0.3195296E-06  0.2295455E+04  0.7818609E-02  0.8479715E-01
        1   -1    0    0  501    0  0.00000000000E+00  0.00000000000E+00  0.17941952299E+04  0.17941952299E+04  0.50400001928E-02 0. -1.
       -1   -1    0    0    0  501  0.00000000000E+00  0.00000000000E+00 -0.73418892955E+03  0.73418892957E+03  0.50400001928E-02 0.  1.
    10030    2    1    2    0    0  0.00000000000E+00  0.00000000000E+00  0.10600063003E+04  0.25283841595E+04  0.22954548789E+04 0.  0.
        2    1    3    3  502    0  0.98921557577E+01 -0.72159291126E+03  0.15130242804E+04  0.16763163954E+04  0.25500000920E-02 0. -1.
       -2    1    3    3    0  502 -0.98921557577E+01  0.72159291126E+03 -0.45301798006E+03  0.85206776408E+03  0.25500000920E-02 0.  1.
</event>
<event>
 5   0  0.3195296E-06  0.2303024E+04  0.7818609E-02  0.8476730E-01
        1   -1    0    0  501    0  0.00000000000E+00  0.00000000000E+00  0.16730249152E+04  0.16730249152E+04  0.50400001928E-02 0.  1.
       -1   -1    0    0    0  501  0.00000000000E+00  0.00000000000E+00 -0.79256407437E+03  0.79256407439E+03  0.50400001928E-02 0. -1.
    10030    2    1    2    0    0  0.00000000000E+00  0.00000000000E+00  0.88046084084E+03  0.24655889896E+04  0.23030236155E+04 0.  0.
        2    1    3    3  502    0  0.48777249706E+03  0.23904774736E+03 -0.64677929834E+03  0.84462375953E+03  0.25500000920E-02 0. -1.
       -2    1    3    3    0  502 -0.48777249706E+03 -0.23904774736E+03  0.15272401392E+04  0.16209652301E+04  0.25500000920E-02 0.  1.
</event>
<event>
 5   0  0.7348107E-06  0.2373042E+04  0.7818609E-02  0.8449666E-01
        2   -1    0    0  501    0  0.00000000000E+00  0.00000000000E+00  0.14203942499E+04  0.14203942499E+04  0.25500000920E-02 0. -1.
       -2   -1    0    0    0  501  0.00000000000E+00  0.00000000000E+00 -0.99115602196E+03  0.99115602197E+03  0.25500000920E-02 0.  1.
    10030    2    1    2    0    0  0.00000000000E+00  0.00000000000E+00  0.42923822793E+03  0.24115502719E+04  0.23730421946E+04 0.  0.
        3    1    3    3  502    0 -0.78682313995E+03  0.79490919487E+03 -0.18786466336E+03  0.11341359811E+04  0.10100000352E+00 0.  1.
       -3    1    3    3    0  502  0.78682313995E+03 -0.79490919487E+03  0.61710289129E+03  0.12774142908E+04  0.10100000352E+00 0. -1.
</event>
<event>
 5   0  0.7003852E-06  0.2297456E+04  0.7818609E-02  0.8478925E-01
       -2   -1    0    0    0  501  0.00000000000E+00  0.00000000000E+00  0.75110596515E+03  0.75110596515E+03  0.25500000920E-02 0.  1.
        2   -1    0    0  501    0  0.00000000000E+00  0.00000000000E+00 -0.17568440155E+04  0.17568440155E+04  0.25500000920E-02 0. -1.
    10030    2    1    2    0    0  0.00000000000E+00  0.00000000000E+00 -0.10057380503E+04  0.25079499806E+04  0.22974560016E+04 0.  0.
        2    1    3    3  502    0 -0.13026662721E+03  0.52969632385E+02  0.74167445730E+03  0.75488818823E+03  0.25500000920E-02 0.  1.
       -2    1    3    3    0  502  0.13026662721E+03 -0.52969632385E+02 -0.17474125076E+04  0.17530617924E+04  0.25500000920E-02 0. -1.
</event>
<event>
 5   0  0.7003852E-06  0.2303671E+04  0.7818609E-02  0.8476475E-01
       -2   -1    0    0    0  501  0.00000000000E+00  0.00000000000E+00  0.71756460154E+03  0.71756460154E+03  0.25500000920E-02 0.  1.
        2   -1    0    0  501    0  0.00000000000E+00  0.00000000000E+00 -0.18489283354E+04  0.18489283354E+04  0.25500000920E-02 0. -1.
    10030    2    1    2    0    0  0.00000000000E+00  0.00000000000E+00 -0.11313637339E+04  0.25664929369E+04  0.23036714386E+04 0.  0.
        2    1    3    3  502    0  0.14915524548E+03 -0.39328683213E+03 -0.17603062847E+04  0.18098618830E+04  0.25500000920E-02 0. -1.
       -2    1    3    3    0  502 -0.14915524548E+03  0.39328683213E+03  0.62894255081E+03  0.75663105396E+03  0.25500000920E-02 0.  1.
</event>
<event>
 5   0  0.3226427E-06  0.2298896E+04  0.7818609E-02  0.8478357E-01
        1   -1    0    0  501    0  0.00000000000E+00  0.00000000000E+00  0.21130540517E+04  0.21130540517E+04  0.50400001928E-02 0. -1.
       -1   -1    0    0    0  501  0.00000000000E+00  0.00000000000E+00 -0.62527065439E+03  0.62527065441E+03  0.50400001928E-02 0.  1.
    10030    2    1    2    0    0  0.00000000000E+00  0.00000000000E+00  0.14877833973E+04  0.27383247061E+04  0.22988959870E+04 0.  0.
        4    1    3    3  502    0  0.77705994773E+03  0.50967458017E+03  0.15496912323E+04  0.18069684193E+04  0.12699999809E+01 0.  1.
       -4    1    3    3    0  502 -0.77705994773E+03 -0.50967458017E+03 -0.61907834983E+02  0.93135628680E+03  0.12699999809E+01 0. -1.
</event>
<event>
 5   0  0.2519625E-06  0.2300667E+04  0.7818609E-02  0.8477658E-01
        3   -1    0    0  501    0  0.00000000000E+00  0.00000000000E+00  0.12244364608E+04  0.12244364650E+04  0.10100000352E+00 0.  1.
       -3   -1    0    0    0  501  0.00000000000E+00  0.00000000000E+00 -0.10807156605E+04  0.10807156652E+04  0.10100000352E+00 0. -1.
    10030    2    1    2    0    0  0.00000000000E+00  0.00000000000E+00  0.14372080028E+03  0.23051521302E+04  0.23006674412E+04 0.  0.
        3    1    3    3  502    0  0.91799631936E+03  0.26117127794E+03 -0.57152835830E+03  0.11124622930E+04  0.10100000352E+00 0. -1.
       -3    1    3    3    0  502 -0.91799631936E+03 -0.26117127794E+03  0.71524915859E+03  0.11926898372E+04  0.10100000352E+00 0.  1.
</event>
<event>
 5   0  0.7242214E-06  0.2300561E+04  0.7818609E-02  0.8477700E-01
       -2   -1    0    0    0  501  0.00000000000E+00  0.00000000000E+00  0.96005295976E+03  0.96005295976E+03  0.25500000920E-02 0. -1.
        2   -1    0    0  501    0  0.00000000000E+00  0.00000000000E+00 -0.13782007813E+04  0.13782007813E+04  0.25500000920E-02 0.  1.
    10030    2    1    2    0    0  0.00000000000E+00  0.00000000000E+00 -0.41814782150E+03  0.23382537410E+04  0.23005614438E+04 0.  0.
        1    1    3    3  502    0 -0.10745136276E+04  0.21998669591E+03  0.14326414084E+03  0.11061185724E+04  0.50400001928E-02 0. -1.
       -1    1    3    3    0  502  0.10745136276E+04 -0.21998669591E+03 -0.56141196235E+03  0.12321351686E+04  0.50400001928E-02 0.  1.
</event>
<event>
 5   0  0.7348107E-06  0.2297289E+04  0.7818609E-02  0.8478991E-01
        2   -1    0    0  501    0  0.00000000000E+00  0.00000000000E+00  0.84223397037E+03  0.84223397037E+03  0.25500000920E-02 0.  1.
       -2   -1    0    0    0  501  0.00000000000E+00  0.00000000000E+00 -0.15665291449E+04  0.15665291449E+04  0.25500000920E-02 0. -1.
    10030    2    1    2    0    0  0.00000000000E+00  0.00000000000E+00 -0.72429517449E+03  0.24087631152E+04  0.22972888903E+04 0.  0.
        3    1    3    3  502    0 -0.49434522779E+02 -0.24087534558E+03  0.81431313947E+03  0.85062953362E+03  0.10100000352E+00 0.  1.
       -3    1    3    3    0  502  0.49434522779E+02  0.24087534558E+03 -0.15386083140E+04  0.15581335816E+04  0.10100000352E+00 0. -1.
</event>
<event>
 5   0  0.3195296E-06  0.2297649E+04  0.7818609E-02  0.8478848E-01
        1   -1    0    0  501    0  0.00000000000E+00  0.00000000000E+00  0.17987672044E+04  0.17987672044E+04  0.50400001928E-02 0.  1.
       -1   -1    0    0    0  501  0.00000000000E+00  0.00000000000E+00 -0.73372377614E+03  0.73372377615E+03  0.50400001928E-02 0. -1.
    10030    2    1    2    0    0  0.00000000000E+00  0.00000000000E+00  0.10650434282E+04  0.25324909805E+04  0.22976494647E+04 0.  0.
        2    1    3    3  502    0  0.31712736088E+03  0.46563724981E+03  0.16360587894E+04  0.17303399012E+04  0.25500000920E-02 0.  1.
       -2    1    3    3    0  502 -0.31712736088E+03 -0.46563724981E+03 -0.57101536113E+03  0.80215107933E+03  0.25500000920E-02 0. -1.
</event>
<event>
 5   0  0.7348107E-06  0.2296729E+04  0.7818609E-02  0.8479212E-01
       -2   -1    0    0    0  501  0.00000000000E+00  0.00000000000E+00  0.17290297302E+04  0.17290297302E+04  0.25500000920E-02 0.  1.
        2   -1    0    0  501    0  0.00000000000E+00  0.00000000000E+00 -0.76270613134E+03  0.76270613134E+03  0.25500000920E-02 0. -1.
    10030    2    1    2    0    0  0.00000000000E+00  0.00000000000E+00  0.96632359882E+03  0.24917358615E+04  0.22967294803E+04 0.  0.
        3    1    3    3  502    0 -0.24074755564E+03  0.64123494029E+03 -0.51683680118E+03  0.85805706305E+03  0.10100000352E+00 0. -1.
       -3    1    3    3    0  502  0.24074755564E+03 -0.64123494029E+03  0.14831604000E+04  0.16336787985E+04  0.10100000352E+00 0.  1.
</event>
<event>
 5   0  0.7003852E-06  0.2303716E+04  0.7818609E-02  0.8476457E-01
       -2   -1    0    0    0  501  0.00000000000E+00  0.00000000000E+00  0.88078404604E+03  0.88078404605E+03  0.25500000920E-02 0.  1.
        2   -1    0    0  501    0  0.00000000000E+00  0.00000000000E+00 -0.15063585592E+04  0.15063585592E+04  0.25500000920E-02 0. -1.
    10030    2    1    2    0    0  0.00000000000E+00  0.00000000000E+00 -0.62557451311E+03  0.23871426052E+04  0.23037157694E+04 0.  0.
        2    1    3    3  502    0  0.10122716117E+04 -0.42719547421E+03 -0.67112378894E+03  0.12874769626E+04  0.25500000920E-02 0. -1.
       -2    1    3    3    0  502 -0.10122716117E+04  0.42719547421E+03  0.45549275827E+02  0.10996656426E+04  0.25500000920E-02 0.  1.
</event>
<event>
 5   0  0.7348107E-06  0.2299793E+04  0.7818609E-02  0.8478003E-01
       -2   -1    0    0    0  501  0.00000000000E+00  0.00000000000E+00  0.52770205178E+03  0.52770205179E+03  0.25500000920E-02 0. -1.
        2   -1    0    0  501    0  0.00000000000E+00  0.00000000000E+00 -0.25056986512E+04  0.25056986512E+04  0.25500000920E-02 0.  1.
    10030    2    1    2    0    0  0.00000000000E+00  0.00000000000E+00 -0.19779965995E+04  0.30334007030E+04  0.22997933119E+04 0.  0.
        3    1    3    3  502    0 -0.25484408257E+03 -0.11129863484E+04 -0.80921775616E+03  0.13994704374E+04  0.10100000352E+00 0.  1.
       -3    1    3    3    0  502  0.25484408257E+03  0.11129863484E+04 -0.11687788433E+04  0.16339302656E+04  0.10100000352E+00 0. -1.
</event>
<event>
 5   0  0.3338758E-06  0.2318842E+04  0.7818609E-02  0.8470529E-01
        1   -1    0    0  501    0  0.00000000000E+00  0.00000000000E+00  0.98729254308E+03  0.98729254310E+03  0.50400001928E-02 0. -1.
       -1   -1    0    0    0  501  0.00000000000E+00  0.00000000000E+00 -0.13615586744E+04  0.13615586744E+04  0.50400001928E-02 0.  1.
    10030    2    1    2    0    0  0.00000000000E+00  0.00000000000E+00 -0.37426613131E+03  0.23488512175E+04  0.23188417162E+04 0.  0.
        5    1    3    3  502    0  0.96489885253E+03 -0.32057626660E+03  0.37724513634E+03  0.10844975432E+04  0.46999998093E+01 0. -1.
       -5    1    3    3    0  502 -0.96489885253E+03  0.32057626660E+03 -0.75151126764E+03  0.12643536743E+04  0.46999998093E+01 0.  1.
</event>
<event>
 5   0  0.3338758E-06  0.2299236E+04  0.7818609E-02  0.8478222E-01
        1   -1    0    0  501    0  0.00000000000E+00  0.00000000000E+00  0.17445765772E+04  0.17445765772E+04  0.50400001928E-02 0.  1.
       -1   -1    0    0    0  501  0.00000000000E+00  0.00000000000E+00 -0.75756019207E+03  0.75756019209E+03  0.50400001928E-02 0. -1.
    10030    2    1    2    0    0  0.00000000000E+00  0.00000000000E+00  0.98701638517E+03  0.25021367693E+04  0.22992361923E+04 0.  0.
        5    1    3    3  502    0 -0.86731458955E+03 -0.73690969712E+03  0.67009006124E+03  0.13207245281E+04  0.46999998093E+01 0.  1.
       -5    1    3    3    0  502  0.86731458955E+03  0.73690969712E+03  0.31692632393E+03  0.11814122412E+04  0.46999998093E+01 0. -1.
</event>
<event>
 5   0  0.7242214E-06  0.2294690E+04  0.7818609E-02  0.8480018E-01
       -2   -1    0    0    0  501  0.00000000000E+00  0.00000000000E+00  0.86974709104E+03  0.86974709105E+03  0.25500000920E-02 0.  1.
        2   -1    0    0  501    0  0.00000000000E+00  0.00000000000E+00 -0.15135436234E+04  0.15135436234E+04  0.25500000920E-02 0. -1.
    10030    2    1    2    0    0  0.00000000000E+00  0.00000000000E+00 -0.64379653231E+03  0.23832907144E+04  0.22946896641E+04 0.  0.
        1    1    3    3  502    0  0.55362356315E+03  0.84458580146E+03  0.24371686322E+03  0.10388561667E+04  0.50400001928E-02 0.  1.
       -1    1    3    3    0  502 -0.55362356315E+03 -0.84458580146E+03 -0.88751339553E+03  0.13444345477E+04  0.50400001928E-02 0. -1.
</event>
<event>
 5   0  0.3226427E-06  0.2299389E+04  0.7818609E-02  0.8478162E-01
       -1   -1    0    0    0  501  0.00000000000E+00  0.00000000000E+00  0.47154447486E+03  0.47154447489E+03  0.50400001928E-02 0.  1.
        1   -1    0    0  501    0  0.00000000000E+00  0.00000000000E+00 -0.28031244088E+04  0.28031244088E+04  0.50400001928E-02 0. -1.
    10030    2    1    2    0    0  0.00000000000E+00  0.00000000000E+00 -0.23315799340E+04  0.32746688837E+04  0.22993893340E+04 0.  0.
        4    1    3    3  502    0  0.10171013128E+04 -0.20963968074E+03 -0.46324740132E+03  0.11371207693E+04  0.12699999809E+01 0.  1.
       -4    1    3    3    0  502 -0.10171013128E+04  0.20963968074E+03 -0.18683325326E+04  0.21375481145E+04  0.12699999809E+01 0. -1.
</event>
<event>
 5   0  0.7003852E-06  0.2308946E+04  0.7818609E-02  0.8474402E-01
        2   -1    0    0  501    0  0.00000000000E+00  0.00000000000E+00  0.11962019301E+04  0.11962019301E+04  0.25500000920E-02 0.  1.
       -2   -1    0    0    0  501  0.00000000000E+00  0.00000000000E+00 -0.11141993485E+04  0.11141993485E+04  0.25500000920E-02 0. -1.
    10030    2    1    2    0    0  0.00000000000E+00  0.00000000000E+00  0.82002581639E+02  0.23104012785E+04  0.23089455698E+04 0.  0.
        2    1    3    3  502    0 -0.66754456028E+03  0.55929544248E+02 -0.89983804211E+03  0.11218076287E+04  0.25500000920E-02 0. -1.
       -2    1    3    3    0  502  0.66754456028E+03 -0.55929544248E+02  0.98184062375E+03  0.11885936498E+04  0.25500000920E-02 0.  1.
</event>
<event>
 5   0  0.3184492E-06  0.2303559E+04  0.7818609E-02  0.8476519E-01
       -1   -1    0    0    0  501  0.00000000000E+00  0.00000000000E+00  0.67437454960E+03  0.67437454962E+03  0.50400001928E-02 0. -1.
        1   -1    0    0  501    0  0.00000000000E+00  0.00000000000E+00 -0.19671508901E+04  0.19671508902E+04  0.50400001928E-02 0.  1.
    10030    2    1    2    0    0  0.00000000000E+00  0.00000000000E+00 -0.12927763405E+04  0.26415254398E+04  0.23035594158E+04 0.  0.
        1    1    3    3  502    0  0.55937464288E+03 -0.48833995309E+03 -0.16560316152E+04  0.18148874928E+04  0.50400001928E-02 0.  1.
       -1    1    3    3    0  502 -0.55937464288E+03  0.48833995309E+03  0.36325527463E+03  0.82663794702E+03  0.50400001928E-02 0. -1.
</event>
<event>
 5   0  0.7044981E-06  0.2304699E+04  0.7818609E-02  0.8476071E-01
        2   -1    0    0  501    0  0.00000000000E+00  0.00000000000E+00  0.14792230776E+04  0.14792230776E+04  0.25500000920E-02 0.  1.
       -2   -1    0    0    0  501  0.00000000000E+00  0.00000000000E+00 -0.89770695010E+03  0.89770695010E+03  0.25500000920E-02 0. -1.
    10030    2    1    2    0    0  0.00000000000E+00  0.00000000000E+00  0.58151612753E+03  0.23769300277E+04  0.23046985378E+04 0.  0.
        4    1    3    3  502    0  0.41794766216E+03  0.70167811387E+03  0.11291785223E+04  0.13935846483E+04  0.12699999809E+01 0.  1.
       -4    1    3    3    0  502 -0.41794766216E+03 -0.70167811387E+03 -0.54766239475E+03  0.98334537946E+03  0.12699999809E+01 0. -1.
</event>
<event>
 5   0  0.3226427E-06  0.2318437E+04  0.7818609E-02  0.8470687E-01
        1   -1    0    0  501    0  0.00000000000E+00  0.00000000000E+00  0.21343658085E+04  0.21343658085E+04  0.50400001928E-02 0.  1.
       -1   -1    0    0    0  501  0.00000000000E+00  0.00000000000E+00 -0.62959558624E+03  0.62959558626E+03  0.50400001928E-02 0. -1.
    10030    2    1    2    0    0  0.00000000000E+00  0.00000000000E+00  0.15047702223E+04  0.27639613948E+04  0.23184367945E+04 0.  0.
        4    1    3    3  502    0  0.14956315403E+03  0.46957162034E+03 -0.49849130013E+03  0.70097206284E+03  0.12699999809E+01 0. -1.
       -4    1    3    3    0  502 -0.14956315403E+03 -0.46957162034E+03  0.20032615224E+04  0.20629893319E+04  0.12699999809E+01 0.  1.
</event>
<event>
 5   0  0.7497344E-06  0.2301366E+04  0.7818609E-02  0.8477383E-01
       -2   -1    0    0    0  501  0.00000000000E+00  0.00000000000E+00  0.16432730871E+04  0.16432730871E+04  0.25500000920E-02 0. -1.
        2   -1    0    0  501    0  0.00000000000E+00  0.00000000000E+00 -0.80575280747E+03  0.80575280748E+03  0.25500000920E-02 0.  1.
    10030    2    1    2    0    0  0.00000000000E+00  0.00000000000E+00  0.83752027961E+03  0.24490258946E+04  0.23013664666E+04 0.  0.
        5    1    3    3  502    0  0.33187209632E+03  0.21873049862E+03  0.15678909742E+04  0.16174938381E+04  0.46999998093E+01 0. -1.
       -5    1    3    3    0  502 -0.33187209632E+03 -0.21873049862E+03 -0.73037069461E+03  0.83153205644E+03  0.46999998093E+01 0.  1.
</event>
<event>
 5   0  0.3226427E-06  0.2313379E+04  0.7818609E-02  0.8472665E-01
       -1   -1    0    0    0  501  0.00000000000E+00  0.00000000000E+00  0.89407406136E+03  0.89407406138E+03  0.50400001928E-02 0. -1.
        1   -1    0    0  501    0  0.00000000000E+00  0.00000000000E+00 -0.14964425564E+04  0.14964425564E+04  0.50400001928E-02 0.  1.
    10030    2    1    2    0    0  0.00000000000E+00  0.00000000000E+00 -0.60236849503E+03  0.23905166178E+04  0.23133788916E+04 0.  0.
        4    1    3    3  502    0 -0.58089931700E+03 -0.59100380848E+03 -0.11350612093E+04  0.14053807597E+04  0.12699999809E+01 0.  1.
       -4    1    3    3    0  502  0.58089931700E+03  0.59100380848E+03  0.53269271423E+03  0.98513585805E+03  0.12699999809E+01 0. -1.
</event>
<event>
 5   0  0.3338758E-06  0.2302895E+04  0.7818609E-02  0.8476781E-01
       -1   -1    0    0    0  501  0.00000000000E+00  0.00000000000E+00  0.10948579242E+04  0.10948579242E+04  0.50400001928E-02 0.  1.
        1   -1    0    0  501    0  0.00000000000E+00  0.00000000000E+00 -0.12109619432E+04  0.12109619432E+04  0.50400001928E-02 0. -1.
    10030    2    1    2    0    0  0.00000000000E+00  0.00000000000E+00 -0.11610401903E+03  0.23058198674E+04  0.23028949428E+04 0.  0.
        5    1    3    3  502    0 -0.89731385381E+03 -0.51560699488E+03 -0.56345688437E+03  0.11783583818E+04  0.46999998093E+01 0.  1.
       -5    1    3    3    0  502  0.89731385381E+03  0.51560699488E+03  0.44735286535E+03  0.11274614856E+04  0.46999998093E+01 0. -1.
</event>
<event>
 5   0  0.7242214E-06  0.2300850E+04  0.7818609E-02  0.8477586E-01
       -2   -1    0    0    0  501  0.00000000000E+00  0.00000000000E+00  0.53083291440E+03  0.53083291441E+03  0.25500000920E-02 0. -1.
        2   -1    0    0  501    0  0.00000000000E+00  0.00000000000E+00 -0.24932104691E+04  0.24932104691E+04  0.25500000920E-02 0.  1.
    10030    2    1    2    0    0  0.00000000000E+00  0.00000000000E+00 -0.19623775547E+04  0.30240433836E+04  0.23008504337E+04 0.  0.
        1    1    3    3  502    0  0.38765897026E+03  0.50390234062E+03  0.27896574559E+03  0.69427583376E+03  0.50400001928E-02 0. -1.
       -1    1    3    3    0  502 -0.38765897026E+03 -0.50390234062E+03 -0.22413433003E+04  0.23297675498E+04  0.50400001928E-02 0.  1.
</event>
<event>
 5   0  0.3338758E-06  0.2297358E+04  0.7818609E-02  0.8478963E-01
        1   -1    0    0  501    0  0.00000000000E+00  0.00000000000E+00  0.13076132151E+04  0.13076132151E+04  0.50400001928E-02 0.  1.
       -1   -1    0    0    0  501  0.00000000000E+00  0.00000000000E+00 -0.10090627008E+04  0.10090627008E+04  0.50400001928E-02 0. -1.
    10030    2    1    2    0    0  0.00000000000E+00  0.00000000000E+00  0.29855051427E+03  0.23166759159E+04  0.22973582415E+04 0.  0.
        5    1    3    3  502    0 -0.38981591113E+03  0.16141078326E+03 -0.92808644880E+03  0.10194981275E+04  0.46999998093E+01 0. -1.
       -5    1    3    3    0  502  0.38981591113E+03 -0.16141078326E+03  0.12266369631E+04  0.12971777884E+04  0.46999998093E+01 0.  1.
</event>
<event>
 5   0  0.7242214E-06  0.2300683E+04  0.7818609E-02  0.8477652E-01
        2   -1    0    0  501    0  0.00000000000E+00  0.00000000000E+00  0.14899014174E+04  0.14899014174E+04  0.25500000920E-02 0. -1.
       -2   -1    0    0    0  501  0.00000000000E+00  0.00000000000E+00 -0.88816960708E+03  0.88816960709E+03  0.25500000920E-02 0.  1.
    10030    2    1    2    0    0  0.00000000000E+00  0.00000000000E+00  0.60173181033E+03  0.23780710245E+04  0.23006826435E+04 0.  0.
        1    1    3    3  502    0  0.90992802041E+02 -0.12504905694E+03  0.14791071520E+04  0.14871701059E+04  0.50400001928E-02 0. -1.
       -1    1    3    3    0  502 -0.90992802041E+02  0.12504905694E+03 -0.87737534166E+03  0.89090091864E+03  0.50400001928E-02 0.  1.
</event>
<event>
 5   0  0.3238713E-06  0.2284360E+04  0.7818609E-02  0.8484113E-01
        1   -1    0    0  501    0  0.00000000000E+00  0.00000000000E+00  0.75412998860E+03  0.75412998861E+03  0.50400001928E-02 0.  1.
       -1   -1    0    0    0  501  0.00000000000E+00  0.00000000000E+00 -0.17299078902E+04  0.17299078902E+04  0.50400001928E-02 0. -1.
    10030    2    1    2    0    0  0.00000000000E+00  0.00000000000E+00 -0.97577790163E+03  0.24840378788E+04  0.22843602322E+04 0.  0.
        3    1    3    3  502    0 -0.19664219522E+03 -0.94752071947E+03  0.17186721490E+03  0.98285401587E+03  0.10100000352E+00 0.  1.
       -3    1    3    3    0  502  0.19664219522E+03  0.94752071947E+03 -0.11476451165E+04  0.15011838630E+04  0.10100000352E+00 0. -1.
</event>
<event>
 5   0  0.3338758E-06  0.2297294E+04  0.7818609E-02  0.8478989E-01
       -1   -1    0    0    0  501  0.00000000000E+00  0.00000000000E+00  0.90913358029E+03  0.90913358030E+03  0.50400001928E-02 0.  1.
        1   -1    0    0  501    0  0.00000000000E+00  0.00000000000E+00 -0.14512607167E+04  0.14512607167E+04  0.50400001928E-02 0. -1.
    10030    2    1    2    0    0  0.00000000000E+00  0.00000000000E+00 -0.54212713641E+03  0.23603942970E+04  0.22972939310E+04 0.  0.
        5    1    3    3  502    0 -0.82476331691E+03  0.21143546546E+03  0.52110520995E+03  0.99825458416E+03  0.46999998093E+01 0.  1.
       -5    1    3    3    0  502  0.82476331691E+03 -0.21143546546E+03 -0.10632323464E+04  0.13621397128E+04  0.46999998093E+01 0. -1.
</event>
<event>
 5   0  0.7044981E-06  0.2311045E+04  0.7818609E-02  0.8473579E-01
       -2   -1    0    0    0  501  0.00000000000E+00  0.00000000000E+00  0.13501161025E+04  0.13501161025E+04  0.25500000920E-02 0.  1.
        2   -1    0    0  501    0  0.00000000000E+00  0.00000000000E+00 -0.98897575267E+03  0.98897575267E+03  0.25500000920E-02 0. -1.
    10030    2    1    2    0    0  0.00000000000E+00  0.00000000000E+00  0.36114034986E+03  0.23390918552E+04  0.23110448621E+04 0.  0.
        4    1    3    3  502    0  0.84598168811E+03 -0.74757444545E+02  0.97363338167E+03  0.12919896543E+04  0.12699999809E+01 0.  1.
       -4    1    3    3    0  502 -0.84598168811E+03  0.74757444545E+02 -0.61249303181E+03  0.10471022009E+04  0.12699999809E+01 0. -1.
</event>
<event>
 5   0  0.7003852E-06  0.2299511E+04  0.7818609E-02  0.8478114E-01
       -2   -1    0    0    0  501  0.00000000000E+00  0.00000000000E+00  0.12169766527E+04  0.12169766527E+04  0.25500000920E-02 0.  1.
        2   -1    0    0  501    0  0.00000000000E+00  0.00000000000E+00 -0.10862476526E+04  0.10862476526E+04  0.25500000920E-02 0. -1.
    10030    2    1    2    0    0  0.00000000000E+00  0.00000000000E+00  0.13072900014E+03  0.23032243053E+04  0.22995112805E+04 0.  0.
        2    1    3    3  502    0 -0.32409157353E+03 -0.20386088716E+03 -0.10205186177E+04  0.10899783752E+04  0.25500000920E-02 0. -1.
       -2    1    3    3    0  502  0.32409157353E+03  0.20386088716E+03  0.11512476178E+04  0.12132459301E+04  0.25500000920E-02 0.  1.
</event>
<event>
 5   0  0.3226427E-06  0.2299819E+04  0.7818609E-02  0.8477993E-01
       -1   -1    0    0    0  501  0.00000000000E+00  0.00000000000E+00  0.69411660286E+03  0.69411660287E+03  0.50400001928E-02 0.  1.
        1   -1    0    0  501    0  0.00000000000E+00  0.00000000000E+00 -0.19049993106E+04  0.19049993106E+04  0.50400001928E-02 0. -1.
    10030    2    1    2    0    0  0.00000000000E+00  0.00000000000E+00 -0.12108827077E+04  0.25991159134E+04  0.22998188189E+04 0.  0.
        4    1    3    3  502    0  0.87667608158E+03  0.74172645239E+03 -0.53790708487E+03  0.12680949204E+04  0.12699999809E+01 0.  1.
       -4    1    3    3    0  502 -0.87667608158E+03 -0.74172645239E+03 -0.67297562283E+03  0.13310209931E+04  0.12699999809E+01 0. -1.
</event>
<event>
 5   0  0.7497344E-06  0.2300488E+04  0.7818609E-02  0.8477729E-01
        2   -1    0    0  501    0  0.00000000000E+00  0.00000000000E+00  0.18003855078E+04  0.18003855078E+04  0.25500000920E-02 0.  1.
       -2   -1    0    0    0  501  0.00000000000E+00  0.00000000000E+00 -0.73487689747E+03  0.73487689747E+03  0.25500000920E-02 0. -1.
    10030    2    1    2    0    0  0.00000000000E+00  0.00000000000E+00  0.10655086103E+04  0.25352624052E+04  0.23004883970E+04 0.  0.
        5    1    3    3  502    0  0.88762863463E+03  0.27823645629E+03  0.12783648962E+04  0.15809930475E+04  0.46999998093E+01 0.  1.
       -5    1    3    3    0  502 -0.88762863463E+03 -0.27823645629E+03 -0.21285628586E+03  0.95426935770E+03  0.46999998093E+01 0. -1.
</event>
<event>
 5   0  0.3184492E-06  0.2301797E+04  0.7818609E-02  0.8477213E-01
       -1   -1    0    0    0  501  0.00000000000E+00  0.00000000000E+00  0.43747287881E+03  0.43747287883E+03  0.50400001928E-02 0. -1.
        1   -1    0    0  501    0  0.00000000000E+00  0.00000000000E+00 -0.30277695661E+04  0.30277695661E+04  0.50400001928E-02 0.  1.
    10030    2    1    2    0    0  0.00000000000E+00  0.00000000000E+00 -0.25902966873E+04  0.34652424450E+04  0.23017967491E+04 0.  0.
        1    1    3    3  502    0 -0.96592638884E+03 -0.27741689499E+03 -0.21395348439E+04  0.23638069444E+04  0.50400001928E-02 0.  1.
       -1    1    3    3    0  502  0.96592638884E+03  0.27741689499E+03 -0.45076184339E+03  0.11014355005E+04  0.50400001928E-02 0. -1.
</event>
<event>
 5   0  0.7044981E-06  0.2296457E+04  0.7818609E-02  0.8479319E-01
       -2   -1    0    0    0  501  0.00000000000E+00  0.00000000000E+00  0.84938684721E+03  0.84938684722E+03  0.25500000920E-02 0. -1.
        2   -1    0    0  501    0  0.00000000000E+00  0.00000000000E+00 -0.15522127921E+04  0.15522127921E+04  0.25500000920E-02 0.  1.
    10030    2    1    2    0    0  0.00000000000E+00  0.00000000000E+00 -0.70282594485E+03  0.24015996393E+04  0.22964573845E+04 0.  0.
        4    1    3    3  502    0  0.38639235024E+03  0.96327614947E+03 -0.86504920581E+03  0.13511149950E+04  0.12699999809E+01 0.  1.
       -4    1    3    3    0  502 -0.38639235024E+03 -0.96327614947E+03  0.16222326096E+03  0.10504846442E+04  0.12699999809E+01 0. -1.
</event>
<event>
 5   0  0.3195296E-06  0.2277995E+04  0.7818609E-02  0.8486648E-01
        1   -1    0    0  501    0  0.00000000000E+00  0.00000000000E+00  0.18504045432E+04  0.18504045432E+04  0.50400001928E-02 0.  1.
       -1   -1    0    0    0  501  0.00000000000E+00  0.00000000000E+00 -0.70109822813E+03  0.70109822815E+03  0.50400001928E-02 0. -1.
    10030    2    1    2    0    0  0.00000000000E+00  0.00000000000E+00  0.11493063151E+04  0.25515027714E+04  0.22779950365E+04 0.  0.
        2    1    3    3  502    0  0.34734623966E+03 -0.31313710807E+03 -0.58860394029E+03  0.75177048172E+03  0.25500000920E-02 0. -1.
       -2    1    3    3    0  502 -0.34734623966E+03  0.31313710807E+03  0.17379102554E+04  0.17997322897E+04  0.25500000920E-02 0.  1.
</event>
<event>
 5   0  0.3195296E-06  0.2302766E+04  0.7818609E-02  0.8476831E-01
        1   -1    0    0  501    0  0.00000000000E+00  0.00000000000E+00  0.11305508699E+04  0.11305508699E+04  0.50400001928E-02 0.  1.
       -1   -1    0    0    0  501  0.00000000000E+00  0.00000000000E+00 -0.11725986642E+04  0.11725986643E+04  0.50400001928E-02 0. -1.
    10030    2    1    2    0    0  0.00000000000E+00  0.00000000000E+00 -0.42047794312E+02  0.23031495342E+04  0.23027656763E+04 0.  0.
        2    1    3    3  502    0  0.42999020495E+02  0.10903081384E+04  0.34654476207E+03  0.11448641948E+04  0.25500000920E-02 0.  1.
       -2    1    3    3    0  502 -0.42999020495E+02 -0.10903081384E+04 -0.38859255638E+03  0.11582853394E+04  0.25500000920E-02 0. -1.
</event>
<event>
 5   0  0.7003852E-06  0.2288787E+04  0.7818609E-02  0.8482355E-01
       -2   -1    0    0    0  501  0.00000000000E+00  0.00000000000E+00  0.74443304050E+03  0.74443304050E+03  0.25500000920E-02 0.  1.
        2   -1    0    0  501    0  0.00000000000E+00  0.00000000000E+00 -0.17592400335E+04  0.17592400335E+04  0.25500000920E-02 0. -1.
    10030    2    1    2    0    0  0.00000000000E+00  0.00000000000E+00 -0.10148069930E+04  0.25036730740E+04  0.22887869338E+04 0.  0.
        2    1    3    3  502    0  0.69441780224E+03  0.66069732267E+01  0.48759835475E+03  0.84853514466E+03  0.25500000920E-02 0.  1.
       -2    1    3    3    0  502 -0.69441780224E+03 -0.66069732267E+01 -0.15024053477E+04  0.16551379293E+04  0.25500000920E-02 0. -1.
</event>
<event>
 5   0  0.3338758E-06  0.2299027E+04  0.7818609E-02  0.8478305E-01
        1   -1    0    0  501    0  0.00000000000E+00  0.00000000000E+00  0.86101720794E+03  0.86101720796E+03  0.50400001928E-02 0.  1.
       -1   -1    0    0    0  501  0.00000000000E+00  0.00000000000E+00 -0.15346753029E+04  0.15346753029E+04  0.50400001928E-02 0. -1.
    10030    2    1    2    0    0  0.00000000000E+00  0.00000000000E+00 -0.67365809492E+03  0.23956925108E+04  0.22990274852E+04 0.  0.
        5    1    3    3  502    0 -0.10770220180E+03  0.85688253369E+03  0.45369342806E+03  0.97555484596E+03  0.46999998093E+01 0.  1.
       -5    1    3    3    0  502  0.10770220180E+03 -0.85688253369E+03 -0.11273515230E+04  0.14201376649E+04  0.46999998093E+01 0. -1.
</event>
<event>
 5   0  0.3226427E-06  0.2299500E+04  0.7818609E-02  0.8478118E-01
        1   -1    0    0  501    0  0.00000000000E+00  0.00000000000E+00  0.12506839986E+04  0.12506839986E+04  0.50400001928E-02 0.  1.
       -1   -1    0    0    0  501  0.00000000000E+00  0.00000000000E+00 -0.10569621219E+04  0.10569621219E+04  0.50400001928E-02 0. -1.
    10030    2    1    2    0    0  0.00000000000E+00  0.00000000000E+00  0.19372187670E+03  0.23076461205E+04  0.22995004788E+04 0.  0.
        4    1    3    3  502    0  0.32728516762E+03  0.86808764526E+03  0.77840751902E+03  0.12110374145E+04  0.12699999809E+01 0.  1.
       -4    1    3    3    0  502 -0.32728516762E+03 -0.86808764526E+03 -0.58468564232E+03  0.10966087060E+04  0.12699999809E+01 0. -1.
</event>
<event>
 5   0  0.3338758E-06  0.2300797E+04  0.7818609E-02  0.8477607E-01
        1   -1    0    0  501    0  0.00000000000E+00  0.00000000000E+00  0.10131517219E+04  0.10131517219E+04  0.50400001928E-02 0.  1.
       -1   -1    0    0    0  501  0.00000000000E+00  0.00000000000E+00 -0.13062377033E+04  0.13062377033E+04  0.50400001928E-02 0. -1.
    10030    2    1    2    0    0  0.00000000000E+00  0.00000000000E+00 -0.29308598140E+03  0.23193894252E+04  0.23007972343E+04 0.  0.
        5    1    3    3  502    0 -0.90284861860E+03  0.39438929262E+03 -0.74524142104E+03  0.12353482942E+04  0.46999998093E+01 0. -1.
       -5    1    3    3    0  502  0.90284861860E+03 -0.39438929262E+03  0.45215543964E+03  0.10840411311E+04  0.46999998093E+01 0.  1.
</event>
<event>
 5   0  0.7003852E-06  0.2305729E+04  0.7818609E-02  0.8475666E-01
       -2   -1    0    0    0  501  0.00000000000E+00  0.00000000000E+00  0.89547298728E+03  0.89547298728E+03  0.25500000920E-02 0. -1.
        2   -1    0    0  501    0  0.00000000000E+00  0.00000000000E+00 -0.14842400008E+04  0.14842400008E+04  0.25500000920E-02 0.  1.
    10030    2    1    2    0    0  0.00000000000E+00  0.00000000000E+00 -0.58876701356E+03  0.23797129881E+04  0.23057292360E+04 0.  0.
        2    1    3    3  502    0 -0.54760840617E+03  0.12500094265E+03 -0.13334631882E+04  0.14469361688E+04  0.25500000920E-02 0.  1.
       -2    1    3    3    0  502  0.54760840617E+03 -0.12500094265E+03  0.74469617466E+03  0.93277681935E+03  0.25500000920E-02 0. -1.
</event>
<event>
 5   0  0.7003852E-06  0.2300707E+04  0.7818609E-02  0.8477642E-01
       -2   -1    0    0    0  501  0.00000000000E+00  0.00000000000E+00  0.64574656406E+03  0.64574656407E+03  0.25500000920E-02 0. -1.
        2   -1    0    0  501    0  0.00000000000E+00  0.00000000000E+00 -0.20492763689E+04  0.20492763689E+04  0.25500000920E-02 0.  1.
    10030    2    1    2    0    0  0.00000000000E+00  0.00000000000E+00 -0.14035298048E+04  0.26950229329E+04  0.23007069992E+04 0.  0.
        2    1    3    3  502    0  0.53926963903E+03 -0.24132624312E+03 -0.18579816954E+04  0.19496528100E+04  0.25500000920E-02 0.  1.
       -2    1    3    3    0  502 -0.53926963903E+03  0.24132624312E+03  0.45445189062E+03  0.74537012289E+03  0.25500000920E-02 0. -1.
</event>
<event>
 5   0  0.3184492E-06  0.2305626E+04  0.7818609E-02  0.8475706E-01
       -1   -1    0    0    0  501  0.00000000000E+00  0.00000000000E+00  0.79066863487E+03  0.79066863489E+03  0.50400001928E-02 0. -1.
        1   -1    0    0  501    0  0.00000000000E+00  0.00000000000E+00 -0.16808280399E+04  0.16808280399E+04  0.50400001928E-02 0.  1.
    10030    2    1    2    0    0  0.00000000000E+00  0.00000000000E+00 -0.89015940502E+03  0.24714966748E+04  0.23056261725E+04 0.  0.
        1    1    3    3  502    0  0.17015973431E+03  0.94243124601E+03  0.24284214558E+03  0.98797940076E+03  0.50400001928E-02 0.  1.
       -1    1    3    3    0  502 -0.17015973431E+03 -0.94243124601E+03 -0.11330015506E+04  0.14835172740E+04  0.50400001928E-02 0. -1.
</event>
<event>
 5   0  0.7348107E-06  0.2299812E+04  0.7818609E-02  0.8477995E-01
       -2   -1    0    0    0  501  0.00000000000E+00  0.00000000000E+00  0.55591252914E+03  0.55591252915E+03  0.25500000920E-02 0.  1.
        2   -1    0    0  501    0  0.00000000000E+00  0.00000000000E+00 -0.23785815717E+04  0.23785815717E+04  0.25500000920E-02 0. -1.
    10030    2    1    2    0    0  0.00000000000E+00  0.00000000000E+00 -0.18226690426E+04  0.29344941009E+04  0.22998115552E+04 0.  0.
        3    1    3    3  502    0 -0.27325583671E+03 -0.76700499118E+03 -0.19474028911E+04  0.21107684475E+04  0.10100000352E+00 0. -1.
       -3    1    3    3    0  502  0.27325583671E+03  0.76700499118E+03  0.12473384848E+03  0.82372565333E+03  0.10100000352E+00 0.  1.
</event>
<event>
 5   0  0.7348107E-06  0.2289692E+04  0.7818609E-02  0.8481997E-01
        2   -1    0    0  501    0  0.00000000000E+00  0.00000000000E+00  0.94071593760E+03  0.94071593761E+03  0.25500000920E-02 0.  1.
       -2   -1    0    0    0  501  0.00000000000E+00  0.00000000000E+00 -0.13932706338E+04  0.13932706338E+04  0.25500000920E-02 0. -1.
    10030    2    1    2    0    0  0.00000000000E+00  0.00000000000E+00 -0.45255469620E+03  0.23339865714E+04  0.22896915868E+04 0.  0.
        3    1    3    3  502    0  0.10109140602E+04 -0.31846878547E+03 -0.66743406084E+03  0.12525325705E+04  0.10100000352E+00 0. -1.
       -3    1    3    3    0  502 -0.10109140602E+04  0.31846878547E+03  0.21487936465E+03  0.10814540009E+04  0.10100000352E+00 0.  1.
</event>
<event>
 5   0  0.7044981E-06  0.2322725E+04  0.7818609E-02  0.8469014E-01
       -2   -1    0    0    0  501  0.00000000000E+00  0.00000000000E+00  0.84840377290E+03  0.84840377290E+03  0.25500000920E-02 0. -1.
        2   -1    0    0  501    0  0.00000000000E+00  0.00000000000E+00 -0.15897654277E+04  0.15897654277E+04  0.25500000920E-02 0.  1.
    10030    2    1    2    0    0  0.00000000000E+00  0.00000000000E+00 -0.74136165482E+03  0.24381692006E+04  0.23227251124E+04 0.  0.
        4    1    3    3  502    0 -0.66683365689E+03  0.63740883945E+03 -0.11113006168E+04  0.14442810766E+04  0.12699999809E+01 0.  1.
       -4    1    3    3    0  502  0.66683365689E+03 -0.63740883945E+03  0.36993896194E+03  0.99388812400E+03  0.12699999809E+01 0. -1.
</event>
<event>
 5   0  0.3226427E-06  0.2307987E+04  0.7818609E-02  0.8474779E-01
       -1   -1    0    0    0  501  0.00000000000E+00  0.00000000000E+00  0.17712125206E+04  0.17712125206E+04  0.50400001928E-02 0. -1.
        1   -1    0    0  501    0  0.00000000000E+00  0.00000000000E+00 -0.75185835111E+03  0.75185835112E+03  0.50400001928E-02 0.  1.
    10030    2    1    2    0    0  0.00000000000E+00  0.00000000000E+00  0.10193541695E+04  0.25230708718E+04  0.23079869369E+04 0.  0.
        4    1    3    3  502    0  0.91849323815E+03 -0.33798325020E+03 -0.15872397895E+03  0.99149252157E+03  0.12699999809E+01 0.  1.
       -4    1    3    3    0  502 -0.91849323815E+03  0.33798325020E+03  0.11780781485E+04  0.15315783502E+04  0.12699999809E+01 0. -1.
</event>
<event>
 5   0  0.3226427E-06  0.2299038E+04  0.7818609E-02  0.8478300E-01
       -1   -1    0    0    0  501  0.00000000000E+00  0.00000000000E+00  0.64836499677E+03  0.64836499679E+03  0.50400001928E-02 0. -1.
        1   -1    0    0  501    0  0.00000000000E+00  0.00000000000E+00 -0.20380407015E+04  0.20380407015E+04  0.50400001928E-02 0.  1.
    10030    2    1    2    0    0  0.00000000000E+00  0.00000000000E+00 -0.13896757047E+04  0.26864056983E+04  0.22990382797E+04 0.  0.
        4    1    3    3  502    0 -0.63053466288E+03 -0.92203200806E+03 -0.37767128613E+03  0.11791328162E+04  0.12699999809E+01 0. -1.
       -4    1    3    3    0  502  0.63053466288E+03  0.92203200806E+03 -0.10120044186E+04  0.15072728821E+04  0.12699999809E+01 0.  1.
</event>
<event>
 5   0  0.7497344E-06  0.2300956E+04  0.7818609E-02  0.8477544E-01
       -2   -1    0    0    0  501  0.00000000000E+00  0.00000000000E+00  0.60776730351E+03  0.60776730351E+03  0.25500000920E-02 0.  1.
        2   -1    0    0  501    0  0.00000000000E+00  0.00000000000E+00 -0.21778066314E+04  0.21778066314E+04  0.25500000920E-02 0. -1.
    10030    2    1    2    0    0  0.00000000000E+00  0.00000000000E+00 -0.15700393279E+04  0.27855739349E+04  0.23009560308E+04 0.  0.
        5    1    3    3  502    0  0.45940470945E+03 -0.34545510015E+03  0.42146440215E+03  0.71277362855E+03  0.46999998093E+01 0.  1.
       -5    1    3    3    0  502 -0.45940470945E+03  0.34545510015E+03 -0.19915037300E+04  0.20728003064E+04  0.46999998093E+01 0. -1.
</event>
<event>
 5   0  0.3226427E-06  0.2297643E+04  0.7818609E-02  0.8478851E-01
       -1   -1    0    0    0  501  0.00000000000E+00  0.00000000000E+00  0.69536336165E+03  0.69536336167E+03  0.50400001928E-02 0. -1.
        1   -1    0    0  501    0  0.00000000000E+00  0.00000000000E+00 -0.18979876288E+04  0.18979876288E+04  0.50400001928E-02 0.  1.
    10030    2    1    2    0    0  0.00000000000E+00  0.00000000000E+00 -0.12026242672E+04  0.25933509905E+04  0.22976431907E+04 0.  0.
        4    1    3    3  502    0  0.16777329671E+03 -0.11342206879E+04 -0.52003788405E+03  0.12589858863E+04  0.12699999809E+01 0.  1.
       -4    1    3    3    0  502 -0.16777329671E+03  0.11342206879E+04 -0.68258638312E+03  0.13343651042E+04  0.12699999809E+01 0. -1.
</event>
<event>
 5   0  0.7348107E-06  0.2296990E+04  0.7818609E-02  0.8479109E-01
       -2   -1    0    0    0  501  0.00000000000E+00  0.00000000000E+00  0.15612167401E+04  0.15612167401E+04  0.25500000920E-02 0.  1.
        2   -1    0    0  501    0  0.00000000000E+00  0.00000000000E+00 -0.84487983126E+03  0.84487983126E+03  0.25500000920E-02 0. -1.
    10030    2    1    2    0    0  0.00000000000E+00  0.00000000000E+00  0.71633690883E+03  0.24060965713E+04  0.22969898005E+04 0.  0.
        3    1    3    3  502    0 -0.20976633934E+03  0.47639300256E+03  0.14305588782E+04  0.15223176161E+04  0.10100000352E+00 0.  1.
       -3    1    3    3    0  502  0.20976633934E+03 -0.47639300256E+03 -0.71422196938E+03  0.88377895526E+03  0.10100000352E+00 0. -1.
</event>
<event>
 5   0  0.7348107E-06  0.2294784E+04  0.7818609E-02  0.8479981E-01
        2   -1    0    0  501    0  0.00000000000E+00  0.00000000000E+00  0.96918637872E+03  0.96918637872E+03  0.25500000920E-02 0. -1.
       -2   -1    0    0    0  501  0.00000000000E+00  0.00000000000E+00 -0.13583642010E+04  0.13583642010E+04  0.25500000920E-02 0.  1.
    10030    2    1    2    0    0  0.00000000000E+00  0.00000000000E+00 -0.38917782229E+03  0.23275505797E+04  0.22947837205E+04 0.  0.
        3    1    3    3  502    0  0.78525040369E+03 -0.82990308399E+03 -0.87484016659E+02  0.11458668285E+04  0.10100000352E+00 0.  1.
       -3    1    3    3    0  502 -0.78525040369E+03  0.82990308399E+03 -0.30169380563E+03  0.11816837512E+04  0.10100000352E+00 0. -1.
</event>
<event>
 5   0  0.3226427E-06  0.2306807E+04  0.7818609E-02  0.8475242E-01
       -1   -1    0    0    0  501  0.00000000000E+00  0.00000000000E+00  0.10978331339E+04  0.10978331339E+04  0.50400001928E-02 0. -1.
        1   -1    0    0  501    0  0.00000000000E+00  0.00000000000E+00 -0.12117865848E+04  0.12117865848E+04  0.50400001928E-02 0.  1.
    10030    2    1    2    0    0  0.00000000000E+00  0.00000000000E+00 -0.11395345090E+03  0.23096197188E+04  0.23068068528E+04 0.  0.
        4    1    3    3  502    0  0.84866340940E+03 -0.77388463719E+03  0.49033623827E+02  0.11495794550E+04  0.12699999809E+01 0.  1.
       -4    1    3    3    0  502 -0.84866340940E+03  0.77388463719E+03 -0.16298707473E+03  0.11600402638E+04  0.12699999809E+01 0. -1.
</event>
<event>
 5   0  0.3238713E-06  0.2297703E+04  0.7818609E-02  0.8478827E-01
       -1   -1    0    0    0  501  0.00000000000E+00  0.00000000000E+00  0.93480274021E+03  0.93480274022E+03  0.50400001928E-02 0.  1.
        1   -1    0    0  501    0  0.00000000000E+00  0.00000000000E+00 -0.14119122387E+04  0.14119122387E+04  0.50400001928E-02 0. -1.
    10030    2    1    2    0    0  0.00000000000E+00  0.00000000000E+00 -0.47710949851E+03  0.23467149789E+04  0.22977027046E+04 0.  0.
        3    1    3    3  502    0 -0.41517193725E+03  0.74490182893E+03 -0.10247892149E+04  0.13332064421E+04  0.10100000352E+00 0. -1.
       -3    1    3    3    0  502  0.41517193725E+03 -0.74490182893E+03  0.54767971639E+03  0.10135085368E+04  0.10100000352E+00 0.  1.
</event>
<event>
 5   0  0.3226427E-06  0.2314854E+04  0.7818609E-02  0.8472087E-01
       -1   -1    0    0    0  501  0.00000000000E+00  0.00000000000E+00  0.12538320899E+04  0.12538320900E+04  0.50400001928E-02 0.  1.
        1   -1    0    0  501    0  0.00000000000E+00  0.00000000000E+00 -0.10684347886E+04  0.10684347886E+04  0.50400001928E-02 0. -1.
    10030    2    1    2    0    0  0.00000000000E+00  0.00000000000E+00  0.18539730134E+03  0.23222668786E+04  0.23148544870E+04 0.  0.
        4    1    3    3  502    0 -0.46217389759E+03 -0.22629086159E+03 -0.94735824676E+03  0.10781008887E+04  0.12699999809E+01 0. -1.
       -4    1    3    3    0  502  0.46217389759E+03  0.22629086159E+03  0.11327555481E+04  0.12441659899E+04  0.12699999809E+01 0.  1.
</event>
<event>
 5   0  0.7497344E-06  0.2298840E+04  0.7818609E-02  0.8478378E-01
       -2   -1    0    0    0  501  0.00000000000E+00  0.00000000000E+00  0.11625651723E+04  0.11625651723E+04  0.25500000920E-02 0.  1.
        2   -1    0    0  501    0  0.00000000000E+00  0.00000000000E+00 -0.11364237842E+04  0.11364237842E+04  0.25500000920E-02 0. -1.
    10030    2    1    2    0    0  0.00000000000E+00  0.00000000000E+00  0.26141388145E+02  0.22989889565E+04  0.22988403272E+04 0.  0.
        5    1    3    3  502    0 -0.33374409464E+03  0.20914994766E+03  0.10929626245E+04  0.11617737343E+04  0.46999998093E+01 0.  1.
       -5    1    3    3    0  502  0.33374409464E+03 -0.20914994766E+03 -0.10668212363E+04  0.11372152222E+04  0.46999998093E+01 0. -1.
</event>
<event>
 5   0  0.3226427E-06  0.2300319E+04  0.7818609E-02  0.8477795E-01
       -1   -1    0    0    0  501  0.00000000000E+00  0.00000000000E+00  0.13511671495E+04  0.13511671495E+04  0.50400001928E-02 0.  1.
        1   -1    0    0  501    0  0.00000000000E+00  0.00000000000E+00 -0.97905517312E+03  0.97905517313E+03  0.50400001928E-02 0. -1.
    10030    2    1    2    0    0  0.00000000000E+00  0.00000000000E+00  0.37211197633E+03  0.23302223226E+04  0.23003192713E+04 0.  0.
        4    1    3    3  502    0  0.62436922656E+03  0.96250261379E+03  0.10365134474E+03  0.11519520072E+04  0.12699999809E+01 0. -1.
       -4    1    3    3    0  502 -0.62436922656E+03 -0.96250261379E+03  0.26846063159E+03  0.11782703154E+04  0.12699999809E+01 0.  1.
</event>
<event>
 5   0  0.3195296E-06  0.2299817E+04  0.7818609E-02  0.8477993E-01
       -1   -1    0    0    0  501  0.00000000000E+00  0.00000000000E+00  0.85235340877E+03  0.85235340878E+03  0.50400001928E-02 0. -1.
        1   -1    0    0  501    0  0.00000000000E+00  0.00000000000E+00 -0.15513395038E+04  0.15513395038E+04  0.50400001928E-02 0.  1.
    10030    2    1    2    0    0  0.00000000000E+00  0.00000000000E+00 -0.69898609504E+03  0.24036929126E+04  0.22998169616E+04 0.  0.
        2    1    3    3  502    0  0.66261457283E+03  0.23850209202E+03  0.60060243135E+03  0.92556177567E+03  0.25500000920E-02 0. -1.
       -2    1    3    3    0  502 -0.66261457283E+03 -0.23850209202E+03 -0.12995885264E+04  0.14781311369E+04  0.25500000920E-02 0.  1.
</event>
<event>
 5   0  0.3338758E-06  0.2300317E+04  0.7818609E-02  0.8477796E-01
       -1   -1    0    0    0  501  0.00000000000E+00  0.00000000000E+00  0.75823525206E+03  0.75823525208E+03  0.50400001928E-02 0. -1.
        1   -1    0    0  501    0  0.00000000000E+00  0.00000000000E+00 -0.17446621749E+04  0.17446621749E+04  0.50400001928E-02 0.  1.
    10030    2    1    2    0    0  0.00000000000E+00  0.00000000000E+00 -0.98642692287E+03  0.25028974270E+04  0.23003168164E+04 0.  0.
        5    1    3    3  502    0 -0.58678407503E+03 -0.40613046057E+03 -0.14746377531E+04  0.16382417693E+04  0.46999998093E+01 0.  1.
       -5    1    3    3    0  502  0.58678407503E+03  0.40613046057E+03  0.48821083024E+03  0.86465565774E+03  0.46999998093E+01 0. -1.
</event>
<event>
 5   0  0.7003852E-06  0.2302038E+04  0.7818609E-02  0.8477118E-01
       -2   -1    0    0    0  501  0.00000000000E+00  0.00000000000E+00  0.10244274186E+04  0.10244274186E+04  0.25500000920E-02 0. -1.
        2   -1    0    0  501    0  0.00000000000E+00  0.00000000000E+00 -0.12932544323E+04  0.12932544323E+04  0.25500000920E-02 0.  1.
    10030    2    1    2    0    0  0.00000000000E+00  0.00000000000E+00 -0.26882701370E+03  0.23176818509E+04  0.23020384877E+04 0.  0.
        2    1    3    3  502    0  0.55222856717E+03  0.84791884512E+03  0.41787829937E+03  0.10947808143E+04  0.25500000920E-02 0. -1.
       -2    1    3    3    0  502 -0.55222856717E+03 -0.84791884512E+03 -0.68670531308E+03  0.12229010366E+04  0.25500000920E-02 0.  1.
</event>
<event>
 5   0  0.7044981E-06  0.2299914E+04  0.7818609E-02  0.8477955E-01
        2   -1    0    0  501    0  0.00000000000E+00  0.00000000000E+00  0.23676162206E+04  0.23676162206E+04  0.25500000920E-02 0.  1.
       -2   -1    0    0    0  501  0.00000000000E+00  0.00000000000E+00 -0.55853708898E+03  0.55853708899E+03  0.25500000920E-02 0. -1.
    10030    2    1    2    0    0  0.00000000000E+00  0.00000000000E+00  0.18090791316E+04  0.29261533096E+04  0.22999143216E+04 0.  0.
        4    1    3    3  502    0 -0.22763443922E+03 -0.77320224864E+02 -0.52620694328E+03  0.57852503416E+03  0.12699999809E+01 0. -1.
       -4    1    3    3    0  502  0.22763443922E+03  0.77320224864E+02  0.23352860749E+04  0.23476282754E+04  0.12699999809E+01 0.  1.
</event>
<event>
 5   0  0.7348107E-06  0.2296870E+04  0.7818609E-02  0.8479156E-01
        2   -1    0    0  501    0  0.00000000000E+00  0.00000000000E+00  0.16983789776E+04  0.16983789776E+04  0.25500000920E-02 0. -1.
       -2   -1    0    0    0  501  0.00000000000E+00  0.00000000000E+00 -0.77656597388E+03  0.77656597388E+03  0.25500000920E-02 0.  1.
    10030    2    1    2    0    0  0.00000000000E+00  0.00000000000E+00  0.92181300372E+03  0.24749449515E+04  0.22968703270E+04 0.  0.
        3    1    3    3  502    0  0.11361761784E+04  0.11709769894E+03  0.33207466485E+03  0.11894880296E+04  0.10100000352E+00 0. -1.
       -3    1    3    3    0  502 -0.11361761784E+04 -0.11709769894E+03  0.58973833887E+03  0.12854569219E+04  0.10100000352E+00 0.  1.
</event>
<event>
 5   0  0.3184492E-06  0.2296257E+04  0.7818609E-02  0.8479399E-01
        1   -1    0    0  501    0  0.00000000000E+00  0.00000000000E+00  0.15639944121E+04  0.15639944121E+04  0.50400001928E-02 0. -1.
       -1   -1    0    0    0  501  0.00000000000E+00  0.00000000000E+00 -0.84284100181E+03  0.84284100182E+03  0.50400001928E-02 0.  1.
    10030    2    1    2    0    0  0.00000000000E+00  0.00000000000E+00  0.72115341027E+03  0.24068354139E+04  0.22962566208E+04 0.  0.
        1    1    3    3  502    0 -0.98605234202E+03  0.15739498823E+02  0.97681019603E+03  0.13880580363E+04  0.50400001928E-02 0. -1.
       -1    1    3    3    0  502  0.98605234202E+03 -0.15739498823E+02 -0.25565678576E+03  0.10187773776E+04  0.50400001928E-02 0.  1.
</event>
<event>
 5   0  0.3238713E-06  0.2294152E+04  0.7818609E-02  0.8480231E-01
        1   -1    0    0  501    0  0.00000000000E+00  0.00000000000E+00  0.12422976214E+04  0.12422976214E+04  0.50400001928E-02 0.  1.
       -1   -1    0    0    0  501  0.00000000000E+00  0.00000000000E+00 -0.10591527789E+04  0.10591527789E+04  0.50400001928E-02 0. -1.
    10030    2    1    2    0    0  0.00000000000E+00  0.00000000000E+00  0.18314484249E+03  0.23014504003E+04  0.22941516759E+04 0.  0.
        3    1    3    3  502    0  0.10430531111E+04 -0.24884666514E+03  0.50017465654E+03  0.11832409528E+04  0.10100000352E+00 0.  1.
       -3    1    3    3    0  502 -0.10430531111E+04  0.24884666514E+03 -0.31702981405E+03  0.11182094475E+04  0.10100000352E+00 0. -1.
</event>
<event>
 5   0  0.3338758E-06  0.2297220E+04  0.7818609E-02  0.8479018E-01
        1   -1    0    0  501    0  0.00000000000E+00  0.00000000000E+00  0.14415247321E+04  0.14415247321E+04  0.50400001928E-02 0.  1.
       -1   -1    0    0    0  501  0.00000000000E+00  0.00000000000E+00 -0.91521497358E+03  0.91521497359E+03  0.50400001928E-02 0. -1.
    10030    2    1    2    0    0  0.00000000000E+00  0.00000000000E+00  0.52630975847E+03  0.23567397057E+04  0.22972200762E+04 0.  0.
        5    1    3    3  502    0  0.25215565907E+03 -0.92461775722E+03  0.91263126756E+03  0.13234116494E+04  0.46999998093E+01 0.  1.
       -5    1    3    3    0  502 -0.25215565907E+03  0.92461775722E+03 -0.38632150908E+03  0.10333280562E+04  0.46999998093E+01 0. -1.
</event>
<event>
 5   0  0.3338758E-06  0.2298136E+04  0.7818609E-02  0.8478656E-01
        1   -1    0    0  501    0  0.00000000000E+00  0.00000000000E+00  0.80507658305E+03  0.80507658306E+03  0.50400001928E-02 0.  1.
       -1   -1    0    0    0  501  0.00000000000E+00  0.00000000000E+00 -0.16400394724E+04  0.16400394724E+04  0.50400001928E-02 0. -1.
    10030    2    1    2    0    0  0.00000000000E+00  0.00000000000E+00 -0.83496288937E+03  0.24451160555E+04  0.22981360922E+04 0.  0.
        5    1    3    3  502    0 -0.65586322010E+03  0.75209067841E+02  0.58315918186E+03  0.88085736005E+03  0.46999998093E+01 0.  1.
       -5    1    3    3    0  502  0.65586322010E+03 -0.75209067841E+02 -0.14181220712E+04  0.15642586954E+04  0.46999998093E+01 0. -1.
</event>
<event>
 5   0  0.7003852E-06  0.2302515E+04  0.7818609E-02  0.8476930E-01
        2   -1    0    0  501    0  0.00000000000E+00  0.00000000000E+00  0.23294379231E+04  0.23294379231E+04  0.25500000920E-02 0.  1.
       -2   -1    0    0    0  501  0.00000000000E+00  0.00000000000E+00 -0.56897560875E+03  0.56897560876E+03  0.25500000920E-02 0. -1.
    10030    2    1    2    0    0  0.00000000000E+00  0.00000000000E+00  0.17604623143E+04  0.28984135318E+04  0.23025145909E+04 0.  0.
        2    1    3    3  502    0  0.56923370209E+03 -0.99662243250E+03  0.99359394570E+03  0.15180619913E+04  0.25500000920E-02 0. -1.
       -2    1    3    3    0  502 -0.56923370209E+03  0.99662243250E+03  0.76686836860E+03  0.13803515405E+04  0.25500000920E-02 0.  1.
</event>
<event>
 5   0  0.7003852E-06  0.2300309E+04  0.7818609E-02  0.8477799E-01
        2   -1    0    0  501    0  0.00000000000E+00  0.00000000000E+00  0.18748127966E+04  0.18748127966E+04  0.25500000920E-02 0.  1.
       -2   -1    0    0    0  501  0.00000000000E+00  0.00000000000E+00 -0.70559318327E+03  0.70559318328E+03  0.25500000920E-02 0. -1.
    10030    2    1    2    0    0  0.00000000000E+00  0.00000000000E+00  0.11692196133E+04  0.25804059799E+04  0.23003087873E+04 0.  0.
        2    1    3    3  502    0 -0.64050553549E+03  0.75399174489E+03  0.12426416512E+04  0.15883668234E+04  0.25500000920E-02 0.  1.
       -2    1    3    3    0  502  0.64050553549E+03 -0.75399174489E+03 -0.73422037863E+02  0.99203915649E+03  0.25500000920E-02 0. -1.
</event>
<event>
 5   0  0.3238713E-06  0.2303977E+04  0.7818609E-02  0.8476355E-01
       -1   -1    0    0    0  501  0.00000000000E+00  0.00000000000E+00  0.10043213009E+04  0.10043213010E+04  0.50400001928E-02 0.  1.
        1   -1    0    0  501    0  0.00000000000E+00  0.00000000000E+00 -0.13213672698E+04  0.13213672698E+04  0.50400001928E-02 0. -1.
    10030    2    1    2    0    0  0.00000000000E+00  0.00000000000E+00 -0.31704596884E+03  0.23256885707E+04  0.23039768188E+04 0.  0.
        3    1    3    3  502    0  0.11191798761E+04  0.23866916744E+03 -0.29225053960E+03  0.11810744916E+04  0.10100000352E+00 0. -1.
       -3    1    3    3    0  502 -0.11191798761E+04 -0.23866916744E+03 -0.24795429235E+02  0.11446140791E+04  0.10100000352E+00 0.  1.
</event>
<event>
 5   0  0.3184492E-06  0.2295477E+04  0.7818609E-02  0.8479706E-01
       -1   -1    0    0    0  501  0.00000000000E+00  0.00000000000E+00  0.10577361231E+04  0.10577361231E+04  0.50400001928E-02 0. -1.
        1   -1    0    0  501    0  0.00000000000E+00  0.00000000000E+00 -0.12453995321E+04  0.12453995321E+04  0.50400001928E-02 0.  1.
    10030    2    1    2    0    0  0.00000000000E+00  0.00000000000E+00 -0.18766340905E+03  0.23031356552E+04  0.22954773559E+04 0.  0.
        1    1    3    3  502    0 -0.31434690689E+03  0.60699736390E+03 -0.10188861283E+04  0.12269428349E+04  0.50400001928E-02 0.  1.
       -1    1    3    3    0  502  0.31434690689E+03 -0.60699736390E+03  0.83122271920E+03  0.10761928204E+04  0.50400001928E-02 0. -1.
</event>
<event>
 5   0  0.7242214E-06  0.2302514E+04  0.7818609E-02  0.8476931E-01
       -2   -1    0    0    0  501  0.00000000000E+00  0.00000000000E+00  0.87229768631E+03  0.87229768632E+03  0.25500000920E-02 0.  1.
        2   -1    0    0  501    0  0.00000000000E+00  0.00000000000E+00 -0.15194270341E+04  0.15194270341E+04  0.25500000920E-02 0. -1.
    10030    2    1    2    0    0  0.00000000000E+00  0.00000000000E+00 -0.64712934780E+03  0.23917247204E+04  0.23025140055E+04 0.  0.
        1    1    3    3  502    0 -0.95330640754E+03 -0.50697437148E+02 -0.99194625902E+03  0.13767064747E+04  0.50400001928E-02 0. -1.
       -1    1    3    3    0  502  0.95330640754E+03  0.50697437148E+02  0.34481691122E+03  0.10150182457E+04  0.50400001928E-02 0.  1.
</event>
<event>
 5   0  0.7497344E-06  0.2300568E+04  0.7818609E-02  0.8477697E-01
       -2   -1    0    0    0  501  0.00000000000E+00  0.00000000000E+00  0.11015071962E+04  0.11015071962E+04  0.25500000920E-02 0.  1.
        2   -1    0    0  501    0  0.00000000000E+00  0.00000000000E+00 -0.12012203100E+04  0.12012203100E+04  0.25500000920E-02 0. -1.
    10030    2    1    2    0    0  0.00000000000E+00  0.00000000000E+00 -0.99713113850E+02  0.23027275062E+04  0.23005675958E+04 0.  0.
        5    1    3    3  502    0  0.11376729103E+04  0.13731606099E+03  0.50114009206E+02  0.11470348100E+04  0.46999998093E+01 0.  1.
       -5    1    3    3    0  502 -0.11376729103E+04 -0.13731606099E+03 -0.14982712306E+03  0.11556926962E+04  0.46999998093E+01 0. -1.
</event>
<event>
 5   0  0.3195296E-06  0.2302556E+04  0.7818609E-02  0.8476914E-01
       -1   -1    0    0    0  501  0.00000000000E+00  0.00000000000E+00  0.10030728182E+04  0.10030728182E+04  0.50400001928E-02 0.  1.
        1   -1    0    0  501    0  0.00000000000E+00  0.00000000000E+00 -0.13213802649E+04  0.13213802649E+04  0.50400001928E-02 0. -1.
    10030    2    1    2    0    0  0.00000000000E+00  0.00000000000E+00 -0.31830744678E+03  0.23244530831E+04  0.23025556464E+04 0.  0.
        2    1    3    3  502    0  0.94234821281E+03 -0.62928752112E+03 -0.36460250740E+03  0.11903604189E+04  0.25500000920E-02 0. -1.
       -2    1    3    3    0  502 -0.94234821281E+03  0.62928752112E+03  0.46295060627E+02  0.11340926642E+04  0.25500000920E-02 0.  1.
</event>
<event>
 5   0  0.3195296E-06  0.2296966E+04  0.7818609E-02  0.8479118E-01
        1   -1    0    0  501    0  0.00000000000E+00  0.00000000000E+00  0.15922933118E+04  0.15922933118E+04  0.50400001928E-02 0.  1.
       -1   -1    0    0    0  501  0.00000000000E+00  0.00000000000E+00 -0.82837338612E+03  0.82837338614E+03  0.50400001928E-02 0. -1.
    10030    2    1    2    0    0  0.00000000000E+00  0.00000000000E+00  0.76391992568E+03  0.24206666979E+04  0.22969661751E+04 0.  0.
        2    1    3    3  502    0 -0.51929169690E+03 -0.79471405907E+03 -0.29920727380E+03  0.99536892399E+03  0.25500000920E-02 0. -1.
       -2    1    3    3    0  502  0.51929169690E+03  0.79471405907E+03  0.10631271995E+04  0.14252977740E+04  0.25500000920E-02 0.  1.
</event>
<event>
 5   0  0.3238713E-06  0.2271211E+04  0.7818609E-02  0.8489359E-01
        1   -1    0    0  501    0  0.00000000000E+00  0.00000000000E+00  0.11997807300E+04  0.11997807300E+04  0.50400001928E-02 0.  1.
       -1   -1    0    0    0  501  0.00000000000E+00  0.00000000000E+00 -0.10748630702E+04  0.10748630702E+04  0.50400001928E-02 0. -1.
    10030    2    1    2    0    0  0.00000000000E+00  0.00000000000E+00  0.12491765981E+03  0.22746438003E+04  0.22712111299E+04 0.  0.
        3    1    3    3  502    0 -0.55900121850E+03 -0.94909847877E+03 -0.21423704185E+03  0.11221264657E+04  0.10100000352E+00 0. -1.
       -3    1    3    3    0  502  0.55900121850E+03  0.94909847877E+03  0.33915470166E+03  0.11525173346E+04  0.10100000352E+00 0.  1.
</event>
<event>
 5   0  0.7348107E-06  0.2350702E+04  0.7818609E-02  0.8458194E-01
       -2   -1    0    0    0  501  0.00000000000E+00  0.00000000000E+00  0.79151264150E+03  0.79151264151E+03  0.25500000920E-02 0. -1.
        2   -1    0    0  501    0  0.00000000000E+00  0.00000000000E+00 -0.17453290343E+04  0.17453290343E+04  0.25500000920E-02 0.  1.
    10030    2    1    2    0    0  0.00000000000E+00  0.00000000000E+00 -0.95381639279E+03  0.25368416758E+04  0.23507020179E+04 0.  0.
        3    1    3    3  502    0 -0.11470682567E+04 -0.25156801735E+03 -0.52975444311E+03  0.12882902751E+04  0.10100000352E+00 0.  1.
       -3    1    3    3    0  502  0.11470682567E+04  0.25156801735E+03 -0.42406194968E+03  0.12485514007E+04  0.10100000352E+00 0. -1.
</event>
<event>
 5   0  0.3338758E-06  0.2300207E+04  0.7818609E-02  0.8477840E-01
        1   -1    0    0  501    0  0.00000000000E+00  0.00000000000E+00  0.75895627816E+03  0.75895627818E+03  0.50400001928E-02 0. -1.
       -1   -1    0    0    0  501  0.00000000000E+00  0.00000000000E+00 -0.17428376868E+04  0.17428376868E+04  0.50400001928E-02 0.  1.
    10030    2    1    2    0    0  0.00000000000E+00  0.00000000000E+00 -0.98388140863E+03  0.25017939650E+04  0.23002066031E+04 0.  0.
        5    1    3    3  502    0 -0.27913517071E+03 -0.99660109886E+03  0.53600230233E+02  0.10363519038E+04  0.46999998093E+01 0. -1.
       -5    1    3    3    0  502  0.27913517071E+03  0.99660109886E+03 -0.10374816389E+04  0.14654420612E+04  0.46999998093E+01 0.  1.
</event>
<event>
 5   0  0.3195296E-06  0.2356513E+04  0.7818609E-02  0.8455966E-01
        1   -1    0    0  501    0  0.00000000000E+00  0.00000000000E+00  0.42516546620E+03  0.42516546623E+03  0.50400001928E-02 0. -1.
       -1   -1    0    0    0  501  0.00000000000E+00  0.00000000000E+00 -0.32652886339E+04  0.32652886339E+04  0.50400001928E-02 0.  1.
    10030    2    1    2    0    0  0.00000000000E+00  0.00000000000E+00 -0.28401231677E+04  0.36904541001E+04  0.23565126474E+04 0.  0.
        2    1    3    3  502    0 -0.10637184147E+04  0.49255785535E+03 -0.12335888488E+04  0.17017201751E+04  0.25500000920E-02 0. -1.
       -2    1    3    3    0  502  0.10637184147E+04 -0.49255785535E+03 -0.16065343189E+04  0.19887339250E+04  0.25500000920E-02 0.  1.
</event>
<event>
 5   0  0.7242214E-06  0.2302095E+04  0.7818609E-02  0.8477096E-01
       -2   -1    0    0    0  501  0.00000000000E+00  0.00000000000E+00  0.98010578431E+03  0.98010578431E+03  0.25500000920E-02 0. -1.
        2   -1    0    0  501    0  0.00000000000E+00  0.00000000000E+00 -0.13518031444E+04  0.13518031445E+04  0.25500000920E-02 0.  1.
    10030    2    1    2    0    0  0.00000000000E+00  0.00000000000E+00 -0.37169736014E+03  0.23319089288E+04  0.23020947688E+04 0.  0.
        1    1    3    3  502    0 -0.55770143253E+03 -0.34900849674E+02 -0.12051919414E+04  0.13284338797E+04  0.50400001928E-02 0.  1.
       -1    1    3    3    0  502  0.55770143253E+03  0.34900849674E+02  0.83349458122E+03  0.10034750491E+04  0.50400001928E-02 0. -1.
</event>
<event>
 5   0  0.7497344E-06  0.2291043E+04  0.7818609E-02  0.8481461E-01
       -2   -1    0    0    0  501  0.00000000000E+00  0.00000000000E+00  0.11702932011E+04  0.11702932011E+04  0.25500000920E-02 0. -1.
        2   -1    0    0  501    0  0.00000000000E+00  0.00000000000E+00 -0.11212737049E+04  0.11212737049E+04  0.25500000920E-02 0.  1.
    10030    2    1    2    0    0  0.00000000000E+00  0.00000000000E+00  0.49019496195E+02  0.22915669060E+04  0.22910425517E+04 0.  0.
        5    1    3    3  502    0  0.47361787530E+03  0.75390933544E+03 -0.69642128322E+03  0.11303618322E+04  0.46999998093E+01 0.  1.
       -5    1    3    3    0  502 -0.47361787530E+03 -0.75390933544E+03  0.74544077941E+03  0.11612050738E+04  0.46999998093E+01 0. -1.
</event>
<event>
 5   0  0.7497344E-06  0.2290870E+04  0.7818609E-02  0.8481530E-01
       -2   -1    0    0    0  501  0.00000000000E+00  0.00000000000E+00  0.82061613241E+03  0.82061613242E+03  0.25500000920E-02 0.  1.
        2   -1    0    0  501    0  0.00000000000E+00  0.00000000000E+00 -0.15988245272E+04  0.15988245272E+04  0.25500000920E-02 0. -1.
    10030    2    1    2    0    0  0.00000000000E+00  0.00000000000E+00 -0.77820839475E+03  0.24194406596E+04  0.22908698784E+04 0.  0.
        5    1    3    3  502    0  0.94869154872E+03 -0.55472263625E+03 -0.73012936763E+03  0.13194104143E+04  0.46999998093E+01 0. -1.
       -5    1    3    3    0  502 -0.94869154872E+03  0.55472263625E+03 -0.48079027111E+02  0.11000302453E+04  0.46999998093E+01 0.  1.
</event>
<event>
 5   0  0.7497344E-06  0.2300889E+04  0.7818609E-02  0.8477571E-01
       -2   -1    0    0    0  501  0.00000000000E+00  0.00000000000E+00  0.59708229837E+03  0.59708229838E+03  0.25500000920E-02 0. -1.
        2   -1    0    0  501    0  0.00000000000E+00  0.00000000000E+00 -0.22166494280E+04  0.22166494280E+04  0.25500000920E-02 0.  1.
    10030    2    1    2    0    0  0.00000000000E+00  0.00000000000E+00 -0.16195671296E+04  0.28137317263E+04  0.23008886415E+04 0.  0.
        5    1    3    3  502    0 -0.34251636599E+03  0.98709325058E+03 -0.13985884919E+04  0.17457784527E+04  0.46999998093E+01 0.  1.
       -5    1    3    3    0  502  0.34251636599E+03 -0.98709325058E+03 -0.22097863770E+03  0.10679532736E+04  0.46999998093E+01 0. -1.
</event>
<event>
 5   0  0.7003852E-06  0.2297335E+04  0.7818609E-02  0.8478973E-01
       -2   -1    0    0    0  501  0.00000000000E+00  0.00000000000E+00  0.12117086625E+04  0.12117086625E+04  0.25500000920E-02 0.  1.
        2   -1    0    0  501    0  0.00000000000E+00  0.00000000000E+00 -0.10889061786E+04  0.10889061786E+04  0.25500000920E-02 0. -1.
    10030    2    1    2    0    0  0.00000000000E+00  0.00000000000E+00  0.12280248386E+03  0.23006148412E+04  0.22973350207E+04 0.  0.
        2    1    3    3  502    0 -0.29425716090E+03 -0.23304821885E+03  0.11485561590E+04  0.12083377009E+04  0.25500000920E-02 0.  1.
       -2    1    3    3    0  502  0.29425716090E+03  0.23304821885E+03 -0.10257536751E+04  0.10922771403E+04  0.25500000920E-02 0. -1.
</event>
<event>
 5   0  0.7044981E-06  0.2300257E+04  0.7818609E-02  0.8477820E-01
        2   -1    0    0  501    0  0.00000000000E+00  0.00000000000E+00  0.12904523742E+04  0.12904523742E+04  0.25500000920E-02 0.  1.
       -2   -1    0    0    0  501  0.00000000000E+00  0.00000000000E+00 -0.10250632023E+04  0.10250632023E+04  0.25500000920E-02 0. -1.
    10030    2    1    2    0    0  0.00000000000E+00  0.00000000000E+00  0.26538917190E+03  0.23155155764E+04  0.23002567188E+04 0.  0.
        4    1    3    3  502    0  0.68684795783E+02  0.83467502991E+03  0.92620895442E+03  0.12487051881E+04  0.12699999809E+01 0.  1.
       -4    1    3    3    0  502 -0.68684795783E+02 -0.83467502991E+03 -0.66081978252E+03  0.10668103883E+04  0.12699999809E+01 0. -1.
</event>
<event>
 5   0  0.7348107E-06  0.2315707E+04  0.7818609E-02  0.8471754E-01
       -2   -1    0    0    0  501  0.00000000000E+00  0.00000000000E+00  0.87019360625E+03  0.87019360626E+03  0.25500000920E-02 0.  1.
        2   -1    0    0  501    0  0.00000000000E+00  0.00000000000E+00 -0.15406049801E+04  0.15406049801E+04  0.25500000920E-02 0. -1.
    10030    2    1    2    0    0  0.00000000000E+00  0.00000000000E+00 -0.67041137386E+03  0.24107985864E+04  0.23157068929E+04 0.  0.
        3    1    3    3  502    0 -0.91909352877E+03  0.63670471800E+03 -0.22022309164E+02  0.11183071156E+04  0.10100000352E+00 0. -1.
       -3    1    3    3    0  502  0.91909352877E+03 -0.63670471800E+03 -0.64838906470E+03  0.12924914708E+04  0.10100000352E+00 0.  1.
</event>
<event>
 5   0  0.7497344E-06  0.2296831E+04  0.7818609E-02  0.8479172E-01
       -2   -1    0    0    0  501  0.00000000000E+00  0.00000000000E+00  0.99814578571E+03  0.99814578572E+03  0.25500000920E-02 0. -1.
        2   -1    0    0  501    0  0.00000000000E+00  0.00000000000E+00 -0.13213076295E+04  0.13213076295E+04  0.25500000920E-02 0.  1.
    10030    2    1    2    0    0  0.00000000000E+00  0.00000000000E+00 -0.32316184381E+03  0.23194534152E+04  0.22968305484E+04 0.  0.
        5    1    3    3  502    0 -0.62431495180E+03  0.90518094709E+03  0.17291237446E+03  0.11131228527E+04  0.46999998093E+01 0. -1.
       -5    1    3    3    0  502  0.62431495180E+03 -0.90518094709E+03 -0.49607421827E+03  0.12063305625E+04  0.46999998093E+01 0.  1.
</event>
<event>
 5   0  0.7044981E-06  0.2300085E+04  0.7818609E-02  0.8477888E-01
       -2   -1    0    0    0  501  0.00000000000E+00  0.00000000000E+00  0.72606316116E+03  0.72606316116E+03  0.25500000920E-02 0.  1.
        2   -1    0    0  501    0  0.00000000000E+00  0.00000000000E+00 -0.18216008453E+04  0.18216008453E+04  0.25500000920E-02 0. -1.
    10030    2    1    2    0    0  0.00000000000E+00  0.00000000000E+00 -0.10955376841E+04  0.25476640064E+04  0.23000845794E+04 0.  0.
        4    1    3    3  502    0  0.80570915382E+03  0.38920016967E+03  0.25245867169E+03  0.92972092932E+03  0.12699999809E+01 0.  1.
       -4    1    3    3    0  502 -0.80570915382E+03 -0.38920016967E+03 -0.13479963558E+04  0.16179430771E+04  0.12699999809E+01 0. -1.
</event>
<event>
 5   0  0.7242214E-06  0.2308233E+04  0.7818609E-02  0.8474682E-01
        2   -1    0    0  501    0  0.00000000000E+00  0.00000000000E+00  0.17189615107E+04  0.17189615107E+04  0.25500000920E-02 0.  1.
       -2   -1    0    0    0  501  0.00000000000E+00  0.00000000000E+00 -0.77487735948E+03  0.77487735948E+03  0.25500000920E-02 0. -1.
    10030    2    1    2    0    0  0.00000000000E+00  0.00000000000E+00  0.94408415123E+03  0.24938388702E+04  0.23082325329E+04 0.  0.
        1    1    3    3  502    0  0.33827116367E+03  0.30280769858E+02  0.16637501627E+04  0.16980603373E+04  0.50400001928E-02 0.  1.
       -1    1    3    3    0  502 -0.33827116367E+03 -0.30280769858E+02 -0.71966601151E+03  0.79577853285E+03  0.50400001928E-02 0. -1.
</event>
<event>
 5   0  0.3195296E-06  0.2300356E+04  0.7818609E-02  0.8477781E-01
        1   -1    0    0  501    0  0.00000000000E+00  0.00000000000E+00  0.11844456649E+04  0.11844456649E+04  0.50400001928E-02 0. -1.
       -1   -1    0    0    0  501  0.00000000000E+00  0.00000000000E+00 -0.11169017070E+04  0.11169017070E+04  0.50400001928E-02 0.  1.
    10030    2    1    2    0    0  0.00000000000E+00  0.00000000000E+00  0.67543957955E+02  0.23013473719E+04  0.23003559594E+04 0.  0.
        2    1    3    3  502    0  0.40363549089E+03 -0.10058709650E+04 -0.35137624918E+03  0.11393696838E+04  0.25500000920E-02 0.  1.
       -2    1    3    3    0  502 -0.40363549089E+03  0.10058709650E+04  0.41892020713E+03  0.11619776881E+04  0.25500000920E-02 0. -1.
</event>
<event>
 5   0  0.7348107E-06  0.2301051E+04  0.7818609E-02  0.8477507E-01
        2   -1    0    0  501    0  0.00000000000E+00  0.00000000000E+00  0.12978167927E+04  0.12978167927E+04  0.25500000920E-02 0. -1.
       -2   -1    0    0    0  501  0.00000000000E+00  0.00000000000E+00 -0.10199501339E+04  0.10199501339E+04  0.25500000920E-02 0.  1.
    10030    2    1    2    0    0  0.00000000000E+00  0.00000000000E+00  0.27786665885E+03  0.23177669266E+04  0.23010505527E+04 0.  0.
        3    1    3    3  502    0  0.14854233665E+03 -0.11324873312E+04  0.27819844453E+03  0.11755793320E+04  0.10100000352E+00 0. -1.
       -3    1    3    3    0  502 -0.14854233665E+03  0.11324873312E+04 -0.33178567908E+00  0.11421875946E+04  0.10100000352E+00 0.  1.
</event>
<event>
 5   0  0.3226427E-06  0.2298627E+04  0.7818609E-02  0.8478463E-01
       -1   -1    0    0    0  501  0.00000000000E+00  0.00000000000E+00  0.54568851291E+03  0.54568851294E+03  0.50400001928E-02 0. -1.
        1   -1    0    0  501    0  0.00000000000E+00  0.00000000000E+00 -0.24206515558E+04  0.24206515558E+04  0.50400001928E-02 0.  1.
    10030    2    1    2    0    0  0.00000000000E+00  0.00000000000E+00 -0.18749630429E+04  0.29663400688E+04  0.22986271971E+04 0.  0.
        4    1    3    3  502    0  0.14581945566E+03 -0.27238142311E+03 -0.23660559943E+04  0.23861428152E+04  0.12699999809E+01 0.  1.
       -4    1    3    3    0  502 -0.14581945566E+03  0.27238142311E+03  0.49109295138E+03  0.58019725361E+03  0.12699999809E+01 0. -1.
</event>
<event>
 5   0  0.3184492E-06  0.2325678E+04  0.7818609E-02  0.8467865E-01
        1   -1    0    0  501    0  0.00000000000E+00  0.00000000000E+00  0.17648566568E+04  0.17648566569E+04  0.50400001928E-02 0.  1.
       -1   -1    0    0    0  501  0.00000000000E+00  0.00000000000E+00 -0.76617833893E+03  0.76617833894E+03  0.50400001928E-02 0. -1.
    10030    2    1    2    0    0  0.00000000000E+00  0.00000000000E+00  0.99867831792E+03  0.25310349958E+04  0.23256783456E+04 0.  0.
        1    1    3    3  502    0  0.61047443695E+01 -0.73211141795E+03 -0.48385425271E+03  0.87757582812E+03  0.50400001928E-02 0. -1.
       -1    1    3    3    0  502 -0.61047443695E+01  0.73211141795E+03  0.14825325706E+04  0.16534591677E+04  0.50400001928E-02 0.  1.
</event>
<event>
 5   0  0.3338758E-06  0.2297597E+04  0.7818609E-02  0.8478869E-01
        1   -1    0    0  501    0  0.00000000000E+00  0.00000000000E+00  0.22992976182E+04  0.22992976182E+04  0.50400001928E-02 0.  1.
       -1   -1    0    0    0  501  0.00000000000E+00  0.00000000000E+00 -0.57397437647E+03  0.57397437649E+03  0.50400001928E-02 0. -1.
    10030    2    1    2    0    0  0.00000000000E+00  0.00000000000E+00  0.17253232417E+04  0.28732719947E+04  0.22975969331E+04 0.  0.
        5    1    3    3  502    0  0.59647665988E+00 -0.97893251262E+03  0.16144592309E+04  0.18880704220E+04  0.46999998093E+01 0.  1.
       -5    1    3    3    0  502 -0.59647665988E+00  0.97893251262E+03  0.11086401084E+03  0.98520157275E+03  0.46999998093E+01 0. -1.
</event>
<event>
 5   0  0.7044981E-06  0.2303629E+04  0.7818609E-02  0.8476492E-01
       -2   -1    0    0    0  501  0.00000000000E+00  0.00000000000E+00  0.10401362618E+04  0.10401362618E+04  0.25500000920E-02 0. -1.
        2   -1    0    0  501    0  0.00000000000E+00  0.00000000000E+00 -0.12754833575E+04  0.12754833575E+04  0.25500000920E-02 0.  1.
    10030    2    1    2    0    0  0.00000000000E+00  0.00000000000E+00 -0.23534709567E+03  0.23156196193E+04  0.23036288690E+04 0.  0.
        4    1    3    3  502    0  0.68608670080E+03  0.82272652623E+03 -0.54305587217E+03  0.12010433761E+04  0.12699999809E+01 0.  1.
       -4    1    3    3    0  502 -0.68608670080E+03 -0.82272652623E+03  0.30770877650E+03  0.11145762432E+04  0.12699999809E+01 0. -1.
</event>
<event>
 5   0  0.3195296E-06  0.2298272E+04  0.7818609E-02  0.8478603E-01
        1   -1    0    0  501    0  0.00000000000E+00  0.00000000000E+00  0.94779382069E+03  0.94779382071E+03  0.50400001928E-02 0.  1.
       -1   -1    0    0    0  501  0.00000000000E+00  0.00000000000E+00 -0.13932500417E+04  0.13932500417E+04  0.50400001928E-02 0. -1.
    10030    2    1    2    0    0  0.00000000000E+00  0.00000000000E+00 -0.44545622100E+03  0.23410438624E+04  0.22982722034E+04 0.  0.
        2    1    3    3  502    0  0.10169927622E+04 -0.49473282217E+03 -0.15274072260E+02  0.11310473646E+04  0.25500000920E-02 0.  1.
       -2    1    3    3    0  502 -0.10169927622E+04  0.49473282217E+03 -0.43018214874E+03  0.12099964978E+04  0.25500000920E-02 0. -1.
</event>
<event>
 5   0  0.7003852E-06  0.2301354E+04  0.7818609E-02  0.8477388E-01
       -2   -1    0    0    0  501  0.00000000000E+00  0.00000000000E+00  0.12455256083E+04  0.12455256083E+04  0.25500000920E-02 0.  1.
        2   -1    0    0  501    0  0.00000000000E+00  0.00000000000E+00 -0.10630509747E+04  0.10630509747E+04  0.25500000920E-02 0. -1.
    10030    2    1    2    0    0  0.00000000000E+00  0.00000000000E+00  0.18247463365E+03  0.23085765830E+04  0.23013536989E+04 0.  0.
        2    1    3    3  502    0  0.82427287722E+03 -0.63072888963E+03 -0.40712419371E+03  0.11148967744E+04  0.25500000920E-02 0. -1.
       -2    1    3    3    0  502 -0.82427287722E+03  0.63072888963E+03  0.58959882737E+03  0.11936798087E+04  0.25500000920E-02 0.  1.
</event>
<event>
 5   0  0.7242214E-06  0.2299708E+04  0.7818609E-02  0.8478036E-01
       -2   -1    0    0    0  501  0.00000000000E+00  0.00000000000E+00  0.73026471540E+03  0.73026471541E+03  0.25500000920E-02 0.  1.
        2   -1    0    0  501    0  0.00000000000E+00  0.00000000000E+00 -0.18105276505E+04  0.18105276505E+04  0.25500000920E-02 0. -1.
    10030    2    1    2    0    0  0.00000000000E+00  0.00000000000E+00 -0.10802629351E+04  0.25407923659E+04  0.22997082071E+04 0.  0.
        1    1    3    3  502    0 -0.28942229618E+03 -0.32494889743E+03 -0.17160425433E+04  0.17703556315E+04  0.50400001928E-02 0. -1.
       -1    1    3    3    0  502  0.28942229618E+03  0.32494889743E+03  0.63577960822E+03  0.77043673441E+03  0.50400001928E-02 0.  1.
</event>
<event>
 5   0  0.7497344E-06  0.2302096E+04  0.7818609E-02  0.8477095E-01
       -2   -1    0    0    0  501  0.00000000000E+00  0.00000000000E+00  0.82602501326E+03  0.82602501326E+03  0.25500000920E-02 0.  1.
        2   -1    0    0  501    0  0.00000000000E+00  0.00000000000E+00 -0.16039602049E+04  0.16039602049E+04  0.25500000920E-02 0. -1.
    10030    2    1    2    0    0  0.00000000000E+00  0.00000000000E+00 -0.77793519167E+03  0.24299852182E+04  0.23020957839E+04 0.  0.
        5    1    3    3  502    0  0.50292069397E+03  0.25527877325E+03  0.67016483787E+03  0.87592207211E+03  0.46999998093E+01 0.  1.
       -5    1    3    3    0  502 -0.50292069397E+03 -0.25527877325E+03 -0.14481000295E+04  0.15540631461E+04  0.46999998093E+01 0. -1.
</event>
<event>
 5   0  0.3195296E-06  0.2300824E+04  0.7818609E-02  0.8477596E-01
        1   -1    0    0  501    0  0.00000000000E+00  0.00000000000E+00  0.12768127833E+04  0.12768127833E+04  0.50400001928E-02 0.  1.
       -1   -1    0    0    0  501  0.00000000000E+00  0.00000000000E+00 -0.10365244197E+04  0.10365244197E+04  0.50400001928E-02 0. -1.
    10030    2    1    2    0    0  0.00000000000E+00  0.00000000000E+00  0.24028836363E+03  0.23133372031E+04  0.23008238780E+04 0.  0.
        2    1    3    3  502    0 -0.54783787003E+03 -0.38355480513E+03  0.10612943579E+04  0.12544266955E+04  0.25500000920E-02 0.  1.
       -2    1    3    3    0  502  0.54783787003E+03  0.38355480513E+03 -0.82100599425E+03  0.10589105075E+04  0.25500000920E-02 0. -1.
</event>
<event>
 5   0  0.3226427E-06  0.2301151E+04  0.7818609E-02  0.8477468E-01
        1   -1    0    0  501    0  0.00000000000E+00  0.00000000000E+00  0.21674957556E+04  0.21674957556E+04  0.50400001928E-02 0. -1.
       -1   -1    0    0    0  501  0.00000000000E+00  0.00000000000E+00 -0.61076171645E+03  0.61076171647E+03  0.50400001928E-02 0.  1.
    10030    2    1    2    0    0  0.00000000000E+00  0.00000000000E+00  0.15567340392E+04  0.27782574721E+04  0.23011505193E+04 0.  0.
        4    1    3    3  502    0  0.27921503517E+03  0.83184618876E+03 -0.12017891550E+03  0.88564874654E+03  0.12699999809E+01 0.  1.
       -4    1    3    3    0  502 -0.27921503517E+03 -0.83184618876E+03  0.16769129547E+04  0.18926087256E+04  0.12699999809E+01 0. -1.
</event>
<event>
 5   0  0.7044981E-06  0.2310847E+04  0.7818609E-02  0.8473657E-01
       -2   -1    0    0    0  501  0.00000000000E+00  0.00000000000E+00  0.13805000586E+04  0.13805000586E+04  0.25500000920E-02 0.  1.
        2   -1    0    0  501    0  0.00000000000E+00  0.00000000000E+00 -0.96704341370E+03  0.96704341371E+03  0.25500000920E-02 0. -1.
    10030    2    1    2    0    0  0.00000000000E+00  0.00000000000E+00  0.41345664487E+03  0.23475434723E+04  0.23108470216E+04 0.  0.
        4    1    3    3  502    0 -0.80510877721E+03 -0.77826816488E+03 -0.82575343410E+02  0.11228186763E+04  0.12699999809E+01 0. -1.
       -4    1    3    3    0  502  0.80510877721E+03  0.77826816488E+03  0.49603198828E+03  0.12247247960E+04  0.12699999809E+01 0.  1.
</event>
<event>
 5   0  0.7348107E-06  0.2301387E+04  0.7818609E-02  0.8477374E-01
       -2   -1    0    0    0  501  0.00000000000E+00  0.00000000000E+00  0.89015547091E+03  0.89015547091E+03  0.25500000920E-02 0. -1.
        2   -1    0    0  501    0  0.00000000000E+00  0.00000000000E+00 -0.14874881096E+04  0.14874881096E+04  0.25500000920E-02 0.  1.
    10030    2    1    2    0    0  0.00000000000E+00  0.00000000000E+00 -0.59733263868E+03  0.23776435805E+04  0.23013871284E+04 0.  0.
        3    1    3    3  502    0  0.66153259424E+03  0.45037992947E+03 -0.11528810608E+04  0.14034251688E+04  0.10100000352E+00 0.  1.
       -3    1    3    3    0  502 -0.66153259424E+03 -0.45037992947E+03  0.55554842208E+03  0.97421841164E+03  0.10100000352E+00 0. -1.
</event>
<event>
 5   0  0.3184492E-06  0.2298121E+04  0.7818609E-02  0.8478662E-01
       -1   -1    0    0    0  501  0.00000000000E+00  0.00000000000E+00  0.24867295827E+04  0.24867295827E+04  0.50400001928E-02 0.  1.
        1   -1    0    0  501    0  0.00000000000E+00  0.00000000000E+00 -0.53095463420E+03  0.53095463423E+03  0.50400001928E-02 0. -1.
    10030    2    1    2    0    0  0.00000000000E+00  0.00000000000E+00  0.19557749485E+04  0.30176842170E+04  0.22981214903E+04 0.  0.
        1    1    3    3  502    0  0.43269004652E+03 -0.53057169077E+03 -0.23388784227E+03  0.72348498132E+03  0.50400001928E-02 0. -1.
       -1    1    3    3    0  502 -0.43269004652E+03  0.53057169077E+03  0.21896627908E+04  0.22941992356E+04  0.50400001928E-02 0.  1.
</event>
<event>
 5   0  0.3238713E-06  0.2303584E+04  0.7818609E-02  0.8476509E-01
        1   -1    0    0  501    0  0.00000000000E+00  0.00000000000E+00  0.13112455395E+04  0.13112455395E+04  0.50400001928E-02 0. -1.
       -1   -1    0    0    0  501  0.00000000000E+00  0.00000000000E+00 -0.10117291427E+04  0.10117291427E+04  0.50400001928E-02 0.  1.
    10030    2    1    2    0    0  0.00000000000E+00  0.00000000000E+00  0.29951639677E+03  0.23229746822E+04  0.23035844465E+04 0.  0.
        3    1    3    3  502    0 -0.91470464915E+03 -0.33734194032E+03 -0.46870769505E+03  0.10817444677E+04  0.10100000352E+00 0.  1.
       -3    1    3    3    0  502  0.91470464915E+03  0.33734194032E+03  0.76822409182E+03  0.12412302145E+04  0.10100000352E+00 0. -1.
</event>
<event>
 5   0  0.3195296E-06  0.2274854E+04  0.7818609E-02  0.8487902E-01
        1   -1    0    0  501    0  0.00000000000E+00  0.00000000000E+00  0.82017633011E+03  0.82017633012E+03  0.50400001928E-02 0. -1.
       -1   -1    0    0    0  501  0.00000000000E+00  0.00000000000E+00 -0.15773922953E+04  0.15773922953E+04  0.50400001928E-02 0.  1.
    10030    2    1    2    0    0  0.00000000000E+00  0.00000000000E+00 -0.75721596522E+03  0.23975686255E+04  0.22748536867E+04 0.  0.
        2    1    3    3  502    0 -0.86719507312E+03  0.32405007758E+02  0.39635450282E+03  0.95403054002E+03  0.25500000920E-02 0. -1.
       -2    1    3    3    0  502  0.86719507312E+03 -0.32405007758E+02 -0.11535704680E+04  0.14435380854E+04  0.25500000920E-02 0.  1.
</event>
<event>
 5   0  0.3195296E-06  0.2293380E+04  0.7818609E-02  0.8480536E-01
       -1   -1    0    0    0  501  0.00000000000E+00  0.00000000000E+00  0.95024821884E+03  0.95024821886E+03  0.50400001928E-02 0.  1.
        1   -1    0    0  501    0  0.00000000000E+00  0.00000000000E+00 -0.13837409730E+04  0.13837409731E+04  0.50400001928E-02 0. -1.
    10030    2    1    2    0    0  0.00000000000E+00  0.00000000000E+00 -0.43349275421E+03  0.23339891919E+04  0.22933795107E+04 0.  0.
        2    1    3    3  502    0  0.72027648466E+03  0.67672083035E+03  0.37505556658E+03  0.10570789822E+04  0.25500000920E-02 0.  1.
       -2    1    3    3    0  502 -0.72027648466E+03 -0.67672083035E+03 -0.80854832079E+03  0.12769102097E+04  0.25500000920E-02 0. -1.
</event>
<event>
 5   0  0.7497344E-06  0.2297056E+04  0.7818609E-02  0.8479083E-01
        2   -1    0    0  501    0  0.00000000000E+00  0.00000000000E+00  0.92870577384E+03  0.92870577385E+03  0.25500000920E-02 0.  1.
       -2   -1    0    0    0  501  0.00000000000E+00  0.00000000000E+00 -0.14203816205E+04  0.14203816205E+04  0.25500000920E-02 0. -1.
    10030    2    1    2    0    0  0.00000000000E+00  0.00000000000E+00 -0.49167584669E+03  0.23490873944E+04  0.22970560394E+04 0.  0.
        5    1    3    3  502    0 -0.98249351948E+03  0.50962389354E+03  0.67841917714E+02  0.11088889234E+04  0.46999998093E+01 0. -1.
       -5    1    3    3    0  502  0.98249351948E+03 -0.50962389354E+03 -0.55951776440E+03  0.12401984710E+04  0.46999998093E+01 0.  1.
</event>
<event>
 5   0  0.3338758E-06  0.2300888E+04  0.7818609E-02  0.8477571E-01
        1   -1    0    0  501    0  0.00000000000E+00  0.00000000000E+00  0.98052450484E+03  0.98052450485E+03  0.50400001928E-02 0.  1.
       -1   -1    0    0    0  501  0.00000000000E+00  0.00000000000E+00 -0.13498101148E+04  0.13498101148E+04  0.50400001928E-02 0. -1.
    10030    2    1    2    0    0  0.00000000000E+00  0.00000000000E+00 -0.36928560997E+03  0.23303346197E+04  0.23008884323E+04 0.  0.
        5    1    3    3  502    0 -0.34346880887E+03  0.58021733712E+03 -0.11287076657E+04  0.13147722485E+04  0.46999998093E+01 0. -1.
       -5    1    3    3    0  502  0.34346880887E+03 -0.58021733712E+03  0.75942205571E+03  0.10155623711E+04  0.46999998093E+01 0.  1.
</event>
<event>
 5   0  0.3238713E-06  0.2293108E+04  0.7818609E-02  0.8480643E-01
       -1   -1    0    0    0  501  0.00000000000E+00  0.00000000000E+00  0.34762705502E+04  0.34762705502E+04  0.50400001928E-02 0.  1.
        1   -1    0    0  501    0  0.00000000000E+00  0.00000000000E+00 -0.37815998167E+03  0.37815998170E+03  0.50400001928E-02 0. -1.
    10030    2    1    2    0    0  0.00000000000E+00  0.00000000000E+00  0.30981105686E+04  0.38544305319E+04  0.22931082902E+04 0.  0.
        3    1    3    3  502    0  0.21379948668E+03 -0.98458519136E+03  0.24688925460E+04  0.26665612001E+04  0.10100000352E+00 0.  1.
       -3    1    3    3    0  502 -0.21379948668E+03  0.98458519136E+03  0.62921802251E+03  0.11878693319E+04  0.10100000352E+00 0. -1.
</event>
<event>
 5   0  0.3338758E-06  0.2300743E+04  0.7818609E-02  0.8477628E-01
       -1   -1    0    0    0  501  0.00000000000E+00  0.00000000000E+00  0.15538690466E+04  0.15538690466E+04  0.50400001928E-02 0.  1.
        1   -1    0    0  501    0  0.00000000000E+00  0.00000000000E+00 -0.85165093842E+03  0.85165093844E+03  0.50400001928E-02 0. -1.
    10030    2    1    2    0    0  0.00000000000E+00  0.00000000000E+00  0.70221810814E+03  0.24055199850E+04  0.23007425164E+04 0.  0.
        5    1    3    3  502    0 -0.36722705350E+03  0.37378332857E+03 -0.71961972515E+03  0.89019341964E+03  0.46999998093E+01 0. -1.
       -5    1    3    3    0  502  0.36722705350E+03 -0.37378332857E+03  0.14218378333E+04  0.15153265654E+04  0.46999998093E+01 0.  1.
</event>
<event>
 5   0  0.3184492E-06  0.2297945E+04  0.7818609E-02  0.8478732E-01
        1   -1    0    0  501    0  0.00000000000E+00  0.00000000000E+00  0.60141533050E+03  0.60141533052E+03  0.50400001928E-02 0.  1.
       -1   -1    0    0    0  501  0.00000000000E+00  0.00000000000E+00 -0.21950526483E+04  0.21950526483E+04  0.50400001928E-02 0. -1.
    10030    2    1    2    0    0  0.00000000000E+00  0.00000000000E+00 -0.15936373178E+04  0.27964679788E+04  0.22979454423E+04 0.  0.
        1    1    3    3  502    0  0.11645341562E+03  0.96838793376E+03 -0.57780931281E+02  0.97707483046E+03  0.50400001928E-02 0.  1.
       -1    1    3    3    0  502 -0.11645341562E+03 -0.96838793376E+03 -0.15358563865E+04  0.18193931484E+04  0.50400001928E-02 0. -1.
</event>
<event>
 5   0  0.7003852E-06  0.2300128E+04  0.7818609E-02  0.8477870E-01
       -2   -1    0    0    0  501  0.00000000000E+00  0.00000000000E+00  0.16718514671E+04  0.16718514671E+04  0.25500000920E-02 0. -1.
        2   -1    0    0  501    0  0.00000000000E+00  0.00000000000E+00 -0.79112753517E+03  0.79112753517E+03  0.25500000920E-02 0.  1.
    10030    2    1    2    0    0  0.00000000000E+00  0.00000000000E+00  0.88072393192E+03  0.24629790023E+04  0.23001284576E+04 0.  0.
        2    1    3    3  502    0  0.95730536925E+03  0.62706202292E+03  0.56248667095E+03  0.12751594432E+04  0.25500000920E-02 0. -1.
       -2    1    3    3    0  502 -0.95730536925E+03 -0.62706202292E+03  0.31823726096E+03  0.11878195591E+04  0.25500000920E-02 0.  1.
</event>
<event>
 5   0  0.7242214E-06  0.2297991E+04  0.7818609E-02  0.8478713E-01
       -2   -1    0    0    0  501  0.00000000000E+00  0.00000000000E+00  0.13182618605E+04  0.13182618605E+04  0.25500000920E-02 0.  1.
        2   -1    0    0  501    0  0.00000000000E+00  0.00000000000E+00 -0.10014634966E+04  0.10014634966E+04  0.25500000920E-02 0. -1.
    10030    2    1    2    0    0  0.00000000000E+00  0.00000000000E+00  0.31679836388E+03  0.23197253571E+04  0.22979914119E+04 0.  0.
        1    1    3    3  502    0  0.22017331998E+02  0.80516717756E+03 -0.66874796872E+03  0.10469015199E+04  0.50400001928E-02 0. -1.
       -1    1    3    3    0  502 -0.22017331998E+02 -0.80516717756E+03  0.98554633260E+03  0.12728238372E+04  0.50400001928E-02 0.  1.
</event>
<event>
 5   0  0.2519625E-06  0.2300456E+04  0.7818609E-02  0.8477741E-01
       -3   -1    0    0    0  501  0.00000000000E+00  0.00000000000E+00  0.13799501767E+04  0.13799501804E+04  0.10100000352E+00 0. -1.
        3   -1    0    0  501    0  0.00000000000E+00  0.00000000000E+00 -0.95874835582E+03  0.95874836114E+03  0.10100000352E+00 0.  1.
    10030    2    1    2    0    0  0.00000000000E+00  0.00000000000E+00  0.42120182087E+03  0.23386985415E+04  0.23004564535E+04 0.  0.
        2    1    3    3  502    0 -0.41207274781E+03 -0.10409020692E+04  0.47908179042E+03  0.12177029314E+04  0.25500000920E-02 0.  1.
       -2    1    3    3    0  502  0.41207274781E+03  0.10409020692E+04 -0.57879969546E+02  0.11209956102E+04  0.25500000920E-02 0. -1.
</event>
<event>
 5   0  0.3195296E-06  0.2298023E+04  0.7818609E-02  0.8478701E-01
       -1   -1    0    0    0  501  0.00000000000E+00  0.00000000000E+00  0.85996572866E+03  0.85996572868E+03  0.50400001928E-02 0. -1.
        1   -1    0    0  501    0  0.00000000000E+00  0.00000000000E+00 -0.15352091019E+04  0.15352091019E+04  0.50400001928E-02 0.  1.
    10030    2    1    2    0    0  0.00000000000E+00  0.00000000000E+00 -0.67524337321E+03  0.23951748305E+04  0.22980228145E+04 0.  0.
        2    1    3    3  502    0  0.45664425397E+03  0.24605060725E+03  0.73098473428E+03  0.89632781825E+03  0.25500000920E-02 0. -1.
       -2    1    3    3    0  502 -0.45664425397E+03 -0.24605060725E+03 -0.14062281075E+04  0.14988470123E+04  0.25500000920E-02 0.  1.
</event>
<event>
 5   0  0.3238713E-06  0.2299279E+04  0.7818609E-02  0.8478206E-01
        1   -1    0    0  501    0  0.00000000000E+00  0.00000000000E+00  0.98230628285E+03  0.98230628286E+03  0.50400001928E-02 0. -1.
       -1   -1    0    0    0  501  0.00000000000E+00  0.00000000000E+00 -0.13454769457E+04  0.13454769457E+04  0.50400001928E-02 0.  1.
    10030    2    1    2    0    0  0.00000000000E+00  0.00000000000E+00 -0.36317066281E+03  0.23277832285E+04  0.22992785453E+04 0.  0.
        3    1    3    3  502    0 -0.38446659098E+03 -0.75468534556E+03 -0.96859373741E+03  0.12866772590E+04  0.10100000352E+00 0.  1.
       -3    1    3    3    0  502  0.38446659098E+03  0.75468534556E+03  0.60542307460E+03  0.10411059696E+04  0.10100000352E+00 0. -1.
</event>
<event>
 5   0  0.7003852E-06  0.2299497E+04  0.7818609E-02  0.8478119E-01
        2   -1    0    0  501    0  0.00000000000E+00  0.00000000000E+00  0.15949022864E+04  0.15949022864E+04  0.25500000920E-02 0.  1.
       -2   -1    0    0    0  501  0.00000000000E+00  0.00000000000E+00 -0.82884201254E+03  0.82884201255E+03  0.25500000920E-02 0. -1.
    10030    2    1    2    0    0  0.00000000000E+00  0.00000000000E+00  0.76606027383E+03  0.24237442989E+04  0.22994973545E+04 0.  0.
        2    1    3    3  502    0 -0.87771087097E+03  0.28280235107E+03  0.11068429550E+04  0.14406439080E+04  0.25500000920E-02 0.  1.
       -2    1    3    3    0  502  0.87771087097E+03 -0.28280235107E+03 -0.34078268113E+03  0.98310039089E+03  0.25500000920E-02 0. -1.
</event>
<event>
 5   0  0.7242214E-06  0.2296302E+04  0.7818609E-02  0.8479380E-01
        2   -1    0    0  501    0  0.00000000000E+00  0.00000000000E+00  0.77356576406E+03  0.77356576407E+03  0.25500000920E-02 0. -1.
       -2   -1    0    0    0  501  0.00000000000E+00  0.00000000000E+00 -0.17041228418E+04  0.17041228418E+04  0.25500000920E-02 0.  1.
    10030    2    1    2    0    0  0.00000000000E+00  0.00000000000E+00 -0.93055707771E+03  0.24776886058E+04  0.22963023217E+04 0.  0.
        1    1    3    3  502    0  0.60618802442E+03 -0.69732448380E+03  0.27011963430E+03  0.96264737755E+03  0.50400001928E-02 0. -1.
       -1    1    3    3    0  502 -0.60618802442E+03  0.69732448380E+03 -0.12006767120E+04  0.15150412283E+04  0.50400001928E-02 0.  1.
</event>
<event>
 5   0  0.3184492E-06  0.2301646E+04  0.7818609E-02  0.8477273E-01
       -1   -1    0    0    0  501  0.00000000000E+00  0.00000000000E+00  0.59730252183E+03  0.59730252185E+03  0.50400001928E-02 0.  1.
        1   -1    0    0  501    0  0.00000000000E+00  0.00000000000E+00 -0.22172903211E+04  0.22172903211E+04  0.50400001928E-02 0. -1.
    10030    2    1    2    0    0  0.00000000000E+00  0.00000000000E+00 -0.16199877993E+04  0.28145928430E+04  0.23016455856E+04 0.  0.
        1    1    3    3  502    0  0.44530921694E+03 -0.49030599511E+03  0.34085602525E+03  0.74490475734E+03  0.50400001928E-02 0.  1.
       -1    1    3    3    0  502 -0.44530921694E+03  0.49030599511E+03 -0.19608438245E+04  0.20696880856E+04  0.50400001928E-02 0. -1.
</event>
<event>
 5   0  0.7003852E-06  0.2298763E+04  0.7818609E-02  0.8478409E-01
        2   -1    0    0  501    0  0.00000000000E+00  0.00000000000E+00  0.23142116910E+04  0.23142116910E+04  0.25500000920E-02 0.  1.
       -2   -1    0    0    0  501  0.00000000000E+00  0.00000000000E+00 -0.57085412187E+03  0.57085412187E+03  0.25500000920E-02 0. -1.
    10030    2    1    2    0    0  0.00000000000E+00  0.00000000000E+00  0.17433575692E+04  0.28850658129E+04  0.22987625216E+04 0.  0.
        2    1    3    3  502    0 -0.50580708088E+03  0.10077430629E+04  0.59191090059E+03  0.12734776787E+04  0.25500000920E-02 0.  1.
       -2    1    3    3    0  502  0.50580708088E+03 -0.10077430629E+04  0.11514466686E+04  0.16115881342E+04  0.25500000920E-02 0. -1.
</event>
<event>
 5   0  0.3226427E-06  0.2293147E+04  0.7818609E-02  0.8480628E-01
       -1   -1    0    0    0  501  0.00000000000E+00  0.00000000000E+00  0.92846712839E+03  0.92846712840E+03  0.50400001928E-02 0.  1.
        1   -1    0    0  501    0  0.00000000000E+00  0.00000000000E+00 -0.14159147455E+04  0.14159147455E+04  0.50400001928E-02 0. -1.
    10030    2    1    2    0    0  0.00000000000E+00  0.00000000000E+00 -0.48744761707E+03  0.23443818739E+04  0.22931465699E+04 0.  0.
        4    1    3    3  502    0  0.69197008574E+03  0.91263947308E+03 -0.29873380763E+03  0.11836287037E+04  0.12699999809E+01 0.  1.
       -4    1    3    3    0  502 -0.69197008574E+03 -0.91263947308E+03 -0.18871380944E+03  0.11607531702E+04  0.12699999809E+01 0. -1.
</event>
<event>
 5   0  0.3238713E-06  0.2305826E+04  0.7818609E-02  0.8475627E-01
       -1   -1    0    0    0  501  0.00000000000E+00  0.00000000000E+00  0.11331249630E+04  0.11331249630E+04  0.50400001928E-02 0. -1.
        1   -1    0    0  501    0  0.00000000000E+00  0.00000000000E+00 -0.11730471033E+04  0.11730471033E+04  0.50400001928E-02 0.  1.
    10030    2    1    2    0    0  0.00000000000E+00  0.00000000000E+00 -0.39922140341E+02  0.23061720664E+04  0.23058264944E+04 0.  0.
        3    1    3    3  502    0  0.61661545788E+03  0.64284449562E+03  0.71209485133E+03  0.11404134145E+04  0.10100000352E+00 0. -1.
       -3    1    3    3    0  502 -0.61661545788E+03 -0.64284449562E+03 -0.75201699167E+03  0.11657586519E+04  0.10100000352E+00 0.  1.
</event>
<event>
 5   0  0.7497344E-06  0.2309641E+04  0.7818609E-02  0.8474129E-01
        2   -1    0    0  501    0  0.00000000000E+00  0.00000000000E+00  0.18554615829E+04  0.18554615830E+04  0.25500000920E-02 0.  1.
       -2   -1    0    0    0  501  0.00000000000E+00  0.00000000000E+00 -0.71874862219E+03  0.71874862220E+03  0.25500000920E-02 0. -1.
    10030    2    1    2    0    0  0.00000000000E+00  0.00000000000E+00  0.11367129608E+04  0.25742102051E+04  0.23096410598E+04 0.  0.
        5    1    3    3  502    0 -0.88438902239E+03 -0.49243392667E+03  0.11878630282E+04  0.15606651719E+04  0.46999998093E+01 0.  1.
       -5    1    3    3    0  502  0.88438902239E+03  0.49243392667E+03 -0.51150067412E+02  0.10135450333E+04  0.46999998093E+01 0. -1.
</event>
<event>
 5   0  0.7003852E-06  0.2300130E+04  0.7818609E-02  0.8477870E-01
        2   -1    0    0  501    0  0.00000000000E+00  0.00000000000E+00  0.18489242877E+04  0.18489242877E+04  0.25500000920E-02 0.  1.
       -2   -1    0    0    0  501  0.00000000000E+00  0.00000000000E+00 -0.71536179712E+03  0.71536179712E+03  0.25500000920E-02 0. -1.
    10030    2    1    2    0    0  0.00000000000E+00  0.00000000000E+00  0.11335624906E+04  0.25642860848E+04  0.23001302582E+04 0.  0.
        2    1    3    3  502    0  0.58046384547E+02  0.29328980641E+03 -0.67127858497E+03  0.73484912190E+03  0.25500000920E-02 0. -1.
       -2    1    3    3    0  502 -0.58046384547E+02 -0.29328980641E+03  0.18048410755E+04  0.18294369629E+04  0.25500000920E-02 0.  1.
</event>
<event>
 5   0  0.2519625E-06  0.2294655E+04  0.7818609E-02  0.8480031E-01
        3   -1    0    0  501    0  0.00000000000E+00  0.00000000000E+00  0.85934231823E+03  0.85934232416E+03  0.10100000352E+00 0. -1.
       -3   -1    0    0    0  501  0.00000000000E+00  0.00000000000E+00 -0.15318235021E+04  0.15318235055E+04  0.10100000352E+00 0.  1.
    10030    2    1    2    0    0  0.00000000000E+00  0.00000000000E+00 -0.67248118390E+03  0.23911658296E+04  0.22946553297E+04 0.  0.
        3    1    3    3  502    0  0.67248977531E+03 -0.89820969679E+03 -0.58576440666E+03  0.12657579183E+04  0.10100000352E+00 0.  1.
       -3    1    3    3    0  502 -0.67248977531E+03  0.89820969679E+03 -0.86716777236E+02  0.11254079114E+04  0.10100000352E+00 0. -1.
</event>
<event>
 5   0  0.3338758E-06  0.2300080E+04  0.7818609E-02  0.8477889E-01
       -1   -1    0    0    0  501  0.00000000000E+00  0.00000000000E+00  0.13657269050E+04  0.13657269050E+04  0.50400001928E-02 0.  1.
        1   -1    0    0  501    0  0.00000000000E+00  0.00000000000E+00 -0.96841636707E+03  0.96841636709E+03  0.50400001928E-02 0. -1.
    10030    2    1    2    0    0  0.00000000000E+00  0.00000000000E+00  0.39731053790E+03  0.23341432721E+04  0.23000802488E+04 0.  0.
        5    1    3    3  502    0  0.32115497424E+03  0.61951889151E+03  0.11263188340E+04  0.13249756150E+04  0.46999998093E+01 0.  1.
       -5    1    3    3    0  502 -0.32115497424E+03 -0.61951889151E+03 -0.72900829609E+03  0.10091676571E+04  0.46999998093E+01 0. -1.
</event>
<event>
 5   0  0.3195296E-06  0.2296989E+04  0.7818609E-02  0.8479109E-01
        1   -1    0    0  501    0  0.00000000000E+00  0.00000000000E+00  0.14746600196E+04  0.14746600196E+04  0.50400001928E-02 0.  1.
       -1   -1    0    0    0  501  0.00000000000E+00  0.00000000000E+00 -0.89447026633E+03  0.89447026635E+03  0.50400001928E-02 0. -1.
    10030    2    1    2    0    0  0.00000000000E+00  0.00000000000E+00  0.58018975328E+03  0.23691302860E+04  0.22969889338E+04 0.  0.
        2    1    3    3  502    0  0.14331344768E+03 -0.11347239987E+04  0.18240175373E+03  0.11581915633E+04  0.25500000920E-02 0.  1.
       -2    1    3    3    0  502 -0.14331344768E+03  0.11347239987E+04  0.39778799955E+03  0.12109387227E+04  0.25500000920E-02 0. -1.
</event>
<event>
 5   0  0.3184492E-06  0.2299490E+04  0.7818609E-02  0.8478122E-01
       -1   -1    0    0    0  501  0.00000000000E+00  0.00000000000E+00  0.93447922286E+03  0.93447922287E+03  0.50400001928E-02 0. -1.
        1   -1    0    0  501    0  0.00000000000E+00  0.00000000000E+00 -0.14145990775E+04  0.14145990775E+04  0.50400001928E-02 0.  1.
    10030    2    1    2    0    0  0.00000000000E+00  0.00000000000E+00 -0.48011985467E+03  0.23490783004E+04  0.22994898970E+04 0.  0.
        1    1    3    3  502    0  0.27995090786E+02  0.95421819739E+03 -0.89465700188E+03  0.13083299448E+04  0.50400001928E-02 0.  1.
       -1    1    3    3    0  502 -0.27995090786E+02 -0.95421819739E+03  0.41453714721E+03  0.10407483556E+04  0.50400001928E-02 0. -1.
</event>
<event>
 5   0  0.7003852E-06  0.2297251E+04  0.7818609E-02  0.8479006E-01
        2   -1    0    0  501    0  0.00000000000E+00  0.00000000000E+00  0.93285224331E+03  0.93285224331E+03  0.25500000920E-02 0. -1.
       -2   -1    0    0    0  501  0.00000000000E+00  0.00000000000E+00 -0.14143077171E+04  0.14143077171E+04  0.25500000920E-02 0.  1.
    10030    2    1    2    0    0  0.00000000000E+00  0.00000000000E+00 -0.48145547382E+03  0.23471599604E+04  0.22972506408E+04 0.  0.
        2    1    3    3  502    0  0.10972712185E+04 -0.19784922808E+03  0.41297575466E+02  0.11157302245E+04  0.25500000920E-02 0. -1.
       -2    1    3    3    0  502 -0.10972712185E+04  0.19784922808E+03 -0.52275304928E+03  0.12314297360E+04  0.25500000920E-02 0.  1.
</event>
<event>
 5   0  0.3184492E-06  0.2301160E+04  0.7818609E-02  0.8477464E-01
       -1   -1    0    0    0  501  0.00000000000E+00  0.00000000000E+00  0.98925739248E+03  0.98925739249E+03  0.50400001928E-02 0.  1.
        1   -1    0    0  501    0  0.00000000000E+00  0.00000000000E+00 -0.13382106266E+04  0.13382106266E+04  0.50400001928E-02 0. -1.
    10030    2    1    2    0    0  0.00000000000E+00  0.00000000000E+00 -0.34895323410E+03  0.23274680191E+04  0.23011603639E+04 0.  0.
        1    1    3    3  502    0 -0.32878873164E+03  0.67263795001E+03  0.70917664165E+03  0.10312494126E+04  0.50400001928E-02 0.  1.
       -1    1    3    3    0  502  0.32878873164E+03 -0.67263795001E+03 -0.10581298758E+04  0.12962186065E+04  0.50400001928E-02 0. -1.
</event>
<event>
 5   0  0.7497344E-06  0.2305918E+04  0.7818609E-02  0.8475592E-01
       -2   -1    0    0    0  501  0.00000000000E+00  0.00000000000E+00  0.97433888703E+03  0.97433888703E+03  0.25500000920E-02 0.  1.
        2   -1    0    0  501    0  0.00000000000E+00  0.00000000000E+00 -0.13643240559E+04  0.13643240559E+04  0.25500000920E-02 0. -1.
    10030    2    1    2    0    0  0.00000000000E+00  0.00000000000E+00 -0.38998516886E+03  0.23386629429E+04  0.23059175893E+04 0.  0.
        5    1    3    3  502    0 -0.86634066079E+03 -0.47755862856E+03 -0.79558732279E+03  0.12694840142E+04  0.46999998093E+01 0. -1.
       -5    1    3    3    0  502  0.86634066079E+03  0.47755862856E+03  0.40560215393E+03  0.10691789287E+04  0.46999998093E+01 0.  1.
</event>
<event>
 5   0  0.3238713E-06  0.2299185E+04  0.7818609E-02  0.8478242E-01
       -1   -1    0    0    0  501  0.00000000000E+00  0.00000000000E+00  0.90830853444E+03  0.90830853445E+03  0.50400001928E-02 0. -1.
        1   -1    0    0  501    0  0.00000000000E+00  0.00000000000E+00 -0.14549716478E+04  0.14549716478E+04  0.50400001928E-02 0.  1.
    10030    2    1    2    0    0  0.00000000000E+00  0.00000000000E+00 -0.54666311337E+03  0.23632801823E+04  0.22991852166E+04 0.  0.
        3    1    3    3  502    0 -0.61024952366E+03  0.90891909997E+03 -0.63385830273E+03  0.12650354815E+04  0.10100000352E+00 0.  1.
       -3    1    3    3    0  502  0.61024952366E+03 -0.90891909997E+03  0.87195189368E+02  0.10982447007E+04  0.10100000352E+00 0. -1.
</event>
<event>
 5   0  0.2519625E-06  0.2294900E+04  0.7818609E-02  0.8479935E-01
        3   -1    0    0  501    0  0.00000000000E+00  0.00000000000E+00  0.68610686453E+03  0.68610687196E+03  0.10100000352E+00 0.  1.
       -3   -1    0    0    0  501  0.00000000000E+00  0.00000000000E+00 -0.19190033476E+04  0.19190033503E+04  0.10100000352E+00 0. -1.
    10030    2    1    2    0    0  0.00000000000E+00  0.00000000000E+00 -0.12328964831E+04  0.26051102222E+04  0.22948998959E+04 0.  0.
        1    1    3    3  502    0 -0.58627727051E+03 -0.95800841675E+03 -0.34988724824E+03  0.11764022488E+04  0.50400001928E-02 0.  1.
       -1    1    3    3    0  502  0.58627727051E+03  0.95800841675E+03 -0.88300923485E+03  0.14287079734E+04  0.50400001928E-02 0. -1.
</event>
<event>
 5   0  0.3338758E-06  0.2300970E+04  0.7818609E-02  0.8477539E-01
       -1   -1    0    0    0  501  0.00000000000E+00  0.00000000000E+00  0.70509974157E+03  0.70509974158E+03  0.50400001928E-02 0.  1.
        1   -1    0    0  501    0  0.00000000000E+00  0.00000000000E+00 -0.18772028770E+04  0.18772028770E+04  0.50400001928E-02 0. -1.
    10030    2    1    2    0    0  0.00000000000E+00  0.00000000000E+00 -0.11721031355E+04  0.25823026186E+04  0.23009695900E+04 0.  0.
        5    1    3    3  502    0  0.47312242940E+03 -0.37397765643E+03 -0.16855807897E+04  0.17902259101E+04  0.46999998093E+01 0. -1.
       -5    1    3    3    0  502 -0.47312242940E+03  0.37397765643E+03  0.51347765424E+03  0.79207670848E+03  0.46999998093E+01 0.  1.
</event>
<event>
 5   0  0.7003852E-06  0.2307373E+04  0.7818609E-02  0.8475020E-01
       -2   -1    0    0    0  501  0.00000000000E+00  0.00000000000E+00  0.83718074547E+03  0.83718074548E+03  0.25500000920E-02 0.  1.
        2   -1    0    0  501    0  0.00000000000E+00  0.00000000000E+00 -0.15898515290E+04  0.15898515290E+04  0.25500000920E-02 0. -1.
    10030    2    1    2    0    0  0.00000000000E+00  0.00000000000E+00 -0.75267078353E+03  0.24270322745E+04  0.23073734750E+04 0.  0.
        2    1    3    3  502    0  0.46633470230E+03  0.92803842847E+02 -0.14819953846E+04  0.15564032022E+04  0.25500000920E-02 0. -1.
       -2    1    3    3    0  502 -0.46633470230E+03 -0.92803842847E+02  0.72932460106E+03  0.87062907230E+03  0.25500000920E-02 0.  1.
</event>
<event>
 5   0  0.2519625E-06  0.2289794E+04  0.7818609E-02  0.8481956E-01
        3   -1    0    0  501    0  0.00000000000E+00  0.00000000000E+00  0.13363006270E+04  0.13363006308E+04  0.10100000352E+00 0.  1.
       -3   -1    0    0    0  501  0.00000000000E+00  0.00000000000E+00 -0.98090883707E+03  0.98090884226E+03  0.10100000352E+00 0. -1.
    10030    2    1    2    0    0  0.00000000000E+00  0.00000000000E+00  0.35539178993E+03  0.23172094731E+04  0.22897939684E+04 0.  0.
        3    1    3    3  502    0  0.85547498143E+03 -0.76088360948E+03  0.17487265027E+03  0.11581717338E+04  0.10100000352E+00 0.  1.
       -3    1    3    3    0  502 -0.85547498143E+03  0.76088360948E+03  0.18051913966E+03  0.11590377393E+04  0.10100000352E+00 0. -1.
</event>
<event>
 5   0  0.3184492E-06  0.2303479E+04  0.7818609E-02  0.8476551E-01
        1   -1    0    0  501    0  0.00000000000E+00  0.00000000000E+00  0.11752458814E+04  0.11752458814E+04  0.50400001928E-02 0. -1.
       -1   -1    0    0    0  501  0.00000000000E+00  0.00000000000E+00 -0.11287033237E+04  0.11287033237E+04  0.50400001928E-02 0.  1.
    10030    2    1    2    0    0  0.00000000000E+00  0.00000000000E+00  0.46542557763E+02  0.23039492051E+04  0.23034790492E+04 0.  0.
        1    1    3    3  502    0  0.99831568454E+03 -0.52177052921E+03  0.26337285564E+03  0.11568249445E+04  0.50400001928E-02 0.  1.
       -1    1    3    3    0  502 -0.99831568454E+03  0.52177052921E+03 -0.21683029788E+03  0.11471242606E+04  0.50400001928E-02 0. -1.
</event>
<event>
 5   0  0.7003852E-06  0.2288996E+04  0.7818609E-02  0.8482273E-01
       -2   -1    0    0    0  501  0.00000000000E+00  0.00000000000E+00  0.68910167775E+03  0.68910167775E+03  0.25500000920E-02 0. -1.
        2   -1    0    0  501    0  0.00000000000E+00  0.00000000000E+00 -0.19008447651E+04  0.19008447651E+04  0.25500000920E-02 0.  1.
    10030    2    1    2    0    0  0.00000000000E+00  0.00000000000E+00 -0.12117430873E+04  0.25899464428E+04  0.22889956896E+04 0.  0.
        2    1    3    3  502    0 -0.49164830073E+03  0.84344989295E+02 -0.17713717086E+04  0.18402689638E+04  0.25500000920E-02 0.  1.
       -2    1    3    3    0  502  0.49164830073E+03 -0.84344989295E+02  0.55962862131E+03  0.74967747907E+03  0.25500000920E-02 0. -1.
</event>
<event>
 5   0  0.3195296E-06  0.2300492E+04  0.7818609E-02  0.8477727E-01
       -1   -1    0    0    0  501  0.00000000000E+00  0.00000000000E+00  0.11554689902E+04  0.11554689902E+04  0.50400001928E-02 0. -1.
        1   -1    0    0  501    0  0.00000000000E+00  0.00000000000E+00 -0.11450463160E+04  0.11450463160E+04  0.50400001928E-02 0.  1.
    10030    2    1    2    0    0  0.00000000000E+00  0.00000000000E+00  0.10422674167E+02  0.23005153063E+04  0.23004916957E+04 0.  0.
        2    1    3    3  502    0 -0.62965021261E+03  0.44204603414E+03  0.86032327893E+03  0.11541318082E+04  0.25500000920E-02 0.  1.
       -2    1    3    3    0  502  0.62965021261E+03 -0.44204603414E+03 -0.84990060476E+03  0.11463834980E+04  0.25500000920E-02 0. -1.
</event>
<event>
 5   0  0.3195296E-06  0.2299810E+04  0.7818609E-02  0.8477996E-01
        1   -1    0    0  501    0  0.00000000000E+00  0.00000000000E+00  0.23016145380E+04  0.23016145380E+04  0.50400001928E-02 0. -1.
       -1   -1    0    0    0  501  0.00000000000E+00  0.00000000000E+00 -0.57450185339E+03  0.57450185341E+03  0.50400001928E-02 0.  1.
    10030    2    1    2    0    0  0.00000000000E+00  0.00000000000E+00  0.17271126846E+04  0.28761163914E+04  0.22998102686E+04 0.  0.
        2    1    3    3  502    0  0.57569810788E+03  0.10557253508E+03 -0.37427867325E+03  0.69473620666E+03  0.25500000920E-02 0.  1.
       -2    1    3    3    0  502 -0.57569810788E+03 -0.10557253508E+03  0.21013913579E+04  0.21813801848E+04  0.25500000920E-02 0. -1.
</event>
<event>
 5   0  0.3226427E-06  0.2298809E+04  0.7818609E-02  0.8478391E-01
       -1   -1    0    0    0  501  0.00000000000E+00  0.00000000000E+00  0.10580393190E+04  0.10580393190E+04  0.50400001928E-02 0.  1.
        1   -1    0    0  501    0  0.00000000000E+00  0.00000000000E+00 -0.12486596107E+04  0.12486596107E+04  0.50400001928E-02 0. -1.
    10030    2    1    2    0    0  0.00000000000E+00  0.00000000000E+00 -0.19062029173E+03  0.23066989298E+04  0.22988092259E+04 0.  0.
        4    1    3    3  502    0 -0.90825048726E+03 -0.77737620719E+02 -0.79783247948E+03  0.12114042940E+04  0.12699999809E+01 0. -1.
       -4    1    3    3    0  502  0.90825048726E+03  0.77737620719E+02  0.60721218775E+03  0.10952946358E+04  0.12699999809E+01 0.  1.
</event>
<event>
 5   0  0.3226427E-06  0.2300440E+04  0.7818609E-02  0.8477748E-01
       -1   -1    0    0    0  501  0.00000000000E+00  0.00000000000E+00  0.51174199156E+03  0.51174199158E+03  0.50400001928E-02 0. -1.
        1   -1    0    0  501    0  0.00000000000E+00  0.00000000000E+00 -0.25852992910E+04  0.25852992910E+04  0.50400001928E-02 0.  1.
    10030    2    1    2    0    0  0.00000000000E+00  0.00000000000E+00 -0.20735572994E+04  0.30970412826E+04  0.23004401387E+04 0.  0.
        4    1    3    3  502    0 -0.73284482687E+03  0.33816420466E+03  0.66505883022E+02  0.80984024039E+03  0.12699999809E+01 0. -1.
       -4    1    3    3    0  502  0.73284482687E+03 -0.33816420466E+03 -0.21400631824E+04  0.22872010422E+04  0.12699999809E+01 0.  1.
</event>
<event>
 5   0  0.3338758E-06  0.2300060E+04  0.7818609E-02  0.8477898E-01
        1   -1    0    0  501    0  0.00000000000E+00  0.00000000000E+00  0.12327072761E+04  0.12327072761E+04  0.50400001928E-02 0. -1.
       -1   -1    0    0    0  501  0.00000000000E+00  0.00000000000E+00 -0.10728974808E+04  0.10728974808E+04  0.50400001928E-02 0.  1.
    10030    2    1    2    0    0  0.00000000000E+00  0.00000000000E+00  0.15980979528E+03  0.23056047569E+04  0.23000595915E+04 0.  0.
        5    1    3    3  502    0 -0.10924985967E+04  0.15095289360E+03  0.40658394563E+03  0.11754456835E+04  0.46999998093E+01 0. -1.
       -5    1    3    3    0  502  0.10924985967E+04 -0.15095289360E+03 -0.24677415034E+03  0.11301590734E+04  0.46999998093E+01 0.  1.
</event>
<event>
 5   0  0.3238713E-06  0.2294462E+04  0.7818609E-02  0.8480108E-01
       -1   -1    0    0    0  501  0.00000000000E+00  0.00000000000E+00  0.10408695980E+04  0.10408695981E+04  0.50400001928E-02 0. -1.
        1   -1    0    0  501    0  0.00000000000E+00  0.00000000000E+00 -0.12644614777E+04  0.12644614777E+04  0.50400001928E-02 0.  1.
    10030    2    1    2    0    0  0.00000000000E+00  0.00000000000E+00 -0.22359187968E+03  0.23053310758E+04  0.22944624731E+04 0.  0.
        3    1    3    3  502    0 -0.14213414824E+03  0.21630193943E+03  0.10111524334E+04  0.10437518377E+04  0.10100000352E+00 0. -1.
       -3    1    3    3    0  502  0.14213414824E+03 -0.21630193943E+03 -0.12347443130E+04  0.12615792380E+04  0.10100000352E+00 0.  1.
</event>
<event>
 5   0  0.7497344E-06  0.2302120E+04  0.7818609E-02  0.8477086E-01
        2   -1    0    0  501    0  0.00000000000E+00  0.00000000000E+00  0.26480478287E+04  0.26480478287E+04  0.25500000920E-02 0.  1.
       -2   -1    0    0    0  501  0.00000000000E+00  0.00000000000E+00 -0.50034560864E+03  0.50034560865E+03  0.25500000920E-02 0. -1.
    10030    2    1    2    0    0  0.00000000000E+00  0.00000000000E+00  0.21477022200E+04  0.31483934373E+04  0.23021199817E+04 0.  0.
        5    1    3    3  502    0 -0.17214996618E+03  0.11184660544E+04  0.13617479162E+04  0.17705878693E+04  0.46999998093E+01 0.  1.
       -5    1    3    3    0  502  0.17214996618E+03 -0.11184660544E+04  0.78595430384E+03  0.13778055680E+04  0.46999998093E+01 0. -1.
</event>
<event>
 5   0  0.3338758E-06  0.2301452E+04  0.7818609E-02  0.8477349E-01
        1   -1    0    0  501    0  0.00000000000E+00  0.00000000000E+00  0.93631665468E+03  0.93631665469E+03  0.50400001928E-02 0. -1.
       -1   -1    0    0    0  501  0.00000000000E+00  0.00000000000E+00 -0.14142333390E+04  0.14142333390E+04  0.50400001928E-02 0.  1.
    10030    2    1    2    0    0  0.00000000000E+00  0.00000000000E+00 -0.47791668430E+03  0.23505499937E+04  0.23014519147E+04 0.  0.
        5    1    3    3  502    0 -0.23446660635E+03 -0.80566807475E+02 -0.13866221195E+04  0.14086193923E+04  0.46999998093E+01 0.  1.
       -5    1    3    3    0  502  0.23446660635E+03  0.80566807475E+02  0.90870543519E+03  0.94193060143E+03  0.46999998093E+01 0. -1.
</event>
<event>
 5   0  0.7044981E-06  0.2297932E+04  0.7818609E-02  0.8478737E-01
       -2   -1    0    0    0  501  0.00000000000E+00  0.00000000000E+00  0.14095297567E+04  0.14095297567E+04  0.25500000920E-02 0. -1.
        2   -1    0    0  501    0  0.00000000000E+00  0.00000000000E+00 -0.93656942386E+03  0.93656942386E+03  0.25500000920E-02 0.  1.
    10030    2    1    2    0    0  0.00000000000E+00  0.00000000000E+00  0.47296033284E+03  0.23460991806E+04  0.22979316545E+04 0.  0.
        4    1    3    3  502    0 -0.66545242097E+02 -0.46186686472E+03 -0.83546671739E+03  0.95695115797E+03  0.12699999809E+01 0.  1.
       -4    1    3    3    0  502  0.66545242097E+02  0.46186686472E+03  0.13084270502E+04  0.13891480226E+04  0.12699999809E+01 0. -1.
</event>
<event>
 5   0  0.3238713E-06  0.2293288E+04  0.7818609E-02  0.8480572E-01
       -1   -1    0    0    0  501  0.00000000000E+00  0.00000000000E+00  0.63052584552E+03  0.63052584554E+03  0.50400001928E-02 0. -1.
        1   -1    0    0  501    0  0.00000000000E+00  0.00000000000E+00 -0.20852320495E+04  0.20852320495E+04  0.50400001928E-02 0.  1.
    10030    2    1    2    0    0  0.00000000000E+00  0.00000000000E+00 -0.14547062040E+04  0.27157578950E+04  0.22932882079E+04 0.  0.
        3    1    3    3  502    0 -0.10656759698E+03  0.75395466435E+03 -0.17426023020E+04  0.19017011021E+04  0.10100000352E+00 0.  1.
       -3    1    3    3    0  502  0.10656759698E+03 -0.75395466435E+03  0.28789609804E+03  0.81405679291E+03  0.10100000352E+00 0. -1.
</event>
<event>
 5   0  0.3226427E-06  0.2299460E+04  0.7818609E-02  0.8478134E-01
       -1   -1    0    0    0  501  0.00000000000E+00  0.00000000000E+00  0.43638645361E+03  0.43638645364E+03  0.50400001928E-02 0.  1.
        1   -1    0    0  501    0  0.00000000000E+00  0.00000000000E+00 -0.30291470160E+04  0.30291470160E+04  0.50400001928E-02 0. -1.
    10030    2    1    2    0    0  0.00000000000E+00  0.00000000000E+00 -0.25927605624E+04  0.34655334697E+04  0.22994596964E+04 0.  0.
        4    1    3    3  502    0  0.46266318077E+03  0.87782471629E+03 -0.21715981833E+04  0.23875664879E+04  0.12699999809E+01 0.  1.
       -4    1    3    3    0  502 -0.46266318077E+03 -0.87782471629E+03 -0.42116237910E+03  0.10779669818E+04  0.12699999809E+01 0. -1.
</event>
<event>
 5   0  0.7242214E-06  0.2295777E+04  0.7818609E-02  0.8479588E-01
       -2   -1    0    0    0  501  0.00000000000E+00  0.00000000000E+00  0.59546792199E+03  0.59546792200E+03  0.25500000920E-02 0. -1.
        2   -1    0    0  501    0  0.00000000000E+00  0.00000000000E+00 -0.22127945233E+04  0.22127945233E+04  0.25500000920E-02 0.  1.
    10030    2    1    2    0    0  0.00000000000E+00  0.00000000000E+00 -0.16173266013E+04  0.28082624453E+04  0.22957771291E+04 0.  0.
        1    1    3    3  502    0 -0.10183504320E+04  0.31695122480E+03 -0.13278554107E+04  0.17031428810E+04  0.50400001928E-02 0.  1.
       -1    1    3    3    0  502  0.10183504320E+04 -0.31695122480E+03 -0.28947119060E+03  0.11051195643E+04  0.50400001928E-02 0. -1.
</event>
<event>
 5   0  0.7348107E-06  0.2295112E+04  0.7818609E-02  0.8479851E-01
        2   -1    0    0  501    0  0.00000000000E+00  0.00000000000E+00  0.98085497540E+03  0.98085497540E+03  0.25500000920E-02 0.  1.
       -2   -1    0    0    0  501  0.00000000000E+00  0.00000000000E+00 -0.13425888152E+04  0.13425888152E+04  0.25500000920E-02 0. -1.
    10030    2    1    2    0    0  0.00000000000E+00  0.00000000000E+00 -0.36173383977E+03  0.23234437906E+04  0.22951121273E+04 0.  0.
        3    1    3    3  502    0  0.38098335725E+03  0.89916930179E+03 -0.79099330948E+03  0.12567116525E+04  0.10100000352E+00 0. -1.
       -3    1    3    3    0  502 -0.38098335725E+03 -0.89916930179E+03  0.42925946971E+03  0.10667321380E+04  0.10100000352E+00 0.  1.
</event>
<event>
 5   0  0.7242214E-06  0.2310492E+04  0.7818609E-02  0.8473796E-01
        2   -1    0    0  501    0  0.00000000000E+00  0.00000000000E+00  0.14089636149E+04  0.14089636149E+04  0.25500000920E-02 0.  1.
       -2   -1    0    0    0  501  0.00000000000E+00  0.00000000000E+00 -0.94721609999E+03  0.94721609999E+03  0.25500000920E-02 0. -1.
    10030    2    1    2    0    0  0.00000000000E+00  0.00000000000E+00  0.46174751486E+03  0.23561797148E+04  0.23104917401E+04 0.  0.
        1    1    3    3  502    0  0.25255582592E+03 -0.11144559065E+04  0.40392497398E+03  0.12120032167E+04  0.50400001928E-02 0. -1.
       -1    1    3    3    0  502 -0.25255582592E+03  0.11144559065E+04  0.57822540881E+02  0.11441764982E+04  0.50400001928E-02 0.  1.
</event>
<event>
 5   0  0.7348107E-06  0.2297906E+04  0.7818609E-02  0.8478747E-01
        2   -1    0    0  501    0  0.00000000000E+00  0.00000000000E+00  0.15574190031E+04  0.15574190031E+04  0.25500000920E-02 0. -1.
       -2   -1    0    0    0  501  0.00000000000E+00  0.00000000000E+00 -0.84761559743E+03  0.84761559744E+03  0.25500000920E-02 0.  1.
    10030    2    1    2    0    0  0.00000000000E+00  0.00000000000E+00  0.70980340570E+03  0.24050346006E+04  0.22979056889E+04 0.  0.
        3    1    3    3  502    0  0.10100761044E+04  0.13672164847E+03  0.90985335267E+03  0.13663014600E+04  0.10100000352E+00 0. -1.
       -3    1    3    3    0  502 -0.10100761044E+04 -0.13672164847E+03 -0.20004994696E+03  0.10387331406E+04  0.10100000352E+00 0.  1.
</event>
<event>
 5   0  0.7003852E-06  0.2300878E+04  0.7818609E-02  0.8477575E-01
       -2   -1    0    0    0  501  0.00000000000E+00  0.00000000000E+00  0.62749447441E+03  0.62749447442E+03  0.25500000920E-02 0.  1.
        2   -1    0    0  501    0  0.00000000000E+00  0.00000000000E+00 -0.21091978199E+04  0.21091978199E+04  0.25500000920E-02 0. -1.
    10030    2    1    2    0    0  0.00000000000E+00  0.00000000000E+00 -0.14817033455E+04  0.27366922943E+04  0.23008780737E+04 0.  0.
        2    1    3    3  502    0  0.10378960731E+04  0.39281435110E+03 -0.38012706314E+03  0.11730421804E+04  0.25500000920E-02 0.  1.
       -2    1    3    3    0  502 -0.10378960731E+04 -0.39281435110E+03 -0.11015762824E+04  0.15636501139E+04  0.25500000920E-02 0. -1.
</event>
<event>
 5   0  0.7242214E-06  0.2300480E+04  0.7818609E-02  0.8477732E-01
        2   -1    0    0  501    0  0.00000000000E+00  0.00000000000E+00  0.13226442805E+04  0.13226442805E+04  0.25500000920E-02 0. -1.
       -2   -1    0    0    0  501  0.00000000000E+00  0.00000000000E+00 -0.10003081680E+04  0.10003081680E+04  0.25500000920E-02 0.  1.
    10030    2    1    2    0    0  0.00000000000E+00  0.00000000000E+00  0.32233611255E+03  0.23229524485E+04  0.23004798431E+04 0.  0.
        1    1    3    3  502    0 -0.40808713683E+03 -0.10701937953E+04  0.26804149840E+03  0.11763061317E+04  0.50400001928E-02 0. -1.
       -1    1    3    3    0  502  0.40808713683E+03  0.10701937953E+04  0.54294614142E+02  0.11466463168E+04  0.50400001928E-02 0.  1.
</event>
<event>
 5   0  0.3338758E-06  0.2294772E+04  0.7818609E-02  0.8479985E-01
       -1   -1    0    0    0  501  0.00000000000E+00  0.00000000000E+00  0.72559253382E+03  0.72559253383E+03  0.50400001928E-02 0.  1.
        1   -1    0    0  501    0  0.00000000000E+00  0.00000000000E+00 -0.18143710695E+04  0.18143710696E+04  0.50400001928E-02 0. -1.
    10030    2    1    2    0    0  0.00000000000E+00  0.00000000000E+00 -0.10887785357E+04  0.25399636034E+04  0.22947715369E+04 0.  0.
        5    1    3    3  502    0  0.72078948958E+03 -0.82320491543E+03 -0.16213675044E+03  0.11061257781E+04  0.46999998093E+01 0.  1.
       -5    1    3    3    0  502 -0.72078948958E+03  0.82320491543E+03 -0.92664178529E+03  0.14338378253E+04  0.46999998093E+01 0. -1.
</event>
<event>
 5   0  0.3338758E-06  0.2302686E+04  0.7818609E-02  0.8476863E-01
       -1   -1    0    0    0  501  0.00000000000E+00  0.00000000000E+00  0.12140114084E+04  0.12140114084E+04  0.50400001928E-02 0.  1.
        1   -1    0    0  501    0  0.00000000000E+00  0.00000000000E+00 -0.10919097004E+04  0.10919097004E+04  0.50400001928E-02 0. -1.
    10030    2    1    2    0    0  0.00000000000E+00  0.00000000000E+00  0.12210170805E+03  0.23059211088E+04  0.23026861125E+04 0.  0.
        5    1    3    3  502    0 -0.37956490388E+03 -0.20677391829E+03  0.11296694092E+04  0.12095453831E+04  0.46999998093E+01 0.  1.
       -5    1    3    3    0  502  0.37956490388E+03  0.20677391829E+03 -0.10075677012E+04  0.10963757257E+04  0.46999998093E+01 0. -1.
</event>
<event>
 5   0  0.7003852E-06  0.2291029E+04  0.7818609E-02  0.8481467E-01
        2   -1    0    0  501    0  0.00000000000E+00  0.00000000000E+00  0.11062206814E+04  0.11062206814E+04  0.25500000920E-02 0. -1.
       -2   -1    0    0    0  501  0.00000000000E+00  0.00000000000E+00 -0.11862036256E+04  0.11862036256E+04  0.25500000920E-02 0.  1.
    10030    2    1    2    0    0  0.00000000000E+00  0.00000000000E+00 -0.79982944149E+02  0.22924243070E+04  0.22910285751E+04 0.  0.
        2    1    3    3  502    0 -0.45235796840E+03 -0.48282060476E+03 -0.97568656640E+03  0.11788586615E+04  0.25500000920E-02 0.  1.
       -2    1    3    3    0  502  0.45235796840E+03  0.48282060476E+03  0.89570362225E+03  0.11135656455E+04  0.25500000920E-02 0. -1.
</event>
<event>
 5   0  0.3238713E-06  0.2300607E+04  0.7818609E-02  0.8477682E-01
        1   -1    0    0  501    0  0.00000000000E+00  0.00000000000E+00  0.16893144543E+04  0.16893144543E+04  0.50400001928E-02 0.  1.
       -1   -1    0    0    0  501  0.00000000000E+00  0.00000000000E+00 -0.78327529417E+03  0.78327529418E+03  0.50400001928E-02 0. -1.
    10030    2    1    2    0    0  0.00000000000E+00  0.00000000000E+00  0.90603916013E+03  0.24725897485E+04  0.23006071165E+04 0.  0.
        3    1    3    3  502    0  0.66710969353E+03  0.32408673943E+03  0.13980288466E+04  0.15825777150E+04  0.10100000352E+00 0.  1.
       -3    1    3    3    0  502 -0.66710969353E+03 -0.32408673943E+03 -0.49198968650E+03  0.89001203346E+03  0.10100000352E+00 0. -1.
</event>
<event>
 5   0  0.3338758E-06  0.2304708E+04  0.7818609E-02  0.8476067E-01
       -1   -1    0    0    0  501  0.00000000000E+00  0.00000000000E+00  0.97556917260E+03  0.97556917261E+03  0.50400001928E-02 0. -1.
        1   -1    0    0  501    0  0.00000000000E+00  0.00000000000E+00 -0.13611743304E+04  0.13611743304E+04  0.50400001928E-02 0.  1.
    10030    2    1    2    0    0  0.00000000000E+00  0.00000000000E+00 -0.38560515783E+03  0.23367435031E+04  0.23047079775E+04 0.  0.
        5    1    3    3  502    0  0.12367836749E+03  0.66287153724E+03 -0.11402446199E+04  0.13247169119E+04  0.46999998093E+01 0.  1.
       -5    1    3    3    0  502 -0.12367836749E+03 -0.66287153724E+03  0.75463946207E+03  0.10120265911E+04  0.46999998093E+01 0. -1.
</event>
<event>
 5   0  0.7497344E-06  0.2308105E+04  0.7818609E-02  0.8474732E-01
       -2   -1    0    0    0  501  0.00000000000E+00  0.00000000000E+00  0.44449539219E+03  0.44449539220E+03  0.25500000920E-02 0.  1.
        2   -1    0    0  501    0  0.00000000000E+00  0.00000000000E+00 -0.29962914189E+04  0.29962914189E+04  0.25500000920E-02 0. -1.
    10030    2    1    2    0    0  0.00000000000E+00  0.00000000000E+00 -0.25517960267E+04  0.34407868111E+04  0.23081054823E+04 0.  0.
        5    1    3    3  502    0 -0.46746630906E+03 -0.15187900367E+03 -0.28324366785E+04  0.28747715752E+04  0.46999998093E+01 0. -1.
       -5    1    3    3    0  502  0.46746630906E+03  0.15187900367E+03  0.28064065178E+03  0.56601523591E+03  0.46999998093E+01 0.  1.
</event>
<event>
 5   0  0.7348107E-06  0.2300160E+04  0.7818609E-02  0.8477858E-01
       -2   -1    0    0    0  501  0.00000000000E+00  0.00000000000E+00  0.46074319761E+03  0.46074319762E+03  0.25500000920E-02 0. -1.
        2   -1    0    0  501    0  0.00000000000E+00  0.00000000000E+00 -0.28707616529E+04  0.28707616529E+04  0.25500000920E-02 0.  1.
    10030    2    1    2    0    0  0.00000000000E+00  0.00000000000E+00 -0.24100184553E+04  0.33315048505E+04  0.23001599106E+04 0.  0.
        3    1    3    3  502    0  0.55664626631E+03 -0.43118901865E+03  0.11206481822E+03  0.71297795849E+03  0.10100000352E+00 0. -1.
       -3    1    3    3    0  502 -0.55664626631E+03  0.43118901865E+03 -0.25220832735E+04  0.26185268920E+04  0.10100000352E+00 0.  1.
</event>
<event>
 5   0  0.2519625E-06  0.2306656E+04  0.7818609E-02  0.8475301E-01
        3   -1    0    0  501    0  0.00000000000E+00  0.00000000000E+00  0.81733707612E+03  0.81733708236E+03  0.10100000352E+00 0.  1.
       -3   -1    0    0    0  501  0.00000000000E+00  0.00000000000E+00 -0.16274381262E+04  0.16274381294E+04  0.10100000352E+00 0. -1.
    10030    2    1    2    0    0  0.00000000000E+00  0.00000000000E+00 -0.81010105012E+03  0.24447752117E+04  0.23066560482E+04 0.  0.
        2    1    3    3  502    0  0.88228891761E+03  0.14127529649E+03 -0.11779433404E+04  0.14784934754E+04  0.25500000920E-02 0. -1.
       -2    1    3    3    0  502 -0.88228891761E+03 -0.14127529649E+03  0.36784229025E+03  0.96628173637E+03  0.25500000920E-02 0.  1.
</event>
<event>
 5   0  0.7003852E-06  0.2299184E+04  0.7818609E-02  0.8478243E-01
       -2   -1    0    0    0  501  0.00000000000E+00  0.00000000000E+00  0.84181813356E+03  0.84181813356E+03  0.25500000920E-02 0.  1.
        2   -1    0    0  501    0  0.00000000000E+00  0.00000000000E+00 -0.15698902369E+04  0.15698902369E+04  0.25500000920E-02 0. -1.
    10030    2    1    2    0    0  0.00000000000E+00  0.00000000000E+00 -0.72807210338E+03  0.24117083705E+04  0.22991842633E+04 0.  0.
        2    1    3    3  502    0  0.91004519368E+03  0.50376120216E+03 -0.87748641629E+03  0.13608600274E+04  0.25500000920E-02 0. -1.
       -2    1    3    3    0  502 -0.91004519368E+03 -0.50376120216E+03  0.14941431291E+03  0.10508483431E+04  0.25500000920E-02 0.  1.
</event>
<event>
 5   0  0.3184492E-06  0.2299028E+04  0.7818609E-02  0.8478304E-01
        1   -1    0    0  501    0  0.00000000000E+00  0.00000000000E+00  0.80169867480E+03  0.80169867482E+03  0.50400001928E-02 0. -1.
       -1   -1    0    0    0  501  0.00000000000E+00  0.00000000000E+00 -0.16482282262E+04  0.16482282262E+04  0.50400001928E-02 0.  1.
    10030    2    1    2    0    0  0.00000000000E+00  0.00000000000E+00 -0.84652955140E+03  0.24499269010E+04  0.22990279552E+04 0.  0.
        1    1    3    3  502    0  0.10486048143E+04  0.31029142003E+03 -0.80082121570E+03  0.13554214996E+04  0.50400001928E-02 0. -1.
       -1    1    3    3    0  502 -0.10486048143E+04 -0.31029142003E+03 -0.45708335699E+02  0.10945054015E+04  0.50400001928E-02 0.  1.
</event>
<event>
 5   0  0.7242214E-06  0.2298580E+04  0.7818609E-02  0.8478481E-01
       -2   -1    0    0    0  501  0.00000000000E+00  0.00000000000E+00  0.91770478340E+03  0.91770478341E+03  0.25500000920E-02 0.  1.
        2   -1    0    0  501    0  0.00000000000E+00  0.00000000000E+00 -0.14393162739E+04  0.14393162739E+04  0.25500000920E-02 0. -1.
    10030    2    1    2    0    0  0.00000000000E+00  0.00000000000E+00 -0.52161149045E+03  0.23570210573E+04  0.22985799350E+04 0.  0.
        1    1    3    3  502    0  0.12763845183E+03  0.84906233782E+03 -0.10442122360E+04  0.13518792926E+04  0.50400001928E-02 0. -1.
       -1    1    3    3    0  502 -0.12763845183E+03 -0.84906233782E+03  0.52260074552E+03  0.10051417647E+04  0.50400001928E-02 0.  1.
</event>
<event>
 5   0  0.3195296E-06  0.2299637E+04  0.7818609E-02  0.8478064E-01
       -1   -1    0    0    0  501  0.00000000000E+00  0.00000000000E+00  0.63937000090E+03  0.63937000092E+03  0.50400001928E-02 0.  1.
        1   -1    0    0  501    0  0.00000000000E+00  0.00000000000E+00 -0.20677902863E+04  0.20677902863E+04  0.50400001928E-02 0. -1.
    10030    2    1    2    0    0  0.00000000000E+00  0.00000000000E+00 -0.14284202854E+04  0.27071602873E+04  0.22996374299E+04 0.  0.
        2    1    3    3  502    0  0.67829766171E+03  0.84517735620E+03 -0.26183199763E+03  0.11148849610E+04  0.25500000920E-02 0.  1.
       -2    1    3    3    0  502 -0.67829766171E+03 -0.84517735620E+03 -0.11665882878E+04  0.15922753262E+04  0.25500000920E-02 0. -1.
</event>
<event>
 5   0  0.3238713E-06  0.2278645E+04  0.7818609E-02  0.8486389E-01
        1   -1    0    0  501    0  0.00000000000E+00  0.00000000000E+00  0.17242795207E+04  0.17242795207E+04  0.50400001928E-02 0.  1.
       -1   -1    0    0    0  501  0.00000000000E+00  0.00000000000E+00 -0.75281035590E+03  0.75281035592E+03  0.50400001928E-02 0. -1.
    10030    2    1    2    0    0  0.00000000000E+00  0.00000000000E+00  0.97146916477E+03  0.24770898766E+04  0.22786447548E+04 0.  0.
        3    1    3    3  502    0 -0.37501703677E+03  0.60099881096E+03  0.14557556574E+04  0.16189693922E+04  0.10100000352E+00 0.  1.
       -3    1    3    3    0  502  0.37501703677E+03 -0.60099881096E+03 -0.48428649261E+03  0.85812048441E+03  0.10100000352E+00 0. -1.
</event>
<event>
 5   0  0.3338758E-06  0.2302110E+04  0.7818609E-02  0.8477090E-01
        1   -1    0    0  501    0  0.00000000000E+00  0.00000000000E+00  0.84639180588E+03  0.84639180590E+03  0.50400001928E-02 0. -1.
       -1   -1    0    0    0  501  0.00000000000E+00  0.00000000000E+00 -0.15653836203E+04  0.15653836203E+04  0.50400001928E-02 0.  1.
    10030    2    1    2    0    0  0.00000000000E+00  0.00000000000E+00 -0.71899181437E+03  0.24117754262E+04  0.23021102226E+04 0.  0.
        5    1    3    3  502    0 -0.66027245624E+02  0.31826690665E+03 -0.15162939750E+04  0.15507491511E+04  0.46999998093E+01 0.  1.
       -5    1    3    3    0  502  0.66027245624E+02 -0.31826690665E+03  0.79730216061E+03  0.86102627506E+03  0.46999998093E+01 0. -1.
</event>
<event>
 5   0  0.3195296E-06  0.2299519E+04  0.7818609E-02  0.8478111E-01
        1   -1    0    0  501    0  0.00000000000E+00  0.00000000000E+00  0.75160938686E+03  0.75160938688E+03  0.50400001928E-02 0.  1.
       -1   -1    0    0    0  501  0.00000000000E+00  0.00000000000E+00 -0.17588224490E+04  0.17588224490E+04  0.50400001928E-02 0. -1.
    10030    2    1    2    0    0  0.00000000000E+00  0.00000000000E+00 -0.10072130621E+04  0.25104318359E+04  0.22995194824E+04 0.  0.
        2    1    3    3  502    0  0.49770724291E+03 -0.15089112806E+03  0.61585488303E+03  0.80607559765E+03  0.25500000920E-02 0.  1.
       -2    1    3    3    0  502 -0.49770724291E+03  0.15089112806E+03 -0.16230679452E+04  0.17043562382E+04  0.25500000920E-02 0. -1.
</event>
<event>
 5   0  0.7044981E-06  0.2300971E+04  0.7818609E-02  0.8477538E-01
        2   -1    0    0  501    0  0.00000000000E+00  0.00000000000E+00  0.13770484423E+04  0.13770484423E+04  0.25500000920E-02 0. -1.
       -2   -1    0    0    0  501  0.00000000000E+00  0.00000000000E+00 -0.96119876707E+03  0.96119876707E+03  0.25500000920E-02 0.  1.
    10030    2    1    2    0    0  0.00000000000E+00  0.00000000000E+00  0.41584967527E+03  0.23382472094E+04  0.23009713297E+04 0.  0.
        4    1    3    3  502    0  0.91213970175E+03  0.45054096808E+03  0.75387084058E+03  0.12662183290E+04  0.12699999809E+01 0. -1.
       -4    1    3    3    0  502 -0.91213970175E+03 -0.45054096808E+03 -0.33802116531E+03  0.10720288805E+04  0.12699999809E+01 0.  1.
</event>
<event>
 5   0  0.3226427E-06  0.2294125E+04  0.7818609E-02  0.8480241E-01
       -1   -1    0    0    0  501  0.00000000000E+00  0.00000000000E+00  0.14816667772E+04  0.14816667772E+04  0.50400001928E-02 0.  1.
        1   -1    0    0  501    0  0.00000000000E+00  0.00000000000E+00 -0.88802150332E+03  0.88802150334E+03  0.50400001928E-02 0. -1.
    10030    2    1    2    0    0  0.00000000000E+00  0.00000000000E+00  0.59364527386E+03  0.23696882805E+04  0.22941246339E+04 0.  0.
        4    1    3    3  502    0 -0.31642783781E+03  0.63692085753E+03 -0.63279598783E+03  0.95195962646E+03  0.12699999809E+01 0. -1.
       -4    1    3    3    0  502  0.31642783781E+03 -0.63692085753E+03  0.12264412617E+04  0.14177286541E+04  0.12699999809E+01 0.  1.
</event>
<event>
 5   0  0.3338758E-06  0.2304470E+04  0.7818609E-02  0.8476161E-01
        1   -1    0    0  501    0  0.00000000000E+00  0.00000000000E+00  0.10216565715E+04  0.10216565716E+04  0.50400001928E-02 0.  1.
       -1   -1    0    0    0  501  0.00000000000E+00  0.00000000000E+00 -0.12995025361E+04  0.12995025361E+04  0.50400001928E-02 0. -1.
    10030    2    1    2    0    0  0.00000000000E+00  0.00000000000E+00 -0.27784596458E+03  0.23211591077E+04  0.23044698356E+04 0.  0.
        5    1    3    3  502    0 -0.30437760180E+03 -0.86605328727E+03 -0.84033475158E+03  0.12445395155E+04  0.46999998093E+01 0. -1.
       -5    1    3    3    0  502  0.30437760180E+03  0.86605328727E+03  0.56248878700E+03  0.10766195922E+04  0.46999998093E+01 0.  1.
</event>
<event>
 5   0  0.2519625E-06  0.2301500E+04  0.7818609E-02  0.8477330E-01
        4   -1    0    0  501    0  0.00000000000E+00  0.00000000000E+00  0.70922357164E+03  0.70922470873E+03  0.12699999809E+01 0.  1.
       -4   -1    0    0    0  501  0.00000000000E+00  0.00000000000E+00 -0.18671454033E+04  0.18671458352E+04  0.12699999809E+01 0. -1.
    10030    2    1    2    0    0  0.00000000000E+00  0.00000000000E+00 -0.11579218316E+04  0.25763705439E+04  0.23014999916E+04 0.  0.
        5    1    3    3  502    0 -0.76991217137E+03  0.61384093446E+02  0.37595425459E+03  0.85900899303E+03  0.46999998093E+01 0.  1.
       -5    1    3    3    0  502  0.76991217137E+03 -0.61384093446E+02 -0.15338760862E+04  0.17173615509E+04  0.46999998093E+01 0. -1.
</event>
<event>
 5   0  0.7242214E-06  0.2342958E+04  0.7818609E-02  0.8461173E-01
       -2   -1    0    0    0  501  0.00000000000E+00  0.00000000000E+00  0.12538752096E+04  0.12538752096E+04  0.25500000920E-02 0.  1.
        2   -1    0    0  501    0  0.00000000000E+00  0.00000000000E+00 -0.10944972689E+04  0.10944972689E+04  0.25500000920E-02 0. -1.
    10030    2    1    2    0    0  0.00000000000E+00  0.00000000000E+00  0.15937794070E+03  0.23483724786E+04  0.23429579531E+04 0.  0.
        1    1    3    3  502    0 -0.11517754145E+04  0.18063891558E+03  0.19460981054E+03  0.11819856182E+04  0.50400001928E-02 0. -1.
       -1    1    3    3    0  502  0.11517754145E+04 -0.18063891558E+03 -0.35231869841E+02  0.11663868604E+04  0.50400001928E-02 0.  1.
</event>
<event>
 5   0  0.7348107E-06  0.2301254E+04  0.7818609E-02  0.8477427E-01
        2   -1    0    0  501    0  0.00000000000E+00  0.00000000000E+00  0.15188952040E+04  0.15188952040E+04  0.25500000920E-02 0. -1.
       -2   -1    0    0    0  501  0.00000000000E+00  0.00000000000E+00 -0.87164798245E+03  0.87164798245E+03  0.25500000920E-02 0.  1.
    10030    2    1    2    0    0  0.00000000000E+00  0.00000000000E+00  0.64724722157E+03  0.23905431865E+04  0.23012535194E+04 0.  0.
        3    1    3    3  502    0 -0.39539255596E+03 -0.71821521559E+03  0.11622731213E+04  0.14223386333E+04  0.10100000352E+00 0.  1.
       -3    1    3    3    0  502  0.39539255596E+03  0.71821521559E+03 -0.51502589969E+03  0.96820455316E+03  0.10100000352E+00 0. -1.
</event>
<event>
 5   0  0.7348107E-06  0.2297361E+04  0.7818609E-02  0.8478962E-01
        2   -1    0    0  501    0  0.00000000000E+00  0.00000000000E+00  0.17713424327E+04  0.17713424327E+04  0.25500000920E-02 0.  1.
       -2   -1    0    0    0  501  0.00000000000E+00  0.00000000000E+00 -0.74489656619E+03  0.74489656620E+03  0.25500000920E-02 0. -1.
    10030    2    1    2    0    0  0.00000000000E+00  0.00000000000E+00  0.10264458665E+04  0.25162389989E+04  0.22973610040E+04 0.  0.
        3    1    3    3  502    0 -0.10920550436E+04  0.33052089445E+03  0.65868667992E+03  0.13174583228E+04  0.10100000352E+00 0.  1.
       -3    1    3    3    0  502  0.10920550436E+04 -0.33052089445E+03  0.36775918656E+03  0.11987806761E+04  0.10100000352E+00 0. -1.
</event>
<event>
 5   0  0.3226427E-06  0.2300524E+04  0.7818609E-02  0.8477715E-01
        1   -1    0    0  501    0  0.00000000000E+00  0.00000000000E+00  0.14860634189E+04  0.14860634189E+04  0.50400001928E-02 0. -1.
       -1   -1    0    0    0  501  0.00000000000E+00  0.00000000000E+00 -0.89034067815E+03  0.89034067817E+03  0.50400001928E-02 0.  1.
    10030    2    1    2    0    0  0.00000000000E+00  0.00000000000E+00  0.59572274073E+03  0.23764040971E+04  0.23005240378E+04 0.  0.
        4    1    3    3  502    0 -0.78460259800E+03  0.78239190095E+02  0.11629681965E+04  0.14050691252E+04  0.12699999809E+01 0. -1.
       -4    1    3    3    0  502  0.78460259800E+03 -0.78239190095E+02 -0.56724545573E+03  0.97133497188E+03  0.12699999809E+01 0.  1.
</event>
<event>
 5   0  0.7044981E-06  0.2295214E+04  0.7818609E-02  0.8479810E-01
        2   -1    0    0  501    0  0.00000000000E+00  0.00000000000E+00  0.17504175451E+04  0.17504175451E+04  0.25500000920E-02 0.  1.
       -2   -1    0    0    0  501  0.00000000000E+00  0.00000000000E+00 -0.75239322454E+03  0.75239322455E+03  0.25500000920E-02 0. -1.
    10030    2    1    2    0    0  0.00000000000E+00  0.00000000000E+00  0.99802432060E+03  0.25028107697E+04  0.22952144136E+04 0.  0.
        4    1    3    3  502    0  0.41278436812E+03  0.10434621735E+04  0.76116545454E+03  0.13559419989E+04  0.12699999809E+01 0. -1.
       -4    1    3    3    0  502 -0.41278436812E+03 -0.10434621735E+04  0.23685886606E+03  0.11468687708E+04  0.12699999809E+01 0.  1.
</event>
<event>
 5   0  0.3195296E-06  0.2300783E+04  0.7818609E-02  0.8477612E-01
        1   -1    0    0  501    0  0.00000000000E+00  0.00000000000E+00  0.12802682857E+04  0.12802682857E+04  0.50400001928E-02 0.  1.
       -1   -1    0    0    0  501  0.00000000000E+00  0.00000000000E+00 -0.10336902043E+04  0.10336902044E+04  0.50400001928E-02 0. -1.
    10030    2    1    2    0    0  0.00000000000E+00  0.00000000000E+00  0.24657808132E+03  0.23139584900E+04  0.23007831587E+04 0.  0.
        2    1    3    3  502    0 -0.72590631761E+03  0.84420482036E+03 -0.16781452532E+03  0.11259589138E+04  0.25500000920E-02 0. -1.
       -2    1    3    3    0  502  0.72590631761E+03 -0.84420482036E+03  0.41439260665E+03  0.11879995762E+04  0.25500000920E-02 0.  1.
</event>
<event>
 5   0  0.3184492E-06  0.2298790E+04  0.7818609E-02  0.8478398E-01
        1   -1    0    0  501    0  0.00000000000E+00  0.00000000000E+00  0.21718687874E+04  0.21718687874E+04  0.50400001928E-02 0.  1.
       -1   -1    0    0    0  501  0.00000000000E+00  0.00000000000E+00 -0.60828211124E+03  0.60828211126E+03  0.50400001928E-02 0. -1.
    10030    2    1    2    0    0  0.00000000000E+00  0.00000000000E+00  0.15635866762E+04  0.27801508987E+04  0.22987900569E+04 0.  0.
        1    1    3    3  502    0 -0.59784831136E+02  0.11472049478E+04  0.82793328798E+03  0.14160250519E+04  0.50400001928E-02 0.  1.
       -1    1    3    3    0  502  0.59784831136E+02 -0.11472049478E+04  0.73565338821E+03  0.13641258468E+04  0.50400001928E-02 0. -1.
</event>
<event>
 5   0  0.3338758E-06  0.2297222E+04  0.7818609E-02  0.8479017E-01
        1   -1    0    0  501    0  0.00000000000E+00  0.00000000000E+00  0.12169584607E+04  0.12169584607E+04  0.50400001928E-02 0. -1.
       -1   -1    0    0    0  501  0.00000000000E+00  0.00000000000E+00 -0.10841020642E+04  0.10841020642E+04  0.50400001928E-02 0.  1.
    10030    2    1    2    0    0  0.00000000000E+00  0.00000000000E+00  0.13285639654E+03  0.23010605249E+04  0.22972219565E+04 0.  0.
        5    1    3    3  502    0  0.10354479723E+04  0.47640794302E+03  0.20867978589E+03  0.11587434464E+04  0.46999998093E+01 0.  1.
       -5    1    3    3    0  502 -0.10354479723E+04 -0.47640794302E+03 -0.75823389346E+02  0.11423170785E+04  0.46999998093E+01 0. -1.
</event>
<event>
 5   0  0.7003852E-06  0.2300428E+04  0.7818609E-02  0.8477752E-01
        2   -1    0    0  501    0  0.00000000000E+00  0.00000000000E+00  0.19782999366E+04  0.19782999366E+04  0.25500000920E-02 0. -1.
       -2   -1    0    0    0  501  0.00000000000E+00  0.00000000000E+00 -0.66875222680E+03  0.66875222680E+03  0.25500000920E-02 0.  1.
    10030    2    1    2    0    0  0.00000000000E+00  0.00000000000E+00  0.13095477098E+04  0.26470521634E+04  0.23004282105E+04 0.  0.
        2    1    3    3  502    0  0.18582990342E+03 -0.83495951632E+03 -0.23005364976E+03  0.88578486591E+03  0.25500000920E-02 0.  1.
       -2    1    3    3    0  502 -0.18582990342E+03  0.83495951632E+03  0.15396013596E+04  0.17612672975E+04  0.25500000920E-02 0. -1.
</event>
<event>
 5   0  0.7044981E-06  0.2303739E+04  0.7818609E-02  0.8476449E-01
        2   -1    0    0  501    0  0.00000000000E+00  0.00000000000E+00  0.94103577105E+03  0.94103577105E+03  0.25500000920E-02 0.  1.
       -2   -1    0    0    0  501  0.00000000000E+00  0.00000000000E+00 -0.14099387677E+04  0.14099387677E+04  0.25500000920E-02 0. -1.
    10030    2    1    2    0    0  0.00000000000E+00  0.00000000000E+00 -0.46890299666E+03  0.23509745388E+04  0.23037385402E+04 0.  0.
        4    1    3    3  502    0  0.23895957983E+02  0.10528555047E+04  0.24172653634E+03  0.10805133325E+04  0.12699999809E+01 0.  1.
       -4    1    3    3    0  502 -0.23895957983E+02 -0.10528555047E+04 -0.71062953300E+03  0.12704612062E+04  0.12699999809E+01 0. -1.
</event>
<event>
 5   0  0.7348107E-06  0.2296846E+04  0.7818609E-02  0.8479166E-01
       -2   -1    0    0    0  501  0.00000000000E+00  0.00000000000E+00  0.69673930251E+03  0.69673930252E+03  0.25500000920E-02 0.  1.
        2   -1    0    0  501    0  0.00000000000E+00  0.00000000000E+00 -0.18929255676E+04  0.18929255676E+04  0.25500000920E-02 0. -1.
    10030    2    1    2    0    0  0.00000000000E+00  0.00000000000E+00 -0.11961862651E+04  0.25896648701E+04  0.22968462201E+04 0.  0.
        3    1    3    3  502    0 -0.74649324024E+03 -0.57583363667E+03 -0.13374695863E+04  0.16363561468E+04  0.10100000352E+00 0. -1.
       -3    1    3    3    0  502  0.74649324024E+03  0.57583363667E+03  0.14128332119E+03  0.95330872329E+03  0.10100000352E+00 0.  1.
</event>
<event>
 5   0  0.2519625E-06  0.2295898E+04  0.7818609E-02  0.8479540E-01
       -4   -1    0    0    0  501  0.00000000000E+00  0.00000000000E+00  0.15113611104E+04  0.15113616440E+04  0.12699999809E+01 0. -1.
        4   -1    0    0  501    0  0.00000000000E+00  0.00000000000E+00 -0.87191932092E+03  0.87192024583E+03  0.12699999809E+01 0.  1.
    10030    2    1    2    0    0  0.00000000000E+00  0.00000000000E+00  0.63944178948E+03  0.23832818898E+04  0.22958978122E+04 0.  0.
        5    1    3    3  502    0 -0.18658466455E+03  0.24442457469E+03 -0.82836110262E+03  0.88360704846E+03  0.46999998093E+01 0.  1.
       -5    1    3    3    0  502  0.18658466455E+03 -0.24442457469E+03  0.14678028921E+04  0.14996748414E+04  0.46999998093E+01 0. -1.
</event>
<event>
 5   0  0.7044981E-06  0.2304160E+04  0.7818609E-02  0.8476283E-01
       -2   -1    0    0    0  501  0.00000000000E+00  0.00000000000E+00  0.16280331935E+04  0.16280331935E+04  0.25500000920E-02 0. -1.
        2   -1    0    0  501    0  0.00000000000E+00  0.00000000000E+00 -0.81527088963E+03  0.81527088964E+03  0.25500000920E-02 0.  1.
    10030    2    1    2    0    0  0.00000000000E+00  0.00000000000E+00  0.81276230388E+03  0.24433040832E+04  0.23041597775E+04 0.  0.
        4    1    3    3  502    0 -0.60095266797E+03  0.55149878007E+02 -0.63425955495E+03  0.87548410273E+03  0.12699999809E+01 0.  1.
       -4    1    3    3    0  502  0.60095266797E+03 -0.55149878007E+02  0.14470218588E+04  0.15678199804E+04  0.12699999809E+01 0. -1.
</event>
<event>
 5   0  0.7242214E-06  0.2293909E+04  0.7818609E-02  0.8480327E-01
       -2   -1    0    0    0  501  0.00000000000E+00  0.00000000000E+00  0.10666092482E+04  0.10666092482E+04  0.25500000920E-02 0.  1.
        2   -1    0    0  501    0  0.00000000000E+00  0.00000000000E+00 -0.12333516954E+04  0.12333516954E+04  0.25500000920E-02 0. -1.
    10030    2    1    2    0    0  0.00000000000E+00  0.00000000000E+00 -0.16674244714E+03  0.22999609436E+04  0.22939087380E+04 0.  0.
        1    1    3    3  502    0  0.56401678944E+03  0.75767692761E+03 -0.73571449118E+03  0.11972740196E+04  0.50400001928E-02 0. -1.
       -1    1    3    3    0  502 -0.56401678944E+03 -0.75767692761E+03  0.56897204404E+03  0.11026869240E+04  0.50400001928E-02 0.  1.
</event>
<event>
 5   0  0.3184492E-06  0.2269144E+04  0.7818609E-02  0.8490187E-01
        1   -1    0    0  501    0  0.00000000000E+00  0.00000000000E+00  0.23341565388E+04  0.23341565388E+04  0.50400001928E-02 0. -1.
       -1   -1    0    0    0  501  0.00000000000E+00  0.00000000000E+00 -0.55148576446E+03  0.55148576448E+03  0.50400001928E-02 0.  1.
    10030    2    1    2    0    0  0.00000000000E+00  0.00000000000E+00  0.17826707744E+04  0.28856423033E+04  0.22691444231E+04 0.  0.
        1    1    3    3  502    0 -0.93881717955E+03  0.47261288364E+03  0.34805025807E+03  0.11071944800E+04  0.50400001928E-02 0.  1.
       -1    1    3    3    0  502  0.93881717955E+03 -0.47261288364E+03  0.14346205163E+04  0.17784478233E+04  0.50400001928E-02 0. -1.
</event>
<event>
 5   0  0.3338758E-06  0.2301063E+04  0.7818609E-02  0.8477502E-01
       -1   -1    0    0    0  501  0.00000000000E+00  0.00000000000E+00  0.12597858729E+04  0.12597858729E+04  0.50400001928E-02 0. -1.
        1   -1    0    0  501    0  0.00000000000E+00  0.00000000000E+00 -0.10507517735E+04  0.10507517735E+04  0.50400001928E-02 0.  1.
    10030    2    1    2    0    0  0.00000000000E+00  0.00000000000E+00  0.20903409942E+03  0.23105376464E+04  0.23010625721E+04 0.  0.
        5    1    3    3  502    0  0.72783967422E+03 -0.86374155339E+03 -0.11524503957E+03  0.11353869700E+04  0.46999998093E+01 0. -1.
       -5    1    3    3    0  502 -0.72783967422E+03  0.86374155339E+03  0.32427913899E+03  0.11751506765E+04  0.46999998093E+01 0.  1.
</event>
<event>
 5   0  0.7497344E-06  0.2300846E+04  0.7818609E-02  0.8477588E-01
        2   -1    0    0  501    0  0.00000000000E+00  0.00000000000E+00  0.13931212083E+04  0.13931212083E+04  0.25500000920E-02 0. -1.
       -2   -1    0    0    0  501  0.00000000000E+00  0.00000000000E+00 -0.95000549181E+03  0.95000549181E+03  0.25500000920E-02 0.  1.
    10030    2    1    2    0    0  0.00000000000E+00  0.00000000000E+00  0.44311571644E+03  0.23431267001E+04  0.23008457563E+04 0.  0.
        5    1    3    3  502    0  0.38748332435E+03 -0.84134384317E+03 -0.47321655177E+03  0.10401724780E+04  0.46999998093E+01 0. -1.
       -5    1    3    3    0  502 -0.38748332435E+03  0.84134384317E+03  0.91633226821E+03  0.13029542221E+04  0.46999998093E+01 0.  1.
</event>
<event>
 5   0  0.7497344E-06  0.2284118E+04  0.7818609E-02  0.8484210E-01
       -2   -1    0    0    0  501  0.00000000000E+00  0.00000000000E+00  0.63936174518E+03  0.63936174518E+03  0.25500000920E-02 0. -1.
        2   -1    0    0  501    0  0.00000000000E+00  0.00000000000E+00 -0.20400009834E+04  0.20400009834E+04  0.25500000920E-02 0.  1.
    10030    2    1    2    0    0  0.00000000000E+00  0.00000000000E+00 -0.14006392382E+04  0.26793627286E+04  0.22841178507E+04 0.  0.
        5    1    3    3  502    0 -0.15362458152E+03 -0.74343033007E+03  0.30054402664E+03  0.81647900749E+03  0.46999998093E+01 0. -1.
       -5    1    3    3    0  502  0.15362458152E+03  0.74343033007E+03 -0.17011832649E+04  0.18628837211E+04  0.46999998093E+01 0.  1.
</event>
<event>
 5   0  0.7497344E-06  0.2299467E+04  0.7818609E-02  0.8478131E-01
       -2   -1    0    0    0  501  0.00000000000E+00  0.00000000000E+00  0.68481363680E+03  0.68481363680E+03  0.25500000920E-02 0. -1.
        2   -1    0    0  501    0  0.00000000000E+00  0.00000000000E+00 -0.19302878989E+04  0.19302878989E+04  0.25500000920E-02 0.  1.
    10030    2    1    2    0    0  0.00000000000E+00  0.00000000000E+00 -0.12454742621E+04  0.26151015357E+04  0.22994673089E+04 0.  0.
        5    1    3    3  502    0  0.72016579097E+03 -0.66842234670E+03 -0.13017115757E+04  0.16309206959E+04  0.46999998093E+01 0.  1.
       -5    1    3    3    0  502 -0.72016579097E+03  0.66842234670E+03  0.56237313548E+02  0.98418083983E+03  0.46999998093E+01 0. -1.
</event>
<event>
 5   0  0.7044981E-06  0.2302853E+04  0.7818609E-02  0.8476797E-01
        2   -1    0    0  501    0  0.00000000000E+00  0.00000000000E+00  0.12029418194E+04  0.12029418194E+04  0.25500000920E-02 0.  1.
       -2   -1    0    0    0  501  0.00000000000E+00  0.00000000000E+00 -0.11021177555E+04  0.11021177556E+04  0.25500000920E-02 0. -1.
    10030    2    1    2    0    0  0.00000000000E+00  0.00000000000E+00  0.10082406389E+03  0.23050595750E+04  0.23028534804E+04 0.  0.
        4    1    3    3  502    0 -0.13081933269E+03  0.10782991158E+04  0.43279795330E+03  0.11692554735E+04  0.12699999809E+01 0.  1.
       -4    1    3    3    0  502  0.13081933269E+03 -0.10782991158E+04 -0.33197388941E+03  0.11358041015E+04  0.12699999809E+01 0. -1.
</event>
<event>
 5   0  0.7044981E-06  0.2299920E+04  0.7818609E-02  0.8477952E-01
        2   -1    0    0  501    0  0.00000000000E+00  0.00000000000E+00  0.10020532120E+04  0.10020532120E+04  0.25500000920E-02 0.  1.
       -2   -1    0    0    0  501  0.00000000000E+00  0.00000000000E+00 -0.13196989103E+04  0.13196989103E+04  0.25500000920E-02 0. -1.
    10030    2    1    2    0    0  0.00000000000E+00  0.00000000000E+00 -0.31764569834E+03  0.23217521223E+04  0.22999204612E+04 0.  0.
        4    1    3    3  502    0 -0.43177806959E+03 -0.22728350605E+03 -0.12100126360E+04  0.13046924103E+04  0.12699999809E+01 0. -1.
       -4    1    3    3    0  502  0.43177806959E+03  0.22728350605E+03  0.89236693762E+03  0.10170597120E+04  0.12699999809E+01 0.  1.
</event>
<event>
 5   0  0.3338758E-06  0.2293608E+04  0.7818609E-02  0.8480446E-01
       -1   -1    0    0    0  501  0.00000000000E+00  0.00000000000E+00  0.99801211013E+03  0.99801211015E+03  0.50400001928E-02 0.  1.
        1   -1    0    0  501    0  0.00000000000E+00  0.00000000000E+00 -0.13177792555E+04  0.13177792555E+04  0.50400001928E-02 0. -1.
    10030    2    1    2    0    0  0.00000000000E+00  0.00000000000E+00 -0.31976714535E+03  0.23157913656E+04  0.22936082102E+04 0.  0.
        5    1    3    3  502    0  0.56072477894E+03  0.52724096786E+02  0.84875041554E+03  0.10186223373E+04  0.46999998093E+01 0.  1.
       -5    1    3    3    0  502 -0.56072477894E+03 -0.52724096786E+02 -0.11685175609E+04  0.12971690284E+04  0.46999998093E+01 0. -1.
</event>
<event>
 5   0  0.7242214E-06  0.2298796E+04  0.7818609E-02  0.8478396E-01
        2   -1    0    0  501    0  0.00000000000E+00  0.00000000000E+00  0.14163063416E+04  0.14163063416E+04  0.25500000920E-02 0. -1.
       -2   -1    0    0    0  501  0.00000000000E+00  0.00000000000E+00 -0.93278942506E+03  0.93278942506E+03  0.25500000920E-02 0.  1.
    10030    2    1    2    0    0  0.00000000000E+00  0.00000000000E+00  0.48351691655E+03  0.23490957667E+04  0.22987958396E+04 0.  0.
        1    1    3    3  502    0  0.33001662497E+03 -0.65511547684E+03  0.11460095750E+04  0.13606708665E+04  0.50400001928E-02 0. -1.
       -1    1    3    3    0  502 -0.33001662497E+03  0.65511547684E+03 -0.66249265849E+03  0.98842490020E+03  0.50400001928E-02 0.  1.
</event>
<event>
 5   0  0.7003852E-06  0.2280714E+04  0.7818609E-02  0.8485564E-01
       -2   -1    0    0    0  501  0.00000000000E+00  0.00000000000E+00  0.69945933432E+03  0.69945933433E+03  0.25500000920E-02 0.  1.
        2   -1    0    0  501    0  0.00000000000E+00  0.00000000000E+00 -0.18591705395E+04  0.18591705395E+04  0.25500000920E-02 0. -1.
    10030    2    1    2    0    0  0.00000000000E+00  0.00000000000E+00 -0.11597112052E+04  0.25586298739E+04  0.22807140882E+04 0.  0.
        2    1    3    3  502    0 -0.55595973750E+03  0.99565201367E+03 -0.58003625118E+03  0.12793968168E+04  0.25500000920E-02 0.  1.
       -2    1    3    3    0  502  0.55595973750E+03 -0.99565201367E+03 -0.57967495404E+03  0.12792330571E+04  0.25500000920E-02 0. -1.
</event>
<event>
 5   0  0.3238713E-06  0.2298229E+04  0.7818609E-02  0.8478620E-01
        1   -1    0    0  501    0  0.00000000000E+00  0.00000000000E+00  0.24913633755E+04  0.24913633755E+04  0.50400001928E-02 0.  1.
       -1   -1    0    0    0  501  0.00000000000E+00  0.00000000000E+00 -0.53001651806E+03  0.53001651809E+03  0.50400001928E-02 0. -1.
    10030    2    1    2    0    0  0.00000000000E+00  0.00000000000E+00  0.19613468574E+04  0.30213798936E+04  0.22982286584E+04 0.  0.
        3    1    3    3  502    0 -0.53026861766E+03  0.95919132729E+03  0.52672496540E+03  0.12160065825E+04  0.10100000352E+00 0. -1.
       -3    1    3    3    0  502  0.53026861766E+03 -0.95919132729E+03  0.14346218920E+04  0.18053733111E+04  0.10100000352E+00 0.  1.
</event>
<event>
 5   0  0.7497344E-06  0.2310981E+04  0.7818609E-02  0.8473604E-01
       -2   -1    0    0    0  501  0.00000000000E+00  0.00000000000E+00  0.58194301489E+03  0.58194301490E+03  0.25500000920E-02 0. -1.
        2   -1    0    0  501    0  0.00000000000E+00  0.00000000000E+00 -0.22943114512E+04  0.22943114512E+04  0.25500000920E-02 0.  1.
    10030    2    1    2    0    0  0.00000000000E+00  0.00000000000E+00 -0.17123684363E+04  0.28762544661E+04  0.23109811968E+04 0.  0.
        5    1    3    3  502    0  0.25372864519E+03 -0.81138092538E+03  0.11780756623E+03  0.85826449544E+03  0.46999998093E+01 0. -1.
       -5    1    3    3    0  502 -0.25372864519E+03  0.81138092538E+03 -0.18301760026E+04  0.20179899707E+04  0.46999998093E+01 0.  1.
</event>
<event>
 5   0  0.7003852E-06  0.2295481E+04  0.7818609E-02  0.8479705E-01
        2   -1    0    0  501    0  0.00000000000E+00  0.00000000000E+00  0.20164310295E+04  0.20164310295E+04  0.25500000920E-02 0.  1.
       -2   -1    0    0    0  501  0.00000000000E+00  0.00000000000E+00 -0.65328687022E+03  0.65328687023E+03  0.25500000920E-02 0. -1.
    10030    2    1    2    0    0  0.00000000000E+00  0.00000000000E+00  0.13631441593E+04  0.26697178997E+04  0.22954807046E+04 0.  0.
        2    1    3    3  502    0  0.72698505719E+03 -0.33201042837E+03 -0.27647966117E+03  0.84568268338E+03  0.25500000920E-02 0. -1.
       -2    1    3    3    0  502 -0.72698505719E+03  0.33201042837E+03  0.16396238204E+04  0.18240352164E+04  0.25500000920E-02 0.  1.
</event>
<event>
 5   0  0.3184492E-06  0.2302204E+04  0.7818609E-02  0.8477052E-01
        1   -1    0    0  501    0  0.00000000000E+00  0.00000000000E+00  0.50133244305E+03  0.50133244307E+03  0.50400001928E-02 0.  1.
       -1   -1    0    0    0  501  0.00000000000E+00  0.00000000000E+00 -0.26430291266E+04  0.26430291266E+04  0.50400001928E-02 0. -1.
    10030    2    1    2    0    0  0.00000000000E+00  0.00000000000E+00 -0.21416966836E+04  0.31443615697E+04  0.23022043777E+04 0.  0.
        1    1    3    3  502    0  0.40164099549E+03  0.32509800241E+03  0.33402773089E+03  0.61528751447E+03  0.50400001928E-02 0.  1.
       -1    1    3    3    0  502 -0.40164099549E+03 -0.32509800241E+03 -0.24757244145E+04  0.25290740552E+04  0.50400001928E-02 0. -1.
</event>
<event>
 5   0  0.7497344E-06  0.2301512E+04  0.7818609E-02  0.8477325E-01
       -2   -1    0    0    0  501  0.00000000000E+00  0.00000000000E+00  0.85141675048E+03  0.85141675049E+03  0.25500000920E-02 0.  1.
        2   -1    0    0  501    0  0.00000000000E+00  0.00000000000E+00 -0.15553358487E+04  0.15553358487E+04  0.25500000920E-02 0. -1.
    10030    2    1    2    0    0  0.00000000000E+00  0.00000000000E+00 -0.70391909822E+03  0.24067525992E+04  0.23015116721E+04 0.  0.
        5    1    3    3  502    0  0.28462508978E+03  0.68674330895E+03 -0.12705275385E+04  0.14720360492E+04  0.46999998093E+01 0. -1.
       -5    1    3    3    0  502 -0.28462508978E+03 -0.68674330895E+03  0.56660844031E+03  0.93471654995E+03  0.46999998093E+01 0.  1.
</event>
<event>
 5   0  0.7497344E-06  0.2305954E+04  0.7818609E-02  0.8475577E-01
        2   -1    0    0  501    0  0.00000000000E+00  0.00000000000E+00  0.89043923165E+03  0.89043923166E+03  0.25500000920E-02 0. -1.
       -2   -1    0    0    0  501  0.00000000000E+00  0.00000000000E+00 -0.14929219396E+04  0.14929219396E+04  0.25500000920E-02 0.  1.
    10030    2    1    2    0    0  0.00000000000E+00  0.00000000000E+00 -0.60248270790E+03  0.23833611712E+04  0.23059542621E+04 0.  0.
        5    1    3    3  502    0 -0.10683307282E+04  0.72084526217E+02  0.14067097406E+03  0.10799708963E+04  0.46999998093E+01 0. -1.
       -5    1    3    3    0  502  0.10683307282E+04 -0.72084526217E+02 -0.74315368196E+03  0.13033902750E+04  0.46999998093E+01 0.  1.
</event>
<event>
 5   0  0.7348107E-06  0.2299580E+04  0.7818609E-02  0.8478087E-01
        2   -1    0    0  501    0  0.00000000000E+00  0.00000000000E+00  0.43292437600E+03  0.43292437601E+03  0.25500000920E-02 0. -1.
       -2   -1    0    0    0  501  0.00000000000E+00  0.00000000000E+00 -0.30536901051E+04  0.30536901051E+04  0.25500000920E-02 0.  1.
    10030    2    1    2    0    0  0.00000000000E+00  0.00000000000E+00 -0.26207657291E+04  0.34866144812E+04  0.22995798601E+04 0.  0.
        3    1    3    3  502    0 -0.58984446799E+03  0.77795869754E+03 -0.22312529508E+04  0.24354929629E+04  0.10100000352E+00 0.  1.
       -3    1    3    3    0  502  0.58984446799E+03 -0.77795869754E+03 -0.38951277832E+03  0.10511215183E+04  0.10100000352E+00 0. -1.
</event>
<event>
 5   0  0.3195296E-06  0.2297411E+04  0.7818609E-02  0.8478943E-01
        1   -1    0    0  501    0  0.00000000000E+00  0.00000000000E+00  0.21827176788E+04  0.21827176788E+04  0.50400001928E-02 0.  1.
       -1   -1    0    0    0  501  0.00000000000E+00  0.00000000000E+00 -0.60453287061E+03  0.60453287063E+03  0.50400001928E-02 0. -1.
    10030    2    1    2    0    0  0.00000000000E+00  0.00000000000E+00  0.15781848082E+04  0.27872505495E+04  0.22974112250E+04 0.  0.
        2    1    3    3  502    0 -0.81163363209E+03  0.20739712017E+03  0.17426519521E+04  0.19335455889E+04  0.25500000920E-02 0.  1.
       -2    1    3    3    0  502  0.81163363209E+03 -0.20739712017E+03 -0.16446714392E+03  0.85370496053E+03  0.25500000920E-02 0. -1.
</event>
<event>
 5   0  0.3338758E-06  0.2301627E+04  0.7818609E-02  0.8477280E-01
        1   -1    0    0  501    0  0.00000000000E+00  0.00000000000E+00  0.11653622590E+04  0.11653622590E+04  0.50400001928E-02 0.  1.
       -1   -1    0    0    0  501  0.00000000000E+00  0.00000000000E+00 -0.11364468027E+04  0.11364468027E+04  0.50400001928E-02 0. -1.
    10030    2    1    2    0    0  0.00000000000E+00  0.00000000000E+00  0.28915456269E+02  0.23018090617E+04  0.23016274358E+04 0.  0.
        5    1    3    3  502    0  0.77422546062E+03 -0.40498249611E+03  0.76345890733E+03  0.11603135263E+04  0.46999998093E+01 0.  1.
       -5    1    3    3    0  502 -0.77422546062E+03  0.40498249611E+03 -0.73454345106E+03  0.11414955355E+04  0.46999998093E+01 0. -1.
</event>
<event>
 5   0  0.7003852E-06  0.2301669E+04  0.7818609E-02  0.8477263E-01
        2   -1    0    0  501    0  0.00000000000E+00  0.00000000000E+00  0.28486745106E+04  0.28486745106E+04  0.25500000920E-02 0. -1.
       -2   -1    0    0    0  501  0.00000000000E+00  0.00000000000E+00 -0.46492499913E+03  0.46492499914E+03  0.25500000920E-02 0.  1.
    10030    2    1    2    0    0  0.00000000000E+00  0.00000000000E+00  0.23837495115E+04  0.33135995097E+04  0.23016689548E+04 0.  0.
        2    1    3    3  502    0  0.10792135979E+04  0.31735255572E+03  0.84216891263E+03  0.14052270678E+04  0.25500000920E-02 0.  1.
       -2    1    3    3    0  502 -0.10792135979E+04 -0.31735255572E+03  0.15415805988E+04  0.19083724420E+04  0.25500000920E-02 0. -1.
</event>
<event>
 5   0  0.7242214E-06  0.2291679E+04  0.7818609E-02  0.8481209E-01
        2   -1    0    0  501    0  0.00000000000E+00  0.00000000000E+00  0.11043296912E+04  0.11043296912E+04  0.25500000920E-02 0. -1.
       -2   -1    0    0    0  501  0.00000000000E+00  0.00000000000E+00 -0.11889091931E+04  0.11889091931E+04  0.25500000920E-02 0.  1.
    10030    2    1    2    0    0  0.00000000000E+00  0.00000000000E+00 -0.84579501907E+02  0.22932388843E+04  0.22916786180E+04 0.  0.
        1    1    3    3  502    0 -0.41633450733E+03  0.93760974272E+03 -0.55303049776E+03  0.11654566415E+04  0.50400001928E-02 0.  1.
       -1    1    3    3    0  502  0.41633450733E+03 -0.93760974272E+03  0.46845099585E+03  0.11277822428E+04  0.50400001928E-02 0. -1.
</event>
<event>
 5   0  0.3195296E-06  0.2295565E+04  0.7818609E-02  0.8479672E-01
        1   -1    0    0  501    0  0.00000000000E+00  0.00000000000E+00  0.96695425332E+03  0.96695425333E+03  0.50400001928E-02 0. -1.
       -1   -1    0    0    0  501  0.00000000000E+00  0.00000000000E+00 -0.13624266634E+04  0.13624266634E+04  0.50400001928E-02 0.  1.
    10030    2    1    2    0    0  0.00000000000E+00  0.00000000000E+00 -0.39547241005E+03  0.23293809167E+04  0.22955646425E+04 0.  0.
        2    1    3    3  502    0  0.54749386256E+03 -0.89268475848E+03 -0.67451802461E+03  0.12456364530E+04  0.25500000920E-02 0.  1.
       -2    1    3    3    0  502 -0.54749386256E+03  0.89268475848E+03  0.27904561456E+03  0.10837444637E+04  0.25500000920E-02 0. -1.
</event>
<event>
 5   0  0.3238713E-06  0.2296720E+04  0.7818609E-02  0.8479215E-01
       -1   -1    0    0    0  501  0.00000000000E+00  0.00000000000E+00  0.58078769137E+03  0.58078769140E+03  0.50400001928E-02 0. -1.
        1   -1    0    0  501    0  0.00000000000E+00  0.00000000000E+00 -0.22705904608E+04  0.22705904608E+04  0.50400001928E-02 0.  1.
    10030    2    1    2    0    0  0.00000000000E+00  0.00000000000E+00 -0.16898027694E+04  0.28513781522E+04  0.22967202632E+04 0.  0.
        3    1    3    3  502    0 -0.32082237445E+03 -0.72969290953E+03 -0.18711888577E+04  0.20338944145E+04  0.10100000352E+00 0.  1.
       -3    1    3    3    0  502  0.32082237445E+03  0.72969290953E+03  0.18138608824E+03  0.81748373768E+03  0.10100000352E+00 0. -1.
</event>
<event>
 5   0  0.7003852E-06  0.2304137E+04  0.7818609E-02  0.8476292E-01
       -2   -1    0    0    0  501  0.00000000000E+00  0.00000000000E+00  0.10296992081E+04  0.10296992081E+04  0.25500000920E-02 0.  1.
        2   -1    0    0  501    0  0.00000000000E+00  0.00000000000E+00 -0.12889799006E+04  0.12889799006E+04  0.25500000920E-02 0. -1.
    10030    2    1    2    0    0  0.00000000000E+00  0.00000000000E+00 -0.25928069242E+03  0.23186791087E+04  0.23041367867E+04 0.  0.
        2    1    3    3  502    0 -0.87650821849E+02  0.17884259178E+03 -0.12715241277E+04  0.12870279509E+04  0.25500000920E-02 0. -1.
       -2    1    3    3    0  502  0.87650821849E+02 -0.17884259178E+03  0.10122434352E+04  0.10316511578E+04  0.25500000920E-02 0.  1.
</event>
<event>
 5   0  0.3184492E-06  0.2298316E+04  0.7818609E-02  0.8478585E-01
       -1   -1    0    0    0  501  0.00000000000E+00  0.00000000000E+00  0.11782999988E+04  0.11782999988E+04  0.50400001928E-02 0.  1.
        1   -1    0    0  501    0  0.00000000000E+00  0.00000000000E+00 -0.11207368049E+04  0.11207368049E+04  0.50400001928E-02 0. -1.
    10030    2    1    2    0    0  0.00000000000E+00  0.00000000000E+00  0.57563193865E+02  0.22990368037E+04  0.22983160582E+04 0.  0.
        1    1    3    3  502    0  0.84089756000E+03 -0.28139442365E+03 -0.70238718872E+03  0.11312114263E+04  0.50400001928E-02 0. -1.
       -1    1    3    3    0  502 -0.84089756000E+03  0.28139442365E+03  0.75995038259E+03  0.11678253774E+04  0.50400001928E-02 0.  1.
</event>
<event>
 5   0  0.3184492E-06  0.2299044E+04  0.7818609E-02  0.8478298E-01
       -1   -1    0    0    0  501  0.00000000000E+00  0.00000000000E+00  0.14487632852E+04  0.14487632852E+04  0.50400001928E-02 0. -1.
        1   -1    0    0  501    0  0.00000000000E+00  0.00000000000E+00 -0.91208870330E+03  0.91208870331E+03  0.50400001928E-02 0.  1.
    10030    2    1    2    0    0  0.00000000000E+00  0.00000000000E+00  0.53667458193E+03  0.23608519885E+04  0.22990438241E+04 0.  0.
        1    1    3    3  502    0  0.61287995976E+03 -0.10158362340E+03  0.12615311294E+04  0.14062012189E+04  0.50400001928E-02 0. -1.
       -1    1    3    3    0  502 -0.61287995976E+03  0.10158362340E+03 -0.72485654744E+03  0.95465076966E+03  0.50400001928E-02 0.  1.
</event>
<event>
 5   0  0.3195296E-06  0.2303360E+04  0.7818609E-02  0.8476597E-01
       -1   -1    0    0    0  501  0.00000000000E+00  0.00000000000E+00  0.11343862924E+04  0.11343862924E+04  0.50400001928E-02 0. -1.
        1   -1    0    0  501    0  0.00000000000E+00  0.00000000000E+00 -0.11692374257E+04  0.11692374257E+04  0.50400001928E-02 0.  1.
    10030    2    1    2    0    0  0.00000000000E+00  0.00000000000E+00 -0.34851133264E+02  0.23036237181E+04  0.23033600746E+04 0.  0.
        2    1    3    3  502    0 -0.63227246206E+03 -0.73370783935E+03  0.60575990893E+03  0.11423837915E+04  0.25500000920E-02 0. -1.
       -2    1    3    3    0  502  0.63227246206E+03  0.73370783935E+03 -0.64061104219E+03  0.11612399266E+04  0.25500000920E-02 0.  1.
</event>
<event>
 5   0  0.7044981E-06  0.2298744E+04  0.7818609E-02  0.8478417E-01
        2   -1    0    0  501    0  0.00000000000E+00  0.00000000000E+00  0.11695358669E+04  0.11695358669E+04  0.25500000920E-02 0.  1.
       -2   -1    0    0    0  501  0.00000000000E+00  0.00000000000E+00 -0.11295554968E+04  0.11295554968E+04  0.25500000920E-02 0. -1.
    10030    2    1    2    0    0  0.00000000000E+00  0.00000000000E+00  0.39980370091E+02  0.22990913637E+04  0.22987437153E+04 0.  0.
        4    1    3    3  502    0 -0.65323735890E+03 -0.76063965823E+03 -0.54202212160E+03  0.11397724904E+04  0.12699999809E+01 0. -1.
       -4    1    3    3    0  502  0.65323735890E+03  0.76063965823E+03  0.58200249169E+03  0.11593188733E+04  0.12699999809E+01 0.  1.
</event>
<event>
 5   0  0.7497344E-06  0.2300623E+04  0.7818609E-02  0.8477676E-01
       -2   -1    0    0    0  501  0.00000000000E+00  0.00000000000E+00  0.98385191009E+03  0.98385191009E+03  0.25500000920E-02 0.  1.
        2   -1    0    0  501    0  0.00000000000E+00  0.00000000000E+00 -0.13449343651E+04  0.13449343651E+04  0.25500000920E-02 0. -1.
    10030    2    1    2    0    0  0.00000000000E+00  0.00000000000E+00 -0.36108245500E+03  0.23287862752E+04  0.23006227366E+04 0.  0.
        5    1    3    3  502    0 -0.89999365875E+03  0.64311589487E+03 -0.50001137038E+03  0.12139275516E+04  0.46999998093E+01 0. -1.
       -5    1    3    3    0  502  0.89999365875E+03 -0.64311589487E+03  0.13892891538E+03  0.11148587236E+04  0.46999998093E+01 0.  1.
</event>
<event>
 5   0  0.7044981E-06  0.2311107E+04  0.7818609E-02  0.8473555E-01
       -2   -1    0    0    0  501  0.00000000000E+00  0.00000000000E+00  0.16372194157E+04  0.16372194157E+04  0.25500000920E-02 0.  1.
        2   -1    0    0  501    0  0.00000000000E+00  0.00000000000E+00 -0.81559258595E+03  0.81559258595E+03  0.25500000920E-02 0. -1.
    10030    2    1    2    0    0  0.00000000000E+00  0.00000000000E+00  0.82162682974E+03  0.24528120016E+04  0.23111071087E+04 0.  0.
        4    1    3    3  502    0 -0.30870585806E+03 -0.57675832768E+03  0.14217695491E+04  0.15650494366E+04  0.12699999809E+01 0.  1.
       -4    1    3    3    0  502  0.30870585806E+03  0.57675832768E+03 -0.60014271938E+03  0.88776256503E+03  0.12699999809E+01 0. -1.
</event>
<event>
 5   0  0.7242214E-06  0.2301467E+04  0.7818609E-02  0.8477343E-01
       -2   -1    0    0    0  501  0.00000000000E+00  0.00000000000E+00  0.12988012633E+04  0.12988012634E+04  0.25500000920E-02 0. -1.
        2   -1    0    0  501    0  0.00000000000E+00  0.00000000000E+00 -0.10195461951E+04  0.10195461951E+04  0.25500000920E-02 0.  1.
    10030    2    1    2    0    0  0.00000000000E+00  0.00000000000E+00  0.27925506825E+03  0.23183474585E+04  0.23014672592E+04 0.  0.
        1    1    3    3  502    0  0.55298141126E+03  0.72553432105E+03  0.84619885956E+03  0.12442833287E+04  0.50400001928E-02 0. -1.
       -1    1    3    3    0  502 -0.55298141126E+03 -0.72553432105E+03 -0.56694379131E+03  0.10740641297E+04  0.50400001928E-02 0.  1.
</event>
<event>
 5   0  0.7497344E-06  0.2298424E+04  0.7818609E-02  0.8478543E-01
        2   -1    0    0  501    0  0.00000000000E+00  0.00000000000E+00  0.75680851668E+03  0.75680851669E+03  0.25500000920E-02 0.  1.
       -2   -1    0    0    0  501  0.00000000000E+00  0.00000000000E+00 -0.17450761240E+04  0.17450761240E+04  0.25500000920E-02 0. -1.
    10030    2    1    2    0    0  0.00000000000E+00  0.00000000000E+00 -0.98826760736E+03  0.25018846407E+04  0.22984242193E+04 0.  0.
        5    1    3    3  502    0  0.49828336553E+03 -0.62097391834E+03 -0.13962099776E+04  0.16072707648E+04  0.46999998093E+01 0. -1.
       -5    1    3    3    0  502 -0.49828336553E+03  0.62097391834E+03  0.40794237027E+03  0.89461387597E+03  0.46999998093E+01 0.  1.
</event>
<event>
 5   0  0.7348107E-06  0.2303058E+04  0.7818609E-02  0.8476716E-01
        2   -1    0    0  501    0  0.00000000000E+00  0.00000000000E+00  0.96516094675E+03  0.96516094676E+03  0.25500000920E-02 0. -1.
       -2   -1    0    0    0  501  0.00000000000E+00  0.00000000000E+00 -0.13738837194E+04  0.13738837194E+04  0.25500000920E-02 0.  1.
    10030    2    1    2    0    0  0.00000000000E+00  0.00000000000E+00 -0.40872277261E+03  0.23390446661E+04  0.23030578901E+04 0.  0.
        3    1    3    3  502    0 -0.56811464678E+03 -0.32344905479E+03  0.75842031665E+03  0.10012866372E+04  0.10100000352E+00 0. -1.
       -3    1    3    3    0  502  0.56811464678E+03  0.32344905479E+03 -0.11671430893E+04  0.13377580289E+04  0.10100000352E+00 0.  1.
</event>
<event>
 5   0  0.7044981E-06  0.2299827E+04  0.7818609E-02  0.8477989E-01
       -2   -1    0    0    0  501  0.00000000000E+00  0.00000000000E+00  0.11096730512E+04  0.11096730512E+04  0.25500000920E-02 0.  1.
        2   -1    0    0  501    0  0.00000000000E+00  0.00000000000E+00 -0.11916128662E+04  0.11916128662E+04  0.25500000920E-02 0. -1.
    10030    2    1    2    0    0  0.00000000000E+00  0.00000000000E+00 -0.81939815047E+02  0.23012859174E+04  0.22998266762E+04 0.  0.
        4    1    3    3  502    0  0.69707765821E+02 -0.11470230110E+04 -0.83164326810E+02  0.11521453374E+04  0.12699999809E+01 0.  1.
       -4    1    3    3    0  502 -0.69707765821E+02  0.11470230110E+04  0.12245117633E+01  0.11491405800E+04  0.12699999809E+01 0. -1.
</event>
<event>
 5   0  0.3238713E-06  0.2301115E+04  0.7818609E-02  0.8477482E-01
        1   -1    0    0  501    0  0.00000000000E+00  0.00000000000E+00  0.15909687364E+04  0.15909687364E+04  0.50400001928E-02 0.  1.
       -1   -1    0    0    0  501  0.00000000000E+00  0.00000000000E+00 -0.83206086045E+03  0.83206086046E+03  0.50400001928E-02 0. -1.
    10030    2    1    2    0    0  0.00000000000E+00  0.00000000000E+00  0.75890787591E+03  0.24230295968E+04  0.23011152216E+04 0.  0.
        3    1    3    3  502    0 -0.80646354209E+03 -0.74697414113E+03  0.21705449260E+02  0.10994657562E+04  0.10100000352E+00 0. -1.
       -3    1    3    3    0  502  0.80646354209E+03  0.74697414113E+03  0.73720242665E+03  0.13235638407E+04  0.10100000352E+00 0.  1.
</event>
<event>
 5   0  0.3195296E-06  0.2301400E+04  0.7818609E-02  0.8477369E-01
        1   -1    0    0  501    0  0.00000000000E+00  0.00000000000E+00  0.13304606326E+04  0.13304606326E+04  0.50400001928E-02 0. -1.
       -1   -1    0    0    0  501  0.00000000000E+00  0.00000000000E+00 -0.99522746594E+03  0.99522746596E+03  0.50400001928E-02 0.  1.
    10030    2    1    2    0    0  0.00000000000E+00  0.00000000000E+00  0.33523316661E+03  0.23256880985E+04  0.23014004118E+04 0.  0.
        2    1    3    3  502    0 -0.19225190236E+03  0.94028251256E+03 -0.47392088572E+03  0.10703704982E+04  0.25500000920E-02 0.  1.
       -2    1    3    3    0  502  0.19225190236E+03 -0.94028251256E+03  0.80915405233E+03  0.12553176004E+04  0.25500000920E-02 0. -1.
</event>
<event>
 5   0  0.3338758E-06  0.2306346E+04  0.7818609E-02  0.8475423E-01
        1   -1    0    0  501    0  0.00000000000E+00  0.00000000000E+00  0.11672919464E+04  0.11672919464E+04  0.50400001928E-02 0.  1.
       -1   -1    0    0    0  501  0.00000000000E+00  0.00000000000E+00 -0.11392250556E+04  0.11392250557E+04  0.50400001928E-02 0. -1.
    10030    2    1    2    0    0  0.00000000000E+00  0.00000000000E+00  0.28066890742E+02  0.23065170020E+04  0.23063462295E+04 0.  0.
        5    1    3    3  502    0  0.10826004054E+04  0.37449453552E+03 -0.11832569386E+03  0.11516478866E+04  0.46999998093E+01 0.  1.
       -5    1    3    3    0  502 -0.10826004054E+04 -0.37449453552E+03  0.14639258460E+03  0.11548691154E+04  0.46999998093E+01 0. -1.
</event>
<event>
 5   0  0.7044981E-06  0.2298663E+04  0.7818609E-02  0.8478449E-01
        2   -1    0    0  501    0  0.00000000000E+00  0.00000000000E+00  0.15332984158E+04  0.15332984158E+04  0.25500000920E-02 0.  1.
       -2   -1    0    0    0  501  0.00000000000E+00  0.00000000000E+00 -0.86151687715E+03  0.86151687715E+03  0.25500000920E-02 0. -1.
    10030    2    1    2    0    0  0.00000000000E+00  0.00000000000E+00  0.67178153869E+03  0.23948152930E+04  0.22986626224E+04 0.  0.
        4    1    3    3  502    0 -0.39246495850E+03  0.75957867178E+03  0.11361166943E+04  0.14218829974E+04  0.12699999809E+01 0.  1.
       -4    1    3    3    0  502  0.39246495850E+03 -0.75957867178E+03 -0.46433515559E+03  0.97293229563E+03  0.12699999809E+01 0. -1.
</event>
<event>
 5   0  0.3184492E-06  0.2300153E+04  0.7818609E-02  0.8477861E-01
        1   -1    0    0  501    0  0.00000000000E+00  0.00000000000E+00  0.89899390231E+03  0.89899390232E+03  0.50400001928E-02 0. -1.
       -1   -1    0    0    0  501  0.00000000000E+00  0.00000000000E+00 -0.14712841548E+04  0.14712841548E+04  0.50400001928E-02 0.  1.
    10030    2    1    2    0    0  0.00000000000E+00  0.00000000000E+00 -0.57229025247E+03  0.23702780571E+04  0.23001525895E+04 0.  0.
        1    1    3    3  502    0 -0.35450330129E+03 -0.61068776116E+03 -0.12216002295E+04  0.14109993809E+04  0.50400001928E-02 0.  1.
       -1    1    3    3    0  502  0.35450330129E+03  0.61068776116E+03  0.64930997703E+03  0.95927867617E+03  0.50400001928E-02 0. -1.
</event>
<event>
 5   0  0.3338758E-06  0.2299798E+04  0.7818609E-02  0.8478001E-01
       -1   -1    0    0    0  501  0.00000000000E+00  0.00000000000E+00  0.10226126541E+04  0.10226126541E+04  0.50400001928E-02 0. -1.
        1   -1    0    0  501    0  0.00000000000E+00  0.00000000000E+00 -0.12930288241E+04  0.12930288241E+04  0.50400001928E-02 0.  1.
    10030    2    1    2    0    0  0.00000000000E+00  0.00000000000E+00 -0.27041617003E+03  0.23156414781E+04  0.22997979368E+04 0.  0.
        5    1    3    3  502    0  0.87808130669E+03  0.27673157808E+03 -0.82889431847E+03  0.12388280868E+04  0.46999998093E+01 0.  1.
       -5    1    3    3    0  502 -0.87808130669E+03 -0.27673157808E+03  0.55847814845E+03  0.10768133913E+04  0.46999998093E+01 0. -1.
</event>
<event>
 5   0  0.3184492E-06  0.2300628E+04  0.7818609E-02  0.8477673E-01
       -1   -1    0    0    0  501  0.00000000000E+00  0.00000000000E+00  0.13152906927E+04  0.13152906927E+04  0.50400001928E-02 0.  1.
        1   -1    0    0  501    0  0.00000000000E+00  0.00000000000E+00 -0.10060304276E+04  0.10060304276E+04  0.50400001928E-02 0. -1.
    10030    2    1    2    0    0  0.00000000000E+00  0.00000000000E+00  0.30926026506E+03  0.23213211203E+04  0.23006281386E+04 0.  0.
        1    1    3    3  502    0 -0.32087415627E+03  0.28041507111E+03 -0.92345091170E+03  0.10170321640E+04  0.50400001928E-02 0. -1.
       -1    1    3    3    0  502  0.32087415627E+03 -0.28041507111E+03  0.12327111768E+04  0.13042889563E+04  0.50400001928E-02 0.  1.
</event>
<event>
 5   0  0.3195296E-06  0.2302919E+04  0.7818609E-02  0.8476771E-01
       -1   -1    0    0    0  501  0.00000000000E+00  0.00000000000E+00  0.96796551788E+03  0.96796551789E+03  0.50400001928E-02 0. -1.
        1   -1    0    0  501    0  0.00000000000E+00  0.00000000000E+00 -0.13697378039E+04  0.13697378039E+04  0.50400001928E-02 0.  1.
    10030    2    1    2    0    0  0.00000000000E+00  0.00000000000E+00 -0.40177228601E+03  0.23377033218E+04  0.23029189849E+04 0.  0.
        2    1    3    3  502    0  0.20455155418E+03 -0.10060818988E+04  0.32834928799E+03  0.10778939560E+04  0.25500000920E-02 0. -1.
       -2    1    3    3    0  502 -0.20455155418E+03  0.10060818988E+04 -0.73012157400E+03  0.12598093658E+04  0.25500000920E-02 0.  1.
</event>
<event>
 5   0  0.7497344E-06  0.2299099E+04  0.7818609E-02  0.8478276E-01
       -2   -1    0    0    0  501  0.00000000000E+00  0.00000000000E+00  0.64262958259E+03  0.64262958260E+03  0.25500000920E-02 0. -1.
        2   -1    0    0  501    0  0.00000000000E+00  0.00000000000E+00 -0.20563394322E+04  0.20563394322E+04  0.25500000920E-02 0.  1.
    10030    2    1    2    0    0  0.00000000000E+00  0.00000000000E+00 -0.14137098496E+04  0.26989690148E+04  0.22990994333E+04 0.  0.
        5    1    3    3  502    0 -0.55938713697E+03  0.49351552463E+03 -0.17335999494E+04  0.18872897013E+04  0.46999998093E+01 0.  1.
       -5    1    3    3    0  502  0.55938713697E+03 -0.49351552463E+03  0.31989009978E+03  0.81167931352E+03  0.46999998093E+01 0. -1.
</event>
<event>
 5   0  0.7044981E-06  0.2284361E+04  0.7818609E-02  0.8484113E-01
        2   -1    0    0  501    0  0.00000000000E+00  0.00000000000E+00  0.14546799727E+04  0.14546799727E+04  0.25500000920E-02 0. -1.
       -2   -1    0    0    0  501  0.00000000000E+00  0.00000000000E+00 -0.89681348882E+03  0.89681348883E+03  0.25500000920E-02 0.  1.
    10030    2    1    2    0    0  0.00000000000E+00  0.00000000000E+00  0.55786648385E+03  0.23514934615E+04  0.22843612862E+04 0.  0.
        4    1    3    3  502    0  0.21753212566E+03 -0.44889739004E+03 -0.77875746636E+03  0.92482100797E+03  0.12699999809E+01 0.  1.
       -4    1    3    3    0  502 -0.21753212566E+03  0.44889739004E+03  0.13366239502E+04  0.14266724535E+04  0.12699999809E+01 0. -1.
</event>
<event>
 5   0  0.3238713E-06  0.2303124E+04  0.7818609E-02  0.8476690E-01
       -1   -1    0    0    0  501  0.00000000000E+00  0.00000000000E+00  0.19780475386E+04  0.19780475386E+04  0.50400001928E-02 0.  1.
        1   -1    0    0  501    0  0.00000000000E+00  0.00000000000E+00 -0.67040589838E+03  0.67040589840E+03  0.50400001928E-02 0. -1.
    10030    2    1    2    0    0  0.00000000000E+00  0.00000000000E+00  0.13076416402E+04  0.26484534370E+04  0.23031237372E+04 0.  0.
        3    1    3    3  502    0  0.71879839777E+03  0.38079586325E+03 -0.28351626140E+03  0.86142794637E+03  0.10100000352E+00 0. -1.
       -3    1    3    3    0  502 -0.71879839777E+03 -0.38079586325E+03  0.15911579016E+04  0.17870254906E+04  0.10100000352E+00 0.  1.
</event>
<event>
 5   0  0.3195296E-06  0.2299767E+04  0.7818609E-02  0.8478013E-01
       -1   -1    0    0    0  501  0.00000000000E+00  0.00000000000E+00  0.12484984072E+04  0.12484984072E+04  0.50400001928E-02 0. -1.
        1   -1    0    0  501    0  0.00000000000E+00  0.00000000000E+00 -0.10590581203E+04  0.10590581203E+04  0.50400001928E-02 0.  1.
    10030    2    1    2    0    0  0.00000000000E+00  0.00000000000E+00  0.18944028684E+03  0.23075565275E+04  0.22997672720E+04 0.  0.
        2    1    3    3  502    0  0.74182405414E+03  0.23166493928E+03  0.94509330157E+03  0.12235901765E+04  0.25500000920E-02 0. -1.
       -2    1    3    3    0  502 -0.74182405414E+03 -0.23166493928E+03 -0.75565301473E+03  0.10839663510E+04  0.25500000920E-02 0.  1.
</event>
<event>
 5   0  0.7044981E-06  0.2293043E+04  0.7818609E-02  0.8480669E-01
        2   -1    0    0  501    0  0.00000000000E+00  0.00000000000E+00  0.17621890977E+04  0.17621890977E+04  0.25500000920E-02 0. -1.
       -2   -1    0    0    0  501  0.00000000000E+00  0.00000000000E+00 -0.74595402211E+03  0.74595402212E+03  0.25500000920E-02 0.  1.
    10030    2    1    2    0    0  0.00000000000E+00  0.00000000000E+00  0.10162350756E+04  0.25081431198E+04  0.22930434319E+04 0.  0.
        4    1    3    3  502    0  0.11531846365E+03 -0.56905911200E+03  0.15894832742E+04  0.16922131405E+04  0.12699999809E+01 0. -1.
       -4    1    3    3    0  502 -0.11531846365E+03  0.56905911200E+03 -0.57324819863E+03  0.81592997931E+03  0.12699999809E+01 0.  1.
</event>
<event>
 5   0  0.3184492E-06  0.2296562E+04  0.7818609E-02  0.8479278E-01
        1   -1    0    0  501    0  0.00000000000E+00  0.00000000000E+00  0.16684368125E+04  0.16684368125E+04  0.50400001928E-02 0.  1.
       -1   -1    0    0    0  501  0.00000000000E+00  0.00000000000E+00 -0.79029038709E+03  0.79029038710E+03  0.50400001928E-02 0. -1.
    10030    2    1    2    0    0  0.00000000000E+00  0.00000000000E+00  0.87814642539E+03  0.24587271996E+04  0.22965622782E+04 0.  0.
        1    1    3    3  502    0  0.44315004611E+03  0.14000063650E+03 -0.68510379513E+03  0.82785829205E+03  0.50400001928E-02 0. -1.
       -1    1    3    3    0  502 -0.44315004611E+03 -0.14000063650E+03  0.15632502205E+04  0.16308689075E+04  0.50400001928E-02 0.  1.
</event>
<event>
 5   0  0.7044981E-06  0.2300133E+04  0.7818609E-02  0.8477869E-01
        2   -1    0    0  501    0  0.00000000000E+00  0.00000000000E+00  0.15296783973E+04  0.15296783973E+04  0.25500000920E-02 0.  1.
       -2   -1    0    0    0  501  0.00000000000E+00  0.00000000000E+00 -0.86466046620E+03  0.86466046620E+03  0.25500000920E-02 0. -1.
    10030    2    1    2    0    0  0.00000000000E+00  0.00000000000E+00  0.66501793107E+03  0.23943388635E+04  0.23001325493E+04 0.  0.
        4    1    3    3  502    0 -0.15887395666E+03 -0.11386631607E+04  0.36296643781E+03  0.12056288714E+04  0.12699999809E+01 0. -1.
       -4    1    3    3    0  502  0.15887395666E+03  0.11386631607E+04  0.30205149325E+03  0.11887099920E+04  0.12699999809E+01 0.  1.
</event>
<event>
 5   0  0.3184492E-06  0.2307513E+04  0.7818609E-02  0.8474965E-01
       -1   -1    0    0    0  501  0.00000000000E+00  0.00000000000E+00  0.11230782261E+04  0.11230782261E+04  0.50400001928E-02 0. -1.
        1   -1    0    0  501    0  0.00000000000E+00  0.00000000000E+00 -0.11852724753E+04  0.11852724753E+04  0.50400001928E-02 0.  1.
    10030    2    1    2    0    0  0.00000000000E+00  0.00000000000E+00 -0.62194249170E+02  0.23083507014E+04  0.23075126947E+04 0.  0.
        1    1    3    3  502    0 -0.11403200330E+04  0.17059416256E+03 -0.72603916610E+02  0.11552936746E+04  0.50400001928E-02 0. -1.
       -1    1    3    3    0  502  0.11403200330E+04 -0.17059416256E+03  0.10409667440E+02  0.11530570268E+04  0.50400001928E-02 0.  1.
</event>
<event>
 5   0  0.3184492E-06  0.2304930E+04  0.7818609E-02  0.8475980E-01
       -1   -1    0    0    0  501  0.00000000000E+00  0.00000000000E+00  0.15774856614E+04  0.15774856614E+04  0.50400001928E-02 0. -1.
        1   -1    0    0  501    0  0.00000000000E+00  0.00000000000E+00 -0.84195749003E+03  0.84195749005E+03  0.50400001928E-02 0.  1.
    10030    2    1    2    0    0  0.00000000000E+00  0.00000000000E+00  0.73552817136E+03  0.24194431515E+04  0.23049302532E+04 0.  0.
        1    1    3    3  502    0 -0.16941646755E+03 -0.94921588662E+03 -0.29483633073E+03  0.10082862693E+04  0.50400001928E-02 0.  1.
       -1    1    3    3    0  502  0.16941646755E+03  0.94921588662E+03  0.10303645021E+04  0.14111568822E+04  0.50400001928E-02 0. -1.
</event>
<event>
 5   0  0.7348107E-06  0.2298798E+04  0.7818609E-02  0.8478395E-01
        2   -1    0    0  501    0  0.00000000000E+00  0.00000000000E+00  0.91740753549E+03  0.91740753549E+03  0.25500000920E-02 0. -1.
       -2   -1    0    0    0  501  0.00000000000E+00  0.00000000000E+00 -0.14400561078E+04  0.14400561078E+04  0.25500000920E-02 0.  1.
    10030    2    1    2    0    0  0.00000000000E+00  0.00000000000E+00 -0.52264857227E+03  0.23574636432E+04  0.22987982293E+04 0.  0.
        3    1    3    3  502    0 -0.65434817884E+01  0.43622829687E+03  0.82919482337E+03  0.93696425196E+03  0.10100000352E+00 0. -1.
       -3    1    3    3    0  502  0.65434817884E+01 -0.43622829687E+03 -0.13518433956E+04  0.14204993913E+04  0.10100000352E+00 0.  1.
</event>
<event>
 5   0  0.2519625E-06  0.2298871E+04  0.7818609E-02  0.8478366E-01
       -3   -1    0    0    0  501  0.00000000000E+00  0.00000000000E+00  0.13077029114E+04  0.13077029153E+04  0.10100000352E+00 0. -1.
        3   -1    0    0  501    0  0.00000000000E+00  0.00000000000E+00 -0.10103230522E+04  0.10103230573E+04  0.10100000352E+00 0.  1.
    10030    2    1    2    0    0  0.00000000000E+00  0.00000000000E+00  0.29737985918E+03  0.23180259726E+04  0.22988713815E+04 0.  0.
        2    1    3    3  502    0  0.52718673336E+02 -0.53240271025E+03 -0.87712168057E+03  0.10274114789E+04  0.25500000920E-02 0.  1.
       -2    1    3    3    0  502 -0.52718673336E+02  0.53240271025E+03  0.11745015398E+04  0.12906144937E+04  0.25500000920E-02 0. -1.
</event>
<event>
 5   0  0.7348107E-06  0.2299590E+04  0.7818609E-02  0.8478083E-01
        2   -1    0    0  501    0  0.00000000000E+00  0.00000000000E+00  0.10426275053E+04  0.10426275053E+04  0.25500000920E-02 0. -1.
       -2   -1    0    0    0  501  0.00000000000E+00  0.00000000000E+00 -0.12679780124E+04  0.12679780124E+04  0.25500000920E-02 0.  1.
    10030    2    1    2    0    0  0.00000000000E+00  0.00000000000E+00 -0.22535050703E+03  0.23106055177E+04  0.22995901825E+04 0.  0.
        3    1    3    3  502    0 -0.43720309372E+01  0.18160420361E+03  0.10281176088E+04  0.10440426377E+04  0.10100000352E+00 0. -1.
       -3    1    3    3    0  502  0.43720309372E+01 -0.18160420361E+03 -0.12534681159E+04  0.12665628801E+04  0.10100000352E+00 0.  1.
</event>
<event>
 5   0  0.7044981E-06  0.2302808E+04  0.7818609E-02  0.8476815E-01
        2   -1    0    0  501    0  0.00000000000E+00  0.00000000000E+00  0.65750756657E+03  0.65750756658E+03  0.25500000920E-02 0.  1.
       -2   -1    0    0    0  501  0.00000000000E+00  0.00000000000E+00 -0.20162973328E+04  0.20162973328E+04  0.25500000920E-02 0. -1.
    10030    2    1    2    0    0  0.00000000000E+00  0.00000000000E+00 -0.13587897662E+04  0.26738048993E+04  0.23028076366E+04 0.  0.
        4    1    3    3  502    0  0.19901907926E+02  0.86970911641E+03 -0.15551948955E+04  0.17819716073E+04  0.12699999809E+01 0. -1.
       -4    1    3    3    0  502 -0.19901907926E+02 -0.86970911641E+03  0.19640512936E+03  0.89183329207E+03  0.12699999809E+01 0.  1.
</event>
<event>
 5   0  0.7348107E-06  0.2288799E+04  0.7818609E-02  0.8482351E-01
        2   -1    0    0  501    0  0.00000000000E+00  0.00000000000E+00  0.93680775435E+03  0.93680775435E+03  0.25500000920E-02 0. -1.
       -2   -1    0    0    0  501  0.00000000000E+00  0.00000000000E+00 -0.13979922144E+04  0.13979922144E+04  0.25500000920E-02 0.  1.
    10030    2    1    2    0    0  0.00000000000E+00  0.00000000000E+00 -0.46118446001E+03  0.23347999687E+04  0.22887987652E+04 0.  0.
        3    1    3    3  502    0  0.36443667939E+03  0.55634899905E+03 -0.11806054625E+04  0.13550526079E+04  0.10100000352E+00 0.  1.
       -3    1    3    3    0  502 -0.36443667939E+03 -0.55634899905E+03  0.71942100245E+03  0.97974736080E+03  0.10100000352E+00 0. -1.
</event>
<event>
 5   0  0.7242214E-06  0.2301301E+04  0.7818609E-02  0.8477408E-01
       -2   -1    0    0    0  501  0.00000000000E+00  0.00000000000E+00  0.15410860402E+04  0.15410860402E+04  0.25500000920E-02 0.  1.
        2   -1    0    0  501    0  0.00000000000E+00  0.00000000000E+00 -0.85913234153E+03  0.85913234154E+03  0.25500000920E-02 0. -1.
    10030    2    1    2    0    0  0.00000000000E+00  0.00000000000E+00  0.68195369869E+03  0.24002183818E+04  0.23013012478E+04 0.  0.
        1    1    3    3  502    0 -0.41752652051E+03  0.13708056552E+03  0.14501134666E+04  0.15152387742E+04  0.50400001928E-02 0.  1.
       -1    1    3    3    0  502  0.41752652051E+03 -0.13708056552E+03 -0.76815976790E+03  0.88497960757E+03  0.50400001928E-02 0. -1.
</event>
<event>
 5   0  0.3195296E-06  0.2298523E+04  0.7818609E-02  0.8478504E-01
       -1   -1    0    0    0  501  0.00000000000E+00  0.00000000000E+00  0.92778738635E+03  0.92778738636E+03  0.50400001928E-02 0.  1.
        1   -1    0    0  501    0  0.00000000000E+00  0.00000000000E+00 -0.14236037451E+04  0.14236037451E+04  0.50400001928E-02 0. -1.
    10030    2    1    2    0    0  0.00000000000E+00  0.00000000000E+00 -0.49581635877E+03  0.23513911315E+04  0.22985226541E+04 0.  0.
        2    1    3    3  502    0  0.92792585668E+03  0.39379068553E+03  0.31676996875E+03  0.10566270452E+04  0.25500000920E-02 0.  1.
       -2    1    3    3    0  502 -0.92792585668E+03 -0.39379068553E+03 -0.81258632752E+03  0.12947640863E+04  0.25500000920E-02 0. -1.
</event>
<event>
 5   0  0.3226427E-06  0.2298928E+04  0.7818609E-02  0.8478344E-01
       -1   -1    0    0    0  501  0.00000000000E+00  0.00000000000E+00  0.12010592198E+04  0.12010592198E+04  0.50400001928E-02 0.  1.
        1   -1    0    0  501    0  0.00000000000E+00  0.00000000000E+00 -0.11000850627E+04  0.11000850627E+04  0.50400001928E-02 0. -1.
    10030    2    1    2    0    0  0.00000000000E+00  0.00000000000E+00  0.10097415709E+03  0.23011442826E+04  0.22989278433E+04 0.  0.
        4    1    3    3  502    0 -0.20225392092E+03 -0.11031101074E+04 -0.20176210891E+03  0.11395034529E+04  0.12699999809E+01 0. -1.
       -4    1    3    3    0  502  0.20225392092E+03  0.11031101074E+04  0.30273626600E+03  0.11616408297E+04  0.12699999809E+01 0.  1.
</event>
<event>
 5   0  0.7497344E-06  0.2300066E+04  0.7818609E-02  0.8477895E-01
        2   -1    0    0  501    0  0.00000000000E+00  0.00000000000E+00  0.10096920650E+04  0.10096920650E+04  0.25500000920E-02 0. -1.
       -2   -1    0    0    0  501  0.00000000000E+00  0.00000000000E+00 -0.13098809283E+04  0.13098809283E+04  0.25500000920E-02 0.  1.
    10030    2    1    2    0    0  0.00000000000E+00  0.00000000000E+00 -0.30018886327E+03  0.23195729933E+04  0.23000664159E+04 0.  0.
        5    1    3    3  502    0 -0.45208697247E+02  0.61242767960E+03  0.83049068315E+03  0.10328835142E+04  0.46999998093E+01 0. -1.
       -5    1    3    3    0  502  0.45208697247E+02 -0.61242767960E+03 -0.11306795464E+04  0.12866894791E+04  0.46999998093E+01 0.  1.
</event>
<event>
 5   0  0.3184492E-06  0.2298797E+04  0.7818609E-02  0.8478396E-01
       -1   -1    0    0    0  501  0.00000000000E+00  0.00000000000E+00  0.16755109841E+04  0.16755109841E+04  0.50400001928E-02 0.  1.
        1   -1    0    0  501    0  0.00000000000E+00  0.00000000000E+00 -0.78848581531E+03  0.78848581532E+03  0.50400001928E-02 0. -1.
    10030    2    1    2    0    0  0.00000000000E+00  0.00000000000E+00  0.88702516878E+03  0.24639967994E+04  0.22987967673E+04 0.  0.
        1    1    3    3  502    0  0.45500319296E+03 -0.85425154352E+03  0.11080188368E+04  0.14712169615E+04  0.50400001928E-02 0.  1.
       -1    1    3    3    0  502 -0.45500319296E+03  0.85425154352E+03 -0.22099366798E+03  0.99277983790E+03  0.50400001928E-02 0. -1.
</event>
<event>
 5   0  0.3226427E-06  0.2299325E+04  0.7818609E-02  0.8478187E-01
       -1   -1    0    0    0  501  0.00000000000E+00  0.00000000000E+00  0.10549345339E+04  0.10549345339E+04  0.50400001928E-02 0. -1.
        1   -1    0    0  501    0  0.00000000000E+00  0.00000000000E+00 -0.12528962012E+04  0.12528962012E+04  0.50400001928E-02 0.  1.
    10030    2    1    2    0    0  0.00000000000E+00  0.00000000000E+00 -0.19796166734E+03  0.23078307352E+04  0.22993246575E+04 0.  0.
        4    1    3    3  502    0  0.17824902827E+03 -0.98475187498E+03  0.46898610812E+03  0.11051961608E+04  0.12699999809E+01 0.  1.
       -4    1    3    3    0  502 -0.17824902827E+03  0.98475187498E+03 -0.66694777546E+03  0.12026345744E+04  0.12699999809E+01 0. -1.
</event>
<event>
 5   0  0.3338758E-06  0.2298525E+04  0.7818609E-02  0.8478503E-01
       -1   -1    0    0    0  501  0.00000000000E+00  0.00000000000E+00  0.53605316858E+03  0.53605316861E+03  0.50400001928E-02 0. -1.
        1   -1    0    0  501    0  0.00000000000E+00  0.00000000000E+00 -0.24639420687E+04  0.24639420687E+04  0.50400001928E-02 0.  1.
    10030    2    1    2    0    0  0.00000000000E+00  0.00000000000E+00 -0.19278889001E+04  0.29999952373E+04  0.22985247035E+04 0.  0.
        5    1    3    3  502    0 -0.92288353570E+03 -0.17363518773E+03 -0.18286403783E+04  0.20556777282E+04  0.46999998093E+01 0.  1.
       -5    1    3    3    0  502  0.92288353570E+03  0.17363518773E+03 -0.99248521733E+02  0.94431750908E+03  0.46999998093E+01 0. -1.
</event>
<event>
 5   0  0.7044981E-06  0.2299112E+04  0.7818609E-02  0.8478271E-01
        2   -1    0    0  501    0  0.00000000000E+00  0.00000000000E+00  0.19242593787E+04  0.19242593787E+04  0.25500000920E-02 0. -1.
       -2   -1    0    0    0  501  0.00000000000E+00  0.00000000000E+00 -0.68674685502E+03  0.68674685503E+03  0.25500000920E-02 0.  1.
    10030    2    1    2    0    0  0.00000000000E+00  0.00000000000E+00  0.12375125237E+04  0.26110062337E+04  0.22991120691E+04 0.  0.
        4    1    3    3  502    0 -0.34116029092E+03 -0.93935620912E+03  0.12638833130E+04  0.16112675363E+04  0.12699999809E+01 0. -1.
       -4    1    3    3    0  502  0.34116029092E+03  0.93935620912E+03 -0.26370789337E+02  0.99973869743E+03  0.12699999809E+01 0.  1.
</event>
<event>
 5   0  0.3184492E-06  0.2300228E+04  0.7818609E-02  0.8477831E-01
        1   -1    0    0  501    0  0.00000000000E+00  0.00000000000E+00  0.12212786567E+04  0.12212786567E+04  0.50400001928E-02 0.  1.
       -1   -1    0    0    0  501  0.00000000000E+00  0.00000000000E+00 -0.10830961932E+04  0.10830961932E+04  0.50400001928E-02 0. -1.
    10030    2    1    2    0    0  0.00000000000E+00  0.00000000000E+00  0.13818246354E+03  0.23043748499E+04  0.23002280443E+04 0.  0.
        1    1    3    3  502    0  0.11192638978E+04  0.21863668185E+03 -0.80202903827E+02  0.11432349616E+04  0.50400001928E-02 0. -1.
       -1    1    3    3    0  502 -0.11192638978E+04 -0.21863668185E+03  0.21838536737E+03  0.11611398883E+04  0.50400001928E-02 0.  1.
</event>
<event>
 5   0  0.7003852E-06  0.2299695E+04  0.7818609E-02  0.8478041E-01
        2   -1    0    0  501    0  0.00000000000E+00  0.00000000000E+00  0.10577686321E+04  0.10577686321E+04  0.25500000920E-02 0.  1.
       -2   -1    0    0    0  501  0.00000000000E+00  0.00000000000E+00 -0.12499416190E+04  0.12499416190E+04  0.25500000920E-02 0. -1.
    10030    2    1    2    0    0  0.00000000000E+00  0.00000000000E+00 -0.19217298687E+03  0.23077102511E+04  0.22996947941E+04 0.  0.
        2    1    3    3  502    0 -0.51122211891E+03 -0.10530926867E+03 -0.11242115387E+04  0.12394715329E+04  0.25500000920E-02 0. -1.
       -2    1    3    3    0  502  0.51122211891E+03  0.10530926867E+03  0.93203855187E+03  0.10682387182E+04  0.25500000920E-02 0.  1.
</event>
<event>
 5   0  0.7497344E-06  0.2303920E+04  0.7818609E-02  0.8476377E-01
       -2   -1    0    0    0  501  0.00000000000E+00  0.00000000000E+00  0.63665018870E+03  0.63665018871E+03  0.25500000920E-02 0.  1.
        2   -1    0    0  501    0  0.00000000000E+00  0.00000000000E+00 -0.20843657718E+04  0.20843657718E+04  0.25500000920E-02 0. -1.
    10030    2    1    2    0    0  0.00000000000E+00  0.00000000000E+00 -0.14477155831E+04  0.27210159605E+04  0.23039200176E+04 0.  0.
        5    1    3    3  502    0 -0.62104546381E+03 -0.74854211879E+03  0.51179393361E+01  0.97265669947E+03  0.46999998093E+01 0.  1.
       -5    1    3    3    0  502  0.62104546381E+03  0.74854211879E+03 -0.14528335224E+04  0.17483592610E+04  0.46999998093E+01 0. -1.
</event>
<event>
 5   0  0.3238713E-06  0.2301382E+04  0.7818609E-02  0.8477376E-01
       -1   -1    0    0    0  501  0.00000000000E+00  0.00000000000E+00  0.14581835058E+04  0.14581835058E+04  0.50400001928E-02 0. -1.
        1   -1    0    0  501    0  0.00000000000E+00  0.00000000000E+00 -0.90804055880E+03  0.90804055882E+03  0.50400001928E-02 0.  1.
    10030    2    1    2    0    0  0.00000000000E+00  0.00000000000E+00  0.55014294700E+03  0.23662240646E+04  0.23013819896E+04 0.  0.
        3    1    3    3  502    0  0.11386897207E+04  0.14067352327E+03  0.36521398138E+03  0.12040700074E+04  0.10100000352E+00 0. -1.
       -3    1    3    3    0  502 -0.11386897207E+04 -0.14067352327E+03  0.18492896562E+03  0.11621540573E+04  0.10100000352E+00 0.  1.
</event>
<event>
 5   0  0.3338758E-06  0.2316994E+04  0.7818609E-02  0.8471251E-01
       -1   -1    0    0    0  501  0.00000000000E+00  0.00000000000E+00  0.83400670037E+03  0.83400670038E+03  0.50400001928E-02 0. -1.
        1   -1    0    0  501    0  0.00000000000E+00  0.00000000000E+00 -0.16092375539E+04  0.16092375539E+04  0.50400001928E-02 0.  1.
    10030    2    1    2    0    0  0.00000000000E+00  0.00000000000E+00 -0.77523085355E+03  0.24432442543E+04  0.23169936577E+04 0.  0.
        5    1    3    3  502    0 -0.43716179094E+03 -0.69615014432E+03 -0.12484023085E+04  0.14947460884E+04  0.46999998093E+01 0.  1.
       -5    1    3    3    0  502  0.43716179094E+03  0.69615014432E+03  0.47317145499E+03  0.94849816589E+03  0.46999998093E+01 0. -1.
</event>
<event>
 5   0  0.7003852E-06  0.2300160E+04  0.7818609E-02  0.8477858E-01
       -2   -1    0    0    0  501  0.00000000000E+00  0.00000000000E+00  0.88894741270E+03  0.88894741270E+03  0.25500000920E-02 0.  1.
        2   -1    0    0  501    0  0.00000000000E+00  0.00000000000E+00 -0.14879211573E+04  0.14879211573E+04  0.25500000920E-02 0. -1.
    10030    2    1    2    0    0  0.00000000000E+00  0.00000000000E+00 -0.59897374461E+03  0.23768685700E+04  0.23001597015E+04 0.  0.
        2    1    3    3  502    0  0.93647996384E+03 -0.25697372614E+03  0.33722192388E+03  0.10279829009E+04  0.25500000920E-02 0.  1.
       -2    1    3    3    0  502 -0.93647996384E+03  0.25697372614E+03 -0.93619566849E+03  0.13488856691E+04  0.25500000920E-02 0. -1.
</event>
<event>
 5   0  0.3226427E-06  0.2304349E+04  0.7818609E-02  0.8476208E-01
        1   -1    0    0  501    0  0.00000000000E+00  0.00000000000E+00  0.11409657895E+04  0.11409657895E+04  0.50400001928E-02 0.  1.
       -1   -1    0    0    0  501  0.00000000000E+00  0.00000000000E+00 -0.11634933841E+04  0.11634933841E+04  0.50400001928E-02 0. -1.
    10030    2    1    2    0    0  0.00000000000E+00  0.00000000000E+00 -0.22527594563E+02  0.23044591736E+04  0.23043490600E+04 0.  0.
        4    1    3    3  502    0 -0.12490066279E+03 -0.10991687655E+04 -0.33335430955E+03  0.11553782321E+04  0.12699999809E+01 0.  1.
       -4    1    3    3    0  502  0.12490066279E+03  0.10991687655E+04  0.31082671499E+03  0.11490809415E+04  0.12699999809E+01 0. -1.
</event>
<event>
 5   0  0.7348107E-06  0.2309248E+04  0.7818609E-02  0.8474284E-01
       -2   -1    0    0    0  501  0.00000000000E+00  0.00000000000E+00  0.74277582106E+03  0.74277582107E+03  0.25500000920E-02 0.  1.
        2   -1    0    0  501    0  0.00000000000E+00  0.00000000000E+00 -0.17948300729E+04  0.17948300729E+04  0.25500000920E-02 0. -1.
    10030    2    1    2    0    0  0.00000000000E+00  0.00000000000E+00 -0.10520542518E+04  0.25376058939E+04  0.23092478265E+04 0.  0.
        3    1    3    3  502    0 -0.11000742264E+04 -0.26336528870E+03 -0.27154060469E+03  0.11632965611E+04  0.10100000352E+00 0.  1.
       -3    1    3    3    0  502  0.11000742264E+04  0.26336528870E+03 -0.78051364712E+03  0.13743093329E+04  0.10100000352E+00 0. -1.
</event>
<event>
 5   0  0.7497344E-06  0.2289289E+04  0.7818609E-02  0.8482156E-01
        2   -1    0    0  501    0  0.00000000000E+00  0.00000000000E+00  0.16769562242E+04  0.16769562242E+04  0.25500000920E-02 0.  1.
       -2   -1    0    0    0  501  0.00000000000E+00  0.00000000000E+00 -0.78130312443E+03  0.78130312444E+03  0.25500000920E-02 0. -1.
    10030    2    1    2    0    0  0.00000000000E+00  0.00000000000E+00  0.89565309979E+03  0.24582593487E+04  0.22892890927E+04 0.  0.
        5    1    3    3  502    0 -0.37558663375E+03 -0.26077156945E+03  0.15746211675E+04  0.16396710164E+04  0.46999998093E+01 0.  1.
       -5    1    3    3    0  502  0.37558663375E+03  0.26077156945E+03 -0.67896806766E+03  0.81858833231E+03  0.46999998093E+01 0. -1.
</event>
<event>
 5   0  0.7044981E-06  0.2300499E+04  0.7818609E-02  0.8477724E-01
       -2   -1    0    0    0  501  0.00000000000E+00  0.00000000000E+00  0.11219680285E+04  0.11219680285E+04  0.25500000920E-02 0.  1.
        2   -1    0    0  501    0  0.00000000000E+00  0.00000000000E+00 -0.11792441615E+04  0.11792441615E+04  0.25500000920E-02 0. -1.
    10030    2    1    2    0    0  0.00000000000E+00  0.00000000000E+00 -0.57276132991E+02  0.23012121900E+04  0.23004992910E+04 0.  0.
        4    1    3    3  502    0 -0.66799395067E+03 -0.73404364423E+03  0.55295129406E+03  0.11361305982E+04  0.12699999809E+01 0.  1.
       -4    1    3    3    0  502  0.66799395067E+03  0.73404364423E+03 -0.61022742705E+03  0.11650815917E+04  0.12699999809E+01 0. -1.
</event>
<event>
 5   0  0.3226427E-06  0.2293167E+04  0.7818609E-02  0.8480620E-01
        1   -1    0    0  501    0  0.00000000000E+00  0.00000000000E+00  0.16073569615E+04  0.16073569615E+04  0.50400001928E-02 0. -1.
       -1   -1    0    0    0  501  0.00000000000E+00  0.00000000000E+00 -0.81789756616E+03  0.81789756618E+03  0.50400001928E-02 0.  1.
    10030    2    1    2    0    0  0.00000000000E+00  0.00000000000E+00  0.78945939531E+03  0.24252545277E+04  0.22931666723E+04 0.  0.
        4    1    3    3  502    0 -0.14802858503E+03 -0.72007196105E+02 -0.80533447041E+03  0.82198705611E+03  0.12699999809E+01 0.  1.
       -4    1    3    3    0  502  0.14802858503E+03  0.72007196105E+02  0.15947938657E+04  0.16032674715E+04  0.12699999809E+01 0. -1.
</event>
<event>
 5   0  0.7242214E-06  0.2306386E+04  0.7818609E-02  0.8475407E-01
        2   -1    0    0  501    0  0.00000000000E+00  0.00000000000E+00  0.14935132433E+04  0.14935132433E+04  0.25500000920E-02 0. -1.
       -2   -1    0    0    0  501  0.00000000000E+00  0.00000000000E+00 -0.89041996085E+03  0.89041996085E+03  0.25500000920E-02 0.  1.
    10030    2    1    2    0    0  0.00000000000E+00  0.00000000000E+00  0.60309328245E+03  0.23839332042E+04  0.23063859206E+04 0.  0.
        1    1    3    3  502    0  0.10079406618E+04 -0.31336274263E+03  0.78161234849E+03  0.13134148049E+04  0.50400001928E-02 0. -1.
       -1    1    3    3    0  502 -0.10079406618E+04  0.31336274263E+03 -0.17851906604E+03  0.10705183993E+04  0.50400001928E-02 0.  1.
</event>
<event>
 5   0  0.3184492E-06  0.2302758E+04  0.7818609E-02  0.8476834E-01
        1   -1    0    0  501    0  0.00000000000E+00  0.00000000000E+00  0.96512003620E+03  0.96512003622E+03  0.50400001928E-02 0.  1.
       -1   -1    0    0    0  501  0.00000000000E+00  0.00000000000E+00 -0.13735846904E+04  0.13735846904E+04  0.50400001928E-02 0. -1.
    10030    2    1    2    0    0  0.00000000000E+00  0.00000000000E+00 -0.40846465421E+03  0.23387047266E+04  0.23027584382E+04 0.  0.
        1    1    3    3  502    0 -0.18309218833E+03 -0.17899037857E+03  0.93583866337E+03  0.97023415160E+03  0.50400001928E-02 0.  1.
       -1    1    3    3    0  502  0.18309218833E+03  0.17899037857E+03 -0.13443033176E+04  0.13684705750E+04  0.50400001928E-02 0. -1.
</event>
<event>
 5   0  0.7044981E-06  0.2297601E+04  0.7818609E-02  0.8478867E-01
        2   -1    0    0  501    0  0.00000000000E+00  0.00000000000E+00  0.13249649653E+04  0.13249649653E+04  0.25500000920E-02 0. -1.
       -2   -1    0    0    0  501  0.00000000000E+00  0.00000000000E+00 -0.99605877626E+03  0.99605877627E+03  0.25500000920E-02 0.  1.
    10030    2    1    2    0    0  0.00000000000E+00  0.00000000000E+00  0.32890618905E+03  0.23210237416E+04  0.22976013422E+04 0.  0.
        4    1    3    3  502    0  0.26454470315E+03  0.12501043567E+02  0.12937044542E+04  0.13205351202E+04  0.12699999809E+01 0. -1.
       -4    1    3    3    0  502 -0.26454470315E+03 -0.12501043567E+02 -0.96479826516E+03  0.10004886213E+04  0.12699999809E+01 0.  1.
</event>
<event>
 5   0  0.3184492E-06  0.2312519E+04  0.7818609E-02  0.8473001E-01
       -1   -1    0    0    0  501  0.00000000000E+00  0.00000000000E+00  0.98606103408E+03  0.98606103409E+03  0.50400001928E-02 0.  1.
        1   -1    0    0  501    0  0.00000000000E+00  0.00000000000E+00 -0.13558351670E+04  0.13558351670E+04  0.50400001928E-02 0. -1.
    10030    2    1    2    0    0  0.00000000000E+00  0.00000000000E+00 -0.36977413295E+03  0.23418962011E+04  0.23125191691E+04 0.  0.
        1    1    3    3  502    0 -0.89919103404E+03 -0.69207757815E+03 -0.41001798948E+03  0.12064951892E+04  0.50400001928E-02 0. -1.
       -1    1    3    3    0  502  0.89919103404E+03  0.69207757815E+03  0.40243856531E+02  0.11354010119E+04  0.50400001928E-02 0.  1.
</event>
<event>
 5   0  0.7497344E-06  0.2307735E+04  0.7818609E-02  0.8474877E-01
       -2   -1    0    0    0  501  0.00000000000E+00  0.00000000000E+00  0.67470308399E+03  0.67470308399E+03  0.25500000920E-02 0.  1.
        2   -1    0    0  501    0  0.00000000000E+00  0.00000000000E+00 -0.19733283475E+04  0.19733283475E+04  0.25500000920E-02 0. -1.
    10030    2    1    2    0    0  0.00000000000E+00  0.00000000000E+00 -0.12986252635E+04  0.26480314315E+04  0.23077354456E+04 0.  0.
        5    1    3    3  502    0  0.92138404755E+03 -0.66756128019E+03 -0.86943940139E+03  0.14319684314E+04  0.46999998093E+01 0. -1.
       -5    1    3    3    0  502 -0.92138404755E+03  0.66756128019E+03 -0.42918586210E+03  0.12160630001E+04  0.46999998093E+01 0.  1.
</event>
<event>
 5   0  0.7497344E-06  0.2295710E+04  0.7818609E-02  0.8479614E-01
        2   -1    0    0  501    0  0.00000000000E+00  0.00000000000E+00  0.13585037593E+04  0.13585037593E+04  0.25500000920E-02 0. -1.
       -2   -1    0    0    0  501  0.00000000000E+00  0.00000000000E+00 -0.96986968892E+03  0.96986968892E+03  0.25500000920E-02 0.  1.
    10030    2    1    2    0    0  0.00000000000E+00  0.00000000000E+00  0.38863407042E+03  0.23283734483E+04  0.22957104508E+04 0.  0.
        5    1    3    3  502    0 -0.64963202173E+03 -0.87100727579E+03 -0.18091175212E+03  0.11015564399E+04  0.46999998093E+01 0.  1.
       -5    1    3    3    0  502  0.64963202173E+03  0.87100727579E+03  0.56954582253E+03  0.12268170084E+04  0.46999998093E+01 0. -1.
</event>
<event>
 5   0  0.7003852E-06  0.2300799E+04  0.7818609E-02  0.8477606E-01
       -2   -1    0    0    0  501  0.00000000000E+00  0.00000000000E+00  0.10306426407E+04  0.10306426407E+04  0.25500000920E-02 0. -1.
        2   -1    0    0  501    0  0.00000000000E+00  0.00000000000E+00 -0.12840712419E+04  0.12840712420E+04  0.25500000920E-02 0.  1.
    10030    2    1    2    0    0  0.00000000000E+00  0.00000000000E+00 -0.25342860129E+03  0.23147138826E+04  0.23007986227E+04 0.  0.
        2    1    3    3  502    0 -0.74086094093E+03 -0.41875908642E+03 -0.90546595390E+03  0.12426192900E+04  0.25500000920E-02 0.  1.
       -2    1    3    3    0  502  0.74086094093E+03  0.41875908642E+03  0.65203735261E+03  0.10720945926E+04  0.25500000920E-02 0. -1.
</event>
<event>
 5   0  0.7003852E-06  0.2297040E+04  0.7818609E-02  0.8479089E-01
        2   -1    0    0  501    0  0.00000000000E+00  0.00000000000E+00  0.23093551841E+04  0.23093551841E+04  0.25500000920E-02 0.  1.
       -2   -1    0    0    0  501  0.00000000000E+00  0.00000000000E+00 -0.57119737804E+03  0.57119737805E+03  0.25500000920E-02 0. -1.
    10030    2    1    2    0    0  0.00000000000E+00  0.00000000000E+00  0.17381578061E+04  0.28805525622E+04  0.22970395087E+04 0.  0.
        2    1    3    3  502    0 -0.37572406301E+03 -0.70066101610E+03 -0.17033068272E+03  0.81308484951E+03  0.25500000920E-02 0. -1.
       -2    1    3    3    0  502  0.37572406301E+03  0.70066101610E+03  0.19084884888E+04  0.20674677126E+04  0.25500000920E-02 0.  1.
</event>
<event>
 5   0  0.7242214E-06  0.2289711E+04  0.7818609E-02  0.8481989E-01
       -2   -1    0    0    0  501  0.00000000000E+00  0.00000000000E+00  0.61506184473E+03  0.61506184473E+03  0.25500000920E-02 0. -1.
        2   -1    0    0  501    0  0.00000000000E+00  0.00000000000E+00 -0.21309961935E+04  0.21309961935E+04  0.25500000920E-02 0.  1.
    10030    2    1    2    0    0  0.00000000000E+00  0.00000000000E+00 -0.15159343487E+04  0.27460580382E+04  0.22897112917E+04 0.  0.
        1    1    3    3  502    0  0.77988002318E+03 -0.30635463942E+03  0.17766490774E+03  0.85652252458E+03  0.50400001928E-02 0. -1.
       -1    1    3    3    0  502 -0.77988002318E+03  0.30635463942E+03 -0.16935992565E+04  0.18895355136E+04  0.50400001928E-02 0.  1.
</event>
<event>
 5   0  0.3338758E-06  0.2330859E+04  0.7818609E-02  0.8465852E-01
       -1   -1    0    0    0  501  0.00000000000E+00  0.00000000000E+00  0.94585964680E+03  0.94585964682E+03  0.50400001928E-02 0. -1.
        1   -1    0    0  501    0  0.00000000000E+00  0.00000000000E+00 -0.14359701569E+04  0.14359701569E+04  0.50400001928E-02 0.  1.
    10030    2    1    2    0    0  0.00000000000E+00  0.00000000000E+00 -0.49011051011E+03  0.23818298037E+04  0.23308592626E+04 0.  0.
        5    1    3    3  502    0 -0.78898278748E+03 -0.50196524041E+03  0.46566911916E+03  0.10446687322E+04  0.46999998093E+01 0. -1.
       -5    1    3    3    0  502  0.78898278748E+03  0.50196524041E+03 -0.95577962927E+03  0.13371610715E+04  0.46999998093E+01 0.  1.
</event>
<event>
 5   0  0.3238713E-06  0.2301124E+04  0.7818609E-02  0.8477478E-01
        1   -1    0    0  501    0  0.00000000000E+00  0.00000000000E+00  0.99759007012E+03  0.99759007013E+03  0.50400001928E-02 0. -1.
       -1   -1    0    0    0  501  0.00000000000E+00  0.00000000000E+00 -0.13269912250E+04  0.13269912250E+04  0.50400001928E-02 0.  1.
    10030    2    1    2    0    0  0.00000000000E+00  0.00000000000E+00 -0.32940115483E+03  0.23245812951E+04  0.23011243071E+04 0.  0.
        3    1    3    3  502    0 -0.82496250515E+03 -0.40127410714E+03  0.53679092040E+03  0.10628868926E+04  0.10100000352E+00 0. -1.
       -3    1    3    3    0  502  0.82496250515E+03  0.40127410714E+03 -0.86619207523E+03  0.12616944025E+04  0.10100000352E+00 0.  1.
</event>
<event>
 5   0  0.7348107E-06  0.2285475E+04  0.7818609E-02  0.8483670E-01
        2   -1    0    0  501    0  0.00000000000E+00  0.00000000000E+00  0.87688819481E+03  0.87688819482E+03  0.25500000920E-02 0. -1.
       -2   -1    0    0    0  501  0.00000000000E+00  0.00000000000E+00 -0.14891852439E+04  0.14891852439E+04  0.25500000920E-02 0.  1.
    10030    2    1    2    0    0  0.00000000000E+00  0.00000000000E+00 -0.61229704912E+03  0.23660734388E+04  0.22854749706E+04 0.  0.
        3    1    3    3  502    0  0.32832429552E+03 -0.10888488943E+04 -0.42171027881E+03  0.12129420131E+04  0.10100000352E+00 0.  1.
       -3    1    3    3    0  502 -0.32832429552E+03  0.10888488943E+04 -0.19058677031E+03  0.11531314257E+04  0.10100000352E+00 0. -1.
</event>
<event>
 5   0  0.3184492E-06  0.2297110E+04  0.7818609E-02  0.8479061E-01
        1   -1    0    0  501    0  0.00000000000E+00  0.00000000000E+00  0.11199589983E+04  0.11199589983E+04  0.50400001928E-02 0.  1.
       -1   -1    0    0    0  501  0.00000000000E+00  0.00000000000E+00 -0.11778811846E+04  0.11778811846E+04  0.50400001928E-02 0. -1.
    10030    2    1    2    0    0  0.00000000000E+00  0.00000000000E+00 -0.57922186261E+02  0.22978401829E+04  0.22971100379E+04 0.  0.
        1    1    3    3  502    0  0.87720538115E+03  0.15431858727E+03  0.69644188474E+03  0.11306346916E+04  0.50400001928E-02 0.  1.
       -1    1    3    3    0  502 -0.87720538115E+03 -0.15431858727E+03 -0.75436407100E+03  0.11672054912E+04  0.50400001928E-02 0. -1.
</event>
<event>
 5   0  0.7003852E-06  0.2299071E+04  0.7818609E-02  0.8478288E-01
       -2   -1    0    0    0  501  0.00000000000E+00  0.00000000000E+00  0.90276352325E+03  0.90276352325E+03  0.25500000920E-02 0.  1.
        2   -1    0    0  501    0  0.00000000000E+00  0.00000000000E+00 -0.14637624084E+04  0.14637624084E+04  0.25500000920E-02 0. -1.
    10030    2    1    2    0    0  0.00000000000E+00  0.00000000000E+00 -0.56099888512E+03  0.23665259316E+04  0.22990705156E+04 0.  0.
        2    1    3    3  502    0  0.36924113317E+03 -0.81260760154E+03  0.46515880522E+03  0.10065002944E+04  0.25500000920E-02 0.  1.
       -2    1    3    3    0  502 -0.36924113317E+03  0.81260760154E+03 -0.10261576903E+04  0.13600256372E+04  0.25500000920E-02 0. -1.
</event>
<event>
 5   0  0.3226427E-06  0.2265307E+04  0.7818609E-02  0.8491727E-01
        1   -1    0    0  501    0  0.00000000000E+00  0.00000000000E+00  0.13497105369E+04  0.13497105369E+04  0.50400001928E-02 0. -1.
       -1   -1    0    0    0  501  0.00000000000E+00  0.00000000000E+00 -0.95050292430E+03  0.95050292431E+03  0.50400001928E-02 0.  1.
    10030    2    1    2    0    0  0.00000000000E+00  0.00000000000E+00  0.39920761257E+03  0.23002134612E+04  0.22653068775E+04 0.  0.
        4    1    3    3  502    0  0.63136213169E+03  0.91720045253E+02  0.11499050388E+04  0.13150338092E+04  0.12699999809E+01 0. -1.
       -4    1    3    3    0  502 -0.63136213169E+03 -0.91720045253E+02 -0.75069742627E+03  0.98517965201E+03  0.12699999809E+01 0.  1.
</event>
<event>
 5   0  0.3184492E-06  0.2313163E+04  0.7818609E-02  0.8472749E-01
       -1   -1    0    0    0  501  0.00000000000E+00  0.00000000000E+00  0.12862690065E+04  0.12862690065E+04  0.50400001928E-02 0. -1.
        1   -1    0    0  501    0  0.00000000000E+00  0.00000000000E+00 -0.10399696913E+04  0.10399696913E+04  0.50400001928E-02 0.  1.
    10030    2    1    2    0    0  0.00000000000E+00  0.00000000000E+00  0.24629931517E+03  0.23262386978E+04  0.23131630134E+04 0.  0.
        1    1    3    3  502    0 -0.10658205163E+02 -0.55091116408E+02 -0.10386000117E+04  0.10401147113E+04  0.50400001928E-02 0.  1.
       -1    1    3    3    0  502  0.10658205163E+02  0.55091116408E+02  0.12848993268E+04  0.12861239865E+04  0.50400001928E-02 0. -1.
</event>
<event>
 5   0  0.3195296E-06  0.2301087E+04  0.7818609E-02  0.8477493E-01
        1   -1    0    0  501    0  0.00000000000E+00  0.00000000000E+00  0.13023361038E+04  0.13023361039E+04  0.50400001928E-02 0.  1.
       -1   -1    0    0    0  501  0.00000000000E+00  0.00000000000E+00 -0.10164425779E+04  0.10164425779E+04  0.50400001928E-02 0. -1.
    10030    2    1    2    0    0  0.00000000000E+00  0.00000000000E+00  0.28589352591E+03  0.23187786818E+04  0.23010865840E+04 0.  0.
        2    1    3    3  502    0 -0.82108956987E+03  0.73980199859E+03 -0.17928486443E+03  0.11196598329E+04  0.25500000920E-02 0. -1.
       -2    1    3    3    0  502  0.82108956987E+03 -0.73980199859E+03  0.46517839034E+03  0.11991188489E+04  0.25500000920E-02 0.  1.
</event>
<event>
 5   0  0.3238713E-06  0.2306454E+04  0.7818609E-02  0.8475381E-01
        1   -1    0    0  501    0  0.00000000000E+00  0.00000000000E+00  0.13365867649E+04  0.13365867649E+04  0.50400001928E-02 0. -1.
       -1   -1    0    0    0  501  0.00000000000E+00  0.00000000000E+00 -0.99502174462E+03  0.99502174463E+03  0.50400001928E-02 0.  1.
    10030    2    1    2    0    0  0.00000000000E+00  0.00000000000E+00  0.34156502024E+03  0.23316085095E+04  0.23064543305E+04 0.  0.
        3    1    3    3  502    0 -0.46451527435E+03  0.35463470612E+03 -0.83423940028E+03  0.10185752805E+04  0.10100000352E+00 0.  1.
       -3    1    3    3    0  502  0.46451527435E+03 -0.35463470612E+03  0.11758044205E+04  0.13130332290E+04  0.10100000352E+00 0. -1.
</event>
<event>
 5   0  0.7044981E-06  0.2264040E+04  0.7818609E-02  0.8492236E-01
       -2   -1    0    0    0  501  0.00000000000E+00  0.00000000000E+00  0.82810904125E+03  0.82810904125E+03  0.25500000920E-02 0.  1.
        2   -1    0    0  501    0  0.00000000000E+00  0.00000000000E+00 -0.15474637413E+04  0.15474637413E+04  0.25500000920E-02 0. -1.
    10030    2    1    2    0    0  0.00000000000E+00  0.00000000000E+00 -0.71935470003E+03  0.23755727825E+04  0.22640395007E+04 0.  0.
        4    1    3    3  502    0  0.43154648084E+03 -0.96295765933E+03  0.70325003797E+02  0.10575760199E+04  0.12699999809E+01 0.  1.
       -4    1    3    3    0  502 -0.43154648084E+03  0.96295765933E+03 -0.78967970382E+03  0.13179967626E+04  0.12699999809E+01 0. -1.
</event>
<event>
 5   0  0.7044981E-06  0.2299921E+04  0.7818609E-02  0.8477952E-01
        2   -1    0    0  501    0  0.00000000000E+00  0.00000000000E+00  0.15697160301E+04  0.15697160301E+04  0.25500000920E-02 0. -1.
       -2   -1    0    0    0  501  0.00000000000E+00  0.00000000000E+00 -0.84245105158E+03  0.84245105159E+03  0.25500000920E-02 0.  1.
    10030    2    1    2    0    0  0.00000000000E+00  0.00000000000E+00  0.72726497853E+03  0.24121670817E+04  0.22999207989E+04 0.  0.
        4    1    3    3  502    0 -0.28100919055E+03  0.93501067446E+03  0.10009019485E+04  0.13982193855E+04  0.12699999809E+01 0. -1.
       -4    1    3    3    0  502  0.28100919055E+03 -0.93501067446E+03 -0.27363696992E+03  0.10139476963E+04  0.12699999809E+01 0.  1.
</event>
<event>
 5   0  0.3195296E-06  0.2295012E+04  0.7818609E-02  0.8479890E-01
       -1   -1    0    0    0  501  0.00000000000E+00  0.00000000000E+00  0.62421139362E+03  0.62421139364E+03  0.50400001928E-02 0.  1.
        1   -1    0    0  501    0  0.00000000000E+00  0.00000000000E+00 -0.21094942105E+04  0.21094942105E+04  0.50400001928E-02 0. -1.
    10030    2    1    2    0    0  0.00000000000E+00  0.00000000000E+00 -0.14852828169E+04  0.27337056041E+04  0.22950122623E+04 0.  0.
        2    1    3    3  502    0 -0.90932218323E+03  0.21397630172E+03 -0.15364498989E+04  0.17981465408E+04  0.25500000920E-02 0. -1.
       -2    1    3    3    0  502  0.90932218323E+03 -0.21397630172E+03  0.51167082008E+02  0.93555906329E+03  0.25500000920E-02 0.  1.
</event>
<event>
 5   0  0.7044981E-06  0.2303031E+04  0.7818609E-02  0.8476727E-01
       -2   -1    0    0    0  501  0.00000000000E+00  0.00000000000E+00  0.76135123912E+03  0.76135123912E+03  0.25500000920E-02 0. -1.
        2   -1    0    0  501    0  0.00000000000E+00  0.00000000000E+00 -0.17416247451E+04  0.17416247451E+04  0.25500000920E-02 0.  1.
    10030    2    1    2    0    0  0.00000000000E+00  0.00000000000E+00 -0.98027350597E+03  0.25029759842E+04  0.23030311833E+04 0.  0.
        4    1    3    3  502    0 -0.14563242726E+02 -0.11474815138E+04 -0.59358809252E+03  0.12920040050E+04  0.12699999809E+01 0.  1.
       -4    1    3    3    0  502  0.14563242726E+02  0.11474815138E+04 -0.38668541345E+03  0.12109719792E+04  0.12699999809E+01 0. -1.
</event>
<event>
 5   0  0.7242214E-06  0.2298771E+04  0.7818609E-02  0.8478406E-01
       -2   -1    0    0    0  501  0.00000000000E+00  0.00000000000E+00  0.98363798781E+03  0.98363798781E+03  0.25500000920E-02 0.  1.
        2   -1    0    0  501    0  0.00000000000E+00  0.00000000000E+00 -0.13430625917E+04  0.13430625917E+04  0.25500000920E-02 0. -1.
    10030    2    1    2    0    0  0.00000000000E+00  0.00000000000E+00 -0.35942460394E+03  0.23267005796E+04  0.22987713112E+04 0.  0.
        1    1    3    3  502    0  0.36896601579E+03 -0.70973307195E+03  0.65568246321E+03  0.10342999791E+04  0.50400001928E-02 0.  1.
       -1    1    3    3    0  502 -0.36896601579E+03  0.70973307195E+03 -0.10151070671E+04  0.12924006004E+04  0.50400001928E-02 0. -1.
</event>
<event>
 5   0  0.7044981E-06  0.2303548E+04  0.7818609E-02  0.8476523E-01
       -2   -1    0    0    0  501  0.00000000000E+00  0.00000000000E+00  0.11289106642E+04  0.11289106642E+04  0.25500000920E-02 0.  1.
        2   -1    0    0  501    0  0.00000000000E+00  0.00000000000E+00 -0.11751005919E+04  0.11751005919E+04  0.25500000920E-02 0. -1.
    10030    2    1    2    0    0  0.00000000000E+00  0.00000000000E+00 -0.46189927742E+02  0.23040112561E+04  0.23035482106E+04 0.  0.
        4    1    3    3  502    0  0.10309659281E+04  0.85431218000E+02  0.48335920620E+03  0.11418524305E+04  0.12699999809E+01 0.  1.
       -4    1    3    3    0  502 -0.10309659281E+04 -0.85431218000E+02 -0.52954913394E+03  0.11621588256E+04  0.12699999809E+01 0. -1.
</event>
<event>
 5   0  0.3338758E-06  0.2281121E+04  0.7818609E-02  0.8485402E-01
        1   -1    0    0  501    0  0.00000000000E+00  0.00000000000E+00  0.14916410900E+04  0.14916410900E+04  0.50400001928E-02 0. -1.
       -1   -1    0    0    0  501  0.00000000000E+00  0.00000000000E+00 -0.87211198282E+03  0.87211198283E+03  0.50400001928E-02 0.  1.
    10030    2    1    2    0    0  0.00000000000E+00  0.00000000000E+00  0.61952910717E+03  0.23637530728E+04  0.22811208374E+04 0.  0.
        5    1    3    3  502    0 -0.60673663208E+02  0.11032152714E+04  0.60301926338E+03  0.12587372841E+04  0.46999998093E+01 0.  1.
       -5    1    3    3    0  502  0.60673663208E+02 -0.11032152714E+04  0.16509843794E+02  0.11050157887E+04  0.46999998093E+01 0. -1.
</event>
<event>
 5   0  0.7497344E-06  0.2300255E+04  0.7818609E-02  0.8477820E-01
        2   -1    0    0  501    0  0.00000000000E+00  0.00000000000E+00  0.25830920580E+04  0.25830920580E+04  0.25500000920E-02 0. -1.
       -2   -1    0    0    0  501  0.00000000000E+00  0.00000000000E+00 -0.51209700064E+03  0.51209700065E+03  0.25500000920E-02 0.  1.
    10030    2    1    2    0    0  0.00000000000E+00  0.00000000000E+00  0.20709950574E+04  0.30951890586E+04  0.23002553730E+04 0.  0.
        5    1    3    3  502    0  0.12529705195E+03  0.85540562147E+02 -0.49856085045E+03  0.52115405649E+03  0.46999998093E+01 0.  1.
       -5    1    3    3    0  502 -0.12529705195E+03 -0.85540562147E+02  0.25695559078E+04  0.25740350022E+04  0.46999998093E+01 0. -1.
</event>
<event>
 5   0  0.3338758E-06  0.2302181E+04  0.7818609E-02  0.8477062E-01
       -1   -1    0    0    0  501  0.00000000000E+00  0.00000000000E+00  0.11671064965E+04  0.11671064965E+04  0.50400001928E-02 0. -1.
        1   -1    0    0  501    0  0.00000000000E+00  0.00000000000E+00 -0.11352946546E+04  0.11352946546E+04  0.50400001928E-02 0.  1.
    10030    2    1    2    0    0  0.00000000000E+00  0.00000000000E+00  0.31811841820E+02  0.23024011511E+04  0.23021813715E+04 0.  0.
        5    1    3    3  502    0 -0.20804878999E+03  0.93503586829E+03  0.65425464555E+03  0.11600205193E+04  0.46999998093E+01 0. -1.
       -5    1    3    3    0  502  0.20804878999E+03 -0.93503586829E+03 -0.62244280373E+03  0.11423806318E+04  0.46999998093E+01 0.  1.
</event>
<event>
 5   0  0.3238713E-06  0.2306768E+04  0.7818609E-02  0.8475257E-01
       -1   -1    0    0    0  501  0.00000000000E+00  0.00000000000E+00  0.13385194536E+04  0.13385194537E+04  0.50400001928E-02 0.  1.
        1   -1    0    0  501    0  0.00000000000E+00  0.00000000000E+00 -0.99385566968E+03  0.99385566969E+03  0.50400001928E-02 0. -1.
    10030    2    1    2    0    0  0.00000000000E+00  0.00000000000E+00  0.34466378397E+03  0.23323751233E+04  0.23067684305E+04 0.  0.
        3    1    3    3  502    0 -0.43945093995E+03 -0.68730535151E+02 -0.90364937451E+03  0.10071857909E+04  0.10100000352E+00 0. -1.
       -3    1    3    3    0  502  0.43945093995E+03  0.68730535151E+02  0.12483131585E+04  0.13251893325E+04  0.10100000352E+00 0.  1.
</event>
<event>
 5   0  0.7348107E-06  0.2299524E+04  0.7818609E-02  0.8478109E-01
       -2   -1    0    0    0  501  0.00000000000E+00  0.00000000000E+00  0.91661540886E+03  0.91661540887E+03  0.25500000920E-02 0.  1.
        2   -1    0    0  501    0  0.00000000000E+00  0.00000000000E+00 -0.14422109517E+04  0.14422109517E+04  0.25500000920E-02 0. -1.
    10030    2    1    2    0    0  0.00000000000E+00  0.00000000000E+00 -0.52559554288E+03  0.23588263606E+04  0.22995241083E+04 0.  0.
        3    1    3    3  502    0  0.62776289879E+03  0.34768955045E+03  0.65868874515E+03  0.97408683071E+03  0.10100000352E+00 0.  1.
       -3    1    3    3    0  502 -0.62776289879E+03 -0.34768955045E+03 -0.11842842880E+04  0.13847395299E+04  0.10100000352E+00 0. -1.
</event>
<event>
 5   0  0.3184492E-06  0.2297546E+04  0.7818609E-02  0.8478889E-01
        1   -1    0    0  501    0  0.00000000000E+00  0.00000000000E+00  0.10368227994E+04  0.10368227994E+04  0.50400001928E-02 0.  1.
       -1   -1    0    0    0  501  0.00000000000E+00  0.00000000000E+00 -0.12728105075E+04  0.12728105075E+04  0.50400001928E-02 0. -1.
    10030    2    1    2    0    0  0.00000000000E+00  0.00000000000E+00 -0.23598770806E+03  0.23096333070E+04  0.22975456066E+04 0.  0.
        1    1    3    3  502    0  0.20009926766E+03 -0.81724512283E+03 -0.90425308305E+03  0.12351530051E+04  0.50400001928E-02 0.  1.
       -1    1    3    3    0  502 -0.20009926766E+03  0.81724512283E+03  0.66826537499E+03  0.10744803019E+04  0.50400001928E-02 0. -1.
</event>
<event>
 5   0  0.3226427E-06  0.2296891E+04  0.7818609E-02  0.8479148E-01
       -1   -1    0    0    0  501  0.00000000000E+00  0.00000000000E+00  0.67756262058E+03  0.67756262060E+03  0.50400001928E-02 0. -1.
        1   -1    0    0  501    0  0.00000000000E+00  0.00000000000E+00 -0.19465761531E+04  0.19465761532E+04  0.50400001928E-02 0.  1.
    10030    2    1    2    0    0  0.00000000000E+00  0.00000000000E+00 -0.12690135326E+04  0.26241387737E+04  0.22968911507E+04 0.  0.
        4    1    3    3  502    0 -0.42921043523E+03  0.59325730001E+02 -0.18496097969E+04  0.18996839615E+04  0.12699999809E+01 0.  1.
       -4    1    3    3    0  502  0.42921043523E+03 -0.59325730001E+02  0.58059626432E+03  0.72445481225E+03  0.12699999809E+01 0. -1.
</event>
<event>
 5   0  0.3338758E-06  0.2299710E+04  0.7818609E-02  0.8478035E-01
       -1   -1    0    0    0  501  0.00000000000E+00  0.00000000000E+00  0.83516308719E+03  0.83516308720E+03  0.50400001928E-02 0. -1.
        1   -1    0    0  501    0  0.00000000000E+00  0.00000000000E+00 -0.15831243336E+04  0.15831243336E+04  0.50400001928E-02 0.  1.
    10030    2    1    2    0    0  0.00000000000E+00  0.00000000000E+00 -0.74796124645E+03  0.24182874208E+04  0.22997104217E+04 0.  0.
        5    1    3    3  502    0  0.48165282550E+03  0.69401961437E+03 -0.11942609351E+04  0.14628513050E+04  0.46999998093E+01 0.  1.
       -5    1    3    3    0  502 -0.48165282550E+03 -0.69401961437E+03  0.44629968862E+03  0.95543611587E+03  0.46999998093E+01 0. -1.
</event>
<event>
 5   0  0.3184492E-06  0.2299723E+04  0.7818609E-02  0.8478030E-01
        1   -1    0    0  501    0  0.00000000000E+00  0.00000000000E+00  0.88968785278E+03  0.88968785279E+03  0.50400001928E-02 0. -1.
       -1   -1    0    0    0  501  0.00000000000E+00  0.00000000000E+00 -0.14861182928E+04  0.14861182928E+04  0.50400001928E-02 0.  1.
    10030    2    1    2    0    0  0.00000000000E+00  0.00000000000E+00 -0.59643043999E+03  0.23758061456E+04  0.22997229337E+04 0.  0.
        1    1    3    3  502    0  0.36594452057E+03  0.15939303900E+03  0.81582065112E+03  0.90823172585E+03  0.50400001928E-02 0. -1.
       -1    1    3    3    0  502 -0.36594452057E+03 -0.15939303900E+03 -0.14122510911E+04  0.14675744197E+04  0.50400001928E-02 0.  1.
</event>
<event>
 5   0  0.3184492E-06  0.2301636E+04  0.7818609E-02  0.8477276E-01
        1   -1    0    0  501    0  0.00000000000E+00  0.00000000000E+00  0.16265526476E+04  0.16265526476E+04  0.50400001928E-02 0. -1.
       -1   -1    0    0    0  501  0.00000000000E+00  0.00000000000E+00 -0.81422614526E+03  0.81422614527E+03  0.50400001928E-02 0.  1.
    10030    2    1    2    0    0  0.00000000000E+00  0.00000000000E+00  0.81232650230E+03  0.24407787928E+04  0.23016356726E+04 0.  0.
        1    1    3    3  502    0 -0.29581389740E+03  0.14996560478E+03  0.15747749874E+04  0.16093202930E+04  0.50400001928E-02 0. -1.
       -1    1    3    3    0  502  0.29581389740E+03 -0.14996560478E+03 -0.76244848509E+03  0.83145849984E+03  0.50400001928E-02 0.  1.
</event>
<event>
 5   0  0.7044981E-06  0.2302734E+04  0.7818609E-02  0.8476844E-01
        2   -1    0    0  501    0  0.00000000000E+00  0.00000000000E+00  0.19081424531E+04  0.19081424531E+04  0.25500000920E-02 0.  1.
       -2   -1    0    0    0  501  0.00000000000E+00  0.00000000000E+00 -0.69473104461E+03  0.69473104461E+03  0.25500000920E-02 0. -1.
    10030    2    1    2    0    0  0.00000000000E+00  0.00000000000E+00  0.12134114085E+04  0.26028734977E+04  0.23027338532E+04 0.  0.
        4    1    3    3  502    0 -0.35524095664E+03  0.59053520961E+03 -0.43585576734E+03  0.81541390342E+03  0.12699999809E+01 0. -1.
       -4    1    3    3    0  502  0.35524095664E+03 -0.59053520961E+03  0.16492671758E+04  0.17874595943E+04  0.12699999809E+01 0.  1.
</event>
<event>
 5   0  0.3226427E-06  0.2303466E+04  0.7818609E-02  0.8476556E-01
       -1   -1    0    0    0  501  0.00000000000E+00  0.00000000000E+00  0.11226787195E+04  0.11226787195E+04  0.50400001928E-02 0. -1.
        1   -1    0    0  501    0  0.00000000000E+00  0.00000000000E+00 -0.11815390051E+04  0.11815390051E+04  0.50400001928E-02 0.  1.
    10030    2    1    2    0    0  0.00000000000E+00  0.00000000000E+00 -0.58860285611E+02  0.23042177246E+04  0.23034658211E+04 0.  0.
        4    1    3    3  502    0 -0.10185050074E+04  0.43300698091E+03 -0.34834385278E+03  0.11602553807E+04  0.12699999809E+01 0.  1.
       -4    1    3    3    0  502  0.10185050074E+04 -0.43300698091E+03  0.28948356717E+03  0.11439623439E+04  0.12699999809E+01 0. -1.
</event>
<event>
 5   0  0.3184492E-06  0.2319125E+04  0.7818609E-02  0.8470418E-01
       -1   -1    0    0    0  501  0.00000000000E+00  0.00000000000E+00  0.82777220435E+03  0.82777220436E+03  0.50400001928E-02 0.  1.
        1   -1    0    0  501    0  0.00000000000E+00  0.00000000000E+00 -0.16243423607E+04  0.16243423607E+04  0.50400001928E-02 0. -1.
    10030    2    1    2    0    0  0.00000000000E+00  0.00000000000E+00 -0.79657015635E+03  0.24521145651E+04  0.23191252287E+04 0.  0.
        1    1    3    3  502    0  0.96863791742E+03 -0.39320515961E+03 -0.92876841481E+03  0.13983849545E+04  0.50400001928E-02 0. -1.
       -1    1    3    3    0  502 -0.96863791742E+03  0.39320515961E+03  0.13219825846E+03  0.10537296106E+04  0.50400001928E-02 0.  1.
</event>
<event>
 5   0  0.3238713E-06  0.2298424E+04  0.7818609E-02  0.8478543E-01
        1   -1    0    0  501    0  0.00000000000E+00  0.00000000000E+00  0.78108144140E+03  0.78108144141E+03  0.50400001928E-02 0. -1.
       -1   -1    0    0    0  501  0.00000000000E+00  0.00000000000E+00 -0.16908450238E+04  0.16908450238E+04  0.50400001928E-02 0.  1.
    10030    2    1    2    0    0  0.00000000000E+00  0.00000000000E+00 -0.90976358237E+03  0.24719264652E+04  0.22984235192E+04 0.  0.
        3    1    3    3  502    0 -0.56366123516E+03  0.68224291563E+03 -0.12433825345E+04  0.15261616956E+04  0.10100000352E+00 0.  1.
       -3    1    3    3    0  502  0.56366123516E+03 -0.68224291563E+03  0.33361895210E+03  0.94576476957E+03  0.10100000352E+00 0. -1.
</event>
<event>
 5   0  0.3238713E-06  0.2298774E+04  0.7818609E-02  0.8478405E-01
        1   -1    0    0  501    0  0.00000000000E+00  0.00000000000E+00  0.23233996931E+04  0.23233996931E+04  0.50400001928E-02 0.  1.
       -1   -1    0    0    0  501  0.00000000000E+00  0.00000000000E+00 -0.56860230375E+03  0.56860230377E+03  0.50400001928E-02 0. -1.
    10030    2    1    2    0    0  0.00000000000E+00  0.00000000000E+00  0.17547973893E+04  0.28920019968E+04  0.22987739498E+04 0.  0.
        3    1    3    3  502    0  0.25055031302E+03 -0.11147146299E+04  0.71963219003E+03  0.13502720706E+04  0.10100000352E+00 0. -1.
       -3    1    3    3    0  502 -0.25055031302E+03  0.11147146299E+04  0.10351651993E+04  0.15417299263E+04  0.10100000352E+00 0.  1.
</event>
<event>
 5   0  0.7044981E-06  0.2310649E+04  0.7818609E-02  0.8473734E-01
       -2   -1    0    0    0  501  0.00000000000E+00  0.00000000000E+00  0.57192346427E+03  0.57192346427E+03  0.25500000920E-02 0. -1.
        2   -1    0    0  501    0  0.00000000000E+00  0.00000000000E+00 -0.23338353006E+04  0.23338353006E+04  0.25500000920E-02 0.  1.
    10030    2    1    2    0    0  0.00000000000E+00  0.00000000000E+00 -0.17619118363E+04  0.29057587648E+04  0.23106494067E+04 0.  0.
        4    1    3    3  502    0  0.25400745642E+03  0.11272543682E+03 -0.22911781922E+04  0.23079700894E+04  0.12699999809E+01 0.  1.
       -4    1    3    3    0  502 -0.25400745642E+03 -0.11272543682E+03  0.52926635596E+03  0.59778867543E+03  0.12699999809E+01 0. -1.
</event>
<event>
 5   0  0.3195296E-06  0.2305649E+04  0.7818609E-02  0.8475697E-01
       -1   -1    0    0    0  501  0.00000000000E+00  0.00000000000E+00  0.56309568270E+03  0.56309568273E+03  0.50400001928E-02 0.  1.
        1   -1    0    0  501    0  0.00000000000E+00  0.00000000000E+00 -0.23601744127E+04  0.23601744127E+04  0.50400001928E-02 0. -1.
    10030    2    1    2    0    0  0.00000000000E+00  0.00000000000E+00 -0.17970787300E+04  0.29232700954E+04  0.23056487349E+04 0.  0.
        2    1    3    3  502    0  0.10622377598E+04 -0.34101171115E+03 -0.53027519225E+03  0.12352448442E+04  0.25500000920E-02 0.  1.
       -2    1    3    3    0  502 -0.10622377598E+04  0.34101171115E+03 -0.12668035377E+04  0.16880252512E+04  0.25500000920E-02 0. -1.
</event>
<event>
 5   0  0.3226427E-06  0.2301320E+04  0.7818609E-02  0.8477401E-01
        1   -1    0    0  501    0  0.00000000000E+00  0.00000000000E+00  0.10869613907E+04  0.10869613907E+04  0.50400001928E-02 0. -1.
       -1   -1    0    0    0  501  0.00000000000E+00  0.00000000000E+00 -0.12180919326E+04  0.12180919326E+04  0.50400001928E-02 0.  1.
    10030    2    1    2    0    0  0.00000000000E+00  0.00000000000E+00 -0.13113054191E+03  0.23050533233E+04  0.23013204045E+04 0.  0.
        4    1    3    3  502    0 -0.51059771732E+03 -0.57551713010E+03  0.79144361013E+03  0.11037728919E+04  0.12699999809E+01 0. -1.
       -4    1    3    3    0  502  0.51059771732E+03  0.57551713010E+03 -0.92257415204E+03  0.12012804314E+04  0.12699999809E+01 0.  1.
</event>
<event>
 5   0  0.7044981E-06  0.2297687E+04  0.7818609E-02  0.8478834E-01
       -2   -1    0    0    0  501  0.00000000000E+00  0.00000000000E+00  0.74298456695E+03  0.74298456696E+03  0.25500000920E-02 0. -1.
        2   -1    0    0  501    0  0.00000000000E+00  0.00000000000E+00 -0.17764045380E+04  0.17764045380E+04  0.25500000920E-02 0.  1.
    10030    2    1    2    0    0  0.00000000000E+00  0.00000000000E+00 -0.10334199710E+04  0.25193891050E+04  0.22976867988E+04 0.  0.
        4    1    3    3  502    0  0.84921860613E+03 -0.41022374090E+03  0.20262696278E+03  0.96463208403E+03  0.12699999809E+01 0. -1.
       -4    1    3    3    0  502 -0.84921860613E+03  0.41022374090E+03 -0.12360469338E+04  0.15547570209E+04  0.12699999809E+01 0.  1.
</event>
<event>
 5   0  0.7497344E-06  0.2298523E+04  0.7818609E-02  0.8478504E-01
        2   -1    0    0  501    0  0.00000000000E+00  0.00000000000E+00  0.14089356565E+04  0.14089356565E+04  0.25500000920E-02 0.  1.
       -2   -1    0    0    0  501  0.00000000000E+00  0.00000000000E+00 -0.93744672598E+03  0.93744672599E+03  0.25500000920E-02 0. -1.
    10030    2    1    2    0    0  0.00000000000E+00  0.00000000000E+00  0.47148893049E+03  0.23463823825E+04  0.22985231069E+04 0.  0.
        5    1    3    3  502    0 -0.91286089547E+03 -0.66310101651E+03  0.45884027868E+03  0.12180207157E+04  0.46999998093E+01 0.  1.
       -5    1    3    3    0  502  0.91286089547E+03  0.66310101651E+03  0.12648651807E+02  0.11283616667E+04  0.46999998093E+01 0. -1.
</event>
<event>
 5   0  0.3226427E-06  0.2286347E+04  0.7818609E-02  0.8483324E-01
       -1   -1    0    0    0  501  0.00000000000E+00  0.00000000000E+00  0.99113463055E+03  0.99113463056E+03  0.50400001928E-02 0. -1.
        1   -1    0    0  501    0  0.00000000000E+00  0.00000000000E+00 -0.13185346981E+04  0.13185346981E+04  0.50400001928E-02 0.  1.
    10030    2    1    2    0    0  0.00000000000E+00  0.00000000000E+00 -0.32740006750E+03  0.23096693286E+04  0.22863467811E+04 0.  0.
        4    1    3    3  502    0  0.18999515760E+03  0.44149110737E+03  0.88410330554E+03  0.10063065266E+04  0.12699999809E+01 0. -1.
       -4    1    3    3    0  502 -0.18999515760E+03 -0.44149110737E+03 -0.12115033730E+04  0.13033628020E+04  0.12699999809E+01 0.  1.
</event>
<event>
 5   0  0.7044981E-06  0.2296665E+04  0.7818609E-02  0.8479237E-01
        2   -1    0    0  501    0  0.00000000000E+00  0.00000000000E+00  0.97312789930E+03  0.97312789930E+03  0.25500000920E-02 0.  1.
       -2   -1    0    0    0  501  0.00000000000E+00  0.00000000000E+00 -0.13550809904E+04  0.13550809904E+04  0.25500000920E-02 0. -1.
    10030    2    1    2    0    0  0.00000000000E+00  0.00000000000E+00 -0.38195309109E+03  0.23282088897E+04  0.22966646404E+04 0.  0.
        4    1    3    3  502    0 -0.53749476404E+03 -0.74931659553E+03  0.50273924452E+03  0.10502972639E+04  0.12699999809E+01 0.  1.
       -4    1    3    3    0  502  0.53749476404E+03  0.74931659553E+03 -0.88469233561E+03  0.12779116258E+04  0.12699999809E+01 0. -1.
</event>
<event>
 5   0  0.7348107E-06  0.2297845E+04  0.7818609E-02  0.8478771E-01
       -2   -1    0    0    0  501  0.00000000000E+00  0.00000000000E+00  0.91360961311E+03  0.91360961311E+03  0.25500000920E-02 0.  1.
        2   -1    0    0  501    0  0.00000000000E+00  0.00000000000E+00 -0.14448430552E+04  0.14448430552E+04  0.25500000920E-02 0. -1.
    10030    2    1    2    0    0  0.00000000000E+00  0.00000000000E+00 -0.53123344205E+03  0.23584526683E+04  0.22978446463E+04 0.  0.
        3    1    3    3  502    0  0.40084392366E+03 -0.17932248000E+03  0.82407859140E+03  0.93377617124E+03  0.10100000352E+00 0.  1.
       -3    1    3    3    0  502 -0.40084392366E+03  0.17932248000E+03 -0.13553120335E+04  0.14246764970E+04  0.10100000352E+00 0. -1.
</event>
<event>
 5   0  0.3338758E-06  0.2292188E+04  0.7818609E-02  0.8481008E-01
       -1   -1    0    0    0  501  0.00000000000E+00  0.00000000000E+00  0.14918215836E+04  0.14918215836E+04  0.50400001928E-02 0.  1.
        1   -1    0    0  501    0  0.00000000000E+00  0.00000000000E+00 -0.88048831310E+03  0.88048831312E+03  0.50400001928E-02 0. -1.
    10030    2    1    2    0    0  0.00000000000E+00  0.00000000000E+00  0.61133327045E+03  0.23723098967E+04  0.22921880111E+04 0.  0.
        5    1    3    3  502    0 -0.41019652476E+03 -0.10683748343E+04  0.36966167065E+03  0.12026461725E+04  0.46999998093E+01 0. -1.
       -5    1    3    3    0  502  0.41019652476E+03  0.10683748343E+04  0.24167159980E+03  0.11696637242E+04  0.46999998093E+01 0.  1.
</event>
<event>
 5   0  0.7003852E-06  0.2296896E+04  0.7818609E-02  0.8479146E-01
        2   -1    0    0  501    0  0.00000000000E+00  0.00000000000E+00  0.19724143302E+04  0.19724143302E+04  0.25500000920E-02 0. -1.
       -2   -1    0    0    0  501  0.00000000000E+00  0.00000000000E+00 -0.66868927120E+03  0.66868927120E+03  0.25500000920E-02 0.  1.
    10030    2    1    2    0    0  0.00000000000E+00  0.00000000000E+00  0.13037250590E+04  0.26411036014E+04  0.22968955579E+04 0.  0.
        2    1    3    3  502    0 -0.46727698026E+03  0.10194462059E+04  0.93658639147E+03  0.14610997268E+04  0.25500000920E-02 0. -1.
       -2    1    3    3    0  502  0.46727698026E+03 -0.10194462059E+04  0.36713866753E+03  0.11800038746E+04  0.25500000920E-02 0.  1.
</event>
<event>
 5   0  0.2519625E-06  0.2303620E+04  0.7818609E-02  0.8476495E-01
        3   -1    0    0  501    0  0.00000000000E+00  0.00000000000E+00  0.11149221747E+04  0.11149221793E+04  0.10100000352E+00 0.  1.
       -3   -1    0    0    0  501  0.00000000000E+00  0.00000000000E+00 -0.11899182415E+04  0.11899182458E+04  0.10100000352E+00 0. -1.
    10030    2    1    2    0    0  0.00000000000E+00  0.00000000000E+00 -0.74996066738E+02  0.23048404251E+04  0.23036199719E+04 0.  0.
        4    1    3    3  502    0  0.27982682038E+03  0.85771223479E+03 -0.75390203478E+03  0.11757309293E+04  0.12699999809E+01 0. -1.
       -4    1    3    3    0  502 -0.27982682038E+03 -0.85771223479E+03  0.67890596804E+03  0.11291094958E+04  0.12699999809E+01 0.  1.
</event>
<event>
 5   0  0.7003852E-06  0.2294761E+04  0.7818609E-02  0.8479990E-01
       -2   -1    0    0    0  501  0.00000000000E+00  0.00000000000E+00  0.12623874165E+04  0.12623874165E+04  0.25500000920E-02 0.  1.
        2   -1    0    0  501    0  0.00000000000E+00  0.00000000000E+00 -0.10428506798E+04  0.10428506798E+04  0.25500000920E-02 0. -1.
    10030    2    1    2    0    0  0.00000000000E+00  0.00000000000E+00  0.21953673668E+03  0.23052380962E+04  0.22947606197E+04 0.  0.
        2    1    3    3  502    0 -0.56116569184E+03  0.45119792372E+03  0.10071527472E+04  0.12380804321E+04  0.25500000920E-02 0.  1.
       -2    1    3    3    0  502  0.56116569184E+03 -0.45119792372E+03 -0.78761601055E+03  0.10671576641E+04  0.25500000920E-02 0. -1.
</event>
<event>
 5   0  0.3238713E-06  0.2298249E+04  0.7818609E-02  0.8478612E-01
       -1   -1    0    0    0  501  0.00000000000E+00  0.00000000000E+00  0.49008371816E+03  0.49008371819E+03  0.50400001928E-02 0.  1.
        1   -1    0    0  501    0  0.00000000000E+00  0.00000000000E+00 -0.26944107032E+04  0.26944107032E+04  0.50400001928E-02 0. -1.
    10030    2    1    2    0    0  0.00000000000E+00  0.00000000000E+00 -0.22043269851E+04  0.31844944214E+04  0.22982487383E+04 0.  0.
        3    1    3    3  502    0 -0.14124309607E+03 -0.11395765940E+04 -0.10417279992E+04  0.15504133837E+04  0.10100000352E+00 0.  1.
       -3    1    3    3    0  502  0.14124309607E+03  0.11395765940E+04 -0.11625989859E+04  0.16340810378E+04  0.10100000352E+00 0. -1.
</event>
<event>
 5   0  0.7348107E-06  0.2286464E+04  0.7818609E-02  0.8483277E-01
       -2   -1    0    0    0  501  0.00000000000E+00  0.00000000000E+00  0.10377830030E+04  0.10377830030E+04  0.25500000920E-02 0. -1.
        2   -1    0    0  501    0  0.00000000000E+00  0.00000000000E+00 -0.12593952446E+04  0.12593952446E+04  0.25500000920E-02 0.  1.
    10030    2    1    2    0    0  0.00000000000E+00  0.00000000000E+00 -0.22161224158E+03  0.22971782477E+04  0.22864636266E+04 0.  0.
        3    1    3    3  502    0 -0.65409357815E+03  0.18719876804E+03 -0.10338590891E+04  0.12376374324E+04  0.10100000352E+00 0.  1.
       -3    1    3    3    0  502  0.65409357815E+03 -0.18719876804E+03  0.81224684753E+03  0.10595408153E+04  0.10100000352E+00 0. -1.
</event>
<event>
 5   0  0.3226427E-06  0.2299460E+04  0.7818609E-02  0.8478134E-01
       -1   -1    0    0    0  501  0.00000000000E+00  0.00000000000E+00  0.10529778259E+04  0.10529778259E+04  0.50400001928E-02 0. -1.
        1   -1    0    0  501    0  0.00000000000E+00  0.00000000000E+00 -0.12553722703E+04  0.12553722703E+04  0.50400001928E-02 0.  1.
    10030    2    1    2    0    0  0.00000000000E+00  0.00000000000E+00 -0.20239444439E+03  0.23083500962E+04  0.22994600792E+04 0.  0.
        4    1    3    3  502    0 -0.57334914368E+03  0.59457749788E+02 -0.10998362103E+04  0.12417349826E+04  0.12699999809E+01 0.  1.
       -4    1    3    3    0  502  0.57334914368E+03 -0.59457749788E+02  0.89744176591E+03  0.10666151137E+04  0.12699999809E+01 0. -1.
</event>
<event>
 5   0  0.3184492E-06  0.2302941E+04  0.7818609E-02  0.8476763E-01
        1   -1    0    0  501    0  0.00000000000E+00  0.00000000000E+00  0.15586957510E+04  0.15586957510E+04  0.50400001928E-02 0.  1.
       -1   -1    0    0    0  501  0.00000000000E+00  0.00000000000E+00 -0.85063668137E+03  0.85063668138E+03  0.50400001928E-02 0. -1.
    10030    2    1    2    0    0  0.00000000000E+00  0.00000000000E+00  0.70805906960E+03  0.24093324324E+04  0.23029405384E+04 0.  0.
        1    1    3    3  502    0  0.12604220472E+03 -0.52681432414E+03  0.14170739769E+04  0.15170756822E+04  0.50400001928E-02 0.  1.
       -1    1    3    3    0  502 -0.12604220472E+03  0.52681432414E+03 -0.70901490728E+03  0.89225675019E+03  0.50400001928E-02 0. -1.
</event>
<event>
 5   0  0.7003852E-06  0.2291853E+04  0.7818609E-02  0.8481140E-01
        2   -1    0    0  501    0  0.00000000000E+00  0.00000000000E+00  0.95556501692E+03  0.95556501692E+03  0.25500000920E-02 0.  1.
       -2   -1    0    0    0  501  0.00000000000E+00  0.00000000000E+00 -0.13742108048E+04  0.13742108048E+04  0.25500000920E-02 0. -1.
    10030    2    1    2    0    0  0.00000000000E+00  0.00000000000E+00 -0.41864578792E+03  0.23297758218E+04  0.22918531986E+04 0.  0.
        2    1    3    3  502    0  0.31468695723E+03  0.11004572699E+04 -0.15259915854E+03  0.11546950191E+04  0.25500000920E-02 0. -1.
       -2    1    3    3    0  502 -0.31468695723E+03 -0.11004572699E+04 -0.26604662937E+03  0.11750808027E+04  0.25500000920E-02 0.  1.
</event>
<event>
 5   0  0.3238713E-06  0.2304638E+04  0.7818609E-02  0.8476095E-01
        1   -1    0    0  501    0  0.00000000000E+00  0.00000000000E+00  0.18948761615E+04  0.18948761616E+04  0.50400001928E-02 0.  1.
       -1   -1    0    0    0  501  0.00000000000E+00  0.00000000000E+00 -0.70075262262E+03  0.70075262264E+03  0.50400001928E-02 0. -1.
    10030    2    1    2    0    0  0.00000000000E+00  0.00000000000E+00  0.11941235389E+04  0.25956287842E+04  0.23046383142E+04 0.  0.
        3    1    3    3  502    0 -0.20823428786E+03 -0.61364312799E+03  0.16702196049E+04  0.17915225217E+04  0.10100000352E+00 0.  1.
       -3    1    3    3    0  502  0.20823428786E+03  0.61364312799E+03 -0.47609606592E+03  0.80410626248E+03  0.10100000352E+00 0. -1.
</event>
<event>
 5   0  0.7044981E-06  0.2297619E+04  0.7818609E-02  0.8478860E-01
       -2   -1    0    0    0  501  0.00000000000E+00  0.00000000000E+00  0.91231695241E+03  0.91231695242E+03  0.25500000920E-02 0.  1.
        2   -1    0    0  501    0  0.00000000000E+00  0.00000000000E+00 -0.14466063406E+04  0.14466063406E+04  0.25500000920E-02 0. -1.
    10030    2    1    2    0    0  0.00000000000E+00  0.00000000000E+00 -0.53428938820E+03  0.23589232930E+04  0.22976191921E+04 0.  0.
        4    1    3    3  502    0 -0.87621661059E+01 -0.41158209047E+03  0.83398519201E+03  0.93005887241E+03  0.12699999809E+01 0.  1.
       -4    1    3    3    0  502  0.87621661059E+01  0.41158209047E+03 -0.13682745802E+04  0.14288644206E+04  0.12699999809E+01 0. -1.
</event>
<event>
 5   0  0.7348107E-06  0.2299689E+04  0.7818609E-02  0.8478044E-01
        2   -1    0    0  501    0  0.00000000000E+00  0.00000000000E+00  0.15261887911E+04  0.15261887911E+04  0.25500000920E-02 0. -1.
       -2   -1    0    0    0  501  0.00000000000E+00  0.00000000000E+00 -0.86630345810E+03  0.86630345810E+03  0.25500000920E-02 0.  1.
    10030    2    1    2    0    0  0.00000000000E+00  0.00000000000E+00  0.65988533300E+03  0.23924922492E+04  0.22996892203E+04 0.  0.
        3    1    3    3  502    0 -0.64131172155E+02  0.89658753850E+03  0.10759288520E+04  0.14020003303E+04  0.10100000352E+00 0. -1.
       -3    1    3    3    0  502  0.64131172155E+02 -0.89658753850E+03 -0.41604351901E+03  0.99049191887E+03  0.10100000352E+00 0.  1.
</event>
<event>
 5   0  0.7497344E-06  0.2298392E+04  0.7818609E-02  0.8478555E-01
        2   -1    0    0  501    0  0.00000000000E+00  0.00000000000E+00  0.97243396393E+03  0.97243396393E+03  0.25500000920E-02 0.  1.
       -2   -1    0    0    0  501  0.00000000000E+00  0.00000000000E+00 -0.13580889030E+04  0.13580889030E+04  0.25500000920E-02 0. -1.
    10030    2    1    2    0    0  0.00000000000E+00  0.00000000000E+00 -0.38565493907E+03  0.23305228669E+04  0.22983922862E+04 0.  0.
        5    1    3    3  502    0 -0.93586489059E+03  0.13222023987E+03 -0.85565096633E+03  0.12749454700E+04  0.46999998093E+01 0.  1.
       -5    1    3    3    0  502  0.93586489059E+03 -0.13222023987E+03  0.46999602727E+03  0.10555773969E+04  0.46999998093E+01 0. -1.
</event>
<event>
 5   0  0.3226427E-06  0.2300222E+04  0.7818609E-02  0.8477834E-01
        1   -1    0    0  501    0  0.00000000000E+00  0.00000000000E+00  0.12084782212E+04  0.12084782212E+04  0.50400001928E-02 0.  1.
       -1   -1    0    0    0  501  0.00000000000E+00  0.00000000000E+00 -0.10945626780E+04  0.10945626780E+04  0.50400001928E-02 0. -1.
    10030    2    1    2    0    0  0.00000000000E+00  0.00000000000E+00  0.11391554321E+03  0.23030408992E+04  0.23002218659E+04 0.  0.
        4    1    3    3  502    0  0.73872752858E+03 -0.33147082992E+03  0.87475881954E+03  0.11919714249E+04  0.12699999809E+01 0.  1.
       -4    1    3    3    0  502 -0.73872752858E+03  0.33147082992E+03 -0.76084327633E+03  0.11110694743E+04  0.12699999809E+01 0. -1.
</event>
<event>
 5   0  0.3238713E-06  0.2299456E+04  0.7818609E-02  0.8478135E-01
       -1   -1    0    0    0  501  0.00000000000E+00  0.00000000000E+00  0.10252172863E+04  0.10252172863E+04  0.50400001928E-02 0. -1.
        1   -1    0    0  501    0  0.00000000000E+00  0.00000000000E+00 -0.12893607467E+04  0.12893607467E+04  0.50400001928E-02 0.  1.
    10030    2    1    2    0    0  0.00000000000E+00  0.00000000000E+00 -0.26414346040E+03  0.23145780330E+04  0.22994563929E+04 0.  0.
        3    1    3    3  502    0  0.11094280294E+04 -0.29454971479E+03 -0.19796080046E+03  0.11648083858E+04  0.10100000352E+00 0. -1.
       -3    1    3    3    0  502 -0.11094280294E+04  0.29454971479E+03 -0.66182659948E+02  0.11497696472E+04  0.10100000352E+00 0.  1.
</event>
<event>
 5   0  0.3338758E-06  0.2298325E+04  0.7818609E-02  0.8478582E-01
        1   -1    0    0  501    0  0.00000000000E+00  0.00000000000E+00  0.21798573770E+04  0.21798573770E+04  0.50400001928E-02 0. -1.
       -1   -1    0    0    0  501  0.00000000000E+00  0.00000000000E+00 -0.60580796984E+03  0.60580796986E+03  0.50400001928E-02 0.  1.
    10030    2    1    2    0    0  0.00000000000E+00  0.00000000000E+00  0.15740494072E+04  0.27856653469E+04  0.22983254531E+04 0.  0.
        5    1    3    3  502    0 -0.84373192194E+01  0.21930305335E+03 -0.58015994770E+03  0.62030046951E+03  0.46999998093E+01 0.  1.
       -5    1    3    3    0  502  0.84373192194E+01 -0.21930305335E+03  0.21542093549E+04  0.21653648774E+04  0.46999998093E+01 0. -1.
</event>
<event>
 5   0  0.7003852E-06  0.2302331E+04  0.7818609E-02  0.8477003E-01
        2   -1    0    0  501    0  0.00000000000E+00  0.00000000000E+00  0.28643707603E+04  0.28643707603E+04  0.25500000920E-02 0. -1.
       -2   -1    0    0    0  501  0.00000000000E+00  0.00000000000E+00 -0.46264329250E+03  0.46264329251E+03  0.25500000920E-02 0.  1.
    10030    2    1    2    0    0  0.00000000000E+00  0.00000000000E+00  0.24017274678E+04  0.33270140528E+04  0.23023309228E+04 0.  0.
        2    1    3    3  502    0 -0.29851324630E+03 -0.51535754837E+03  0.26244369760E+04  0.26911657329E+04  0.25500000920E-02 0. -1.
       -2    1    3    3    0  502  0.29851324630E+03  0.51535754837E+03 -0.22270950820E+03  0.63584831991E+03  0.25500000920E-02 0.  1.
</event>
<event>
 5   0  0.7044981E-06  0.2307607E+04  0.7818609E-02  0.8474928E-01
        2   -1    0    0  501    0  0.00000000000E+00  0.00000000000E+00  0.15539817176E+04  0.15539817176E+04  0.25500000920E-02 0.  1.
       -2   -1    0    0    0  501  0.00000000000E+00  0.00000000000E+00 -0.85667804163E+03  0.85667804164E+03  0.25500000920E-02 0. -1.
    10030    2    1    2    0    0  0.00000000000E+00  0.00000000000E+00  0.69730367597E+03  0.24106597592E+04  0.23076065649E+04 0.  0.
        4    1    3    3  502    0  0.76490934594E+03 -0.29759349430E+03 -0.49849576323E+03  0.96028528793E+03  0.12699999809E+01 0. -1.
       -4    1    3    3    0  502 -0.76490934594E+03  0.29759349430E+03  0.11957994392E+04  0.14503744713E+04  0.12699999809E+01 0.  1.
</event>
<event>
 5   0  0.7497344E-06  0.2292497E+04  0.7818609E-02  0.8480885E-01
       -2   -1    0    0    0  501  0.00000000000E+00  0.00000000000E+00  0.89533808985E+03  0.89533808985E+03  0.25500000920E-02 0. -1.
        2   -1    0    0  501    0  0.00000000000E+00  0.00000000000E+00 -0.14674747281E+04  0.14674747281E+04  0.25500000920E-02 0.  1.
    10030    2    1    2    0    0  0.00000000000E+00  0.00000000000E+00 -0.57213663826E+03  0.23628128180E+04  0.22924973457E+04 0.  0.
        5    1    3    3  502    0  0.85054571802E+03 -0.74358381724E+03 -0.48570769784E+03  0.12297475226E+04  0.46999998093E+01 0.  1.
       -5    1    3    3    0  502 -0.85054571802E+03  0.74358381724E+03 -0.86428940412E+02  0.11330652953E+04  0.46999998093E+01 0. -1.
</event>
<event>
 5   0  0.7044981E-06  0.2302431E+04  0.7818609E-02  0.8476963E-01
        2   -1    0    0  501    0  0.00000000000E+00  0.00000000000E+00  0.18591761040E+04  0.18591761040E+04  0.25500000920E-02 0.  1.
       -2   -1    0    0    0  501  0.00000000000E+00  0.00000000000E+00 -0.71284131472E+03  0.71284131472E+03  0.25500000920E-02 0. -1.
    10030    2    1    2    0    0  0.00000000000E+00  0.00000000000E+00  0.11463347893E+04  0.25720174187E+04  0.23024313569E+04 0.  0.
        4    1    3    3  502    0 -0.14013902655E+03  0.11287854990E+04  0.37490315298E+03  0.11976433678E+04  0.12699999809E+01 0.  1.
       -4    1    3    3    0  502  0.14013902655E+03 -0.11287854990E+04  0.77143163628E+03  0.13743740509E+04  0.12699999809E+01 0. -1.
</event>
<event>
 5   0  0.7003852E-06  0.2289158E+04  0.7818609E-02  0.8482208E-01
        2   -1    0    0  501    0  0.00000000000E+00  0.00000000000E+00  0.16843031097E+04  0.16843031097E+04  0.25500000920E-02 0. -1.
       -2   -1    0    0    0  501  0.00000000000E+00  0.00000000000E+00 -0.77780600108E+03  0.77780600108E+03  0.25500000920E-02 0.  1.
    10030    2    1    2    0    0  0.00000000000E+00  0.00000000000E+00  0.90649710866E+03  0.24621091108E+04  0.22891579818E+04 0.  0.
        2    1    3    3  502    0  0.76841307810E+03  0.58526976121E+03  0.11136952147E+04  0.14742172103E+04  0.25500000920E-02 0.  1.
       -2    1    3    3    0  502 -0.76841307810E+03 -0.58526976121E+03 -0.20719810600E+03  0.98789190052E+03  0.25500000920E-02 0. -1.
</event>
<event>
 5   0  0.7497344E-06  0.2301149E+04  0.7818609E-02  0.8477468E-01
       -2   -1    0    0    0  501  0.00000000000E+00  0.00000000000E+00  0.10048143194E+04  0.10048143194E+04  0.25500000920E-02 0.  1.
        2   -1    0    0  501    0  0.00000000000E+00  0.00000000000E+00 -0.13174786186E+04  0.13174786186E+04  0.25500000920E-02 0. -1.
    10030    2    1    2    0    0  0.00000000000E+00  0.00000000000E+00 -0.31266429922E+03  0.23222929380E+04  0.23011487404E+04 0.  0.
        5    1    3    3  502    0 -0.10442186303E+04  0.28844676984E+03 -0.54745645134E+03  0.12138058918E+04  0.46999998093E+01 0. -1.
       -5    1    3    3    0  502  0.10442186303E+04 -0.28844676984E+03  0.23479215213E+03  0.11084870462E+04  0.46999998093E+01 0.  1.
</event>
<event>
 5   0  0.7497344E-06  0.2298587E+04  0.7818609E-02  0.8478478E-01
        2   -1    0    0  501    0  0.00000000000E+00  0.00000000000E+00  0.22177297680E+04  0.22177297680E+04  0.25500000920E-02 0. -1.
       -2   -1    0    0    0  501  0.00000000000E+00  0.00000000000E+00 -0.59559802012E+03  0.59559802013E+03  0.25500000920E-02 0.  1.
    10030    2    1    2    0    0  0.00000000000E+00  0.00000000000E+00  0.16221317479E+04  0.28133277881E+04  0.22985869216E+04 0.  0.
        5    1    3    3  502    0 -0.46513034102E+02  0.63543485577E+03  0.19817754572E+04  0.20816812847E+04  0.46999998093E+01 0. -1.
       -5    1    3    3    0  502  0.46513034102E+02 -0.63543485577E+03 -0.35964370935E+03  0.73164650341E+03  0.46999998093E+01 0.  1.
</event>
<event>
 5   0  0.3195296E-06  0.2321378E+04  0.7818609E-02  0.8469539E-01
        1   -1    0    0  501    0  0.00000000000E+00  0.00000000000E+00  0.16397124983E+04  0.16397124983E+04  0.50400001928E-02 0.  1.
       -1   -1    0    0    0  501  0.00000000000E+00  0.00000000000E+00 -0.82160702707E+03  0.82160702708E+03  0.50400001928E-02 0. -1.
    10030    2    1    2    0    0  0.00000000000E+00  0.00000000000E+00  0.81810547119E+03  0.24613195253E+04  0.23213783069E+04 0.  0.
        2    1    3    3  502    0  0.75993955526E+03  0.10656152338E+03 -0.51426858034E+03  0.92376168932E+03  0.25500000920E-02 0. -1.
       -2    1    3    3    0  502 -0.75993955526E+03 -0.10656152338E+03  0.13323740515E+04  0.15375578360E+04  0.25500000920E-02 0.  1.
</event>
<event>
 5   0  0.3195296E-06  0.2301842E+04  0.7818609E-02  0.8477195E-01
       -1   -1    0    0    0  501  0.00000000000E+00  0.00000000000E+00  0.13533184858E+04  0.13533184858E+04  0.50400001928E-02 0. -1.
        1   -1    0    0  501    0  0.00000000000E+00  0.00000000000E+00 -0.97879373958E+03  0.97879373960E+03  0.50400001928E-02 0.  1.
    10030    2    1    2    0    0  0.00000000000E+00  0.00000000000E+00  0.37452474617E+03  0.23321122254E+04  0.23018424460E+04 0.  0.
        2    1    3    3  502    0 -0.96040519598E+02  0.95534917492E+03 -0.45567213128E+03  0.10628042711E+04  0.25500000920E-02 0.  1.
       -2    1    3    3    0  502  0.96040519598E+02 -0.95534917492E+03  0.83019687745E+03  0.12693079543E+04  0.25500000920E-02 0. -1.
</event>
<event>
 5   0  0.2519625E-06  0.2301847E+04  0.7818609E-02  0.8477193E-01
       -4   -1    0    0    0  501  0.00000000000E+00  0.00000000000E+00  0.17030544247E+04  0.17030548982E+04  0.12699999809E+01 0.  1.
        4   -1    0    0  501    0  0.00000000000E+00  0.00000000000E+00 -0.77779261426E+03  0.77779365110E+03  0.12699999809E+01 0. -1.
    10030    2    1    2    0    0  0.00000000000E+00  0.00000000000E+00  0.92526181046E+03  0.24808485494E+04  0.23018471076E+04 0.  0.
        5    1    3    3  502    0 -0.82907913668E+03 -0.34867127439E+03  0.12365670088E+04  0.15290728988E+04  0.46999998093E+01 0.  1.
       -5    1    3    3    0  502  0.82907913668E+03  0.34867127439E+03 -0.31130519838E+03  0.95177565056E+03  0.46999998093E+01 0. -1.
</event>
<event>
 5   0  0.3338758E-06  0.2301382E+04  0.7818609E-02  0.8477376E-01
       -1   -1    0    0    0  501  0.00000000000E+00  0.00000000000E+00  0.11830227315E+04  0.11830227316E+04  0.50400001928E-02 0. -1.
        1   -1    0    0  501    0  0.00000000000E+00  0.00000000000E+00 -0.11192433065E+04  0.11192433065E+04  0.50400001928E-02 0.  1.
    10030    2    1    2    0    0  0.00000000000E+00  0.00000000000E+00  0.63779425037E+02  0.23022660381E+04  0.23013824313E+04 0.  0.
        5    1    3    3  502    0  0.23974975966E+03  0.61347779028E+03  0.97577369464E+03  0.11772813341E+04  0.46999998093E+01 0. -1.
       -5    1    3    3    0  502 -0.23974975966E+03 -0.61347779028E+03 -0.91199426961E+03  0.11249847040E+04  0.46999998093E+01 0.  1.
</event>
<event>
 5   0  0.7348107E-06  0.2297604E+04  0.7818609E-02  0.8478866E-01
        2   -1    0    0  501    0  0.00000000000E+00  0.00000000000E+00  0.18799002481E+04  0.18799002481E+04  0.25500000920E-02 0.  1.
       -2   -1    0    0    0  501  0.00000000000E+00  0.00000000000E+00 -0.70202993757E+03  0.70202993758E+03  0.25500000920E-02 0. -1.
    10030    2    1    2    0    0  0.00000000000E+00  0.00000000000E+00  0.11778703106E+04  0.25819301857E+04  0.22976041903E+04 0.  0.
        3    1    3    3  502    0 -0.10672732688E+04 -0.50660504257E+01  0.10665593057E+04  0.15088560759E+04  0.10100000352E+00 0.  1.
       -3    1    3    3    0  502  0.10672732688E+04  0.50660504257E+01  0.11131100488E+03  0.10730741098E+04  0.10100000352E+00 0. -1.
</event>
<event>
 5   0  0.3184492E-06  0.2300562E+04  0.7818609E-02  0.8477700E-01
        1   -1    0    0  501    0  0.00000000000E+00  0.00000000000E+00  0.13643330300E+04  0.13643330300E+04  0.50400001928E-02 0.  1.
       -1   -1    0    0    0  501  0.00000000000E+00  0.00000000000E+00 -0.96981179128E+03  0.96981179130E+03  0.50400001928E-02 0. -1.
    10030    2    1    2    0    0  0.00000000000E+00  0.00000000000E+00  0.39452123871E+03  0.23341448213E+04  0.23005618964E+04 0.  0.
        1    1    3    3  502    0  0.79355824006E+03 -0.35340860203E+03  0.96226590286E+03  0.12963749412E+04  0.50400001928E-02 0. -1.
       -1    1    3    3    0  502 -0.79355824006E+03  0.35340860203E+03 -0.56774466414E+03  0.10377698801E+04  0.50400001928E-02 0.  1.
</event>
<event>
 5   0  0.3195296E-06  0.2297635E+04  0.7818609E-02  0.8478854E-01
       -1   -1    0    0    0  501  0.00000000000E+00  0.00000000000E+00  0.53936163392E+03  0.53936163394E+03  0.50400001928E-02 0. -1.
        1   -1    0    0  501    0  0.00000000000E+00  0.00000000000E+00 -0.24469326586E+04  0.24469326586E+04  0.50400001928E-02 0.  1.
    10030    2    1    2    0    0  0.00000000000E+00  0.00000000000E+00 -0.19075710247E+04  0.29862942926E+04  0.22976349552E+04 0.  0.
        2    1    3    3  502    0 -0.52535770891E+03 -0.72322002402E+03 -0.15879316551E+02  0.89403583718E+03  0.25500000920E-02 0. -1.
       -2    1    3    3    0  502  0.52535770891E+03  0.72322002402E+03 -0.18916917082E+04  0.20922584554E+04  0.25500000920E-02 0.  1.
</event>
<event>
 5   0  0.3338758E-06  0.2300588E+04  0.7818609E-02  0.8477689E-01
        1   -1    0    0  501    0  0.00000000000E+00  0.00000000000E+00  0.11591846936E+04  0.11591846936E+04  0.50400001928E-02 0.  1.
       -1   -1    0    0    0  501  0.00000000000E+00  0.00000000000E+00 -0.11414714358E+04  0.11414714358E+04  0.50400001928E-02 0. -1.
    10030    2    1    2    0    0  0.00000000000E+00  0.00000000000E+00  0.17713257798E+02  0.23006561294E+04  0.23005879392E+04 0.  0.
        5    1    3    3  502    0  0.33887319935E+03  0.70104094482E+03  0.85555797622E+03  0.11568470047E+04  0.46999998093E+01 0.  1.
       -5    1    3    3    0  502 -0.33887319935E+03 -0.70104094482E+03 -0.83784471842E+03  0.11438091247E+04  0.46999998093E+01 0. -1.
</event>
<event>
 5   0  0.7003852E-06  0.2285819E+04  0.7818609E-02  0.8483534E-01
       -2   -1    0    0    0  501  0.00000000000E+00  0.00000000000E+00  0.22930604640E+04  0.22930604640E+04  0.25500000920E-02 0.  1.
        2   -1    0    0  501    0  0.00000000000E+00  0.00000000000E+00 -0.56964996427E+03  0.56964996427E+03  0.25500000920E-02 0. -1.
    10030    2    1    2    0    0  0.00000000000E+00  0.00000000000E+00  0.17234104997E+04  0.28627104283E+04  0.22858187254E+04 0.  0.
        2    1    3    3  502    0  0.57822338843E+03 -0.98584845481E+03  0.85978596247E+03  0.14301997637E+04  0.25500000920E-02 0.  1.
       -2    1    3    3    0  502 -0.57822338843E+03  0.98584845481E+03  0.86362453726E+03  0.14325106646E+04  0.25500000920E-02 0. -1.
</event>
<event>
 5   0  0.7044981E-06  0.2245138E+04  0.7818609E-02  0.8499872E-01
       -2   -1    0    0    0  501  0.00000000000E+00  0.00000000000E+00  0.51530052483E+03  0.51530052484E+03  0.25500000920E-02 0.  1.
        2   -1    0    0  501    0  0.00000000000E+00  0.00000000000E+00 -0.24454874819E+04  0.24454874819E+04  0.25500000920E-02 0. -1.
    10030    2    1    2    0    0  0.00000000000E+00  0.00000000000E+00 -0.19301869570E+04  0.29607880067E+04  0.22451378424E+04 0.  0.
        4    1    3    3  502    0  0.14903937694E+03  0.76763413855E+03 -0.20272317332E+04  0.21728196012E+04  0.12699999809E+01 0. -1.
       -4    1    3    3    0  502 -0.14903937694E+03 -0.76763413855E+03  0.97044776153E+02  0.78796840547E+03  0.12699999809E+01 0.  1.
</event>
<event>
 5   0  0.3238713E-06  0.2297392E+04  0.7818609E-02  0.8478950E-01
        1   -1    0    0  501    0  0.00000000000E+00  0.00000000000E+00  0.17802060980E+04  0.17802060980E+04  0.50400001928E-02 0.  1.
       -1   -1    0    0    0  501  0.00000000000E+00  0.00000000000E+00 -0.74120783047E+03  0.74120783049E+03  0.50400001928E-02 0. -1.
    10030    2    1    2    0    0  0.00000000000E+00  0.00000000000E+00  0.10389982675E+04  0.25214139285E+04  0.22973921735E+04 0.  0.
        3    1    3    3  502    0  0.78806199705E+03  0.34962733578E+03  0.13526119523E+04  0.16040075090E+04  0.10100000352E+00 0.  1.
       -3    1    3    3    0  502 -0.78806199705E+03 -0.34962733578E+03 -0.31361368477E+03  0.91740641953E+03  0.10100000352E+00 0. -1.
</event>
<event>
 5   0  0.7003852E-06  0.2309010E+04  0.7818609E-02  0.8474377E-01
       -2   -1    0    0    0  501  0.00000000000E+00  0.00000000000E+00  0.92362889464E+03  0.92362889464E+03  0.25500000920E-02 0.  1.
        2   -1    0    0  501    0  0.00000000000E+00  0.00000000000E+00 -0.14430918545E+04  0.14430918545E+04  0.25500000920E-02 0. -1.
    10030    2    1    2    0    0  0.00000000000E+00  0.00000000000E+00 -0.51946295984E+03  0.23667207491E+04  0.23090096010E+04 0.  0.
        2    1    3    3  502    0  0.10038725468E+03 -0.60883068412E+03 -0.12598907405E+04  0.14028817059E+04  0.25500000920E-02 0. -1.
       -2    1    3    3    0  502 -0.10038725468E+03  0.60883068412E+03  0.74042778065E+03  0.96383904320E+03  0.25500000920E-02 0.  1.
</event>
<event>
 5   0  0.3338758E-06  0.2298623E+04  0.7818609E-02  0.8478464E-01
       -1   -1    0    0    0  501  0.00000000000E+00  0.00000000000E+00  0.73751835929E+03  0.73751835931E+03  0.50400001928E-02 0.  1.
        1   -1    0    0  501    0  0.00000000000E+00  0.00000000000E+00 -0.17910291448E+04  0.17910291448E+04  0.50400001928E-02 0. -1.
    10030    2    1    2    0    0  0.00000000000E+00  0.00000000000E+00 -0.10535107855E+04  0.25285475041E+04  0.22986229585E+04 0.  0.
        5    1    3    3  502    0 -0.36277660916E+03  0.95502036234E+03  0.52431613326E+02  0.10229574403E+04  0.46999998093E+01 0.  1.
       -5    1    3    3    0  502  0.36277660916E+03 -0.95502036234E+03 -0.11059423988E+04  0.15055900638E+04  0.46999998093E+01 0. -1.
</event>
<event>
 5   0  0.3226427E-06  0.2296844E+04  0.7818609E-02  0.8479166E-01
        1   -1    0    0  501    0  0.00000000000E+00  0.00000000000E+00  0.89130514523E+03  0.89130514525E+03  0.50400001928E-02 0. -1.
       -1   -1    0    0    0  501  0.00000000000E+00  0.00000000000E+00 -0.14797103988E+04  0.14797103988E+04  0.50400001928E-02 0.  1.
    10030    2    1    2    0    0  0.00000000000E+00  0.00000000000E+00 -0.58840525353E+03  0.23710155440E+04  0.22968443499E+04 0.  0.
        4    1    3    3  502    0  0.27676449805E+03 -0.75887724404E+03  0.54847868609E+03  0.97638298884E+03  0.12699999809E+01 0. -1.
       -4    1    3    3    0  502 -0.27676449805E+03  0.75887724404E+03 -0.11368839396E+04  0.13946325552E+04  0.12699999809E+01 0.  1.
</event>
<event>
 5   0  0.3195296E-06  0.2296980E+04  0.7818609E-02  0.8479113E-01
       -1   -1    0    0    0  501  0.00000000000E+00  0.00000000000E+00  0.84301128133E+03  0.84301128135E+03  0.50400001928E-02 0.  1.
        1   -1    0    0  501    0  0.00000000000E+00  0.00000000000E+00 -0.15646640053E+04  0.15646640053E+04  0.50400001928E-02 0. -1.
    10030    2    1    2    0    0  0.00000000000E+00  0.00000000000E+00 -0.72165272398E+03  0.24076752867E+04  0.22969801114E+04 0.  0.
        2    1    3    3  502    0 -0.35264516403E+03  0.52858077401E+03  0.64197760680E+03  0.90326712218E+03  0.25500000920E-02 0.  1.
       -2    1    3    3    0  502  0.35264516403E+03 -0.52858077401E+03 -0.13636303308E+04  0.15044081645E+04  0.25500000920E-02 0. -1.
</event>
<event>
 5   0  0.3338758E-06  0.2300952E+04  0.7818609E-02  0.8477546E-01
        1   -1    0    0  501    0  0.00000000000E+00  0.00000000000E+00  0.13488246452E+04  0.13488246452E+04  0.50400001928E-02 0.  1.
       -1   -1    0    0    0  501  0.00000000000E+00  0.00000000000E+00 -0.98129484712E+03  0.98129484713E+03  0.50400001928E-02 0. -1.
    10030    2    1    2    0    0  0.00000000000E+00  0.00000000000E+00  0.36752979807E+03  0.23301194923E+04  0.23009516936E+04 0.  0.
        5    1    3    3  502    0 -0.58826221772E+03  0.79442482563E+03  0.77979129094E+03  0.12590710019E+04  0.46999998093E+01 0.  1.
       -5    1    3    3    0  502  0.58826221772E+03 -0.79442482563E+03 -0.41226149287E+03  0.10710484904E+04  0.46999998093E+01 0. -1.
</event>
<event>
 5   0  0.3184492E-06  0.2301940E+04  0.7818609E-02  0.8477157E-01
        1   -1    0    0  501    0  0.00000000000E+00  0.00000000000E+00  0.23864121565E+04  0.23864121565E+04  0.50400001928E-02 0. -1.
       -1   -1    0    0    0  501  0.00000000000E+00  0.00000000000E+00 -0.55511440982E+03  0.55511440984E+03  0.50400001928E-02 0.  1.
    10030    2    1    2    0    0  0.00000000000E+00  0.00000000000E+00  0.18312977466E+04  0.29415265663E+04  0.23019398566E+04 0.  0.
        1    1    3    3  502    0 -0.10318240280E+04  0.18963233903E+03  0.31071217575E+03  0.10941495807E+04  0.50400001928E-02 0.  1.
       -1    1    3    3    0  502  0.10318240280E+04 -0.18963233903E+03  0.15205855709E+04  0.18473769856E+04  0.50400001928E-02 0. -1.
</event>
<event>
 5   0  0.7348107E-06  0.2292537E+04  0.7818609E-02  0.8480870E-01
        2   -1    0    0  501    0  0.00000000000E+00  0.00000000000E+00  0.22604083588E+04  0.22604083588E+04  0.25500000920E-02 0. -1.
       -2   -1    0    0    0  501  0.00000000000E+00  0.00000000000E+00 -0.58128048778E+03  0.58128048779E+03  0.25500000920E-02 0.  1.
    10030    2    1    2    0    0  0.00000000000E+00  0.00000000000E+00  0.16791278710E+04  0.28416888466E+04  0.22925368249E+04 0.  0.
        3    1    3    3  502    0  0.82158683898E+02  0.10499027661E+04  0.27849567226E+03  0.10893143335E+04  0.10100000352E+00 0.  1.
       -3    1    3    3    0  502 -0.82158683898E+02 -0.10499027661E+04  0.14006321987E+04  0.17523745130E+04  0.10100000352E+00 0. -1.
</event>
<event>
 5   0  0.7348107E-06  0.2297063E+04  0.7818609E-02  0.8479080E-01
       -2   -1    0    0    0  501  0.00000000000E+00  0.00000000000E+00  0.10334312235E+04  0.10334312235E+04  0.25500000920E-02 0. -1.
        2   -1    0    0  501    0  0.00000000000E+00  0.00000000000E+00 -0.12764507555E+04  0.12764507555E+04  0.25500000920E-02 0.  1.
    10030    2    1    2    0    0  0.00000000000E+00  0.00000000000E+00 -0.24301953206E+03  0.23098819790E+04  0.22970625294E+04 0.  0.
        3    1    3    3  502    0 -0.67969448214E+03  0.91158004779E+03  0.41137397789E+02  0.11378291033E+04  0.10100000352E+00 0.  1.
       -3    1    3    3    0  502  0.67969448214E+03 -0.91158004779E+03 -0.28415692985E+03  0.11720528758E+04  0.10100000352E+00 0. -1.
</event>
<event>
 5   0  0.3338758E-06  0.2299680E+04  0.7818609E-02  0.8478047E-01
        1   -1    0    0  501    0  0.00000000000E+00  0.00000000000E+00  0.21612003504E+04  0.21612003504E+04  0.50400001928E-02 0. -1.
       -1   -1    0    0    0  501  0.00000000000E+00  0.00000000000E+00 -0.61175845081E+03  0.61175845083E+03  0.50400001928E-02 0.  1.
    10030    2    1    2    0    0  0.00000000000E+00  0.00000000000E+00  0.15494418996E+04  0.27729588012E+04  0.22996804807E+04 0.  0.
        5    1    3    3  502    0 -0.61816162693E+03 -0.58241414824E+03 -0.15989634776E+03  0.86424473912E+03  0.46999998093E+01 0.  1.
       -5    1    3    3    0  502  0.61816162693E+03  0.58241414824E+03  0.17093382474E+04  0.19087140621E+04  0.46999998093E+01 0. -1.
</event>
<event>
 5   0  0.3238713E-06  0.2305406E+04  0.7818609E-02  0.8475793E-01
        1   -1    0    0  501    0  0.00000000000E+00  0.00000000000E+00  0.15555616531E+04  0.15555616531E+04  0.50400001928E-02 0. -1.
       -1   -1    0    0    0  501  0.00000000000E+00  0.00000000000E+00 -0.85417615314E+03  0.85417615315E+03  0.50400001928E-02 0.  1.
    10030    2    1    2    0    0  0.00000000000E+00  0.00000000000E+00  0.70138550000E+03  0.24097378063E+04  0.23054055338E+04 0.  0.
        3    1    3    3  502    0 -0.10730116168E+03  0.17509174932E+03  0.15362875907E+04  0.15499516868E+04  0.10100000352E+00 0. -1.
       -3    1    3    3    0  502  0.10730116168E+03 -0.17509174932E+03 -0.83490209070E+03  0.85978611947E+03  0.10100000352E+00 0.  1.
</event>
<event>
 5   0  0.3238713E-06  0.2297396E+04  0.7818609E-02  0.8478949E-01
        1   -1    0    0  501    0  0.00000000000E+00  0.00000000000E+00  0.11166139932E+04  0.11166139932E+04  0.50400001928E-02 0.  1.
       -1   -1    0    0    0  501  0.00000000000E+00  0.00000000000E+00 -0.11817037548E+04  0.11817037548E+04  0.50400001928E-02 0. -1.
    10030    2    1    2    0    0  0.00000000000E+00  0.00000000000E+00 -0.65089761568E+02  0.22983177480E+04  0.22973958722E+04 0.  0.
        3    1    3    3  502    0  0.45173507469E+02  0.10441305957E+04 -0.50945159222E+03  0.11626651632E+04  0.10100000352E+00 0. -1.
       -3    1    3    3    0  502 -0.45173507469E+02 -0.10441305957E+04  0.44436183065E+03  0.11356525848E+04  0.10100000352E+00 0.  1.
</event>
<event>
 5   0  0.7003852E-06  0.2302001E+04  0.7818609E-02  0.8477133E-01
        2   -1    0    0  501    0  0.00000000000E+00  0.00000000000E+00  0.14739917097E+04  0.14739917097E+04  0.25500000920E-02 0. -1.
       -2   -1    0    0    0  501  0.00000000000E+00  0.00000000000E+00 -0.89878507092E+03  0.89878507093E+03  0.25500000920E-02 0.  1.
    10030    2    1    2    0    0  0.00000000000E+00  0.00000000000E+00  0.57520663878E+03  0.23727767806E+04  0.23020006458E+04 0.  0.
        2    1    3    3  502    0 -0.27824569441E+03  0.11135034988E+04  0.37681513014E+03  0.12080150457E+04  0.25500000920E-02 0. -1.
       -2    1    3    3    0  502  0.27824569441E+03 -0.11135034988E+04  0.19839150864E+03  0.11647617349E+04  0.25500000920E-02 0.  1.
</event>
<event>
 5   0  0.7003852E-06  0.2308937E+04  0.7818609E-02  0.8474406E-01
       -2   -1    0    0    0  501  0.00000000000E+00  0.00000000000E+00  0.65227596475E+03  0.65227596476E+03  0.25500000920E-02 0.  1.
        2   -1    0    0  501    0  0.00000000000E+00  0.00000000000E+00 -0.20433034377E+04  0.20433034377E+04  0.25500000920E-02 0. -1.
    10030    2    1    2    0    0  0.00000000000E+00  0.00000000000E+00 -0.13910274729E+04  0.26955794024E+04  0.23089371764E+04 0.  0.
        2    1    3    3  502    0 -0.35298957988E+03 -0.46877325543E+03 -0.18562053944E+04  0.19467533164E+04  0.25500000920E-02 0. -1.
       -2    1    3    3    0  502  0.35298957988E+03  0.46877325543E+03  0.46517792150E+03  0.74882608606E+03  0.25500000920E-02 0.  1.
</event>
<event>
 5   0  0.3226427E-06  0.2295200E+04  0.7818609E-02  0.8479816E-01
        1   -1    0    0  501    0  0.00000000000E+00  0.00000000000E+00  0.28844979629E+04  0.28844979629E+04  0.50400001928E-02 0. -1.
       -1   -1    0    0    0  501  0.00000000000E+00  0.00000000000E+00 -0.45657350664E+03  0.45657350667E+03  0.50400001928E-02 0.  1.
    10030    2    1    2    0    0  0.00000000000E+00  0.00000000000E+00  0.24279244562E+04  0.33410714696E+04  0.22951996426E+04 0.  0.
        4    1    3    3  502    0  0.62262489161E+03  0.50535425118E+03  0.24089834363E+04  0.25389461365E+04  0.12699999809E+01 0. -1.
       -4    1    3    3    0  502 -0.62262489161E+03 -0.50535425118E+03  0.18941019980E+02  0.80212533308E+03  0.12699999809E+01 0.  1.
</event>
<event>
 5   0  0.7242214E-06  0.2299766E+04  0.7818609E-02  0.8478014E-01
        2   -1    0    0  501    0  0.00000000000E+00  0.00000000000E+00  0.19429954424E+04  0.19429954424E+04  0.25500000920E-02 0.  1.
       -2   -1    0    0    0  501  0.00000000000E+00  0.00000000000E+00 -0.68051133217E+03  0.68051133217E+03  0.25500000920E-02 0. -1.
    10030    2    1    2    0    0  0.00000000000E+00  0.00000000000E+00  0.12624841102E+04  0.26235067746E+04  0.22997655680E+04 0.  0.
        1    1    3    3  502    0 -0.96541942695E+03  0.56334301805E+03  0.93912437945E+03  0.14599125405E+04  0.50400001928E-02 0.  1.
       -1    1    3    3    0  502  0.96541942695E+03 -0.56334301805E+03  0.32335973077E+03  0.11635942340E+04  0.50400001928E-02 0. -1.
</event>
<event>
 5   0  0.7497344E-06  0.2297864E+04  0.7818609E-02  0.8478764E-01
       -2   -1    0    0    0  501  0.00000000000E+00  0.00000000000E+00  0.51018061627E+03  0.51018061628E+03  0.25500000920E-02 0.  1.
        2   -1    0    0  501    0  0.00000000000E+00  0.00000000000E+00 -0.25874059116E+04  0.25874059116E+04  0.25500000920E-02 0. -1.
    10030    2    1    2    0    0  0.00000000000E+00  0.00000000000E+00 -0.20772252953E+04  0.30975865279E+04  0.22978636535E+04 0.  0.
        5    1    3    3  502    0 -0.73764854774E+03 -0.11788285070E+03  0.13811733952E+03  0.75968430019E+03  0.46999998093E+01 0.  1.
       -5    1    3    3    0  502  0.73764854774E+03  0.11788285070E+03 -0.22153426348E+04  0.23379022277E+04  0.46999998093E+01 0. -1.
</event>
<event>
 5   0  0.7497344E-06  0.2318350E+04  0.7818609E-02  0.8470721E-01
       -2   -1    0    0    0  501  0.00000000000E+00  0.00000000000E+00  0.12314016751E+04  0.12314016751E+04  0.25500000920E-02 0.  1.
        2   -1    0    0  501    0  0.00000000000E+00  0.00000000000E+00 -0.10911844532E+04  0.10911844532E+04  0.25500000920E-02 0. -1.
    10030    2    1    2    0    0  0.00000000000E+00  0.00000000000E+00  0.14021722184E+03  0.23225861283E+04  0.23183497265E+04 0.  0.
        5    1    3    3  502    0 -0.13585569522E+03 -0.36006996895E+03  0.11655219942E+04  0.12274244422E+04  0.46999998093E+01 0.  1.
       -5    1    3    3    0  502  0.13585569522E+03  0.36006996895E+03 -0.10253047724E+04  0.10951616861E+04  0.46999998093E+01 0. -1.
</event>
<event>
 5   0  0.7003852E-06  0.2300121E+04  0.7818609E-02  0.8477874E-01
       -2   -1    0    0    0  501  0.00000000000E+00  0.00000000000E+00  0.10825598623E+04  0.10825598623E+04  0.25500000920E-02 0.  1.
        2   -1    0    0  501    0  0.00000000000E+00  0.00000000000E+00 -0.12217695047E+04  0.12217695047E+04  0.25500000920E-02 0. -1.
    10030    2    1    2    0    0  0.00000000000E+00  0.00000000000E+00 -0.13920964243E+03  0.23043293670E+04  0.23001205419E+04 0.  0.
        2    1    3    3  502    0  0.22145307392E+03  0.43130011405E+03 -0.11143828719E+04  0.12152820403E+04  0.25500000920E-02 0. -1.
       -2    1    3    3    0  502 -0.22145307392E+03 -0.43130011405E+03  0.97517322946E+03  0.10890473267E+04  0.25500000920E-02 0.  1.
</event>
<event>
 5   0  0.3338758E-06  0.2302336E+04  0.7818609E-02  0.8477001E-01
       -1   -1    0    0    0  501  0.00000000000E+00  0.00000000000E+00  0.10710444111E+04  0.10710444111E+04  0.50400001928E-02 0. -1.
        1   -1    0    0  501    0  0.00000000000E+00  0.00000000000E+00 -0.12372856580E+04  0.12372856580E+04  0.50400001928E-02 0.  1.
    10030    2    1    2    0    0  0.00000000000E+00  0.00000000000E+00 -0.16624124689E+03  0.23083300692E+04  0.23023361084E+04 0.  0.
        5    1    3    3  502    0  0.22534115472E+03  0.11074478765E+04 -0.30265726842E+03  0.11699756182E+04  0.46999998093E+01 0.  1.
       -5    1    3    3    0  502 -0.22534115472E+03 -0.11074478765E+04  0.13641602153E+03  0.11383544510E+04  0.46999998093E+01 0. -1.
</event>
<event>
 5   0  0.7348107E-06  0.2298292E+04  0.7818609E-02  0.8478595E-01
       -2   -1    0    0    0  501  0.00000000000E+00  0.00000000000E+00  0.63378536199E+03  0.63378536199E+03  0.25500000920E-02 0.  1.
        2   -1    0    0  501    0  0.00000000000E+00  0.00000000000E+00 -0.20835699446E+04  0.20835699446E+04  0.25500000920E-02 0. -1.
    10030    2    1    2    0    0  0.00000000000E+00  0.00000000000E+00 -0.14497845826E+04  0.27173553066E+04  0.22982916539E+04 0.  0.
        3    1    3    3  502    0 -0.92940036281E+03  0.64209359710E+03 -0.47557080184E+03  0.12256577090E+04  0.10100000352E+00 0.  1.
       -3    1    3    3    0  502  0.92940036281E+03 -0.64209359710E+03 -0.97421378075E+03  0.14916975976E+04  0.10100000352E+00 0. -1.
</event>
<event>
 5   0  0.3238713E-06  0.2269290E+04  0.7818609E-02  0.8490129E-01
        1   -1    0    0  501    0  0.00000000000E+00  0.00000000000E+00  0.22611148774E+04  0.22611148774E+04  0.50400001928E-02 0. -1.
       -1   -1    0    0    0  501  0.00000000000E+00  0.00000000000E+00 -0.56937376030E+03  0.56937376032E+03  0.50400001928E-02 0.  1.
    10030    2    1    2    0    0  0.00000000000E+00  0.00000000000E+00  0.16917411171E+04  0.28304886377E+04  0.22692901800E+04 0.  0.
        3    1    3    3  502    0  0.10673009992E+04  0.10174058791E+03  0.38262462816E+03  0.11383690906E+04  0.10100000352E+00 0.  1.
       -3    1    3    3    0  502 -0.10673009992E+04 -0.10174058791E+03  0.13091164890E+04  0.16921195472E+04  0.10100000352E+00 0. -1.
</event>
<event>
 5   0  0.7044981E-06  0.2299544E+04  0.7818609E-02  0.8478101E-01
       -2   -1    0    0    0  501  0.00000000000E+00  0.00000000000E+00  0.10214715364E+04  0.10214715364E+04  0.25500000920E-02 0.  1.
        2   -1    0    0  501    0  0.00000000000E+00  0.00000000000E+00 -0.12941869241E+04  0.12941869241E+04  0.25500000920E-02 0. -1.
    10030    2    1    2    0    0  0.00000000000E+00  0.00000000000E+00 -0.27271538768E+03  0.23156584605E+04  0.22995435249E+04 0.  0.
        4    1    3    3  502    0  0.84924703832E+03 -0.49366582574E+03 -0.73807925446E+03  0.12286940540E+04  0.12699999809E+01 0. -1.
       -4    1    3    3    0  502 -0.84924703832E+03  0.49366582574E+03  0.46536386678E+03  0.10869644065E+04  0.12699999809E+01 0.  1.
</event>
<event>
 5   0  0.3195296E-06  0.2299223E+04  0.7818609E-02  0.8478227E-01
        1   -1    0    0  501    0  0.00000000000E+00  0.00000000000E+00  0.12057595097E+04  0.12057595097E+04  0.50400001928E-02 0. -1.
       -1   -1    0    0    0  501  0.00000000000E+00  0.00000000000E+00 -0.10960783301E+04  0.10960783301E+04  0.50400001928E-02 0.  1.
    10030    2    1    2    0    0  0.00000000000E+00  0.00000000000E+00  0.10968117960E+03  0.23018378398E+04  0.22992232339E+04 0.  0.
        2    1    3    3  502    0  0.92426034933E+03 -0.21380988410E+03  0.70491327490E+03  0.11818944898E+04  0.25500000920E-02 0. -1.
       -2    1    3    3    0  502 -0.92426034933E+03  0.21380988410E+03 -0.59523209531E+03  0.11199433500E+04  0.25500000920E-02 0.  1.
</event>
<event>
 5   0  0.3184492E-06  0.2308767E+04  0.7818609E-02  0.8474473E-01
        1   -1    0    0  501    0  0.00000000000E+00  0.00000000000E+00  0.20259454877E+04  0.20259454877E+04  0.50400001928E-02 0. -1.
       -1   -1    0    0    0  501  0.00000000000E+00  0.00000000000E+00 -0.65776737157E+03  0.65776737159E+03  0.50400001928E-02 0.  1.
    10030    2    1    2    0    0  0.00000000000E+00  0.00000000000E+00  0.13681781161E+04  0.26837128593E+04  0.23087666304E+04 0.  0.
        1    1    3    3  502    0  0.81641695958E+03 -0.73764264346E+03  0.27816714983E+03  0.11349142191E+04  0.50400001928E-02 0.  1.
       -1    1    3    3    0  502 -0.81641695958E+03  0.73764264346E+03  0.10900109663E+04  0.15487986402E+04  0.50400001928E-02 0. -1.
</event>
<event>
 5   0  0.7497344E-06  0.2280289E+04  0.7818609E-02  0.8485734E-01
        2   -1    0    0  501    0  0.00000000000E+00  0.00000000000E+00  0.10023917190E+04  0.10023917190E+04  0.25500000920E-02 0.  1.
       -2   -1    0    0    0  501  0.00000000000E+00  0.00000000000E+00 -0.12968282218E+04  0.12968282218E+04  0.25500000920E-02 0. -1.
    10030    2    1    2    0    0  0.00000000000E+00  0.00000000000E+00 -0.29443650277E+03  0.22992199408E+04  0.22802893417E+04 0.  0.
        5    1    3    3  502    0  0.58720386119E+03 -0.79725648613E+03  0.42270111938E+03  0.10766264931E+04  0.46999998093E+01 0.  1.
       -5    1    3    3    0  502 -0.58720386119E+03  0.79725648613E+03 -0.71713762216E+03  0.12225934477E+04  0.46999998093E+01 0. -1.
</event>
<event>
 5   0  0.3338758E-06  0.2298952E+04  0.7818609E-02  0.8478335E-01
        1   -1    0    0  501    0  0.00000000000E+00  0.00000000000E+00  0.27639642419E+04  0.27639642420E+04  0.50400001928E-02 0. -1.
       -1   -1    0    0    0  501  0.00000000000E+00  0.00000000000E+00 -0.47804336939E+03  0.47804336942E+03  0.50400001928E-02 0.  1.
    10030    2    1    2    0    0  0.00000000000E+00  0.00000000000E+00  0.22859208726E+04  0.32420076114E+04  0.22989517430E+04 0.  0.
        5    1    3    3  502    0  0.60219881279E+03  0.51149946357E+03  0.23202947705E+04  0.24511354560E+04  0.46999998093E+01 0. -1.
       -5    1    3    3    0  502 -0.60219881279E+03 -0.51149946357E+03 -0.34373897963E+02  0.79087215542E+03  0.46999998093E+01 0.  1.
</event>
<event>
 5   0  0.7348107E-06  0.2304660E+04  0.7818609E-02  0.8476086E-01
       -2   -1    0    0    0  501  0.00000000000E+00  0.00000000000E+00  0.96761793972E+03  0.96761793972E+03  0.25500000920E-02 0. -1.
        2   -1    0    0  501    0  0.00000000000E+00  0.00000000000E+00 -0.13723030002E+04  0.13723030002E+04  0.25500000920E-02 0.  1.
    10030    2    1    2    0    0  0.00000000000E+00  0.00000000000E+00 -0.40468506051E+03  0.23399209399E+04  0.23046604971E+04 0.  0.
        3    1    3    3  502    0  0.14044110543E+03  0.17428175711E+02 -0.13634465448E+04  0.13707712924E+04  0.10100000352E+00 0.  1.
       -3    1    3    3    0  502 -0.14044110543E+03 -0.17428175711E+02  0.95876148427E+03  0.96914964754E+03  0.10100000352E+00 0. -1.
</event>
<event>
 5   0  0.7242214E-06  0.2306809E+04  0.7818609E-02  0.8475241E-01
        2   -1    0    0  501    0  0.00000000000E+00  0.00000000000E+00  0.12645114335E+04  0.12645114335E+04  0.25500000920E-02 0. -1.
       -2   -1    0    0    0  501  0.00000000000E+00  0.00000000000E+00 -0.10520598000E+04  0.10520598000E+04  0.25500000920E-02 0.  1.
    10030    2    1    2    0    0  0.00000000000E+00  0.00000000000E+00  0.21245163350E+03  0.23165712335E+04  0.23068087444E+04 0.  0.
        1    1    3    3  502    0  0.19909509996E+03 -0.43730267043E+02  0.12462792974E+04  0.12628393731E+04  0.50400001928E-02 0. -1.
       -1    1    3    3    0  502 -0.19909509996E+03  0.43730267043E+02 -0.10338276639E+04  0.10537318604E+04  0.50400001928E-02 0.  1.
</event>
<event>
 5   0  0.3195296E-06  0.2300501E+04  0.7818609E-02  0.8477723E-01
        1   -1    0    0  501    0  0.00000000000E+00  0.00000000000E+00  0.10546577947E+04  0.10546577947E+04  0.50400001928E-02 0. -1.
       -1   -1    0    0    0  501  0.00000000000E+00  0.00000000000E+00 -0.12545079193E+04  0.12545079193E+04  0.50400001928E-02 0.  1.
    10030    2    1    2    0    0  0.00000000000E+00  0.00000000000E+00 -0.19985012460E+03  0.23091657140E+04  0.23005012980E+04 0.  0.
        2    1    3    3  502    0 -0.12712322475E+03 -0.91225741702E+03  0.59165656044E+03  0.10947289138E+04  0.25500000920E-02 0. -1.
       -2    1    3    3    0  502  0.12712322475E+03  0.91225741702E+03 -0.79150668503E+03  0.12144368002E+04  0.25500000920E-02 0.  1.
</event>
<event>
 5   0  0.3195296E-06  0.2293968E+04  0.7818609E-02  0.8480303E-01
       -1   -1    0    0    0  501  0.00000000000E+00  0.00000000000E+00  0.62256556122E+03  0.62256556124E+03  0.50400001928E-02 0.  1.
        1   -1    0    0  501    0  0.00000000000E+00  0.00000000000E+00 -0.21131472062E+04  0.21131472062E+04  0.50400001928E-02 0. -1.
    10030    2    1    2    0    0  0.00000000000E+00  0.00000000000E+00 -0.14905816450E+04  0.27357127675E+04  0.22939683314E+04 0.  0.
        2    1    3    3  502    0  0.16348405415E+03  0.47360859015E+03  0.48515977758E+03  0.69743253610E+03  0.25500000920E-02 0.  1.
       -2    1    3    3    0  502 -0.16348405415E+03 -0.47360859015E+03 -0.19757414226E+04  0.20382802314E+04  0.25500000920E-02 0. -1.
</event>
<event>
 5   0  0.7348107E-06  0.2302231E+04  0.7818609E-02  0.8477042E-01
        2   -1    0    0  501    0  0.00000000000E+00  0.00000000000E+00  0.12097943909E+04  0.12097943909E+04  0.25500000920E-02 0.  1.
       -2   -1    0    0    0  501  0.00000000000E+00  0.00000000000E+00 -0.10952829080E+04  0.10952829080E+04  0.25500000920E-02 0. -1.
    10030    2    1    2    0    0  0.00000000000E+00  0.00000000000E+00  0.11451148288E+03  0.23050772989E+04  0.23022311947E+04 0.  0.
        3    1    3    3  502    0 -0.68473837931E+03 -0.72693973275E+03  0.63046596647E+03  0.11810145504E+04  0.10100000352E+00 0.  1.
       -3    1    3    3    0  502  0.68473837931E+03  0.72693973275E+03 -0.51595448359E+03  0.11240627485E+04  0.10100000352E+00 0. -1.
</event>
<event>
 5   0  0.7348107E-06  0.2297958E+04  0.7818609E-02  0.8478727E-01
        2   -1    0    0  501    0  0.00000000000E+00  0.00000000000E+00  0.12774554873E+04  0.12774554873E+04  0.25500000920E-02 0. -1.
       -2   -1    0    0    0  501  0.00000000000E+00  0.00000000000E+00 -0.10334234325E+04  0.10334234325E+04  0.25500000920E-02 0.  1.
    10030    2    1    2    0    0  0.00000000000E+00  0.00000000000E+00  0.24403205473E+03  0.23108789198E+04  0.22979577320E+04 0.  0.
        3    1    3    3  502    0 -0.24955240959E+03 -0.42071564868E+02 -0.10050472518E+04  0.10364199970E+04  0.10100000352E+00 0.  1.
       -3    1    3    3    0  502  0.24955240959E+03  0.42071564868E+02  0.12490793065E+04  0.12744589228E+04  0.10100000352E+00 0. -1.
</event>
<event>
 5   0  0.3226427E-06  0.2229703E+04  0.7818609E-02  0.8506166E-01
        1   -1    0    0  501    0  0.00000000000E+00  0.00000000000E+00  0.85096215208E+03  0.85096215209E+03  0.50400001928E-02 0.  1.
       -1   -1    0    0    0  501  0.00000000000E+00  0.00000000000E+00 -0.14605746818E+04  0.14605746818E+04  0.50400001928E-02 0. -1.
    10030    2    1    2    0    0  0.00000000000E+00  0.00000000000E+00 -0.60961252975E+03  0.23115368339E+04  0.22297029170E+04 0.  0.
        4    1    3    3  502    0 -0.50856433058E+03 -0.70977646404E+03 -0.10234072236E+04  0.13452822252E+04  0.12699999809E+01 0. -1.
       -4    1    3    3    0  502  0.50856433058E+03  0.70977646404E+03  0.41379469389E+03  0.96625460869E+03  0.12699999809E+01 0.  1.
</event>
<event>
 5   0  0.3226427E-06  0.2302974E+04  0.7818609E-02  0.8476749E-01
       -1   -1    0    0    0  501  0.00000000000E+00  0.00000000000E+00  0.94665679478E+03  0.94665679479E+03  0.50400001928E-02 0. -1.
        1   -1    0    0  501    0  0.00000000000E+00  0.00000000000E+00 -0.14006371170E+04  0.14006371170E+04  0.50400001928E-02 0.  1.
    10030    2    1    2    0    0  0.00000000000E+00  0.00000000000E+00 -0.45398032226E+03  0.23472939118E+04  0.23029742889E+04 0.  0.
        4    1    3    3  502    0  0.68871350714E+03 -0.84663797043E+03 -0.60120545245E+03  0.12460223741E+04  0.12699999809E+01 0.  1.
       -4    1    3    3    0  502 -0.68871350714E+03  0.84663797043E+03  0.14722513019E+03  0.11012715377E+04  0.12699999809E+01 0. -1.
</event>
<event>
 5   0  0.3184492E-06  0.2300500E+04  0.7818609E-02  0.8477724E-01
       -1   -1    0    0    0  501  0.00000000000E+00  0.00000000000E+00  0.50386153670E+03  0.50386153672E+03  0.50400001928E-02 0.  1.
        1   -1    0    0  501    0  0.00000000000E+00  0.00000000000E+00 -0.26258706258E+04  0.26258706258E+04  0.50400001928E-02 0. -1.
    10030    2    1    2    0    0  0.00000000000E+00  0.00000000000E+00 -0.21220090891E+04  0.31297321626E+04  0.23005001271E+04 0.  0.
        1    1    3    3  502    0 -0.62168471332E+03 -0.44081567151E+03  0.11109464207E+03  0.77016385175E+03  0.50400001928E-02 0.  1.
       -1    1    3    3    0  502  0.62168471332E+03  0.44081567151E+03 -0.22331037312E+04  0.23595683108E+04  0.50400001928E-02 0. -1.
</event>
<event>
 5   0  0.3184492E-06  0.2305003E+04  0.7818609E-02  0.8475951E-01
        1   -1    0    0  501    0  0.00000000000E+00  0.00000000000E+00  0.14399348024E+04  0.14399348024E+04  0.50400001928E-02 0.  1.
       -1   -1    0    0    0  501  0.00000000000E+00  0.00000000000E+00 -0.92244403207E+03  0.92244403208E+03  0.50400001928E-02 0. -1.
    10030    2    1    2    0    0  0.00000000000E+00  0.00000000000E+00  0.51749077035E+03  0.23623788345E+04  0.23050026161E+04 0.  0.
        1    1    3    3  502    0  0.11592317791E+03 -0.11395694219E+04  0.38920337117E+03  0.12097668845E+04  0.50400001928E-02 0.  1.
       -1    1    3    3    0  502 -0.11592317791E+03  0.11395694219E+04  0.12828739918E+03  0.11526119500E+04  0.50400001928E-02 0. -1.
</event>
<event>
 5   0  0.3195296E-06  0.2355957E+04  0.7818609E-02  0.8456179E-01
       -1   -1    0    0    0  501  0.00000000000E+00  0.00000000000E+00  0.11002777241E+04  0.11002777241E+04  0.50400001928E-02 0. -1.
        1   -1    0    0  501    0  0.00000000000E+00  0.00000000000E+00 -0.12611665733E+04  0.12611665733E+04  0.50400001928E-02 0.  1.
    10030    2    1    2    0    0  0.00000000000E+00  0.00000000000E+00 -0.16088884921E+03  0.23614442974E+04  0.23559571192E+04 0.  0.
        2    1    3    3  502    0 -0.80199064696E+03  0.86279942742E+03 -0.85106834404E+02  0.11810398059E+04  0.25500000920E-02 0.  1.
       -2    1    3    3    0  502  0.80199064696E+03 -0.86279942742E+03 -0.75782014805E+02  0.11804044915E+04  0.25500000920E-02 0. -1.
</event>
<event>
 5   0  0.3338758E-06  0.2316732E+04  0.7818609E-02  0.8471353E-01
        1   -1    0    0  501    0  0.00000000000E+00  0.00000000000E+00  0.11927459973E+04  0.11927459973E+04  0.50400001928E-02 0. -1.
       -1   -1    0    0    0  501  0.00000000000E+00  0.00000000000E+00 -0.11249768675E+04  0.11249768675E+04  0.50400001928E-02 0.  1.
    10030    2    1    2    0    0  0.00000000000E+00  0.00000000000E+00  0.67769129758E+02  0.23177228648E+04  0.23167318842E+04 0.  0.
        5    1    3    3  502    0 -0.33981572518E+03  0.60912535547E+03 -0.89132513488E+03  0.11318087346E+04  0.46999998093E+01 0.  1.
       -5    1    3    3    0  502  0.33981572518E+03 -0.60912535547E+03  0.95909426464E+03  0.11859141302E+04  0.46999998093E+01 0. -1.
</event>
<event>
 5   0  0.3195296E-06  0.2307847E+04  0.7818609E-02  0.8474834E-01
        1   -1    0    0  501    0  0.00000000000E+00  0.00000000000E+00  0.12174736772E+04  0.12174736772E+04  0.50400001928E-02 0.  1.
       -1   -1    0    0    0  501  0.00000000000E+00  0.00000000000E+00 -0.10936906926E+04  0.10936906926E+04  0.50400001928E-02 0. -1.
    10030    2    1    2    0    0  0.00000000000E+00  0.00000000000E+00  0.12378298455E+03  0.23111643698E+04  0.23078471607E+04 0.  0.
        2    1    3    3  502    0 -0.85077363304E+03  0.57788608020E+03 -0.46209239627E+03  0.11275182832E+04  0.25500000920E-02 0. -1.
       -2    1    3    3    0  502  0.85077363304E+03 -0.57788608020E+03  0.58587538082E+03  0.11836460866E+04  0.25500000920E-02 0.  1.
</event>
<event>
 5   0  0.7242214E-06  0.2295692E+04  0.7818609E-02  0.8479621E-01
       -2   -1    0    0    0  501  0.00000000000E+00  0.00000000000E+00  0.66167501967E+03  0.66167501968E+03  0.25500000920E-02 0.  1.
        2   -1    0    0  501    0  0.00000000000E+00  0.00000000000E+00 -0.19912355757E+04  0.19912355757E+04  0.25500000920E-02 0. -1.
    10030    2    1    2    0    0  0.00000000000E+00  0.00000000000E+00 -0.13295605560E+04  0.26529105953E+04  0.22956923476E+04 0.  0.
        1    1    3    3  502    0 -0.25985987972E+03 -0.11026081056E+04 -0.87873570076E+03  0.14336834460E+04  0.50400001928E-02 0. -1.
       -1    1    3    3    0  502  0.25985987972E+03  0.11026081056E+04 -0.45082485522E+03  0.12192271493E+04  0.50400001928E-02 0.  1.
</event>
<event>
 5   0  0.7242214E-06  0.2302173E+04  0.7818609E-02  0.8477065E-01
       -2   -1    0    0    0  501  0.00000000000E+00  0.00000000000E+00  0.98234221041E+03  0.98234221041E+03  0.25500000920E-02 0.  1.
        2   -1    0    0  501    0  0.00000000000E+00  0.00000000000E+00 -0.13488168296E+04  0.13488168296E+04  0.25500000920E-02 0. -1.
    10030    2    1    2    0    0  0.00000000000E+00  0.00000000000E+00 -0.36647461921E+03  0.23311590400E+04  0.23021726311E+04 0.  0.
        1    1    3    3  502    0 -0.34339595047E+03  0.56940152640E+03  0.76819991975E+03  0.10160068867E+04  0.50400001928E-02 0.  1.
       -1    1    3    3    0  502  0.34339595047E+03 -0.56940152640E+03 -0.11346745390E+04  0.13151521534E+04  0.50400001928E-02 0. -1.
</event>
<event>
 5   0  0.7003852E-06  0.2299252E+04  0.7818609E-02  0.8478216E-01
        2   -1    0    0  501    0  0.00000000000E+00  0.00000000000E+00  0.13766538527E+04  0.13766538527E+04  0.25500000920E-02 0. -1.
       -2   -1    0    0    0  501  0.00000000000E+00  0.00000000000E+00 -0.96003820407E+03  0.96003820407E+03  0.25500000920E-02 0.  1.
    10030    2    1    2    0    0  0.00000000000E+00  0.00000000000E+00  0.41661564862E+03  0.23366920568E+04  0.22992523066E+04 0.  0.
        2    1    3    3  502    0 -0.71715083349E+02 -0.20660445026E+02  0.13741893206E+04  0.13762144441E+04  0.25500000920E-02 0. -1.
       -2    1    3    3    0  502  0.71715083349E+02  0.20660445026E+02 -0.95757367199E+03  0.96047761269E+03  0.25500000920E-02 0.  1.
</event>
<event>
 5   0  0.3226427E-06  0.2300116E+04  0.7818609E-02  0.8477876E-01
       -1   -1    0    0    0  501  0.00000000000E+00  0.00000000000E+00  0.64038884239E+03  0.64038884241E+03  0.50400001928E-02 0. -1.
        1   -1    0    0  501    0  0.00000000000E+00  0.00000000000E+00 -0.20653591234E+04  0.20653591234E+04  0.50400001928E-02 0.  1.
    10030    2    1    2    0    0  0.00000000000E+00  0.00000000000E+00 -0.14249702810E+04  0.27057479658E+04  0.23001155955E+04 0.  0.
        4    1    3    3  502    0  0.11426813138E+04 -0.84937552981E+02 -0.82832069258E+03  0.14138782676E+04  0.12699999809E+01 0.  1.
       -4    1    3    3    0  502 -0.11426813138E+04  0.84937552981E+02 -0.59664958840E+03  0.12918696982E+04  0.12699999809E+01 0. -1.
</event>
<event>
 5   0  0.3226427E-06  0.2301141E+04  0.7818609E-02  0.8477471E-01
        1   -1    0    0  501    0  0.00000000000E+00  0.00000000000E+00  0.16832924994E+04  0.16832924994E+04  0.50400001928E-02 0.  1.
       -1   -1    0    0    0  501  0.00000000000E+00  0.00000000000E+00 -0.78644242409E+03  0.78644242410E+03  0.50400001928E-02 0. -1.
    10030    2    1    2    0    0  0.00000000000E+00  0.00000000000E+00  0.89685007529E+03  0.24697349235E+04  0.23011411375E+04 0.  0.
        4    1    3    3  502    0  0.63850521694E+03 -0.14339975663E+03  0.14640984770E+04  0.16036952221E+04  0.12699999809E+01 0.  1.
       -4    1    3    3    0  502 -0.63850521694E+03  0.14339975663E+03 -0.56724840167E+03  0.86603970138E+03  0.12699999809E+01 0. -1.
</event>
<event>
 5   0  0.3184492E-06  0.2311853E+04  0.7818609E-02  0.8473262E-01
       -1   -1    0    0    0  501  0.00000000000E+00  0.00000000000E+00  0.94302710110E+03  0.94302710111E+03  0.50400001928E-02 0.  1.
        1   -1    0    0  501    0  0.00000000000E+00  0.00000000000E+00 -0.14168905762E+04  0.14168905762E+04  0.50400001928E-02 0. -1.
    10030    2    1    2    0    0  0.00000000000E+00  0.00000000000E+00 -0.47386347513E+03  0.23599176773E+04  0.23118531205E+04 0.  0.
        1    1    3    3  502    0  0.65285658020E+03 -0.94472160317E+03 -0.37175954016E+03  0.12070318047E+04  0.50400001928E-02 0. -1.
       -1    1    3    3    0  502 -0.65285658020E+03  0.94472160317E+03 -0.10210393497E+03  0.11528858727E+04  0.50400001928E-02 0.  1.
</event>
<event>
 5   0  0.3195296E-06  0.2320652E+04  0.7818609E-02  0.8469823E-01
       -1   -1    0    0    0  501  0.00000000000E+00  0.00000000000E+00  0.12336094923E+04  0.12336094923E+04  0.50400001928E-02 0. -1.
        1   -1    0    0  501    0  0.00000000000E+00  0.00000000000E+00 -0.10913959967E+04  0.10913959967E+04  0.50400001928E-02 0.  1.
    10030    2    1    2    0    0  0.00000000000E+00  0.00000000000E+00  0.14221349563E+03  0.23250054890E+04  0.23206520303E+04 0.  0.
        2    1    3    3  502    0 -0.94503613611E+03 -0.45171046363E+03 -0.42904998297E+03  0.11319096825E+04  0.25500000920E-02 0. -1.
       -2    1    3    3    0  502  0.94503613611E+03  0.45171046363E+03  0.57126347860E+03  0.11930958065E+04  0.25500000920E-02 0.  1.
</event>
<event>
 5   0  0.3195296E-06  0.2299773E+04  0.7818609E-02  0.8478011E-01
        1   -1    0    0  501    0  0.00000000000E+00  0.00000000000E+00  0.11546120951E+04  0.11546120952E+04  0.50400001928E-02 0.  1.
       -1   -1    0    0    0  501  0.00000000000E+00  0.00000000000E+00 -0.11451800123E+04  0.11451800123E+04  0.50400001928E-02 0. -1.
    10030    2    1    2    0    0  0.00000000000E+00  0.00000000000E+00  0.94320828471E+01  0.22997921075E+04  0.22997727656E+04 0.  0.
        2    1    3    3  502    0  0.29196986304E+03 -0.46152951177E+03 -0.10072128228E+04  0.11457458539E+04  0.25500000920E-02 0. -1.
       -2    1    3    3    0  502 -0.29196986304E+03  0.46152951177E+03  0.10166449057E+04  0.11540462536E+04  0.25500000920E-02 0.  1.
</event>
<event>
 5   0  0.7348107E-06  0.2299451E+04  0.7818609E-02  0.8478138E-01
       -2   -1    0    0    0  501  0.00000000000E+00  0.00000000000E+00  0.82621767168E+03  0.82621767169E+03  0.25500000920E-02 0.  1.
        2   -1    0    0  501    0  0.00000000000E+00  0.00000000000E+00 -0.15999039759E+04  0.15999039759E+04  0.25500000920E-02 0. -1.
    10030    2    1    2    0    0  0.00000000000E+00  0.00000000000E+00 -0.77368630418E+03  0.24261216476E+04  0.22994511848E+04 0.  0.
        3    1    3    3  502    0 -0.92211766071E+03  0.30664834591E+03  0.26144313999E+03  0.10063233645E+04  0.10100000352E+00 0.  1.
       -3    1    3    3    0  502  0.92211766071E+03 -0.30664834591E+03 -0.10351294442E+04  0.14197982831E+04  0.10100000352E+00 0. -1.
</event>
<event>
 5   0  0.7242214E-06  0.2293924E+04  0.7818609E-02  0.8480321E-01
        2   -1    0    0  501    0  0.00000000000E+00  0.00000000000E+00  0.51487600730E+03  0.51487600731E+03  0.25500000920E-02 0. -1.
       -2   -1    0    0    0  501  0.00000000000E+00  0.00000000000E+00 -0.25550259922E+04  0.25550259922E+04  0.25500000920E-02 0.  1.
    10030    2    1    2    0    0  0.00000000000E+00  0.00000000000E+00 -0.20401499849E+04  0.30699019995E+04  0.22939237838E+04 0.  0.
        1    1    3    3  502    0  0.85717250572E+03  0.75085094712E+03 -0.84558659036E+03  0.14189920828E+04  0.50400001928E-02 0. -1.
       -1    1    3    3    0  502 -0.85717250572E+03 -0.75085094712E+03 -0.11945633945E+04  0.16509099167E+04  0.50400001928E-02 0.  1.
</event>
<event>
 5   0  0.7348107E-06  0.2308892E+04  0.7818609E-02  0.8474423E-01
       -2   -1    0    0    0  501  0.00000000000E+00  0.00000000000E+00  0.52458443569E+03  0.52458443569E+03  0.25500000920E-02 0.  1.
        2   -1    0    0  501    0  0.00000000000E+00  0.00000000000E+00 -0.25405734910E+04  0.25405734910E+04  0.25500000920E-02 0. -1.
    10030    2    1    2    0    0  0.00000000000E+00  0.00000000000E+00 -0.20159890553E+04  0.30651579267E+04  0.23088917784E+04 0.  0.
        3    1    3    3  502    0  0.66873797334E+03  0.61301340649E+03 -0.60170673237E+02  0.90918448823E+03  0.10100000352E+00 0.  1.
       -3    1    3    3    0  502 -0.66873797334E+03 -0.61301340649E+03 -0.19558183821E+04  0.21559734385E+04  0.10100000352E+00 0. -1.
</event>
<event>
 5   0  0.3184492E-06  0.2299678E+04  0.7818609E-02  0.8478048E-01
        1   -1    0    0  501    0  0.00000000000E+00  0.00000000000E+00  0.18873473663E+04  0.18873473663E+04  0.50400001928E-02 0.  1.
       -1   -1    0    0    0  501  0.00000000000E+00  0.00000000000E+00 -0.70052263822E+03  0.70052263824E+03  0.50400001928E-02 0. -1.
    10030    2    1    2    0    0  0.00000000000E+00  0.00000000000E+00  0.11868247281E+04  0.25878700045E+04  0.22996778525E+04 0.  0.
        1    1    3    3  502    0 -0.40375645197E+03 -0.18066967274E+03  0.17877717555E+04  0.18416809314E+04  0.50400001928E-02 0.  1.
       -1    1    3    3    0  502  0.40375645197E+03  0.18066967274E+03 -0.60094702742E+03  0.74618907318E+03  0.50400001928E-02 0. -1.
</event>
<event>
 5   0  0.7003852E-06  0.2300523E+04  0.7818609E-02  0.8477715E-01
        2   -1    0    0  501    0  0.00000000000E+00  0.00000000000E+00  0.57434570865E+03  0.57434570865E+03  0.25500000920E-02 0. -1.
       -2   -1    0    0    0  501  0.00000000000E+00  0.00000000000E+00 -0.23036683042E+04  0.23036683042E+04  0.25500000920E-02 0.  1.
    10030    2    1    2    0    0  0.00000000000E+00  0.00000000000E+00 -0.17293225956E+04  0.28780140129E+04  0.23005234228E+04 0.  0.
        2    1    3    3  502    0  0.31219596703E+03 -0.25030466373E+03 -0.22137887399E+04  0.22496620482E+04  0.25500000920E-02 0.  1.
       -2    1    3    3    0  502 -0.31219596703E+03  0.25030466373E+03  0.48446614428E+03  0.62835196465E+03  0.25500000920E-02 0. -1.
</event>
<event>
 5   0  0.7003852E-06  0.2300197E+04  0.7818609E-02  0.8477844E-01
       -2   -1    0    0    0  501  0.00000000000E+00  0.00000000000E+00  0.10021329361E+04  0.10021329361E+04  0.25500000920E-02 0. -1.
        2   -1    0    0  501    0  0.00000000000E+00  0.00000000000E+00 -0.13199110905E+04  0.13199110905E+04  0.25500000920E-02 0.  1.
    10030    2    1    2    0    0  0.00000000000E+00  0.00000000000E+00 -0.31777815444E+03  0.23220440266E+04  0.23001968407E+04 0.  0.
        2    1    3    3  502    0  0.84975411976E+03  0.77465524412E+03 -0.13513764209E+03  0.11577715637E+04  0.25500000920E-02 0.  1.
       -2    1    3    3    0  502 -0.84975411976E+03 -0.77465524412E+03 -0.18264051236E+03  0.11642724630E+04  0.25500000920E-02 0. -1.
</event>
<event>
 5   0  0.3184492E-06  0.2298526E+04  0.7818609E-02  0.8478502E-01
        1   -1    0    0  501    0  0.00000000000E+00  0.00000000000E+00  0.11866178418E+04  0.11866178418E+04  0.50400001928E-02 0.  1.
       -1   -1    0    0    0  501  0.00000000000E+00  0.00000000000E+00 -0.11130845358E+04  0.11130845358E+04  0.50400001928E-02 0. -1.
    10030    2    1    2    0    0  0.00000000000E+00  0.00000000000E+00  0.73533305965E+02  0.22997023776E+04  0.22985264580E+04 0.  0.
        1    1    3    3  502    0 -0.55698020886E+03  0.96851407082E+03 -0.23273988237E+03  0.11412336795E+04  0.50400001928E-02 0. -1.
       -1    1    3    3    0  502  0.55698020886E+03 -0.96851407082E+03  0.30627318833E+03  0.11584686980E+04  0.50400001928E-02 0.  1.
</event>
<event>
 5   0  0.3226427E-06  0.2295658E+04  0.7818609E-02  0.8479635E-01
       -1   -1    0    0    0  501  0.00000000000E+00  0.00000000000E+00  0.70399937295E+03  0.70399937297E+03  0.50400001928E-02 0. -1.
        1   -1    0    0  501    0  0.00000000000E+00  0.00000000000E+00 -0.18714662801E+04  0.18714662801E+04  0.50400001928E-02 0.  1.
    10030    2    1    2    0    0  0.00000000000E+00  0.00000000000E+00 -0.11674669071E+04  0.25754656530E+04  0.22956577164E+04 0.  0.
        4    1    3    3  502    0  0.10398171682E+03  0.11428760771E+04 -0.60959893737E+03  0.12994577340E+04  0.12699999809E+01 0.  1.
       -4    1    3    3    0  502 -0.10398171682E+03 -0.11428760771E+04 -0.55786796973E+03  0.12760079191E+04  0.12699999809E+01 0. -1.
</event>
<event>
 5   0  0.3338758E-06  0.2301836E+04  0.7818609E-02  0.8477197E-01
       -1   -1    0    0    0  501  0.00000000000E+00  0.00000000000E+00  0.99180975752E+03  0.99180975754E+03  0.50400001928E-02 0. -1.
        1   -1    0    0  501    0  0.00000000000E+00  0.00000000000E+00 -0.13355511370E+04  0.13355511370E+04  0.50400001928E-02 0.  1.
    10030    2    1    2    0    0  0.00000000000E+00  0.00000000000E+00 -0.34374137950E+03  0.23273608946E+04  0.23018363534E+04 0.  0.
        5    1    3    3  502    0 -0.82587808098E+02 -0.80447018897E+03  0.65611010318E+03  0.10413911794E+04  0.46999998093E+01 0. -1.
       -5    1    3    3    0  502  0.82587808098E+02  0.80447018897E+03 -0.99985148269E+03  0.12859697152E+04  0.46999998093E+01 0.  1.
</event>
<event>
 5   0  0.7044981E-06  0.2303894E+04  0.7818609E-02  0.8476387E-01
       -2   -1    0    0    0  501  0.00000000000E+00  0.00000000000E+00  0.86042349402E+03  0.86042349403E+03  0.25500000920E-02 0. -1.
        2   -1    0    0  501    0  0.00000000000E+00  0.00000000000E+00 -0.15422423366E+04  0.15422423366E+04  0.25500000920E-02 0.  1.
    10030    2    1    2    0    0  0.00000000000E+00  0.00000000000E+00 -0.68181884257E+03  0.24026658306E+04  0.23038936954E+04 0.  0.
        4    1    3    3  502    0 -0.41019059300E+03  0.32788827446E+03  0.72833322813E+03  0.89790753823E+03  0.12699999809E+01 0. -1.
       -4    1    3    3    0  502  0.41019059300E+03 -0.32788827446E+03 -0.14101520707E+04  0.15047582924E+04  0.12699999809E+01 0.  1.
</event>
<event>
 5   0  0.3338758E-06  0.2299112E+04  0.7818609E-02  0.8478271E-01
        1   -1    0    0  501    0  0.00000000000E+00  0.00000000000E+00  0.18094824014E+04  0.18094824014E+04  0.50400001928E-02 0. -1.
       -1   -1    0    0    0  501  0.00000000000E+00  0.00000000000E+00 -0.73030774946E+03  0.73030774948E+03  0.50400001928E-02 0.  1.
    10030    2    1    2    0    0  0.00000000000E+00  0.00000000000E+00  0.10791746519E+04  0.25397901509E+04  0.22991120201E+04 0.  0.
        5    1    3    3  502    0 -0.32324835902E+03  0.17893567540E+03 -0.66291967928E+03  0.75894141323E+03  0.46999998093E+01 0.  1.
       -5    1    3    3    0  502  0.32324835902E+03 -0.17893567540E+03  0.17420943312E+04  0.17808487377E+04  0.46999998093E+01 0. -1.
</event>
<event>
 5   0  0.7242214E-06  0.2309621E+04  0.7818609E-02  0.8474137E-01
       -2   -1    0    0    0  501  0.00000000000E+00  0.00000000000E+00  0.13897389052E+04  0.13897389052E+04  0.25500000920E-02 0. -1.
        2   -1    0    0  501    0  0.00000000000E+00  0.00000000000E+00 -0.95959544231E+03  0.95959544231E+03  0.25500000920E-02 0.  1.
    10030    2    1    2    0    0  0.00000000000E+00  0.00000000000E+00  0.43014346292E+03  0.23493343475E+04  0.23096208515E+04 0.  0.
        1    1    3    3  502    0  0.44795167354E+03 -0.11533439583E+02 -0.86755685652E+03  0.97644693731E+03  0.50400001928E-02 0.  1.
       -1    1    3    3    0  502 -0.44795167354E+03  0.11533439583E+02  0.12977003194E+04  0.13728874102E+04  0.50400001928E-02 0. -1.
</event>
<event>
 5   0  0.3338758E-06  0.2299330E+04  0.7818609E-02  0.8478185E-01
        1   -1    0    0  501    0  0.00000000000E+00  0.00000000000E+00  0.19232810454E+04  0.19232810455E+04  0.50400001928E-02 0. -1.
       -1   -1    0    0    0  501  0.00000000000E+00  0.00000000000E+00 -0.68722656979E+03  0.68722656981E+03  0.50400001928E-02 0.  1.
    10030    2    1    2    0    0  0.00000000000E+00  0.00000000000E+00  0.12360544757E+04  0.26105076153E+04  0.22993301943E+04 0.  0.
        5    1    3    3  502    0 -0.11397870670E+04 -0.15029457780E+03  0.61555871659E+03  0.13040849826E+04  0.46999998093E+01 0.  1.
       -5    1    3    3    0  502  0.11397870670E+04  0.15029457780E+03  0.62049575906E+03  0.13064226327E+04  0.46999998093E+01 0. -1.
</event>
<event>
 5   0  0.3238713E-06  0.2302180E+04  0.7818609E-02  0.8477062E-01
        1   -1    0    0  501    0  0.00000000000E+00  0.00000000000E+00  0.18927732858E+04  0.18927732858E+04  0.50400001928E-02 0.  1.
       -1   -1    0    0    0  501  0.00000000000E+00  0.00000000000E+00 -0.70003517360E+03  0.70003517362E+03  0.50400001928E-02 0. -1.
    10030    2    1    2    0    0  0.00000000000E+00  0.00000000000E+00  0.11927381122E+04  0.25928084594E+04  0.23021797287E+04 0.  0.
        3    1    3    3  502    0 -0.90744347470E+03  0.66605478086E+03  0.86742885416E+03  0.14210965689E+04  0.10100000352E+00 0.  1.
       -3    1    3    3    0  502  0.90744347470E+03 -0.66605478086E+03  0.32530925806E+03  0.11717118906E+04  0.10100000352E+00 0. -1.
</event>
<event>
 5   0  0.3238713E-06  0.2302182E+04  0.7818609E-02  0.8477061E-01
       -1   -1    0    0    0  501  0.00000000000E+00  0.00000000000E+00  0.82142484643E+03  0.82142484645E+03  0.50400001928E-02 0. -1.
        1   -1    0    0  501    0  0.00000000000E+00  0.00000000000E+00 -0.16130632874E+04  0.16130632874E+04  0.50400001928E-02 0.  1.
    10030    2    1    2    0    0  0.00000000000E+00  0.00000000000E+00 -0.79163844092E+03  0.24344881338E+04  0.23021818027E+04 0.  0.
        3    1    3    3  502    0 -0.31843545635E+03 -0.20335526005E+03  0.75398464139E+03  0.84335481934E+03  0.10100000352E+00 0. -1.
       -3    1    3    3    0  502  0.31843545635E+03  0.20335526005E+03 -0.15456230823E+04  0.15911333145E+04  0.10100000352E+00 0.  1.
</event>
<event>
 5   0  0.3338758E-06  0.2293233E+04  0.7818609E-02  0.8480594E-01
       -1   -1    0    0    0  501  0.00000000000E+00  0.00000000000E+00  0.73359542773E+03  0.73359542774E+03  0.50400001928E-02 0.  1.
        1   -1    0    0  501    0  0.00000000000E+00  0.00000000000E+00 -0.17921730584E+04  0.17921730584E+04  0.50400001928E-02 0. -1.
    10030    2    1    2    0    0  0.00000000000E+00  0.00000000000E+00 -0.10585776306E+04  0.25257684861E+04  0.22932334912E+04 0.  0.
        5    1    3    3  502    0 -0.98028840465E+02  0.58230522032E+02  0.72732536268E+03  0.73622328166E+03  0.46999998093E+01 0.  1.
       -5    1    3    3    0  502  0.98028840465E+02 -0.58230522032E+02 -0.17859029933E+04  0.17895452045E+04  0.46999998093E+01 0. -1.
</event>
<event>
 5   0  0.7044981E-06  0.2299279E+04  0.7818609E-02  0.8478206E-01
       -2   -1    0    0    0  501  0.00000000000E+00  0.00000000000E+00  0.92196157742E+03  0.92196157743E+03  0.25500000920E-02 0.  1.
        2   -1    0    0  501    0  0.00000000000E+00  0.00000000000E+00 -0.14335421503E+04  0.14335421503E+04  0.25500000920E-02 0. -1.
    10030    2    1    2    0    0  0.00000000000E+00  0.00000000000E+00 -0.51158057288E+03  0.23555037277E+04  0.22992788280E+04 0.  0.
        4    1    3    3  502    0 -0.82099664587E+03 -0.64361748967E+03  0.23912796189E+03  0.10702629399E+04  0.12699999809E+01 0.  1.
       -4    1    3    3    0  502  0.82099664587E+03  0.64361748967E+03 -0.75070853477E+03  0.12852407878E+04  0.12699999809E+01 0. -1.
</event>
<event>
 5   0  0.7348107E-06  0.2295899E+04  0.7818609E-02  0.8479540E-01
       -2   -1    0    0    0  501  0.00000000000E+00  0.00000000000E+00  0.81258939577E+03  0.81258939577E+03  0.25500000920E-02 0.  1.
        2   -1    0    0  501    0  0.00000000000E+00  0.00000000000E+00 -0.16217143851E+04  0.16217143851E+04  0.25500000920E-02 0. -1.
    10030    2    1    2    0    0  0.00000000000E+00  0.00000000000E+00 -0.80912498930E+03  0.24343037808E+04  0.22958988761E+04 0.  0.
        3    1    3    3  502    0 -0.44963169914E+03  0.82308860221E+03  0.29726543287E+03  0.98387512405E+03  0.10100000352E+00 0.  1.
       -3    1    3    3    0  502  0.44963169914E+03 -0.82308860221E+03 -0.11063904222E+04  0.14504286568E+04  0.10100000352E+00 0. -1.
</event>
<event>
 5   0  0.7003852E-06  0.2301469E+04  0.7818609E-02  0.8477342E-01
       -2   -1    0    0    0  501  0.00000000000E+00  0.00000000000E+00  0.14260450783E+04  0.14260450783E+04  0.25500000920E-02 0.  1.
        2   -1    0    0  501    0  0.00000000000E+00  0.00000000000E+00 -0.92857483881E+03  0.92857483881E+03  0.25500000920E-02 0. -1.
    10030    2    1    2    0    0  0.00000000000E+00  0.00000000000E+00  0.49747023953E+03  0.23546199172E+04  0.23014687300E+04 0.  0.
        2    1    3    3  502    0 -0.45101039324E+03  0.10583768342E+04  0.27416227477E+03  0.11826820583E+04  0.25500000920E-02 0.  1.
       -2    1    3    3    0  502  0.45101039324E+03 -0.10583768342E+04  0.22330796476E+03  0.11719378589E+04  0.25500000920E-02 0. -1.
</event>
<event>
 5   0  0.7242214E-06  0.2304978E+04  0.7818609E-02  0.8475961E-01
        2   -1    0    0  501    0  0.00000000000E+00  0.00000000000E+00  0.13838802847E+04  0.13838802847E+04  0.25500000920E-02 0.  1.
       -2   -1    0    0    0  501  0.00000000000E+00  0.00000000000E+00 -0.95978752919E+03  0.95978752920E+03  0.25500000920E-02 0. -1.
    10030    2    1    2    0    0  0.00000000000E+00  0.00000000000E+00  0.42409275550E+03  0.23436678139E+04  0.23049781250E+04 0.  0.
        1    1    3    3  502    0 -0.61224558449E+03  0.79021261440E+03  0.79521542102E+03  0.12773598544E+04  0.50400001928E-02 0.  1.
       -1    1    3    3    0  502  0.61224558449E+03 -0.79021261440E+03 -0.37112266551E+03  0.10663079595E+04  0.50400001928E-02 0. -1.
</event>
<event>
 5   0  0.7497344E-06  0.2296070E+04  0.7818609E-02  0.8479472E-01
       -2   -1    0    0    0  501  0.00000000000E+00  0.00000000000E+00  0.39738717250E+03  0.39738717251E+03  0.25500000920E-02 0.  1.
        2   -1    0    0  501    0  0.00000000000E+00  0.00000000000E+00 -0.33166256816E+04  0.33166256816E+04  0.25500000920E-02 0. -1.
    10030    2    1    2    0    0  0.00000000000E+00  0.00000000000E+00 -0.29192385091E+04  0.37140128541E+04  0.22960701225E+04 0.  0.
        5    1    3    3  502    0 -0.36618705141E+03 -0.77281317204E+03 -0.22070823942E+03  0.88321422795E+03  0.46999998093E+01 0.  1.
       -5    1    3    3    0  502  0.36618705141E+03  0.77281317204E+03 -0.26985302697E+04  0.28307986262E+04  0.46999998093E+01 0. -1.
</event>
<event>
 5   0  0.7348107E-06  0.2298459E+04  0.7818609E-02  0.8478529E-01
        2   -1    0    0  501    0  0.00000000000E+00  0.00000000000E+00  0.16119333334E+04  0.16119333334E+04  0.25500000920E-02 0. -1.
       -2   -1    0    0    0  501  0.00000000000E+00  0.00000000000E+00 -0.81934456839E+03  0.81934456839E+03  0.25500000920E-02 0.  1.
    10030    2    1    2    0    0  0.00000000000E+00  0.00000000000E+00  0.79258876506E+03  0.24312779018E+04  0.22984593287E+04 0.  0.
        3    1    3    3  502    0 -0.13262760230E+03  0.49758270715E+03  0.14830633319E+04  0.15699221280E+04  0.10100000352E+00 0. -1.
       -3    1    3    3    0  502  0.13262760230E+03 -0.49758270715E+03 -0.69047456688E+03  0.86135577380E+03  0.10100000352E+00 0.  1.
</event>
<event>
 5   0  0.3184492E-06  0.2300622E+04  0.7818609E-02  0.8477676E-01
       -1   -1    0    0    0  501  0.00000000000E+00  0.00000000000E+00  0.57767735676E+03  0.57767735678E+03  0.50400001928E-02 0.  1.
        1   -1    0    0  501    0  0.00000000000E+00  0.00000000000E+00 -0.22905785258E+04  0.22905785258E+04  0.50400001928E-02 0. -1.
    10030    2    1    2    0    0  0.00000000000E+00  0.00000000000E+00 -0.17129011691E+04  0.28682558826E+04  0.23006219579E+04 0.  0.
        1    1    3    3  502    0 -0.80732168802E+03  0.41489669932E+03 -0.17374118109E+04  0.19602314608E+04  0.50400001928E-02 0. -1.
       -1    1    3    3    0  502  0.80732168802E+03 -0.41489669932E+03  0.24510641863E+02  0.90802442183E+03  0.50400001928E-02 0.  1.
</event>
<event>
 5   0  0.3238713E-06  0.2299395E+04  0.7818609E-02  0.8478160E-01
        1   -1    0    0  501    0  0.00000000000E+00  0.00000000000E+00  0.20978049228E+04  0.20978049228E+04  0.50400001928E-02 0. -1.
       -1   -1    0    0    0  501  0.00000000000E+00  0.00000000000E+00 -0.63008936851E+03  0.63008936853E+03  0.50400001928E-02 0.  1.
    10030    2    1    2    0    0  0.00000000000E+00  0.00000000000E+00  0.14677155543E+04  0.27278942913E+04  0.22993952067E+04 0.  0.
        3    1    3    3  502    0  0.37286536613E+03 -0.10824207134E+04  0.60863493908E+03  0.12965722816E+04  0.10100000352E+00 0. -1.
       -3    1    3    3    0  502 -0.37286536613E+03  0.10824207134E+04  0.85908061520E+03  0.14313220098E+04  0.10100000352E+00 0.  1.
</event>
<event>
 5   0  0.3338758E-06  0.2293119E+04  0.7818609E-02  0.8480639E-01
        1   -1    0    0  501    0  0.00000000000E+00  0.00000000000E+00  0.10669040136E+04  0.10669040136E+04  0.50400001928E-02 0.  1.
       -1   -1    0    0    0  501  0.00000000000E+00  0.00000000000E+00 -0.12321622314E+04  0.12321622315E+04  0.50400001928E-02 0. -1.
    10030    2    1    2    0    0  0.00000000000E+00  0.00000000000E+00 -0.16525821787E+03  0.22990662450E+04  0.22931191248E+04 0.  0.
        5    1    3    3  502    0 -0.52611905816E+03  0.83990616421E+03  0.49534938100E+03  0.11079876928E+04  0.46999998093E+01 0.  1.
       -5    1    3    3    0  502  0.52611905816E+03 -0.83990616421E+03 -0.66060759887E+03  0.11910785523E+04  0.46999998093E+01 0. -1.
</event>
<event>
 5   0  0.3238713E-06  0.2301142E+04  0.7818609E-02  0.8477471E-01
        1   -1    0    0  501    0  0.00000000000E+00  0.00000000000E+00  0.22146982083E+04  0.22146982083E+04  0.50400001928E-02 0.  1.
       -1   -1    0    0    0  501  0.00000000000E+00  0.00000000000E+00 -0.59774006049E+03  0.59774006051E+03  0.50400001928E-02 0. -1.
    10030    2    1    2    0    0  0.00000000000E+00  0.00000000000E+00  0.16169581478E+04  0.28124382688E+04  0.23011421868E+04 0.  0.
        3    1    3    3  502    0 -0.36885177569E+03  0.95434360076E+03  0.14517174897E+04  0.17760368861E+04  0.10100000352E+00 0. -1.
       -3    1    3    3    0  502  0.36885177569E+03 -0.95434360076E+03  0.16524065809E+03  0.10364013827E+04  0.10100000352E+00 0.  1.
</event>
<event>
 5   0  0.7003852E-06  0.2298714E+04  0.7818609E-02  0.8478428E-01
       -2   -1    0    0    0  501  0.00000000000E+00  0.00000000000E+00  0.75581156334E+03  0.75581156334E+03  0.25500000920E-02 0. -1.
        2   -1    0    0  501    0  0.00000000000E+00  0.00000000000E+00 -0.17478192306E+04  0.17478192306E+04  0.25500000920E-02 0.  1.
    10030    2    1    2    0    0  0.00000000000E+00  0.00000000000E+00 -0.99200766728E+03  0.25036307940E+04  0.22987144104E+04 0.  0.
        2    1    3    3  502    0  0.22850786152E+03  0.49922482775E+03  0.60375148790E+03  0.81606196491E+03  0.25500000920E-02 0. -1.
       -2    1    3    3    0  502 -0.22850786152E+03 -0.49922482775E+03 -0.15957591552E+04  0.16875688291E+04  0.25500000920E-02 0.  1.
</event>
<event>
 5   0  0.7348107E-06  0.2316587E+04  0.7818609E-02  0.8471410E-01
        2   -1    0    0  501    0  0.00000000000E+00  0.00000000000E+00  0.12164158141E+04  0.12164158141E+04  0.25500000920E-02 0.  1.
       -2   -1    0    0    0  501  0.00000000000E+00  0.00000000000E+00 -0.11029484395E+04  0.11029484395E+04  0.25500000920E-02 0. -1.
    10030    2    1    2    0    0  0.00000000000E+00  0.00000000000E+00  0.11346737459E+03  0.23193642537E+04  0.23165870793E+04 0.  0.
        3    1    3    3  502    0 -0.62715155982E+03  0.20383025134E+02  0.10315072393E+04  0.12073697617E+04  0.10100000352E+00 0.  1.
       -3    1    3    3    0  502  0.62715155982E+03 -0.20383025134E+02 -0.91803986469E+03  0.11119944919E+04  0.10100000352E+00 0. -1.
</event>
<event>
 5   0  0.3238713E-06  0.2297536E+04  0.7818609E-02  0.8478893E-01
        1   -1    0    0  501    0  0.00000000000E+00  0.00000000000E+00  0.15347497572E+04  0.15347497572E+04  0.50400001928E-02 0.  1.
       -1   -1    0    0    0  501  0.00000000000E+00  0.00000000000E+00 -0.85985890621E+03  0.85985890622E+03  0.50400001928E-02 0. -1.
    10030    2    1    2    0    0  0.00000000000E+00  0.00000000000E+00  0.67489085097E+03  0.23946086634E+04  0.22975362870E+04 0.  0.
        3    1    3    3  502    0 -0.61148547324E+03  0.32958144504E+03 -0.61615970182E+03  0.92854251450E+03  0.10100000352E+00 0. -1.
       -3    1    3    3    0  502  0.61148547324E+03 -0.32958144504E+03  0.12910505528E+04  0.14660661489E+04  0.10100000352E+00 0.  1.
</event>
<event>
 5   0  0.3195296E-06  0.2283699E+04  0.7818609E-02  0.8484376E-01
       -1   -1    0    0    0  501  0.00000000000E+00  0.00000000000E+00  0.65154361991E+03  0.65154361993E+03  0.50400001928E-02 0.  1.
        1   -1    0    0  501    0  0.00000000000E+00  0.00000000000E+00 -0.20011249832E+04  0.20011249832E+04  0.50400001928E-02 0. -1.
    10030    2    1    2    0    0  0.00000000000E+00  0.00000000000E+00 -0.13495813633E+04  0.26526686031E+04  0.22836989429E+04 0.  0.
        2    1    3    3  502    0 -0.62371620640E+03 -0.65177911638E+03  0.13829130390E+03  0.91266774207E+03  0.25500000920E-02 0.  1.
       -2    1    3    3    0  502  0.62371620640E+03  0.65177911638E+03 -0.14878726672E+04  0.17400008610E+04  0.25500000920E-02 0. -1.
</event>
<event>
 5   0  0.7003852E-06  0.2298074E+04  0.7818609E-02  0.8478681E-01
        2   -1    0    0  501    0  0.00000000000E+00  0.00000000000E+00  0.86053548354E+03  0.86053548355E+03  0.25500000920E-02 0. -1.
       -2   -1    0    0    0  501  0.00000000000E+00  0.00000000000E+00 -0.15342608116E+04  0.15342608116E+04  0.25500000920E-02 0.  1.
    10030    2    1    2    0    0  0.00000000000E+00  0.00000000000E+00 -0.67372532809E+03  0.23947962952E+04  0.22980738625E+04 0.  0.
        2    1    3    3  502    0  0.28105558085E+03 -0.10261479364E+04 -0.78907868836E+03  0.13246195693E+04  0.25500000920E-02 0.  1.
       -2    1    3    3    0  502 -0.28105558085E+03  0.10261479364E+04  0.11535336027E+03  0.10701767259E+04  0.25500000920E-02 0. -1.
</event>
<event>
 5   0  0.3226427E-06  0.2264338E+04  0.7818609E-02  0.8492116E-01
        1   -1    0    0  501    0  0.00000000000E+00  0.00000000000E+00  0.12583560113E+04  0.12583560113E+04  0.50400001928E-02 0. -1.
       -1   -1    0    0    0  501  0.00000000000E+00  0.00000000000E+00 -0.10186357213E+04  0.10186357213E+04  0.50400001928E-02 0.  1.
    10030    2    1    2    0    0  0.00000000000E+00  0.00000000000E+00  0.23972028999E+03  0.22769917327E+04  0.22643377692E+04 0.  0.
        4    1    3    3  502    0  0.61498443359E+03 -0.21851929438E+03  0.10501507237E+04  0.12364362866E+04  0.12699999809E+01 0. -1.
       -4    1    3    3    0  502 -0.61498443359E+03  0.21851929438E+03 -0.81043043366E+03  0.10405554460E+04  0.12699999809E+01 0.  1.
</event>
<event>
 5   0  0.7242214E-06  0.2305170E+04  0.7818609E-02  0.8475886E-01
        2   -1    0    0  501    0  0.00000000000E+00  0.00000000000E+00  0.19803604520E+04  0.19803604520E+04  0.25500000920E-02 0. -1.
       -2   -1    0    0    0  501  0.00000000000E+00  0.00000000000E+00 -0.67081309375E+03  0.67081309376E+03  0.25500000920E-02 0.  1.
    10030    2    1    2    0    0  0.00000000000E+00  0.00000000000E+00  0.13095473582E+04  0.26511735457E+04  0.23051696003E+04 0.  0.
        1    1    3    3  502    0 -0.10008729355E+04  0.27150060447E+03  0.76292669993E+02  0.10398460380E+04  0.50400001928E-02 0.  1.
       -1    1    3    3    0  502  0.10008729355E+04 -0.27150060447E+03  0.12332546882E+04  0.16113275078E+04  0.50400001928E-02 0. -1.
</event>
<event>
 5   0  0.3226427E-06  0.2298300E+04  0.7818609E-02  0.8478592E-01
       -1   -1    0    0    0  501  0.00000000000E+00  0.00000000000E+00  0.11110376779E+04  0.11110376779E+04  0.50400001928E-02 0. -1.
        1   -1    0    0  501    0  0.00000000000E+00  0.00000000000E+00 -0.11885699025E+04  0.11885699025E+04  0.50400001928E-02 0.  1.
    10030    2    1    2    0    0  0.00000000000E+00  0.00000000000E+00 -0.77532224619E+02  0.22996075804E+04  0.22983001932E+04 0.  0.
        4    1    3    3  502    0 -0.51197958517E+03  0.25829170981E+03  0.95764505452E+03  0.11162093739E+04  0.12699999809E+01 0. -1.
       -4    1    3    3    0  502  0.51197958517E+03 -0.25829170981E+03 -0.10351772791E+04  0.11833982065E+04  0.12699999809E+01 0.  1.
</event>
<event>
 5   0  0.3238713E-06  0.2297662E+04  0.7818609E-02  0.8478844E-01
        1   -1    0    0  501    0  0.00000000000E+00  0.00000000000E+00  0.13310444919E+04  0.13310444919E+04  0.50400001928E-02 0.  1.
       -1   -1    0    0    0  501  0.00000000000E+00  0.00000000000E+00 -0.99156166933E+03  0.99156166935E+03  0.50400001928E-02 0. -1.
    10030    2    1    2    0    0  0.00000000000E+00  0.00000000000E+00  0.33948282254E+03  0.23226061612E+04  0.22976620277E+04 0.  0.
        3    1    3    3  502    0  0.85304285028E+02  0.95481799666E+03  0.80974874995E+03  0.12548495033E+04  0.10100000352E+00 0.  1.
       -3    1    3    3    0  502 -0.85304285028E+02 -0.95481799666E+03 -0.47026592741E+03  0.10677566579E+04  0.10100000352E+00 0. -1.
</event>
<event>
 5   0  0.3195296E-06  0.2299511E+04  0.7818609E-02  0.8478114E-01
       -1   -1    0    0    0  501  0.00000000000E+00  0.00000000000E+00  0.14239216322E+04  0.14239216322E+04  0.50400001928E-02 0.  1.
        1   -1    0    0  501    0  0.00000000000E+00  0.00000000000E+00 -0.92837829973E+03  0.92837829974E+03  0.50400001928E-02 0. -1.
    10030    2    1    2    0    0  0.00000000000E+00  0.00000000000E+00  0.49554333243E+03  0.23522999319E+04  0.22995112036E+04 0.  0.
        2    1    3    3  502    0  0.60993535446E+03  0.97000264459E+03  0.15066255760E+03  0.11556926379E+04  0.25500000920E-02 0. -1.
       -2    1    3    3    0  502 -0.60993535446E+03 -0.97000264459E+03  0.34488077482E+03  0.11966072940E+04  0.25500000920E-02 0.  1.
</event>
<event>
 5   0  0.7044981E-06  0.2308904E+04  0.7818609E-02  0.8474419E-01
       -2   -1    0    0    0  501  0.00000000000E+00  0.00000000000E+00  0.86671620309E+03  0.86671620309E+03  0.25500000920E-02 0.  1.
        2   -1    0    0  501    0  0.00000000000E+00  0.00000000000E+00 -0.15377112260E+04  0.15377112260E+04  0.25500000920E-02 0. -1.
    10030    2    1    2    0    0  0.00000000000E+00  0.00000000000E+00 -0.67099502290E+03  0.24044274291E+04  0.23089038397E+04 0.  0.
        4    1    3    3  502    0  0.38158728676E+03 -0.98360544001E+03  0.15258170671E+03  0.10660071806E+04  0.12699999809E+01 0.  1.
       -4    1    3    3    0  502 -0.38158728676E+03  0.98360544001E+03 -0.82357672961E+03  0.13384202485E+04  0.12699999809E+01 0. -1.
</event>
<event>
 5   0  0.7497344E-06  0.2301201E+04  0.7818609E-02  0.8477448E-01
        2   -1    0    0  501    0  0.00000000000E+00  0.00000000000E+00  0.17760716327E+04  0.17760716327E+04  0.25500000920E-02 0.  1.
       -2   -1    0    0    0  501  0.00000000000E+00  0.00000000000E+00 -0.74539889135E+03  0.74539889135E+03  0.25500000920E-02 0. -1.
    10030    2    1    2    0    0  0.00000000000E+00  0.00000000000E+00  0.10306727413E+04  0.25214705240E+04  0.23012012741E+04 0.  0.
        5    1    3    3  502    0 -0.68696626673E+03 -0.91806747779E+03  0.61979922631E+03  0.13034353518E+04  0.46999998093E+01 0.  1.
       -5    1    3    3    0  502  0.68696626673E+03  0.91806747779E+03  0.41087351501E+03  0.12180351722E+04  0.46999998093E+01 0. -1.
</event>
<event>
 5   0  0.3338758E-06  0.2300902E+04  0.7818609E-02  0.8477565E-01
       -1   -1    0    0    0  501  0.00000000000E+00  0.00000000000E+00  0.99723550772E+03  0.99723550774E+03  0.50400001928E-02 0. -1.
        1   -1    0    0  501    0  0.00000000000E+00  0.00000000000E+00 -0.13272070078E+04  0.13272070078E+04  0.50400001928E-02 0.  1.
    10030    2    1    2    0    0  0.00000000000E+00  0.00000000000E+00 -0.32997150005E+03  0.23244425155E+04  0.23009023919E+04 0.  0.
        5    1    3    3  502    0  0.43714017035E+03 -0.10342989871E+04  0.87874724112E+02  0.11263258767E+04  0.46999998093E+01 0.  1.
       -5    1    3    3    0  502 -0.43714017035E+03  0.10342989871E+04 -0.41784622416E+03  0.11981166389E+04  0.46999998093E+01 0. -1.
</event>
<event>
 5   0  0.7044981E-06  0.2296155E+04  0.7818609E-02  0.8479439E-01
       -2   -1    0    0    0  501  0.00000000000E+00  0.00000000000E+00  0.12426003379E+04  0.12426003379E+04  0.25500000920E-02 0. -1.
        2   -1    0    0  501    0  0.00000000000E+00  0.00000000000E+00 -0.10607451336E+04  0.10607451336E+04  0.25500000920E-02 0.  1.
    10030    2    1    2    0    0  0.00000000000E+00  0.00000000000E+00  0.18185520428E+03  0.23033454716E+04  0.22961552748E+04 0.  0.
        4    1    3    3  502    0 -0.44075325588E+03  0.10307584496E+04  0.33940111467E+03  0.11712903754E+04  0.12699999809E+01 0. -1.
       -4    1    3    3    0  502  0.44075325588E+03 -0.10307584496E+04 -0.15754591039E+03  0.11320550962E+04  0.12699999809E+01 0.  1.
</event>
<event>
 5   0  0.3184492E-06  0.2301221E+04  0.7818609E-02  0.8477440E-01
       -1   -1    0    0    0  501  0.00000000000E+00  0.00000000000E+00  0.10620905601E+04  0.10620905601E+04  0.50400001928E-02 0. -1.
        1   -1    0    0  501    0  0.00000000000E+00  0.00000000000E+00 -0.12465082201E+04  0.12465082201E+04  0.50400001928E-02 0.  1.
    10030    2    1    2    0    0  0.00000000000E+00  0.00000000000E+00 -0.18441766007E+03  0.23085987802E+04  0.23012210791E+04 0.  0.
        1    1    3    3  502    0 -0.37043119906E+02  0.18230271286E+03 -0.12313217999E+04  0.12452950842E+04  0.50400001928E-02 0.  1.
       -1    1    3    3    0  502  0.37043119906E+02 -0.18230271286E+03  0.10469041398E+04  0.10633036960E+04  0.50400001928E-02 0. -1.
</event>
<event>
 5   0  0.3338758E-06  0.2300381E+04  0.7818609E-02  0.8477771E-01
        1   -1    0    0  501    0  0.00000000000E+00  0.00000000000E+00  0.15563859430E+04  0.15563859430E+04  0.50400001928E-02 0.  1.
       -1   -1    0    0    0  501  0.00000000000E+00  0.00000000000E+00 -0.85000639477E+03  0.85000639479E+03  0.50400001928E-02 0. -1.
    10030    2    1    2    0    0  0.00000000000E+00  0.00000000000E+00  0.70637954824E+03  0.24063923378E+04  0.23003808418E+04 0.  0.
        5    1    3    3  502    0 -0.18814917681E+03  0.77206211955E+03 -0.51665678885E+03  0.94785882738E+03  0.46999998093E+01 0. -1.
       -5    1    3    3    0  502  0.18814917681E+03 -0.77206211955E+03  0.12230363371E+04  0.14585335104E+04  0.46999998093E+01 0.  1.
</event>
<event>
 5   0  0.3195296E-06  0.2300984E+04  0.7818609E-02  0.8477533E-01
        1   -1    0    0  501    0  0.00000000000E+00  0.00000000000E+00  0.14343670494E+04  0.14343670494E+04  0.50400001928E-02 0.  1.
       -1   -1    0    0    0  501  0.00000000000E+00  0.00000000000E+00 -0.92279823401E+03  0.92279823402E+03  0.50400001928E-02 0. -1.
    10030    2    1    2    0    0  0.00000000000E+00  0.00000000000E+00  0.51156881538E+03  0.23571652834E+04  0.23009835985E+04 0.  0.
        2    1    3    3  502    0 -0.22239639469E+03 -0.70832267959E+03  0.11561352176E+04  0.13739831936E+04  0.25500000920E-02 0.  1.
       -2    1    3    3    0  502  0.22239639469E+03  0.70832267959E+03 -0.64456640227E+03  0.98318208982E+03  0.25500000920E-02 0. -1.
</event>
<event>
 5   0  0.3195296E-06  0.2301562E+04  0.7818609E-02  0.8477305E-01
        1   -1    0    0  501    0  0.00000000000E+00  0.00000000000E+00  0.15242488203E+04  0.15242488203E+04  0.50400001928E-02 0. -1.
       -1   -1    0    0    0  501  0.00000000000E+00  0.00000000000E+00 -0.86881940248E+03  0.86881940250E+03  0.50400001928E-02 0.  1.
    10030    2    1    2    0    0  0.00000000000E+00  0.00000000000E+00  0.65542941781E+03  0.23930682228E+04  0.23015620342E+04 0.  0.
        2    1    3    3  502    0 -0.13366773272E+03 -0.10862265297E+04  0.69758497580E+03  0.12978366365E+04  0.25500000920E-02 0. -1.
       -2    1    3    3    0  502  0.13366773272E+03  0.10862265297E+04 -0.42155557990E+02  0.10952315863E+04  0.25500000920E-02 0.  1.
</event>
<event>
 5   0  0.3338758E-06  0.2297288E+04  0.7818609E-02  0.8478991E-01
        1   -1    0    0  501    0  0.00000000000E+00  0.00000000000E+00  0.13471645342E+04  0.13471645342E+04  0.50400001928E-02 0. -1.
       -1   -1    0    0    0  501  0.00000000000E+00  0.00000000000E+00 -0.97937810114E+03  0.97937810115E+03  0.50400001928E-02 0.  1.
    10030    2    1    2    0    0  0.00000000000E+00  0.00000000000E+00  0.36778643305E+03  0.23265426353E+04  0.22972883523E+04 0.  0.
        5    1    3    3  502    0  0.41717389961E+03 -0.26785721306E+03  0.12332246233E+04  0.13291525912E+04  0.46999998093E+01 0. -1.
       -5    1    3    3    0  502 -0.41717389961E+03  0.26785721306E+03 -0.86543819024E+03  0.99739004418E+03  0.46999998093E+01 0.  1.
</event>
<event>
 5   0  0.3338758E-06  0.2306126E+04  0.7818609E-02  0.8475510E-01
       -1   -1    0    0    0  501  0.00000000000E+00  0.00000000000E+00  0.60417245483E+03  0.60417245485E+03  0.50400001928E-02 0. -1.
        1   -1    0    0  501    0  0.00000000000E+00  0.00000000000E+00 -0.22006205547E+04  0.22006205547E+04  0.50400001928E-02 0.  1.
    10030    2    1    2    0    0  0.00000000000E+00  0.00000000000E+00 -0.15964480998E+04  0.28047930095E+04  0.23061260353E+04 0.  0.
        5    1    3    3  502    0 -0.10213202468E+04 -0.51136049691E+03 -0.99032628173E+03  0.15117383499E+04  0.46999998093E+01 0. -1.
       -5    1    3    3    0  502  0.10213202468E+04  0.51136049691E+03 -0.60612181812E+03  0.12930546596E+04  0.46999998093E+01 0.  1.
</event>
<event>
 5   0  0.3195296E-06  0.2299743E+04  0.7818609E-02  0.8478022E-01
        1   -1    0    0  501    0  0.00000000000E+00  0.00000000000E+00  0.83557704145E+03  0.83557704147E+03  0.50400001928E-02 0. -1.
       -1   -1    0    0    0  501  0.00000000000E+00  0.00000000000E+00 -0.15823853304E+04  0.15823853304E+04  0.50400001928E-02 0.  1.
    10030    2    1    2    0    0  0.00000000000E+00  0.00000000000E+00 -0.74680828897E+03  0.24179623719E+04  0.22997433360E+04 0.  0.
        2    1    3    3  502    0  0.74901344090E+03 -0.48473249204E+03 -0.11361029606E+04  0.14445472165E+04  0.25500000920E-02 0.  1.
       -2    1    3    3    0  502 -0.74901344090E+03  0.48473249204E+03  0.38929467163E+03  0.97341515544E+03  0.25500000920E-02 0. -1.
</event>
<event>
 5   0  0.3195296E-06  0.2291623E+04  0.7818609E-02  0.8481231E-01
       -1   -1    0    0    0  501  0.00000000000E+00  0.00000000000E+00  0.11691131576E+04  0.11691131576E+04  0.50400001928E-02 0. -1.
        1   -1    0    0  501    0  0.00000000000E+00  0.00000000000E+00 -0.11229745414E+04  0.11229745415E+04  0.50400001928E-02 0.  1.
    10030    2    1    2    0    0  0.00000000000E+00  0.00000000000E+00  0.46138616153E+02  0.22920876991E+04  0.22916232780E+04 0.  0.
        2    1    3    3  502    0  0.90414301769E+03 -0.93342351730E+02 -0.67470874351E+03  0.11319979150E+04  0.25500000920E-02 0.  1.
       -2    1    3    3    0  502 -0.90414301769E+03  0.93342351730E+02  0.72084735966E+03  0.11600897840E+04  0.25500000920E-02 0. -1.
</event>
<event>
 5   0  0.2519625E-06  0.2297141E+04  0.7818609E-02  0.8479049E-01
       -4   -1    0    0    0  501  0.00000000000E+00  0.00000000000E+00  0.15672813537E+04  0.15672818683E+04  0.12699999809E+01 0. -1.
        4   -1    0    0  501    0  0.00000000000E+00  0.00000000000E+00 -0.84171996092E+03  0.84172091901E+03  0.12699999809E+01 0.  1.
    10030    2    1    2    0    0  0.00000000000E+00  0.00000000000E+00  0.72556139280E+03  0.24090027873E+04  0.22971406344E+04 0.  0.
        5    1    3    3  502    0  0.76408536257E+03  0.10777777691E+03  0.12549427853E+04  0.14732094131E+04  0.46999998093E+01 0. -1.
       -5    1    3    3    0  502 -0.76408536257E+03 -0.10777777691E+03 -0.52938139248E+03  0.93579337420E+03  0.46999998093E+01 0.  1.
</event>
<event>
 5   0  0.7242214E-06  0.2286184E+04  0.7818609E-02  0.8483388E-01
       -2   -1    0    0    0  501  0.00000000000E+00  0.00000000000E+00  0.78009260177E+03  0.78009260177E+03  0.25500000920E-02 0.  1.
        2   -1    0    0  501    0  0.00000000000E+00  0.00000000000E+00 -0.16750056844E+04  0.16750056844E+04  0.25500000920E-02 0. -1.
    10030    2    1    2    0    0  0.00000000000E+00  0.00000000000E+00 -0.89491308259E+03  0.24550982861E+04  0.22861841941E+04 0.  0.
        1    1    3    3  502    0  0.25380274510E+03  0.11088391721E+04 -0.56856959774E+03  0.12716963201E+04  0.50400001928E-02 0. -1.
       -1    1    3    3    0  502 -0.25380274510E+03 -0.11088391721E+04 -0.32634348485E+03  0.11834019660E+04  0.50400001928E-02 0.  1.
</event>
<event>
 5   0  0.3338758E-06  0.2300209E+04  0.7818609E-02  0.8477839E-01
       -1   -1    0    0    0  501  0.00000000000E+00  0.00000000000E+00  0.65161114051E+03  0.65161114053E+03  0.50400001928E-02 0.  1.
        1   -1    0    0  501    0  0.00000000000E+00  0.00000000000E+00 -0.20299527152E+04  0.20299527152E+04  0.50400001928E-02 0. -1.
    10030    2    1    2    0    0  0.00000000000E+00  0.00000000000E+00 -0.13783415747E+04  0.26815638558E+04  0.23002085158E+04 0.  0.
        5    1    3    3  502    0  0.52318351818E+03  0.83624271927E+02  0.50085279322E+03  0.72910192911E+03  0.46999998093E+01 0.  1.
       -5    1    3    3    0  502 -0.52318351818E+03 -0.83624271927E+02 -0.18791943679E+04  0.19524619267E+04  0.46999998093E+01 0. -1.
</event>
<event>
 5   0  0.3195296E-06  0.2294041E+04  0.7818609E-02  0.8480274E-01
        1   -1    0    0  501    0  0.00000000000E+00  0.00000000000E+00  0.10641035599E+04  0.10641035599E+04  0.50400001928E-02 0. -1.
       -1   -1    0    0    0  501  0.00000000000E+00  0.00000000000E+00 -0.12363985929E+04  0.12363985929E+04  0.50400001928E-02 0.  1.
    10030    2    1    2    0    0  0.00000000000E+00  0.00000000000E+00 -0.17229503303E+03  0.23005021528E+04  0.22940411018E+04 0.  0.
        2    1    3    3  502    0 -0.58582323484E+03 -0.43949120812E+03 -0.97142190499E+03  0.12165532878E+04  0.25500000920E-02 0.  1.
       -2    1    3    3    0  502  0.58582323484E+03  0.43949120812E+03  0.79912687196E+03  0.10839488650E+04  0.25500000920E-02 0. -1.
</event>
<event>
 5   0  0.3184492E-06  0.2302325E+04  0.7818609E-02  0.8477005E-01
        1   -1    0    0  501    0  0.00000000000E+00  0.00000000000E+00  0.13378603193E+04  0.13378603193E+04  0.50400001928E-02 0. -1.
       -1   -1    0    0    0  501  0.00000000000E+00  0.00000000000E+00 -0.99051795865E+03  0.99051795867E+03  0.50400001928E-02 0.  1.
    10030    2    1    2    0    0  0.00000000000E+00  0.00000000000E+00  0.34734236068E+03  0.23283782780E+04  0.23023246274E+04 0.  0.
        1    1    3    3  502    0 -0.44747410865E+03  0.27053005440E+03 -0.86348531130E+03  0.10094684102E+04  0.50400001928E-02 0.  1.
       -1    1    3    3    0  502  0.44747410865E+03 -0.27053005440E+03  0.12108276720E+04  0.13189098678E+04  0.50400001928E-02 0. -1.
</event>
<event>
 5   0  0.7497344E-06  0.2349465E+04  0.7818609E-02  0.8458669E-01
       -2   -1    0    0    0  501  0.00000000000E+00  0.00000000000E+00  0.54709125352E+03  0.54709125353E+03  0.25500000920E-02 0.  1.
        2   -1    0    0  501    0  0.00000000000E+00  0.00000000000E+00 -0.25224240219E+04  0.25224240219E+04  0.25500000920E-02 0. -1.
    10030    2    1    2    0    0  0.00000000000E+00  0.00000000000E+00 -0.19753327684E+04  0.30695152755E+04  0.23494647221E+04 0.  0.
        5    1    3    3  502    0 -0.29269370105E+03 -0.10587225784E+04 -0.44361602208E+03  0.11846435606E+04  0.46999998093E+01 0.  1.
       -5    1    3    3    0  502  0.29269370105E+03  0.10587225784E+04 -0.15317167463E+04  0.18848717149E+04  0.46999998093E+01 0. -1.
</event>
<event>
 5   0  0.7497344E-06  0.2301549E+04  0.7818609E-02  0.8477311E-01
       -2   -1    0    0    0  501  0.00000000000E+00  0.00000000000E+00  0.14929018472E+04  0.14929018472E+04  0.25500000920E-02 0.  1.
        2   -1    0    0  501    0  0.00000000000E+00  0.00000000000E+00 -0.88705192468E+03  0.88705192468E+03  0.25500000920E-02 0. -1.
    10030    2    1    2    0    0  0.00000000000E+00  0.00000000000E+00  0.60584992250E+03  0.23799537719E+04  0.23015485716E+04 0.  0.
        5    1    3    3  502    0 -0.46649473412E+03  0.10519312192E+04  0.31233098717E+03  0.11923713190E+04  0.46999998093E+01 0. -1.
       -5    1    3    3    0  502  0.46649473412E+03 -0.10519312192E+04  0.29351893533E+03  0.11875824528E+04  0.46999998093E+01 0.  1.
</event>
<event>
 5   0  0.7044981E-06  0.2300150E+04  0.7818609E-02  0.8477862E-01
       -2   -1    0    0    0  501  0.00000000000E+00  0.00000000000E+00  0.88890595595E+03  0.88890595596E+03  0.25500000920E-02 0. -1.
        2   -1    0    0  501    0  0.00000000000E+00  0.00000000000E+00 -0.14879781469E+04  0.14879781469E+04  0.25500000920E-02 0.  1.
    10030    2    1    2    0    0  0.00000000000E+00  0.00000000000E+00 -0.59907219098E+03  0.23768841029E+04  0.23001501144E+04 0.  0.
        4    1    3    3  502    0  0.62723996357E+02  0.10414395625E+04 -0.79955908091E+03  0.13144683331E+04  0.12699999809E+01 0. -1.
       -4    1    3    3    0  502 -0.62723996357E+02 -0.10414395625E+04  0.20048688993E+03  0.10624157698E+04  0.12699999809E+01 0.  1.
</event>
<event>
 5   0  0.3338758E-06  0.2300657E+04  0.7818609E-02  0.8477662E-01
       -1   -1    0    0    0  501  0.00000000000E+00  0.00000000000E+00  0.18058508372E+04  0.18058508372E+04  0.50400001928E-02 0. -1.
        1   -1    0    0  501    0  0.00000000000E+00  0.00000000000E+00 -0.73276015597E+03  0.73276015599E+03  0.50400001928E-02 0.  1.
    10030    2    1    2    0    0  0.00000000000E+00  0.00000000000E+00  0.10730906812E+04  0.25386109932E+04  0.23006568985E+04 0.  0.
        5    1    3    3  502    0  0.88922309023E+03  0.61683826347E+03  0.10631239075E+03  0.10874426706E+04  0.46999998093E+01 0.  1.
       -5    1    3    3    0  502 -0.88922309023E+03 -0.61683826347E+03  0.96677829048E+03  0.14511683226E+04  0.46999998093E+01 0. -1.
</event>
<event>
 5   0  0.7003852E-06  0.2303816E+04  0.7818609E-02  0.8476418E-01
       -2   -1    0    0    0  501  0.00000000000E+00  0.00000000000E+00  0.64193157546E+03  0.64193157547E+03  0.25500000920E-02 0. -1.
        2   -1    0    0  501    0  0.00000000000E+00  0.00000000000E+00 -0.20670302358E+04  0.20670302358E+04  0.25500000920E-02 0.  1.
    10030    2    1    2    0    0  0.00000000000E+00  0.00000000000E+00 -0.14250986604E+04  0.27089618113E+04  0.23038159439E+04 0.  0.
        2    1    3    3  502    0 -0.58722838023E+03  0.97197896547E+02  0.44709252544E+03  0.74443020355E+03  0.25500000920E-02 0. -1.
       -2    1    3    3    0  502  0.58722838023E+03 -0.97197896547E+02 -0.18721911858E+04  0.19645316078E+04  0.25500000920E-02 0.  1.
</event>
<event>
 5   0  0.3195296E-06  0.2297948E+04  0.7818609E-02  0.8478731E-01
       -1   -1    0    0    0  501  0.00000000000E+00  0.00000000000E+00  0.72995216575E+03  0.72995216577E+03  0.50400001928E-02 0.  1.
        1   -1    0    0  501    0  0.00000000000E+00  0.00000000000E+00 -0.18085314913E+04  0.18085314913E+04  0.50400001928E-02 0. -1.
    10030    2    1    2    0    0  0.00000000000E+00  0.00000000000E+00 -0.10785793256E+04  0.25384836571E+04  0.22979481969E+04 0.  0.
        2    1    3    3  502    0 -0.65861040152E+03  0.75304081531E+03  0.84927742512E+02  0.10040173564E+04  0.25500000920E-02 0.  1.
       -2    1    3    3    0  502  0.65861040152E+03 -0.75304081531E+03 -0.11635070681E+04  0.15344663007E+04  0.25500000920E-02 0. -1.
</event>
<event>
 5   0  0.7003852E-06  0.2298544E+04  0.7818609E-02  0.8478496E-01
       -2   -1    0    0    0  501  0.00000000000E+00  0.00000000000E+00  0.68710787828E+03  0.68710787829E+03  0.25500000920E-02 0. -1.
        2   -1    0    0  501    0  0.00000000000E+00  0.00000000000E+00 -0.19222973783E+04  0.19222973783E+04  0.25500000920E-02 0.  1.
    10030    2    1    2    0    0  0.00000000000E+00  0.00000000000E+00 -0.12351895000E+04  0.26094052566E+04  0.22985436024E+04 0.  0.
        2    1    3    3  502    0  0.10134773480E+04  0.53988413616E+03 -0.56417246204E+03  0.12794146248E+04  0.25500000920E-02 0. -1.
       -2    1    3    3    0  502 -0.10134773480E+04 -0.53988413616E+03 -0.67101703796E+03  0.13299906317E+04  0.25500000920E-02 0.  1.
</event>
<event>
 5   0  0.3338758E-06  0.2321728E+04  0.7818609E-02  0.8469403E-01
        1   -1    0    0  501    0  0.00000000000E+00  0.00000000000E+00  0.11572603052E+04  0.11572603052E+04  0.50400001928E-02 0.  1.
       -1   -1    0    0    0  501  0.00000000000E+00  0.00000000000E+00 -0.11644788534E+04  0.11644788534E+04  0.50400001928E-02 0. -1.
    10030    2    1    2    0    0  0.00000000000E+00  0.00000000000E+00 -0.72185482604E+01  0.23217391586E+04  0.23217279370E+04 0.  0.
        5    1    3    3  502    0  0.69135229869E+03 -0.63768317836E+03  0.67681684375E+03  0.11587540580E+04  0.46999998093E+01 0. -1.
       -5    1    3    3    0  502 -0.69135229869E+03  0.63768317836E+03 -0.68403539201E+03  0.11629851007E+04  0.46999998093E+01 0.  1.
</event>
<event>
 5   0  0.7044981E-06  0.2299174E+04  0.7818609E-02  0.8478247E-01
        2   -1    0    0  501    0  0.00000000000E+00  0.00000000000E+00  0.16456142159E+04  0.16456142159E+04  0.25500000920E-02 0.  1.
       -2   -1    0    0    0  501  0.00000000000E+00  0.00000000000E+00 -0.80307402857E+03  0.80307402857E+03  0.25500000920E-02 0. -1.
    10030    2    1    2    0    0  0.00000000000E+00  0.00000000000E+00  0.84254018732E+03  0.24486882445E+04  0.22991737975E+04 0.  0.
        4    1    3    3  502    0  0.38760241523E+03 -0.77259418311E+03  0.12284550826E+04  0.15020788618E+04  0.12699999809E+01 0.  1.
       -4    1    3    3    0  502 -0.38760241523E+03  0.77259418311E+03 -0.38591489531E+03  0.94660938268E+03  0.12699999809E+01 0. -1.
</event>
<event>
 5   0  0.3184492E-06  0.2299186E+04  0.7818609E-02  0.8478242E-01
        1   -1    0    0  501    0  0.00000000000E+00  0.00000000000E+00  0.17249437432E+04  0.17249437432E+04  0.50400001928E-02 0.  1.
       -1   -1    0    0    0  501  0.00000000000E+00  0.00000000000E+00 -0.76614908818E+03  0.76614908819E+03  0.50400001928E-02 0. -1.
    10030    2    1    2    0    0  0.00000000000E+00  0.00000000000E+00  0.95879465498E+03  0.24910928314E+04  0.22991860090E+04 0.  0.
        1    1    3    3  502    0  0.91100666574E+03 -0.20352285751E+03 -0.24758369220E+03  0.96573929361E+03  0.50400001928E-02 0. -1.
       -1    1    3    3    0  502 -0.91100666574E+03  0.20352285751E+03  0.12063783472E+04  0.15253535377E+04  0.50400001928E-02 0.  1.
</event>
<event>
 5   0  0.3338758E-06  0.2302047E+04  0.7818609E-02  0.8477115E-01
       -1   -1    0    0    0  501  0.00000000000E+00  0.00000000000E+00  0.99710351813E+03  0.99710351814E+03  0.50400001928E-02 0.  1.
        1   -1    0    0  501    0  0.00000000000E+00  0.00000000000E+00 -0.13287032251E+04  0.13287032251E+04  0.50400001928E-02 0. -1.
    10030    2    1    2    0    0  0.00000000000E+00  0.00000000000E+00 -0.33159970700E+03  0.23258067433E+04  0.23020466202E+04 0.  0.
        5    1    3    3  502    0  0.73445804891E+03  0.44835812837E+03 -0.93813675684E+03  0.12730185786E+04  0.46999998093E+01 0. -1.
       -5    1    3    3    0  502 -0.73445804891E+03 -0.44835812837E+03  0.60653704984E+03  0.10527881647E+04  0.46999998093E+01 0.  1.
</event>
<event>
 5   0  0.3184492E-06  0.2304258E+04  0.7818609E-02  0.8476244E-01
        1   -1    0    0  501    0  0.00000000000E+00  0.00000000000E+00  0.13091802609E+04  0.13091802609E+04  0.50400001928E-02 0. -1.
       -1   -1    0    0    0  501  0.00000000000E+00  0.00000000000E+00 -0.10139179846E+04  0.10139179846E+04  0.50400001928E-02 0.  1.
    10030    2    1    2    0    0  0.00000000000E+00  0.00000000000E+00  0.29526227632E+03  0.23230982455E+04  0.23042581553E+04 0.  0.
        1    1    3    3  502    0 -0.48544727394E+03 -0.47129969913E+03 -0.79252706751E+03  0.10420564356E+04  0.50400001928E-02 0.  1.
       -1    1    3    3    0  502  0.48544727394E+03  0.47129969913E+03  0.10877893438E+04  0.12810418099E+04  0.50400001928E-02 0. -1.
</event>
<event>
 5   0  0.7003852E-06  0.2297556E+04  0.7818609E-02  0.8478885E-01
        2   -1    0    0  501    0  0.00000000000E+00  0.00000000000E+00  0.17805193069E+04  0.17805193069E+04  0.25500000920E-02 0.  1.
       -2   -1    0    0    0  501  0.00000000000E+00  0.00000000000E+00 -0.74118317191E+03  0.74118317192E+03  0.25500000920E-02 0. -1.
    10030    2    1    2    0    0  0.00000000000E+00  0.00000000000E+00  0.10393361350E+04  0.25217024788E+04  0.22975560472E+04 0.  0.
        2    1    3    3  502    0 -0.10477950286E+04  0.44028631576E+03  0.33612788897E+03  0.11852039569E+04  0.25500000920E-02 0.  1.
       -2    1    3    3    0  502  0.10477950286E+04 -0.44028631576E+03  0.70320824600E+03  0.13364985219E+04  0.25500000920E-02 0. -1.
</event>
<event>
 5   0  0.7242214E-06  0.2298404E+04  0.7818609E-02  0.8478551E-01
        2   -1    0    0  501    0  0.00000000000E+00  0.00000000000E+00  0.11195696147E+04  0.11195696147E+04  0.25500000920E-02 0. -1.
       -2   -1    0    0    0  501  0.00000000000E+00  0.00000000000E+00 -0.11796183692E+04  0.11796183692E+04  0.25500000920E-02 0.  1.
    10030    2    1    2    0    0  0.00000000000E+00  0.00000000000E+00 -0.60048754546E+02  0.22991879839E+04  0.22984036922E+04 0.  0.
        1    1    3    3  502    0 -0.85587884031E+03 -0.24600101228E+03  0.69659790421E+03  0.11306165254E+04  0.50400001928E-02 0. -1.
       -1    1    3    3    0  502  0.85587884031E+03  0.24600101228E+03 -0.75664665875E+03  0.11685714585E+04  0.50400001928E-02 0.  1.
</event>
<event>
 5   0  0.3338758E-06  0.2299048E+04  0.7818609E-02  0.8478297E-01
        1   -1    0    0  501    0  0.00000000000E+00  0.00000000000E+00  0.12030223203E+04  0.12030223203E+04  0.50400001928E-02 0.  1.
       -1   -1    0    0    0  501  0.00000000000E+00  0.00000000000E+00 -0.10984044093E+04  0.10984044093E+04  0.50400001928E-02 0. -1.
    10030    2    1    2    0    0  0.00000000000E+00  0.00000000000E+00  0.10461791103E+03  0.23014267296E+04  0.22990476473E+04 0.  0.
        5    1    3    3  502    0 -0.62680614456E+03  0.93030454923E+03  0.30362738053E+03  0.11621377601E+04  0.46999998093E+01 0.  1.
       -5    1    3    3    0  502  0.62680614456E+03 -0.93030454923E+03 -0.19900946950E+03  0.11392889695E+04  0.46999998093E+01 0. -1.
</event>
<event>
 5   0  0.7497344E-06  0.2300415E+04  0.7818609E-02  0.8477758E-01
        2   -1    0    0  501    0  0.00000000000E+00  0.00000000000E+00  0.14702744372E+04  0.14702744372E+04  0.25500000920E-02 0. -1.
       -2   -1    0    0    0  501  0.00000000000E+00  0.00000000000E+00 -0.89981655881E+03  0.89981655881E+03  0.25500000920E-02 0.  1.
    10030    2    1    2    0    0  0.00000000000E+00  0.00000000000E+00  0.57045787838E+03  0.23700909960E+04  0.23004149926E+04 0.  0.
        5    1    3    3  502    0  0.91811455815E+02 -0.62580873732E+03 -0.70453956681E+03  0.94681783376E+03  0.46999998093E+01 0.  1.
       -5    1    3    3    0  502 -0.91811455815E+02  0.62580873732E+03  0.12749974452E+04  0.14232731622E+04  0.46999998093E+01 0. -1.
</event>
<event>
 5   0  0.7497344E-06  0.2256691E+04  0.7818609E-02  0.8495196E-01
        2   -1    0    0  501    0  0.00000000000E+00  0.00000000000E+00  0.21586531607E+04  0.21586531607E+04  0.25500000920E-02 0.  1.
       -2   -1    0    0    0  501  0.00000000000E+00  0.00000000000E+00 -0.58979513417E+03  0.58979513417E+03  0.25500000920E-02 0. -1.
    10030    2    1    2    0    0  0.00000000000E+00  0.00000000000E+00  0.15688580265E+04  0.27484482949E+04  0.22566906129E+04 0.  0.
        5    1    3    3  502    0 -0.11105591158E+04  0.17770095353E+03  0.89486246338E+03  0.14372613182E+04  0.46999998093E+01 0.  1.
       -5    1    3    3    0  502  0.11105591158E+04 -0.17770095353E+03  0.67399556314E+03  0.13111869766E+04  0.46999998093E+01 0. -1.
</event>
<event>
 5   0  0.7497344E-06  0.2297707E+04  0.7818609E-02  0.8478826E-01
        2   -1    0    0  501    0  0.00000000000E+00  0.00000000000E+00  0.29318309735E+04  0.29318309735E+04  0.25500000920E-02 0.  1.
       -2   -1    0    0    0  501  0.00000000000E+00  0.00000000000E+00 -0.45018450605E+03  0.45018450605E+03  0.25500000920E-02 0. -1.
    10030    2    1    2    0    0  0.00000000000E+00  0.00000000000E+00  0.24816464674E+04  0.33820154795E+04  0.22977074475E+04 0.  0.
        5    1    3    3  502    0 -0.76610418707E+03 -0.56360973244E+03  0.29230260033E+03  0.99500475180E+03  0.46999998093E+01 0. -1.
       -5    1    3    3    0  502  0.76610418707E+03  0.56360973244E+03  0.21893438671E+04  0.23870107278E+04  0.46999998093E+01 0.  1.
</event>
<event>
 5   0  0.3184492E-06  0.2291435E+04  0.7818609E-02  0.8481306E-01
        1   -1    0    0  501    0  0.00000000000E+00  0.00000000000E+00  0.91005124714E+03  0.91005124716E+03  0.50400001928E-02 0.  1.
       -1   -1    0    0    0  501  0.00000000000E+00  0.00000000000E+00 -0.14424116038E+04  0.14424116038E+04  0.50400001928E-02 0. -1.
    10030    2    1    2    0    0  0.00000000000E+00  0.00000000000E+00 -0.53236035664E+03  0.23524628510E+04  0.22914349032E+04 0.  0.
        1    1    3    3  502    0  0.78928745610E+03  0.58116601029E+02  0.58432584038E+03  0.98376263165E+03  0.50400001928E-02 0.  1.
       -1    1    3    3    0  502 -0.78928745610E+03 -0.58116601029E+02 -0.11166861970E+04  0.13687002193E+04  0.50400001928E-02 0. -1.
</event>
<event>
 5   0  0.7044981E-06  0.2300895E+04  0.7818609E-02  0.8477568E-01
        2   -1    0    0  501    0  0.00000000000E+00  0.00000000000E+00  0.17173059809E+04  0.17173059809E+04  0.25500000920E-02 0.  1.
       -2   -1    0    0    0  501  0.00000000000E+00  0.00000000000E+00 -0.77070122003E+03  0.77070122003E+03  0.25500000920E-02 0. -1.
    10030    2    1    2    0    0  0.00000000000E+00  0.00000000000E+00  0.94660476086E+03  0.24880072009E+04  0.23008953167E+04 0.  0.
        4    1    3    3  502    0 -0.42778077458E+02  0.46036200111E+03  0.16124245328E+04  0.16774020457E+04  0.12699999809E+01 0.  1.
       -4    1    3    3    0  502  0.42778077458E+02 -0.46036200111E+03 -0.66581977198E+03  0.81060515520E+03  0.12699999809E+01 0. -1.
</event>
<event>
 5   0  0.3184492E-06  0.2298033E+04  0.7818609E-02  0.8478697E-01
        1   -1    0    0  501    0  0.00000000000E+00  0.00000000000E+00  0.11470997993E+04  0.11470997993E+04  0.50400001928E-02 0. -1.
       -1   -1    0    0    0  501  0.00000000000E+00  0.00000000000E+00 -0.11509362366E+04  0.11509362366E+04  0.50400001928E-02 0.  1.
    10030    2    1    2    0    0  0.00000000000E+00  0.00000000000E+00 -0.38364372463E+01  0.22980360359E+04  0.22980328336E+04 0.  0.
        1    1    3    3  502    0 -0.83280919858E+03  0.74115435214E+03  0.27621485505E+03  0.11485536910E+04  0.50400001928E-02 0. -1.
       -1    1    3    3    0  502  0.83280919858E+03 -0.74115435214E+03 -0.28005129230E+03  0.11494823449E+04  0.50400001928E-02 0.  1.
</event>
<event>
 5   0  0.3238713E-06  0.2302041E+04  0.7818609E-02  0.8477117E-01
       -1   -1    0    0    0  501  0.00000000000E+00  0.00000000000E+00  0.10036597777E+04  0.10036597777E+04  0.50400001928E-02 0. -1.
        1   -1    0    0  501    0  0.00000000000E+00  0.00000000000E+00 -0.13200174000E+04  0.13200174000E+04  0.50400001928E-02 0.  1.
    10030    2    1    2    0    0  0.00000000000E+00  0.00000000000E+00 -0.31635762236E+03  0.23236771777E+04  0.23020411554E+04 0.  0.
        3    1    3    3  502    0 -0.22641578565E+02  0.27305344549E+03  0.97026273120E+03  0.10082066271E+04  0.10100000352E+00 0. -1.
       -3    1    3    3    0  502  0.22641578565E+02 -0.27305344549E+03 -0.12866203536E+04  0.13154705506E+04  0.10100000352E+00 0.  1.
</event>
<event>
 5   0  0.3195296E-06  0.2288317E+04  0.7818609E-02  0.8482542E-01
        1   -1    0    0  501    0  0.00000000000E+00  0.00000000000E+00  0.21383347198E+04  0.21383347199E+04  0.50400001928E-02 0.  1.
       -1   -1    0    0    0  501  0.00000000000E+00  0.00000000000E+00 -0.61220495056E+03  0.61220495058E+03  0.50400001928E-02 0. -1.
    10030    2    1    2    0    0  0.00000000000E+00  0.00000000000E+00  0.15261297693E+04  0.27505396704E+04  0.22883173744E+04 0.  0.
        2    1    3    3  502    0 -0.32592243646E+03  0.79215356174E+03 -0.14868119346E+03  0.86938989945E+03  0.25500000920E-02 0. -1.
       -2    1    3    3    0  502  0.32592243646E+03 -0.79215356174E+03  0.16748109627E+04  0.18811497710E+04  0.25500000920E-02 0.  1.
</event>
<event>
 5   0  0.7044981E-06  0.2297556E+04  0.7818609E-02  0.8478885E-01
        2   -1    0    0  501    0  0.00000000000E+00  0.00000000000E+00  0.10374269259E+04  0.10374269259E+04  0.25500000920E-02 0.  1.
       -2   -1    0    0    0  501  0.00000000000E+00  0.00000000000E+00 -0.12720808926E+04  0.12720808926E+04  0.25500000920E-02 0. -1.
    10030    2    1    2    0    0  0.00000000000E+00  0.00000000000E+00 -0.23465396673E+03  0.23095078185E+04  0.22975560667E+04 0.  0.
        4    1    3    3  502    0  0.13464439132E+03 -0.26649311079E+03  0.99774134482E+03  0.10414591179E+04  0.12699999809E+01 0.  1.
       -4    1    3    3    0  502 -0.13464439132E+03  0.26649311079E+03 -0.12323953116E+04  0.12680487006E+04  0.12699999809E+01 0. -1.
</event>
<event>
 5   0  0.3226427E-06  0.2300266E+04  0.7818609E-02  0.8477816E-01
       -1   -1    0    0    0  501  0.00000000000E+00  0.00000000000E+00  0.32862830774E+04  0.32862830774E+04  0.50400001928E-02 0. -1.
        1   -1    0    0  501    0  0.00000000000E+00  0.00000000000E+00 -0.40252359891E+03  0.40252359894E+03  0.50400001928E-02 0.  1.
    10030    2    1    2    0    0  0.00000000000E+00  0.00000000000E+00  0.28837594785E+04  0.36888066763E+04  0.23002664988E+04 0.  0.
        4    1    3    3  502    0  0.42768926491E+02 -0.10842069360E+04  0.83023959957E+03  0.13662478790E+04  0.12699999809E+01 0.  1.
       -4    1    3    3    0  502 -0.42768926491E+02  0.10842069360E+04  0.20535198789E+04  0.23225587973E+04  0.12699999809E+01 0. -1.
</event>
<event>
 5   0  0.3238713E-06  0.2298284E+04  0.7818609E-02  0.8478598E-01
        1   -1    0    0  501    0  0.00000000000E+00  0.00000000000E+00  0.12566897700E+04  0.12566897700E+04  0.50400001928E-02 0.  1.
       -1   -1    0    0    0  501  0.00000000000E+00  0.00000000000E+00 -0.10507982115E+04  0.10507982115E+04  0.50400001928E-02 0. -1.
    10030    2    1    2    0    0  0.00000000000E+00  0.00000000000E+00  0.20589155853E+03  0.23074879815E+04  0.22982840231E+04 0.  0.
        3    1    3    3  502    0 -0.56638521546E+02 -0.14604318501E+02 -0.10493026839E+04  0.10509316538E+04  0.10100000352E+00 0. -1.
       -3    1    3    3    0  502  0.56638521546E+02  0.14604318501E+02  0.12551942425E+04  0.12565563277E+04  0.10100000352E+00 0.  1.
</event>
<event>
 5   0  0.7242214E-06  0.2302298E+04  0.7818609E-02  0.8477016E-01
        2   -1    0    0  501    0  0.00000000000E+00  0.00000000000E+00  0.11162343922E+04  0.11162343922E+04  0.25500000920E-02 0. -1.
       -2   -1    0    0    0  501  0.00000000000E+00  0.00000000000E+00 -0.11871554640E+04  0.11871554640E+04  0.25500000920E-02 0.  1.
    10030    2    1    2    0    0  0.00000000000E+00  0.00000000000E+00 -0.70921071720E+02  0.23033898562E+04  0.23022977721E+04 0.  0.
        1    1    3    3  502    0 -0.10653472975E+04 -0.54960937995E+02  0.39736250659E+03  0.11383683634E+04  0.50400001928E-02 0. -1.
       -1    1    3    3    0  502  0.10653472975E+04  0.54960937995E+02 -0.46828357832E+03  0.11650214928E+04  0.50400001928E-02 0.  1.
</event>
<event>
 5   0  0.7497344E-06  0.2299569E+04  0.7818609E-02  0.8478091E-01
       -2   -1    0    0    0  501  0.00000000000E+00  0.00000000000E+00  0.90448613786E+03  0.90448613787E+03  0.25500000920E-02 0.  1.
        2   -1    0    0  501    0  0.00000000000E+00  0.00000000000E+00 -0.14616082652E+04  0.14616082652E+04  0.25500000920E-02 0. -1.
    10030    2    1    2    0    0  0.00000000000E+00  0.00000000000E+00 -0.55712212735E+03  0.23660944031E+04  0.22995690160E+04 0.  0.
        5    1    3    3  502    0 -0.85048320674E+03 -0.37778229025E+03 -0.97332941967E+03  0.13466378106E+04  0.46999998093E+01 0. -1.
       -5    1    3    3    0  502  0.85048320674E+03  0.37778229025E+03  0.41620729232E+03  0.10194565925E+04  0.46999998093E+01 0.  1.
</event>
<event>
 5   0  0.3226427E-06  0.2300023E+04  0.7818609E-02  0.8477912E-01
        1   -1    0    0  501    0  0.00000000000E+00  0.00000000000E+00  0.10098595173E+04  0.10098595173E+04  0.50400001928E-02 0.  1.
       -1   -1    0    0    0  501  0.00000000000E+00  0.00000000000E+00 -0.13096138417E+04  0.13096138417E+04  0.50400001928E-02 0. -1.
    10030    2    1    2    0    0  0.00000000000E+00  0.00000000000E+00 -0.29975432436E+03  0.23194733590E+04  0.23000226104E+04 0.  0.
        4    1    3    3  502    0 -0.35552032409E+03 -0.94654114474E+03  0.40265182589E+03  0.10883312664E+04  0.12699999809E+01 0.  1.
       -4    1    3    3    0  502  0.35552032409E+03  0.94654114474E+03 -0.70240615026E+03  0.12311420927E+04  0.12699999809E+01 0. -1.
</event>
<event>
 5   0  0.7044981E-06  0.2299297E+04  0.7818609E-02  0.8478199E-01
        2   -1    0    0  501    0  0.00000000000E+00  0.00000000000E+00  0.15694225289E+04  0.15694225289E+04  0.25500000920E-02 0. -1.
       -2   -1    0    0    0  501  0.00000000000E+00  0.00000000000E+00 -0.84215125943E+03  0.84215125943E+03  0.25500000920E-02 0.  1.
    10030    2    1    2    0    0  0.00000000000E+00  0.00000000000E+00  0.72727126945E+03  0.24115737883E+04  0.22992965527E+04 0.  0.
        4    1    3    3  502    0  0.45078917796E+03 -0.11412499271E+03  0.14663827586E+04  0.15383482715E+04  0.12699999809E+01 0. -1.
       -4    1    3    3    0  502 -0.45078917796E+03  0.11412499271E+03 -0.73911148912E+03  0.87322551680E+03  0.12699999809E+01 0.  1.
</event>
<event>
 5   0  0.7003852E-06  0.2303191E+04  0.7818609E-02  0.8476664E-01
       -2   -1    0    0    0  501  0.00000000000E+00  0.00000000000E+00  0.61049663842E+03  0.61049663842E+03  0.25500000920E-02 0.  1.
        2   -1    0    0  501    0  0.00000000000E+00  0.00000000000E+00 -0.21722840057E+04  0.21722840057E+04  0.25500000920E-02 0. -1.
    10030    2    1    2    0    0  0.00000000000E+00  0.00000000000E+00 -0.15617873673E+04  0.27827806441E+04  0.23031909024E+04 0.  0.
        2    1    3    3  502    0  0.11340593085E+04  0.15133256612E+03 -0.62252806489E+03  0.13025103655E+04  0.25500000920E-02 0.  1.
       -2    1    3    3    0  502 -0.11340593085E+04 -0.15133256612E+03 -0.93925930240E+03  0.14802702786E+04  0.25500000920E-02 0. -1.
</event>
<event>
 5   0  0.3184492E-06  0.2300244E+04  0.7818609E-02  0.8477825E-01
       -1   -1    0    0    0  501  0.00000000000E+00  0.00000000000E+00  0.11253212219E+04  0.11253212219E+04  0.50400001928E-02 0.  1.
        1   -1    0    0  501    0  0.00000000000E+00  0.00000000000E+00 -0.11754690992E+04  0.11754690992E+04  0.50400001928E-02 0. -1.
    10030    2    1    2    0    0  0.00000000000E+00  0.00000000000E+00 -0.50147877335E+02  0.23007903211E+04  0.23002437462E+04 0.  0.
        1    1    3    3  502    0 -0.31713875872E+03 -0.88715432834E+03  0.63474979178E+03  0.11360136851E+04  0.50400001928E-02 0.  1.
       -1    1    3    3    0  502  0.31713875872E+03  0.88715432834E+03 -0.68489766912E+03  0.11647766360E+04  0.50400001928E-02 0. -1.
</event>
<event>
 5   0  0.7003852E-06  0.2297745E+04  0.7818609E-02  0.8478811E-01
        2   -1    0    0  501    0  0.00000000000E+00  0.00000000000E+00  0.15764553995E+04  0.15764553995E+04  0.25500000920E-02 0. -1.
       -2   -1    0    0    0  501  0.00000000000E+00  0.00000000000E+00 -0.83726349740E+03  0.83726349740E+03  0.25500000920E-02 0.  1.
    10030    2    1    2    0    0  0.00000000000E+00  0.00000000000E+00  0.73919190208E+03  0.24137188969E+04  0.22977454700E+04 0.  0.
        2    1    3    3  502    0  0.20140556989E+03  0.21957593365E+03  0.15351619348E+04  0.15638094386E+04  0.25500000920E-02 0. -1.
       -2    1    3    3    0  502 -0.20140556989E+03 -0.21957593365E+03 -0.79597003273E+03  0.84990945826E+03  0.25500000920E-02 0.  1.
</event>
<event>
 5   0  0.3195296E-06  0.2269406E+04  0.7818609E-02  0.8490083E-01
        1   -1    0    0  501    0  0.00000000000E+00  0.00000000000E+00  0.12981583314E+04  0.12981583314E+04  0.50400001928E-02 0.  1.
       -1   -1    0    0    0  501  0.00000000000E+00  0.00000000000E+00 -0.99182845989E+03  0.99182845990E+03  0.50400001928E-02 0. -1.
    10030    2    1    2    0    0  0.00000000000E+00  0.00000000000E+00  0.30632987153E+03  0.22899867913E+04  0.22694055421E+04 0.  0.
        2    1    3    3  502    0  0.79084091579E+03 -0.35792804365E+03  0.89055107095E+03  0.12436330039E+04  0.25500000920E-02 0.  1.
       -2    1    3    3    0  502 -0.79084091579E+03  0.35792804365E+03 -0.58422119942E+03  0.10463537874E+04  0.25500000920E-02 0. -1.
</event>
<event>
 5   0  0.3226427E-06  0.2301858E+04  0.7818609E-02  0.8477189E-01
        1   -1    0    0  501    0  0.00000000000E+00  0.00000000000E+00  0.21439295728E+04  0.21439295728E+04  0.50400001928E-02 0. -1.
       -1   -1    0    0    0  501  0.00000000000E+00  0.00000000000E+00 -0.61785495544E+03  0.61785495546E+03  0.50400001928E-02 0.  1.
    10030    2    1    2    0    0  0.00000000000E+00  0.00000000000E+00  0.15260746173E+04  0.27617845282E+04  0.23018579545E+04 0.  0.
        4    1    3    3  502    0 -0.47639267120E+03 -0.57610054347E+03  0.18129840638E+04  0.19610595712E+04  0.12699999809E+01 0. -1.
       -4    1    3    3    0  502  0.47639267120E+03  0.57610054347E+03 -0.28690944651E+03  0.80072495700E+03  0.12699999809E+01 0.  1.
</event>
<event>
 5   0  0.7242214E-06  0.2298436E+04  0.7818609E-02  0.8478538E-01
       -2   -1    0    0    0  501  0.00000000000E+00  0.00000000000E+00  0.75739173093E+03  0.75739173093E+03  0.25500000920E-02 0. -1.
        2   -1    0    0  501    0  0.00000000000E+00  0.00000000000E+00 -0.17437504905E+04  0.17437504905E+04  0.25500000920E-02 0.  1.
    10030    2    1    2    0    0  0.00000000000E+00  0.00000000000E+00 -0.98635875952E+03  0.25011422214E+04  0.22984361660E+04 0.  0.
        1    1    3    3  502    0  0.36604088191E+03  0.15423003931E+03  0.68031931336E+03  0.78778626569E+03  0.50400001928E-02 0. -1.
       -1    1    3    3    0  502 -0.36604088191E+03 -0.15423003931E+03 -0.16666780729E+04  0.17133559557E+04  0.50400001928E-02 0.  1.
</event>
<event>
 5   0  0.7003852E-06  0.2300912E+04  0.7818609E-02  0.8477561E-01
        2   -1    0    0  501    0  0.00000000000E+00  0.00000000000E+00  0.16383391772E+04  0.16383391772E+04  0.25500000920E-02 0.  1.
       -2   -1    0    0    0  501  0.00000000000E+00  0.00000000000E+00 -0.80786043609E+03  0.80786043609E+03  0.25500000920E-02 0. -1.
    10030    2    1    2    0    0  0.00000000000E+00  0.00000000000E+00  0.83047874113E+03  0.24461996133E+04  0.23009123427E+04 0.  0.
        2    1    3    3  502    0  0.17185761960E+03  0.11180261587E+03 -0.78828139425E+03  0.81450747256E+03  0.25500000920E-02 0. -1.
       -2    1    3    3    0  502 -0.17185761960E+03 -0.11180261587E+03  0.16187601354E+04  0.16316921408E+04  0.25500000920E-02 0.  1.
</event>
<event>
 5   0  0.3184492E-06  0.2301169E+04  0.7818609E-02  0.8477460E-01
       -1   -1    0    0    0  501  0.00000000000E+00  0.00000000000E+00  0.13331094266E+04  0.13331094266E+04  0.50400001928E-02 0. -1.
        1   -1    0    0  501    0  0.00000000000E+00  0.00000000000E+00 -0.99305052414E+03  0.99305052415E+03  0.50400001928E-02 0.  1.
    10030    2    1    2    0    0  0.00000000000E+00  0.00000000000E+00  0.34005890249E+03  0.23261599508E+04  0.23011692809E+04 0.  0.
        1    1    3    3  502    0  0.31482627651E+03  0.50158031290E+03 -0.82716567154E+03  0.10173010581E+04  0.50400001928E-02 0.  1.
       -1    1    3    3    0  502 -0.31482627651E+03 -0.50158031290E+03  0.11672245740E+04  0.13088588927E+04  0.50400001928E-02 0. -1.
</event>
<event>
 5   0  0.3195296E-06  0.2289714E+04  0.7818609E-02  0.8481988E-01
       -1   -1    0    0    0  501  0.00000000000E+00  0.00000000000E+00  0.10913811839E+04  0.10913811839E+04  0.50400001928E-02 0.  1.
        1   -1    0    0  501    0  0.00000000000E+00  0.00000000000E+00 -0.12009528236E+04  0.12009528236E+04  0.50400001928E-02 0. -1.
    10030    2    1    2    0    0  0.00000000000E+00  0.00000000000E+00 -0.10957163974E+03  0.22923340075E+04  0.22897137938E+04 0.  0.
        2    1    3    3  502    0  0.19127379630E+03 -0.35901972939E+03  0.10165866735E+04  0.10949562986E+04  0.25500000920E-02 0.  1.
       -2    1    3    3    0  502 -0.19127379630E+03  0.35901972939E+03 -0.11261583132E+04  0.11973777089E+04  0.25500000920E-02 0. -1.
</event>
<event>
 5   0  0.7242214E-06  0.2295607E+04  0.7818609E-02  0.8479655E-01
        2   -1    0    0  501    0  0.00000000000E+00  0.00000000000E+00  0.79177506107E+03  0.79177506108E+03  0.25500000920E-02 0. -1.
       -2   -1    0    0    0  501  0.00000000000E+00  0.00000000000E+00 -0.16639226125E+04  0.16639226125E+04  0.25500000920E-02 0.  1.
    10030    2    1    2    0    0  0.00000000000E+00  0.00000000000E+00 -0.87214755146E+03  0.24556976736E+04  0.22956066110E+04 0.  0.
        1    1    3    3  502    0 -0.19401597195E+03  0.11065775214E+04 -0.18452283878E+03  0.11385098534E+04  0.50400001928E-02 0. -1.
       -1    1    3    3    0  502  0.19401597195E+03 -0.11065775214E+04 -0.68762471267E+03  0.13171878202E+04  0.50400001928E-02 0.  1.
</event>
<event>
 5   0  0.3195296E-06  0.2303777E+04  0.7818609E-02  0.8476434E-01
       -1   -1    0    0    0  501  0.00000000000E+00  0.00000000000E+00  0.12244513322E+04  0.12244513322E+04  0.50400001928E-02 0. -1.
        1   -1    0    0  501    0  0.00000000000E+00  0.00000000000E+00 -0.10836255719E+04  0.10836255719E+04  0.50400001928E-02 0.  1.
    10030    2    1    2    0    0  0.00000000000E+00  0.00000000000E+00  0.14082576026E+03  0.23080769041E+04  0.23037767037E+04 0.  0.
        2    1    3    3  502    0  0.56559338200E+03 -0.20087693220E+03  0.10554058808E+04  0.12141371376E+04  0.25500000920E-02 0. -1.
       -2    1    3    3    0  502 -0.56559338200E+03  0.20087693220E+03 -0.91458012059E+03  0.10939397665E+04  0.25500000920E-02 0.  1.
</event>
<event>
 5   0  0.3238713E-06  0.2299683E+04  0.7818609E-02  0.8478046E-01
        1   -1    0    0  501    0  0.00000000000E+00  0.00000000000E+00  0.14790670278E+04  0.14790670278E+04  0.50400001928E-02 0.  1.
       -1   -1    0    0    0  501  0.00000000000E+00  0.00000000000E+00 -0.89389848205E+03  0.89389848207E+03  0.50400001928E-02 0. -1.
    10030    2    1    2    0    0  0.00000000000E+00  0.00000000000E+00  0.58516854578E+03  0.23729655099E+04  0.22996832574E+04 0.  0.
        3    1    3    3  502    0  0.67602687060E+02 -0.32039674467E+03 -0.84476992639E+03  0.90601348557E+03  0.10100000352E+00 0. -1.
       -3    1    3    3    0  502 -0.67602687060E+02  0.32039674467E+03  0.14299384722E+04  0.14669520243E+04  0.10100000352E+00 0.  1.
</event>
<event>
 5   0  0.7044981E-06  0.2295201E+04  0.7818609E-02  0.8479816E-01
       -2   -1    0    0    0  501  0.00000000000E+00  0.00000000000E+00  0.14036689296E+04  0.14036689296E+04  0.25500000920E-02 0.  1.
        2   -1    0    0  501    0  0.00000000000E+00  0.00000000000E+00 -0.93824614230E+03  0.93824614230E+03  0.25500000920E-02 0. -1.
    10030    2    1    2    0    0  0.00000000000E+00  0.00000000000E+00  0.46542278731E+03  0.23419150719E+04  0.22952010442E+04 0.  0.
        4    1    3    3  502    0 -0.34211594145E+03 -0.83036957461E+03 -0.49627231519E+03  0.10260822440E+04  0.12699999809E+01 0. -1.
       -4    1    3    3    0  502  0.34211594145E+03  0.83036957461E+03  0.96169510250E+03  0.13158328279E+04  0.12699999809E+01 0.  1.
</event>
<event>
 5   0  0.7044981E-06  0.2305401E+04  0.7818609E-02  0.8475795E-01
        2   -1    0    0  501    0  0.00000000000E+00  0.00000000000E+00  0.21166487663E+04  0.21166487664E+04  0.25500000920E-02 0. -1.
       -2   -1    0    0    0  501  0.00000000000E+00  0.00000000000E+00 -0.62774619344E+03  0.62774619344E+03  0.25500000920E-02 0.  1.
    10030    2    1    2    0    0  0.00000000000E+00  0.00000000000E+00  0.14889025729E+04  0.27443949598E+04  0.23054007946E+04 0.  0.
        4    1    3    3  502    0 -0.10828254328E+04  0.38911030188E+03  0.82691609918E+03  0.14169366933E+04  0.12699999809E+01 0. -1.
       -4    1    3    3    0  502  0.10828254328E+04 -0.38911030188E+03  0.66198647374E+03  0.13274582665E+04  0.12699999809E+01 0.  1.
</event>
<event>
 5   0  0.7044981E-06  0.2282523E+04  0.7818609E-02  0.8484844E-01
        2   -1    0    0  501    0  0.00000000000E+00  0.00000000000E+00  0.23749569445E+04  0.23749569445E+04  0.25500000920E-02 0. -1.
       -2   -1    0    0    0  501  0.00000000000E+00  0.00000000000E+00 -0.54842158045E+03  0.54842158045E+03  0.25500000920E-02 0.  1.
    10030    2    1    2    0    0  0.00000000000E+00  0.00000000000E+00  0.18265353640E+04  0.29233785250E+04  0.22825228507E+04 0.  0.
        4    1    3    3  502    0  0.22502939451E+03 -0.84619874397E+03  0.18507549762E+04  0.20474340374E+04  0.12699999809E+01 0. -1.
       -4    1    3    3    0  502 -0.22502939451E+03  0.84619874397E+03 -0.24219612186E+02  0.87594448752E+03  0.12699999809E+01 0.  1.
</event>
<event>
 5   0  0.7348107E-06  0.2256638E+04  0.7818609E-02  0.8495217E-01
        2   -1    0    0  501    0  0.00000000000E+00  0.00000000000E+00  0.21819548028E+04  0.21819548028E+04  0.25500000920E-02 0.  1.
       -2   -1    0    0    0  501  0.00000000000E+00  0.00000000000E+00 -0.58346914384E+03  0.58346914385E+03  0.25500000920E-02 0. -1.
    10030    2    1    2    0    0  0.00000000000E+00  0.00000000000E+00  0.15984856590E+04  0.27654239467E+04  0.22566375878E+04 0.  0.
        3    1    3    3  502    0 -0.89866532432E+03  0.36991881200E+03  0.15017907754E+04  0.17888026263E+04  0.10100000352E+00 0.  1.
       -3    1    3    3    0  502  0.89866532432E+03 -0.36991881200E+03  0.96694883531E+02  0.97662132032E+03  0.10100000352E+00 0. -1.
</event>
<event>
 5   0  0.3184492E-06  0.2300570E+04  0.7818609E-02  0.8477696E-01
        1   -1    0    0  501    0  0.00000000000E+00  0.00000000000E+00  0.12979442786E+04  0.12979442786E+04  0.50400001928E-02 0. -1.
       -1   -1    0    0    0  501  0.00000000000E+00  0.00000000000E+00 -0.10194241724E+04  0.10194241724E+04  0.50400001928E-02 0.  1.
    10030    2    1    2    0    0  0.00000000000E+00  0.00000000000E+00  0.27852010619E+03  0.23173684511E+04  0.23005701660E+04 0.  0.
        1    1    3    3  502    0  0.71089812443E+03 -0.90431143938E+03  0.13858480618E+03  0.11586030689E+04  0.50400001928E-02 0. -1.
       -1    1    3    3    0  502 -0.71089812443E+03  0.90431143938E+03  0.13993530001E+03  0.11587653822E+04  0.50400001928E-02 0.  1.
</event>
<event>
 5   0  0.7003852E-06  0.2302673E+04  0.7818609E-02  0.8476868E-01
       -2   -1    0    0    0  501  0.00000000000E+00  0.00000000000E+00  0.68538137758E+03  0.68538137759E+03  0.25500000920E-02 0.  1.
        2   -1    0    0  501    0  0.00000000000E+00  0.00000000000E+00 -0.19340708428E+04  0.19340708428E+04  0.25500000920E-02 0. -1.
    10030    2    1    2    0    0  0.00000000000E+00  0.00000000000E+00 -0.12486894652E+04  0.26194522204E+04  0.23026733495E+04 0.  0.
        2    1    3    3  502    0  0.28652689006E+03  0.99605690999E+03 -0.11946623983E+04  0.15815957994E+04  0.25500000920E-02 0. -1.
       -2    1    3    3    0  502 -0.28652689006E+03 -0.99605690999E+03 -0.54027066893E+02  0.10378564210E+04  0.25500000920E-02 0.  1.
</event>
<event>
 5   0  0.7242214E-06  0.2300976E+04  0.7818609E-02  0.8477536E-01
       -2   -1    0    0    0  501  0.00000000000E+00  0.00000000000E+00  0.11184674396E+04  0.11184674396E+04  0.25500000920E-02 0. -1.
        2   -1    0    0  501    0  0.00000000000E+00  0.00000000000E+00 -0.11834253639E+04  0.11834253639E+04  0.25500000920E-02 0.  1.
    10030    2    1    2    0    0  0.00000000000E+00  0.00000000000E+00 -0.64957924353E+02  0.23018928035E+04  0.23009760857E+04 0.  0.
        1    1    3    3  502    0  0.88251103057E+02 -0.11375137367E+04  0.11555626805E+03  0.11467689434E+04  0.50400001928E-02 0.  1.
       -1    1    3    3    0  502 -0.88251103057E+02  0.11375137367E+04 -0.18051419241E+03  0.11551238601E+04  0.50400001928E-02 0. -1.
</event>
<event>
 5   0  0.3195296E-06  0.2283706E+04  0.7818609E-02  0.8484373E-01
        1   -1    0    0  501    0  0.00000000000E+00  0.00000000000E+00  0.72730450782E+03  0.72730450783E+03  0.50400001928E-02 0.  1.
       -1   -1    0    0    0  501  0.00000000000E+00  0.00000000000E+00 -0.17926854882E+04  0.17926854882E+04  0.50400001928E-02 0. -1.
    10030    2    1    2    0    0  0.00000000000E+00  0.00000000000E+00 -0.10653809804E+04  0.25199899960E+04  0.22837059677E+04 0.  0.
        2    1    3    3  502    0  0.75283847079E+02 -0.40049490672E+03  0.64433211036E+03  0.76238290667E+03  0.25500000920E-02 0.  1.
       -2    1    3    3    0  502 -0.75283847079E+02  0.40049490672E+03 -0.17097130907E+04  0.17576070894E+04  0.25500000920E-02 0. -1.
</event>
<event>
 5   0  0.3195296E-06  0.2299805E+04  0.7818609E-02  0.8477998E-01
       -1   -1    0    0    0  501  0.00000000000E+00  0.00000000000E+00  0.13597886869E+04  0.13597886869E+04  0.50400001928E-02 0.  1.
        1   -1    0    0  501    0  0.00000000000E+00  0.00000000000E+00 -0.97241289125E+03  0.97241289126E+03  0.50400001928E-02 0. -1.
    10030    2    1    2    0    0  0.00000000000E+00  0.00000000000E+00  0.38737579562E+03  0.23322015781E+04  0.22998052513E+04 0.  0.
        2    1    3    3  502    0 -0.21538745229E+03 -0.13459725168E+03 -0.94361271308E+03  0.97719656521E+03  0.25500000920E-02 0. -1.
       -2    1    3    3    0  502  0.21538745229E+03  0.13459725168E+03  0.13309885087E+04  0.13550050129E+04  0.25500000920E-02 0.  1.
</event>
<event>
 5   0  0.7044981E-06  0.2298536E+04  0.7818609E-02  0.8478498E-01
       -2   -1    0    0    0  501  0.00000000000E+00  0.00000000000E+00  0.10716555740E+04  0.10716555740E+04  0.25500000920E-02 0. -1.
        2   -1    0    0  501    0  0.00000000000E+00  0.00000000000E+00 -0.12325018175E+04  0.12325018175E+04  0.25500000920E-02 0.  1.
    10030    2    1    2    0    0  0.00000000000E+00  0.00000000000E+00 -0.16084624351E+03  0.23041573914E+04  0.22985364410E+04 0.  0.
        4    1    3    3  502    0  0.58882889213E+03 -0.84779952152E+03  0.42611677544E+03  0.11167186808E+04  0.12699999809E+01 0. -1.
       -4    1    3    3    0  502 -0.58882889213E+03  0.84779952152E+03 -0.58696301894E+03  0.11874387106E+04  0.12699999809E+01 0.  1.
</event>
<event>
 5   0  0.7044981E-06  0.2301101E+04  0.7818609E-02  0.8477487E-01
       -2   -1    0    0    0  501  0.00000000000E+00  0.00000000000E+00  0.13662302543E+04  0.13662302543E+04  0.25500000920E-02 0.  1.
        2   -1    0    0  501    0  0.00000000000E+00  0.00000000000E+00 -0.96891922129E+03  0.96891922130E+03  0.25500000920E-02 0. -1.
    10030    2    1    2    0    0  0.00000000000E+00  0.00000000000E+00  0.39731103301E+03  0.23351494756E+04  0.23011012617E+04 0.  0.
        4    1    3    3  502    0  0.50407008271E+03 -0.32946587131E+03 -0.79622330761E+03  0.99830234755E+03  0.12699999809E+01 0. -1.
       -4    1    3    3    0  502 -0.50407008271E+03  0.32946587131E+03  0.11935343406E+04  0.13368471281E+04  0.12699999809E+01 0.  1.
</event>
<event>
 5   0  0.7044981E-06  0.2302197E+04  0.7818609E-02  0.8477055E-01
        2   -1    0    0  501    0  0.00000000000E+00  0.00000000000E+00  0.16385560961E+04  0.16385560961E+04  0.25500000920E-02 0.  1.
       -2   -1    0    0    0  501  0.00000000000E+00  0.00000000000E+00 -0.80865563615E+03  0.80865563616E+03  0.25500000920E-02 0. -1.
    10030    2    1    2    0    0  0.00000000000E+00  0.00000000000E+00  0.82990045992E+03  0.24472117322E+04  0.23021968832E+04 0.  0.
        4    1    3    3  502    0  0.87666201618E+03  0.73691222816E+03  0.29167051348E+03  0.11817991470E+04  0.12699999809E+01 0. -1.
       -4    1    3    3    0  502 -0.87666201618E+03 -0.73691222816E+03  0.53822994644E+03  0.12654125852E+04  0.12699999809E+01 0.  1.
</event>
<event>
 5   0  0.3238713E-06  0.2300782E+04  0.7818609E-02  0.8477613E-01
       -1   -1    0    0    0  501  0.00000000000E+00  0.00000000000E+00  0.12511586096E+04  0.12511586096E+04  0.50400001928E-02 0.  1.
        1   -1    0    0  501    0  0.00000000000E+00  0.00000000000E+00 -0.10577394545E+04  0.10577394545E+04  0.50400001928E-02 0. -1.
    10030    2    1    2    0    0  0.00000000000E+00  0.00000000000E+00  0.19341915505E+03  0.23088980641E+04  0.23007823237E+04 0.  0.
        3    1    3    3  502    0  0.89566266107E+03  0.62764248065E+03 -0.26127429567E+03  0.11244602944E+04  0.10100000352E+00 0.  1.
       -3    1    3    3    0  502 -0.89566266107E+03 -0.62764248065E+03  0.45469345072E+03  0.11844377697E+04  0.10100000352E+00 0. -1.
</event>
<event>
 5   0  0.3338758E-06  0.2263347E+04  0.7818609E-02  0.8492515E-01
       -1   -1    0    0    0  501  0.00000000000E+00  0.00000000000E+00  0.71764660530E+03  0.71764660532E+03  0.50400001928E-02 0. -1.
        1   -1    0    0  501    0  0.00000000000E+00  0.00000000000E+00 -0.17845620997E+04  0.17845620998E+04  0.50400001928E-02 0.  1.
    10030    2    1    2    0    0  0.00000000000E+00  0.00000000000E+00 -0.10669154944E+04  0.25022087051E+04  0.22633470197E+04 0.  0.
        5    1    3    3  502    0 -0.52312980026E+03  0.10008414448E+04 -0.45286390725E+03  0.12167399862E+04  0.46999998093E+01 0. -1.
       -5    1    3    3    0  502  0.52312980026E+03 -0.10008414448E+04 -0.61405158719E+03  0.12854687189E+04  0.46999998093E+01 0.  1.
</event>
<event>
 5   0  0.7003852E-06  0.2304859E+04  0.7818609E-02  0.8476008E-01
       -2   -1    0    0    0  501  0.00000000000E+00  0.00000000000E+00  0.67079939664E+03  0.67079939665E+03  0.25500000920E-02 0.  1.
        2   -1    0    0  501    0  0.00000000000E+00  0.00000000000E+00 -0.19798673768E+04  0.19798673768E+04  0.25500000920E-02 0. -1.
    10030    2    1    2    0    0  0.00000000000E+00  0.00000000000E+00 -0.13090679802E+04  0.26506667734E+04  0.23048590775E+04 0.  0.
        2    1    3    3  502    0 -0.77409918370E+03  0.33306164312E+03  0.24949401916E+03  0.87886681012E+03  0.25500000920E-02 0.  1.
       -2    1    3    3    0  502  0.77409918370E+03 -0.33306164312E+03 -0.15585619993E+04  0.17717999633E+04  0.25500000920E-02 0. -1.
</event>
<event>
 5   0  0.3195296E-06  0.2299808E+04  0.7818609E-02  0.8477997E-01
        1   -1    0    0  501    0  0.00000000000E+00  0.00000000000E+00  0.16458471502E+04  0.16458471502E+04  0.50400001928E-02 0.  1.
       -1   -1    0    0    0  501  0.00000000000E+00  0.00000000000E+00 -0.80340366124E+03  0.80340366126E+03  0.50400001928E-02 0. -1.
    10030    2    1    2    0    0  0.00000000000E+00  0.00000000000E+00  0.84244348894E+03  0.24492508114E+04  0.22998083627E+04 0.  0.
        2    1    3    3  502    0 -0.28610723686E+02  0.27894802471E+03  0.16088773787E+04  0.16331310400E+04  0.25500000920E-02 0.  1.
       -2    1    3    3    0  502  0.28610723686E+02 -0.27894802471E+03 -0.76643388977E+03  0.81611977147E+03  0.25500000920E-02 0. -1.
</event>
<event>
 5   0  0.3195296E-06  0.2301215E+04  0.7818609E-02  0.8477442E-01
       -1   -1    0    0    0  501  0.00000000000E+00  0.00000000000E+00  0.10491886286E+04  0.10491886287E+04  0.50400001928E-02 0. -1.
        1   -1    0    0  501    0  0.00000000000E+00  0.00000000000E+00 -0.12618304003E+04  0.12618304003E+04  0.50400001928E-02 0.  1.
    10030    2    1    2    0    0  0.00000000000E+00  0.00000000000E+00 -0.21264177161E+03  0.23110190289E+04  0.23012154243E+04 0.  0.
        2    1    3    3  502    0 -0.45156453934E+03 -0.96837492471E+03 -0.53503246543E+03  0.11949561779E+04  0.25500000920E-02 0.  1.
       -2    1    3    3    0  502  0.45156453934E+03  0.96837492471E+03  0.32239069382E+03  0.11160628510E+04  0.25500000920E-02 0. -1.
</event>
<event>
 5   0  0.3184492E-06  0.2298481E+04  0.7818609E-02  0.8478520E-01
        1   -1    0    0  501    0  0.00000000000E+00  0.00000000000E+00  0.15482742991E+04  0.15482742991E+04  0.50400001928E-02 0. -1.
       -1   -1    0    0    0  501  0.00000000000E+00  0.00000000000E+00 -0.85304926653E+03  0.85304926654E+03  0.50400001928E-02 0.  1.
    10030    2    1    2    0    0  0.00000000000E+00  0.00000000000E+00  0.69522503259E+03  0.24013235657E+04  0.22984814598E+04 0.  0.
        1    1    3    3  502    0  0.28243491783E+03 -0.43335229225E+03  0.14197812974E+04  0.15110733352E+04  0.50400001928E-02 0. -1.
       -1    1    3    3    0  502 -0.28243491783E+03  0.43335229225E+03 -0.72455626477E+03  0.89025023047E+03  0.50400001928E-02 0.  1.
</event>
<event>
 5   0  0.7003852E-06  0.2301977E+04  0.7818609E-02  0.8477142E-01
       -2   -1    0    0    0  501  0.00000000000E+00  0.00000000000E+00  0.80362855344E+03  0.80362855344E+03  0.25500000920E-02 0.  1.
        2   -1    0    0  501    0  0.00000000000E+00  0.00000000000E+00 -0.16484907898E+04  0.16484907898E+04  0.25500000920E-02 0. -1.
    10030    2    1    2    0    0  0.00000000000E+00  0.00000000000E+00 -0.84486223640E+03  0.24521193433E+04  0.23019767756E+04 0.  0.
        2    1    3    3  502    0 -0.28769007621E+03 -0.70715255413E+03  0.49511143659E+03  0.90992617800E+03  0.25500000920E-02 0.  1.
       -2    1    3    3    0  502  0.28769007621E+03  0.70715255413E+03 -0.13399736730E+04  0.15421931653E+04  0.25500000920E-02 0. -1.
</event>
<event>
 5   0  0.7044981E-06  0.2312335E+04  0.7818609E-02  0.8473074E-01
        2   -1    0    0  501    0  0.00000000000E+00  0.00000000000E+00  0.16549863886E+04  0.16549863886E+04  0.25500000920E-02 0.  1.
       -2   -1    0    0    0  501  0.00000000000E+00  0.00000000000E+00 -0.80769408381E+03  0.80769408382E+03  0.25500000920E-02 0. -1.
    10030    2    1    2    0    0  0.00000000000E+00  0.00000000000E+00  0.84729230480E+03  0.24626804724E+04  0.23123345042E+04 0.  0.
        4    1    3    3  502    0 -0.88878876370E+03  0.49336219014E+02  0.12094120185E+04  0.15016852441E+04  0.12699999809E+01 0.  1.
       -4    1    3    3    0  502  0.88878876370E+03 -0.49336219014E+02 -0.36211971367E+03  0.96099522835E+03  0.12699999809E+01 0. -1.
</event>
<event>
 5   0  0.3184492E-06  0.2303069E+04  0.7818609E-02  0.8476712E-01
        1   -1    0    0  501    0  0.00000000000E+00  0.00000000000E+00  0.23079279715E+04  0.23079279715E+04  0.50400001928E-02 0.  1.
       -1   -1    0    0    0  501  0.00000000000E+00  0.00000000000E+00 -0.57455503202E+03  0.57455503204E+03  0.50400001928E-02 0. -1.
    10030    2    1    2    0    0  0.00000000000E+00  0.00000000000E+00  0.17333729394E+04  0.28824830035E+04  0.23030689348E+04 0.  0.
        1    1    3    3  502    0  0.91001647545E+03 -0.64767133837E+03  0.12171823170E+04  0.16520111807E+04  0.50400001928E-02 0.  1.
       -1    1    3    3    0  502 -0.91001647545E+03  0.64767133837E+03  0.51619062242E+03  0.12304718229E+04  0.50400001928E-02 0. -1.
</event>
<event>
 5   0  0.7242214E-06  0.2299285E+04  0.7818609E-02  0.8478203E-01
       -2   -1    0    0    0  501  0.00000000000E+00  0.00000000000E+00  0.67890071116E+03  0.67890071117E+03  0.25500000920E-02 0.  1.
        2   -1    0    0  501    0  0.00000000000E+00  0.00000000000E+00 -0.19467913706E+04  0.19467913706E+04  0.25500000920E-02 0. -1.
    10030    2    1    2    0    0  0.00000000000E+00  0.00000000000E+00 -0.12678906594E+04  0.26256920817E+04  0.22992851463E+04 0.  0.
        1    1    3    3  502    0 -0.10101613716E+04  0.31098131727E+03 -0.11747792116E+03  0.10634549536E+04  0.50400001928E-02 0.  1.
       -1    1    3    3    0  502  0.10101613716E+04 -0.31098131727E+03 -0.11504127383E+04  0.15622371282E+04  0.50400001928E-02 0. -1.
</event>
<event>
 5   0  0.3195296E-06  0.2294928E+04  0.7818609E-02  0.8479924E-01
       -1   -1    0    0    0  501  0.00000000000E+00  0.00000000000E+00  0.12575747590E+04  0.12575747590E+04  0.50400001928E-02 0. -1.
        1   -1    0    0  501    0  0.00000000000E+00  0.00000000000E+00 -0.10469940737E+04  0.10469940737E+04  0.50400001928E-02 0.  1.
    10030    2    1    2    0    0  0.00000000000E+00  0.00000000000E+00  0.21058068527E+03  0.23045688327E+04  0.22949277287E+04 0.  0.
        2    1    3    3  502    0  0.83931228616E+03  0.74004136853E+03  0.36045816337E+03  0.11756004544E+04  0.25500000920E-02 0.  1.
       -2    1    3    3    0  502 -0.83931228616E+03 -0.74004136853E+03 -0.14987747810E+03  0.11289683783E+04  0.25500000920E-02 0. -1.
</event>
<event>
 5   0  0.3184492E-06  0.2304357E+04  0.7818609E-02  0.8476205E-01
       -1   -1    0    0    0  501  0.00000000000E+00  0.00000000000E+00  0.68148511071E+03  0.68148511073E+03  0.50400001928E-02 0. -1.
        1   -1    0    0  501    0  0.00000000000E+00  0.00000000000E+00 -0.19479746386E+04  0.19479746386E+04  0.50400001928E-02 0.  1.
    10030    2    1    2    0    0  0.00000000000E+00  0.00000000000E+00 -0.12664895279E+04  0.26294597493E+04  0.23043573614E+04 0.  0.
        1    1    3    3  502    0  0.35760214402E+03  0.67976805913E+03  0.34672564392E+03  0.84272331153E+03  0.50400001928E-02 0. -1.
       -1    1    3    3    0  502 -0.35760214402E+03 -0.67976805913E+03 -0.16132151718E+04  0.17867364378E+04  0.50400001928E-02 0.  1.
</event>
<event>
 5   0  0.3238713E-06  0.2282598E+04  0.7818609E-02  0.8484814E-01
        1   -1    0    0  501    0  0.00000000000E+00  0.00000000000E+00  0.11070681635E+04  0.11070681635E+04  0.50400001928E-02 0.  1.
       -1   -1    0    0    0  501  0.00000000000E+00  0.00000000000E+00 -0.11765887498E+04  0.11765887498E+04  0.50400001928E-02 0. -1.
    10030    2    1    2    0    0  0.00000000000E+00  0.00000000000E+00 -0.69520586330E+02  0.22836569133E+04  0.22825984723E+04 0.  0.
        3    1    3    3  502    0 -0.14446527398E+03 -0.17548632751E+03  0.10841939605E+04  0.11077645150E+04  0.10100000352E+00 0.  1.
       -3    1    3    3    0  502  0.14446527398E+03  0.17548632751E+03 -0.11537145468E+04  0.11758923983E+04  0.10100000352E+00 0. -1.
</event>
<event>
 5   0  0.3184492E-06  0.2295112E+04  0.7818609E-02  0.8479851E-01
        1   -1    0    0  501    0  0.00000000000E+00  0.00000000000E+00  0.17941622431E+04  0.17941622431E+04  0.50400001928E-02 0. -1.
       -1   -1    0    0    0  501  0.00000000000E+00  0.00000000000E+00 -0.73398336184E+03  0.73398336185E+03  0.50400001928E-02 0.  1.
    10030    2    1    2    0    0  0.00000000000E+00  0.00000000000E+00  0.10601788812E+04  0.25281456049E+04  0.22951124024E+04 0.  0.
        1    1    3    3  502    0  0.11139416694E+04  0.27565443971E+03  0.52368328665E+03  0.12613863792E+04  0.50400001928E-02 0. -1.
       -1    1    3    3    0  502 -0.11139416694E+04 -0.27565443971E+03  0.53649559459E+03  0.12667592257E+04  0.50400001928E-02 0.  1.
</event>
<event>
 5   0  0.3184492E-06  0.2295103E+04  0.7818609E-02  0.8479854E-01
       -1   -1    0    0    0  501  0.00000000000E+00  0.00000000000E+00  0.76140597865E+03  0.76140597866E+03  0.50400001928E-02 0. -1.
        1   -1    0    0  501    0  0.00000000000E+00  0.00000000000E+00 -0.17295302444E+04  0.17295302444E+04  0.50400001928E-02 0.  1.
    10030    2    1    2    0    0  0.00000000000E+00  0.00000000000E+00 -0.96812426578E+03  0.24909362231E+04  0.22951031945E+04 0.  0.
        1    1    3    3  502    0  0.42698681961E+03 -0.88410993435E+03 -0.11288104974E+04  0.14960552326E+04  0.50400001928E-02 0.  1.
       -1    1    3    3    0  502 -0.42698681961E+03  0.88410993435E+03  0.16068623157E+03  0.99488099046E+03  0.50400001928E-02 0. -1.
</event>
<event>
 5   0  0.3195296E-06  0.2300123E+04  0.7818609E-02  0.8477873E-01
       -1   -1    0    0    0  501  0.00000000000E+00  0.00000000000E+00  0.15688091525E+04  0.15688091526E+04  0.50400001928E-02 0.  1.
        1   -1    0    0  501    0  0.00000000000E+00  0.00000000000E+00 -0.84308623842E+03  0.84308623844E+03  0.50400001928E-02 0. -1.
    10030    2    1    2    0    0  0.00000000000E+00  0.00000000000E+00  0.72572291413E+03  0.24118953910E+04  0.23001229595E+04 0.  0.
        2    1    3    3  502    0  0.20929171294E+02  0.11037595592E+04  0.24833011385E+02  0.11042372359E+04  0.25500000920E-02 0. -1.
       -2    1    3    3    0  502 -0.20929171294E+02 -0.11037595592E+04  0.70088990274E+03  0.13076581551E+04  0.25500000920E-02 0.  1.
</event>
<event>
 5   0  0.3184492E-06  0.2303716E+04  0.7818609E-02  0.8476457E-01
       -1   -1    0    0    0  501  0.00000000000E+00  0.00000000000E+00  0.70521435928E+03  0.70521435930E+03  0.50400001928E-02 0. -1.
        1   -1    0    0  501    0  0.00000000000E+00  0.00000000000E+00 -0.18813814550E+04  0.18813814550E+04  0.50400001928E-02 0.  1.
    10030    2    1    2    0    0  0.00000000000E+00  0.00000000000E+00 -0.11761670957E+04  0.25865958143E+04  0.23037163171E+04 0.  0.
        1    1    3    3  502    0 -0.25190850441E+03 -0.11073607763E+04 -0.37190168033E+03  0.11949965035E+04  0.50400001928E-02 0. -1.
       -1    1    3    3    0  502  0.25190850441E+03  0.11073607763E+04 -0.80426541537E+03  0.13915993108E+04  0.50400001928E-02 0.  1.
</event>
<event>
 5   0  0.7003852E-06  0.2298661E+04  0.7818609E-02  0.8478449E-01
       -2   -1    0    0    0  501  0.00000000000E+00  0.00000000000E+00  0.14394592987E+04  0.14394592987E+04  0.25500000920E-02 0. -1.
        2   -1    0    0  501    0  0.00000000000E+00  0.00000000000E+00 -0.91767829766E+03  0.91767829767E+03  0.25500000920E-02 0.  1.
    10030    2    1    2    0    0  0.00000000000E+00  0.00000000000E+00  0.52178100099E+03  0.23571375963E+04  0.22986609656E+04 0.  0.
        2    1    3    3  502    0  0.51925572298E+03  0.90337399192E+03 -0.23647350659E+03  0.10684712418E+04  0.25500000920E-02 0.  1.
       -2    1    3    3    0  502 -0.51925572298E+03 -0.90337399192E+03  0.75825450757E+03  0.12886663546E+04  0.25500000920E-02 0. -1.
</event>
<event>
 5   0  0.3195296E-06  0.2302576E+04  0.7818609E-02  0.8476906E-01
       -1   -1    0    0    0  501  0.00000000000E+00  0.00000000000E+00  0.68196088925E+03  0.68196088927E+03  0.50400001928E-02 0. -1.
        1   -1    0    0  501    0  0.00000000000E+00  0.00000000000E+00 -0.19436064559E+04  0.19436064559E+04  0.50400001928E-02 0.  1.
    10030    2    1    2    0    0  0.00000000000E+00  0.00000000000E+00 -0.12616455666E+04  0.26255673452E+04  0.23025755901E+04 0.  0.
        2    1    3    3  502    0  0.91087617224E+03  0.34651929449E+03 -0.13297397218E+04  0.16486293550E+04  0.25500000920E-02 0.  1.
       -2    1    3    3    0  502 -0.91087617224E+03 -0.34651929449E+03  0.68094155130E+02  0.97693799014E+03  0.25500000920E-02 0. -1.
</event>
<event>
 5   0  0.3338758E-06  0.2298962E+04  0.7818609E-02  0.8478330E-01
       -1   -1    0    0    0  501  0.00000000000E+00  0.00000000000E+00  0.77428106982E+03  0.77428106983E+03  0.50400001928E-02 0.  1.
        1   -1    0    0  501    0  0.00000000000E+00  0.00000000000E+00 -0.17064950490E+04  0.17064950490E+04  0.50400001928E-02 0. -1.
    10030    2    1    2    0    0  0.00000000000E+00  0.00000000000E+00 -0.93221397920E+03  0.24807761189E+04  0.22989622113E+04 0.  0.
        5    1    3    3  502    0  0.71811398901E+03  0.89544597743E+03 -0.53239411913E+03  0.12652971144E+04  0.46999998093E+01 0.  1.
       -5    1    3    3    0  502 -0.71811398901E+03 -0.89544597743E+03 -0.39981986007E+03  0.12154790044E+04  0.46999998093E+01 0. -1.
</event>
<event>
 5   0  0.7242214E-06  0.2295563E+04  0.7818609E-02  0.8479673E-01
       -2   -1    0    0    0  501  0.00000000000E+00  0.00000000000E+00  0.15057264197E+04  0.15057264197E+04  0.25500000920E-02 0. -1.
        2   -1    0    0  501    0  0.00000000000E+00  0.00000000000E+00 -0.87492798295E+03  0.87492798295E+03  0.25500000920E-02 0.  1.
    10030    2    1    2    0    0  0.00000000000E+00  0.00000000000E+00  0.63079843679E+03  0.23806544027E+04  0.22955628323E+04 0.  0.
        1    1    3    3  502    0  0.74288140224E+03 -0.31394952052E+03  0.11623510745E+04  0.14147427680E+04  0.50400001928E-02 0. -1.
       -1    1    3    3    0  502 -0.74288140224E+03  0.31394952052E+03 -0.53155263774E+03  0.96591163465E+03  0.50400001928E-02 0.  1.
</event>
<event>
 5   0  0.7242214E-06  0.2298524E+04  0.7818609E-02  0.8478503E-01
        2   -1    0    0  501    0  0.00000000000E+00  0.00000000000E+00  0.25099477288E+04  0.25099477288E+04  0.25500000920E-02 0. -1.
       -2   -1    0    0    0  501  0.00000000000E+00  0.00000000000E+00 -0.52622739356E+03  0.52622739357E+03  0.25500000920E-02 0.  1.
    10030    2    1    2    0    0  0.00000000000E+00  0.00000000000E+00  0.19837203352E+04  0.30361751223E+04  0.22985240928E+04 0.  0.
        1    1    3    3  502    0 -0.54395751258E+02  0.32285913462E+03  0.24470400234E+04  0.24688462477E+04  0.50400001928E-02 0. -1.
       -1    1    3    3    0  502  0.54395751258E+02 -0.32285913462E+03 -0.46331968817E+03  0.56732887467E+03  0.50400001928E-02 0.  1.
</event>
<event>
 5   0  0.7003852E-06  0.2298407E+04  0.7818609E-02  0.8478549E-01
       -2   -1    0    0    0  501  0.00000000000E+00  0.00000000000E+00  0.66642118837E+03  0.66642118838E+03  0.25500000920E-02 0. -1.
        2   -1    0    0  501    0  0.00000000000E+00  0.00000000000E+00 -0.19817327292E+04  0.19817327292E+04  0.25500000920E-02 0.  1.
    10030    2    1    2    0    0  0.00000000000E+00  0.00000000000E+00 -0.13153115409E+04  0.26481539176E+04  0.22984069966E+04 0.  0.
        2    1    3    3  502    0  0.13173546960E+03  0.89928477824E+03  0.15264066900E+03  0.92161082902E+03  0.25500000920E-02 0. -1.
       -2    1    3    3    0  502 -0.13173546960E+03 -0.89928477824E+03 -0.14679522099E+04  0.17265430886E+04  0.25500000920E-02 0.  1.
</event>
<event>
 5   0  0.7497344E-06  0.2296066E+04  0.7818609E-02  0.8479474E-01
       -2   -1    0    0    0  501  0.00000000000E+00  0.00000000000E+00  0.12845595183E+04  0.12845595183E+04  0.25500000920E-02 0.  1.
        2   -1    0    0  501    0  0.00000000000E+00  0.00000000000E+00 -0.10260165185E+04  0.10260165185E+04  0.25500000920E-02 0. -1.
    10030    2    1    2    0    0  0.00000000000E+00  0.00000000000E+00  0.25854299987E+03  0.23105760368E+04  0.22960655781E+04 0.  0.
        5    1    3    3  502    0  0.57362407100E+03  0.97696138403E+03 -0.57533191400E+02  0.11343854190E+04  0.46999998093E+01 0. -1.
       -5    1    3    3    0  502 -0.57362407100E+03 -0.97696138403E+03  0.31607619127E+03  0.11761906178E+04  0.46999998093E+01 0.  1.
</event>
<event>
 5   0  0.3226427E-06  0.2317706E+04  0.7818609E-02  0.8470973E-01
       -1   -1    0    0    0  501  0.00000000000E+00  0.00000000000E+00  0.10539028575E+04  0.10539028576E+04  0.50400001928E-02 0. -1.
        1   -1    0    0  501    0  0.00000000000E+00  0.00000000000E+00 -0.12742537833E+04  0.12742537833E+04  0.50400001928E-02 0.  1.
    10030    2    1    2    0    0  0.00000000000E+00  0.00000000000E+00 -0.22035092578E+03  0.23281566409E+04  0.23177055063E+04 0.  0.
        4    1    3    3  502    0  0.95726109160E+03 -0.56411718351E+03  0.22049137283E+03  0.11327819969E+04  0.12699999809E+01 0. -1.
       -4    1    3    3    0  502 -0.95726109160E+03  0.56411718351E+03 -0.44084229862E+03  0.11953746439E+04  0.12699999809E+01 0.  1.
</event>
<event>
 5   0  0.7242214E-06  0.2293045E+04  0.7818609E-02  0.8480668E-01
        2   -1    0    0  501    0  0.00000000000E+00  0.00000000000E+00  0.14001760505E+04  0.14001760505E+04  0.25500000920E-02 0.  1.
       -2   -1    0    0    0  501  0.00000000000E+00  0.00000000000E+00 -0.93882039997E+03  0.93882039997E+03  0.25500000920E-02 0. -1.
    10030    2    1    2    0    0  0.00000000000E+00  0.00000000000E+00  0.46135565054E+03  0.23389964505E+04  0.22930449972E+04 0.  0.
        1    1    3    3  502    0  0.14149114597E+03 -0.15881967265E+03 -0.91851806161E+03  0.94282493727E+03  0.50400001928E-02 0. -1.
       -1    1    3    3    0  502 -0.14149114597E+03  0.15881967265E+03  0.13798737121E+04  0.13961715132E+04  0.50400001928E-02 0.  1.
</event>
<event>
 5   0  0.3184492E-06  0.2300610E+04  0.7818609E-02  0.8477681E-01
        1   -1    0    0  501    0  0.00000000000E+00  0.00000000000E+00  0.97166188594E+03  0.97166188596E+03  0.50400001928E-02 0. -1.
       -1   -1    0    0    0  501  0.00000000000E+00  0.00000000000E+00 -0.13617916539E+04  0.13617916539E+04  0.50400001928E-02 0.  1.
    10030    2    1    2    0    0  0.00000000000E+00  0.00000000000E+00 -0.39012976797E+03  0.23334535399E+04  0.23006095251E+04 0.  0.
        1    1    3    3  502    0  0.66783569601E+03 -0.50520274053E+02  0.75351074600E+03  0.10081345443E+04  0.50400001928E-02 0. -1.
       -1    1    3    3    0  502 -0.66783569601E+03  0.50520274053E+02 -0.11436405140E+04  0.13253189956E+04  0.50400001928E-02 0.  1.
</event>
<event>
 5   0  0.3195296E-06  0.2300271E+04  0.7818609E-02  0.8477814E-01
        1   -1    0    0  501    0  0.00000000000E+00  0.00000000000E+00  0.12745111277E+04  0.12745111277E+04  0.50400001928E-02 0.  1.
       -1   -1    0    0    0  501  0.00000000000E+00  0.00000000000E+00 -0.10378968643E+04  0.10378968643E+04  0.50400001928E-02 0. -1.
    10030    2    1    2    0    0  0.00000000000E+00  0.00000000000E+00  0.23661426348E+03  0.23124079920E+04  0.23002705084E+04 0.  0.
        2    1    3    3  502    0 -0.67427671912E+02 -0.10564049799E+04 -0.33381383565E+03  0.11099412820E+04  0.25500000920E-02 0. -1.
       -2    1    3    3    0  502  0.67427671912E+02  0.10564049799E+04  0.57042809913E+03  0.12024667101E+04  0.25500000920E-02 0.  1.
</event>
<event>
 5   0  0.3184492E-06  0.2300159E+04  0.7818609E-02  0.8477858E-01
        1   -1    0    0  501    0  0.00000000000E+00  0.00000000000E+00  0.17885076830E+04  0.17885076830E+04  0.50400001928E-02 0.  1.
       -1   -1    0    0    0  501  0.00000000000E+00  0.00000000000E+00 -0.73954569217E+03  0.73954569219E+03  0.50400001928E-02 0. -1.
    10030    2    1    2    0    0  0.00000000000E+00  0.00000000000E+00  0.10489619909E+04  0.25280533752E+04  0.23001592575E+04 0.  0.
        1    1    3    3  502    0  0.33776690877E+03  0.23662858495E+03  0.17044437924E+04  0.17536271592E+04  0.50400001928E-02 0.  1.
       -1    1    3    3    0  502 -0.33776690877E+03 -0.23662858495E+03 -0.65548180157E+03  0.77442621604E+03  0.50400001928E-02 0. -1.
</event>
<event>
 5   0  0.3338758E-06  0.2296303E+04  0.7818609E-02  0.8479380E-01
       -1   -1    0    0    0  501  0.00000000000E+00  0.00000000000E+00  0.62425232436E+03  0.62425232438E+03  0.50400001928E-02 0.  1.
        1   -1    0    0  501    0  0.00000000000E+00  0.00000000000E+00 -0.21117290917E+04  0.21117290917E+04  0.50400001928E-02 0. -1.
    10030    2    1    2    0    0  0.00000000000E+00  0.00000000000E+00 -0.14874767674E+04  0.27359814161E+04  0.22963029364E+04 0.  0.
        5    1    3    3  502    0  0.10709539241E+04 -0.14920452039E+03 -0.12036920882E+04  0.16180547054E+04  0.46999998093E+01 0. -1.
       -5    1    3    3    0  502 -0.10709539241E+04  0.14920452039E+03 -0.28378467915E+03  0.11179267107E+04  0.46999998093E+01 0.  1.
</event>
<event>
 5   0  0.3195296E-06  0.2262003E+04  0.7818609E-02  0.8493055E-01
        1   -1    0    0  501    0  0.00000000000E+00  0.00000000000E+00  0.28877981649E+04  0.28877981649E+04  0.50400001928E-02 0.  1.
       -1   -1    0    0    0  501  0.00000000000E+00  0.00000000000E+00 -0.44295498249E+03  0.44295498251E+03  0.50400001928E-02 0. -1.
    10030    2    1    2    0    0  0.00000000000E+00  0.00000000000E+00  0.24448431825E+04  0.33307531475E+04  0.22620031703E+04 0.  0.
        2    1    3    3  502    0  0.10752537234E+04 -0.19841925954E+03  0.16482299884E+04  0.19779289337E+04  0.25500000920E-02 0.  1.
       -2    1    3    3    0  502 -0.10752537234E+04  0.19841925954E+03  0.79661319406E+03  0.13528242137E+04  0.25500000920E-02 0. -1.
</event>
<event>
 5   0  0.7242214E-06  0.2283393E+04  0.7818609E-02  0.8484498E-01
        2   -1    0    0  501    0  0.00000000000E+00  0.00000000000E+00  0.18897232457E+04  0.18897232457E+04  0.25500000920E-02 0.  1.
       -2   -1    0    0    0  501  0.00000000000E+00  0.00000000000E+00 -0.68976787709E+03  0.68976787710E+03  0.25500000920E-02 0. -1.
    10030    2    1    2    0    0  0.00000000000E+00  0.00000000000E+00  0.11999553686E+04  0.25794911228E+04  0.22833925563E+04 0.  0.
        1    1    3    3  502    0 -0.37498328017E+03 -0.23596574855E+03 -0.58869477196E+03  0.73678614906E+03  0.50400001928E-02 0. -1.
       -1    1    3    3    0  502  0.37498328017E+03  0.23596574855E+03  0.17886501406E+04  0.18427049738E+04  0.50400001928E-02 0.  1.
</event>
<event>
 5   0  0.7348107E-06  0.2308007E+04  0.7818609E-02  0.8474771E-01
       -2   -1    0    0    0  501  0.00000000000E+00  0.00000000000E+00  0.45158371499E+03  0.45158371500E+03  0.25500000920E-02 0. -1.
        2   -1    0    0  501    0  0.00000000000E+00  0.00000000000E+00 -0.29490092568E+04  0.29490092568E+04  0.25500000920E-02 0.  1.
    10030    2    1    2    0    0  0.00000000000E+00  0.00000000000E+00 -0.24974255418E+04  0.34005929718E+04  0.23080074140E+04 0.  0.
        3    1    3    3  502    0 -0.92958913584E+02  0.11487628431E+04 -0.13349672929E+04  0.17636425694E+04  0.10100000352E+00 0.  1.
       -3    1    3    3    0  502  0.92958913584E+02 -0.11487628431E+04 -0.11624582489E+04  0.16369504024E+04  0.10100000352E+00 0. -1.
</event>
<event>
 5   0  0.3184492E-06  0.2302240E+04  0.7818609E-02  0.8477038E-01
        1   -1    0    0  501    0  0.00000000000E+00  0.00000000000E+00  0.13768253727E+04  0.13768253728E+04  0.50400001928E-02 0.  1.
       -1   -1    0    0    0  501  0.00000000000E+00  0.00000000000E+00 -0.96241485719E+03  0.96241485721E+03  0.50400001928E-02 0. -1.
    10030    2    1    2    0    0  0.00000000000E+00  0.00000000000E+00  0.41441051556E+03  0.23392402300E+04  0.23022399480E+04 0.  0.
        1    1    3    3  502    0 -0.59836772598E+03  0.91892210090E+03  0.56299777022E+03  0.12326509045E+04  0.50400001928E-02 0.  1.
       -1    1    3    3    0  502  0.59836772598E+03 -0.91892210090E+03 -0.14858725466E+03  0.11065893255E+04  0.50400001928E-02 0. -1.
</event>
<event>
 5   0  0.3195296E-06  0.2299912E+04  0.7818609E-02  0.8477956E-01
        1   -1    0    0  501    0  0.00000000000E+00  0.00000000000E+00  0.17341998599E+04  0.17341998599E+04  0.50400001928E-02 0.  1.
       -1   -1    0    0    0  501  0.00000000000E+00  0.00000000000E+00 -0.76254138897E+03  0.76254138899E+03  0.50400001928E-02 0. -1.
    10030    2    1    2    0    0  0.00000000000E+00  0.00000000000E+00  0.97165847088E+03  0.24967412488E+04  0.22999123200E+04 0.  0.
        2    1    3    3  502    0  0.34108411903E+03  0.10869782381E+04  0.31577337485E+03  0.11821898708E+04  0.25500000920E-02 0.  1.
       -2    1    3    3    0  502 -0.34108411903E+03 -0.10869782381E+04  0.65588509603E+03  0.13145513781E+04  0.25500000920E-02 0. -1.
</event>
<event>
 5   0  0.3184492E-06  0.2300019E+04  0.7818609E-02  0.8477913E-01
        1   -1    0    0  501    0  0.00000000000E+00  0.00000000000E+00  0.12890481978E+04  0.12890481978E+04  0.50400001928E-02 0.  1.
       -1   -1    0    0    0  501  0.00000000000E+00  0.00000000000E+00 -0.10259680858E+04  0.10259680858E+04  0.50400001928E-02 0. -1.
    10030    2    1    2    0    0  0.00000000000E+00  0.00000000000E+00  0.26308011207E+03  0.23150162836E+04  0.23000194017E+04 0.  0.
        1    1    3    3  502    0 -0.49152410825E+03 -0.66024506157E+03 -0.67681723149E+03  0.10656458395E+04  0.50400001928E-02 0. -1.
       -1    1    3    3    0  502  0.49152410825E+03  0.66024506157E+03  0.93989734355E+03  0.12493704442E+04  0.50400001928E-02 0.  1.
</event>
<event>
 5   0  0.3195296E-06  0.2298528E+04  0.7818609E-02  0.8478502E-01
        1   -1    0    0  501    0  0.00000000000E+00  0.00000000000E+00  0.20991696491E+04  0.20991696491E+04  0.50400001928E-02 0.  1.
       -1   -1    0    0    0  501  0.00000000000E+00  0.00000000000E+00 -0.62920467379E+03  0.62920467381E+03  0.50400001928E-02 0. -1.
    10030    2    1    2    0    0  0.00000000000E+00  0.00000000000E+00  0.14699649753E+04  0.27283743229E+04  0.22985276629E+04 0.  0.
        2    1    3    3  502    0  0.10575732246E+04 -0.40686716548E+03  0.96270691972E+03  0.14868781487E+04  0.25500000920E-02 0.  1.
       -2    1    3    3    0  502 -0.10575732246E+04  0.40686716548E+03  0.50725805554E+03  0.12414961742E+04  0.25500000920E-02 0. -1.
</event>
<event>
 5   0  0.3238713E-06  0.2298264E+04  0.7818609E-02  0.8478606E-01
        1   -1    0    0  501    0  0.00000000000E+00  0.00000000000E+00  0.98683783094E+03  0.98683783095E+03  0.50400001928E-02 0.  1.
       -1   -1    0    0    0  501  0.00000000000E+00  0.00000000000E+00 -0.13381173882E+04  0.13381173882E+04  0.50400001928E-02 0. -1.
    10030    2    1    2    0    0  0.00000000000E+00  0.00000000000E+00 -0.35127955727E+03  0.23249552192E+04  0.22982644417E+04 0.  0.
        3    1    3    3  502    0 -0.10081909377E+04 -0.14028137319E+02  0.38199610772E+03  0.10782239063E+04  0.10100000352E+00 0.  1.
       -3    1    3    3    0  502  0.10081909377E+04  0.14028137319E+02 -0.73327566499E+03  0.12467313129E+04  0.10100000352E+00 0. -1.
</event>
<event>
 5   0  0.7242214E-06  0.2294803E+04  0.7818609E-02  0.8479973E-01
        2   -1    0    0  501    0  0.00000000000E+00  0.00000000000E+00  0.15049923249E+04  0.15049923249E+04  0.25500000920E-02 0.  1.
       -2   -1    0    0    0  501  0.00000000000E+00  0.00000000000E+00 -0.87477562283E+03  0.87477562283E+03  0.25500000920E-02 0. -1.
    10030    2    1    2    0    0  0.00000000000E+00  0.00000000000E+00  0.63021670202E+03  0.23797679477E+04  0.22948033452E+04 0.  0.
        1    1    3    3  502    0  0.64396255361E+03 -0.24983887171E+03  0.12652309839E+04  0.14414980662E+04  0.50400001928E-02 0.  1.
       -1    1    3    3    0  502 -0.64396255361E+03  0.24983887171E+03 -0.63501428187E+03  0.93826988147E+03  0.50400001928E-02 0. -1.
</event>
<event>
 5   0  0.3338758E-06  0.2303880E+04  0.7818609E-02  0.8476393E-01
       -1   -1    0    0    0  501  0.00000000000E+00  0.00000000000E+00  0.72771486219E+03  0.72771486221E+03  0.50400001928E-02 0.  1.
        1   -1    0    0  501    0  0.00000000000E+00  0.00000000000E+00 -0.18234689185E+04  0.18234689185E+04  0.50400001928E-02 0. -1.
    10030    2    1    2    0    0  0.00000000000E+00  0.00000000000E+00 -0.10957540563E+04  0.25511837807E+04  0.23038797128E+04 0.  0.
        5    1    3    3  502    0  0.57830021693E+03  0.95263507563E+03 -0.87071742174E+03  0.14142544491E+04  0.46999998093E+01 0. -1.
       -5    1    3    3    0  502 -0.57830021693E+03 -0.95263507563E+03 -0.22503663455E+03  0.11369293316E+04  0.46999998093E+01 0.  1.
</event>
<event>
 5   0  0.7003852E-06  0.2299769E+04  0.7818609E-02  0.8478012E-01
       -2   -1    0    0    0  501  0.00000000000E+00  0.00000000000E+00  0.11733890886E+04  0.11733890886E+04  0.25500000920E-02 0.  1.
        2   -1    0    0  501    0  0.00000000000E+00  0.00000000000E+00 -0.11268508670E+04  0.11268508670E+04  0.25500000920E-02 0. -1.
    10030    2    1    2    0    0  0.00000000000E+00  0.00000000000E+00  0.46538221612E+02  0.23002399556E+04  0.22997691291E+04 0.  0.
        2    1    3    3  502    0 -0.97877470502E+03  0.36973580955E+02  0.62577731508E+03  0.11623098627E+04  0.25500000920E-02 0.  1.
       -2    1    3    3    0  502  0.97877470502E+03 -0.36973580955E+02 -0.57923909347E+03  0.11379300929E+04  0.25500000920E-02 0. -1.
</event>
<event>
 5   0  0.3195296E-06  0.2309285E+04  0.7818609E-02  0.8474269E-01
       -1   -1    0    0    0  501  0.00000000000E+00  0.00000000000E+00  0.80003183006E+03  0.80003183007E+03  0.50400001928E-02 0. -1.
        1   -1    0    0  501    0  0.00000000000E+00  0.00000000000E+00 -0.16664325415E+04  0.16664325415E+04  0.50400001928E-02 0.  1.
    10030    2    1    2    0    0  0.00000000000E+00  0.00000000000E+00 -0.86640071148E+03  0.24664643716E+04  0.23092848035E+04 0.  0.
        2    1    3    3  502    0 -0.20745687832E+03  0.12618814770E+03 -0.16388538265E+04  0.16567449018E+04  0.25500000920E-02 0.  1.
       -2    1    3    3    0  502  0.20745687832E+03 -0.12618814770E+03  0.77245311499E+03  0.80971946985E+03  0.25500000920E-02 0. -1.
</event>
<event>
 5   0  0.7348107E-06  0.2311161E+04  0.7818609E-02  0.8473534E-01
       -2   -1    0    0    0  501  0.00000000000E+00  0.00000000000E+00  0.14224811656E+04  0.14224811656E+04  0.25500000920E-02 0.  1.
        2   -1    0    0  501    0  0.00000000000E+00  0.00000000000E+00 -0.93875810872E+03  0.93875810872E+03  0.25500000920E-02 0. -1.
    10030    2    1    2    0    0  0.00000000000E+00  0.00000000000E+00  0.48372305692E+03  0.23612392744E+04  0.23111605126E+04 0.  0.
        3    1    3    3  502    0  0.12733062680E+01  0.93376218021E+03 -0.45366292676E+03  0.10381346212E+04  0.10100000352E+00 0. -1.
       -3    1    3    3    0  502 -0.12733062680E+01 -0.93376218021E+03  0.93738598369E+03  0.13231046531E+04  0.10100000352E+00 0.  1.
</event>
<event>
 5   0  0.3184492E-06  0.2293037E+04  0.7818609E-02  0.8480672E-01
        1   -1    0    0  501    0  0.00000000000E+00  0.00000000000E+00  0.19197201233E+04  0.19197201233E+04  0.50400001928E-02 0. -1.
       -1   -1    0    0    0  501  0.00000000000E+00  0.00000000000E+00 -0.68473736832E+03  0.68473736834E+03  0.50400001928E-02 0.  1.
    10030    2    1    2    0    0  0.00000000000E+00  0.00000000000E+00  0.12349827550E+04  0.26044574917E+04  0.22930365066E+04 0.  0.
        1    1    3    3  502    0 -0.42700822469E+03  0.82310094243E+03 -0.14838001689E+03  0.93906752410E+03  0.50400001928E-02 0.  1.
       -1    1    3    3    0  502  0.42700822469E+03 -0.82310094243E+03  0.13833627719E+04  0.16653899676E+04  0.50400001928E-02 0. -1.
</event>
<event>
 5   0  0.7348107E-06  0.2301731E+04  0.7818609E-02  0.8477239E-01
       -2   -1    0    0    0  501  0.00000000000E+00  0.00000000000E+00  0.10352922557E+04  0.10352922557E+04  0.25500000920E-02 0.  1.
        2   -1    0    0  501    0  0.00000000000E+00  0.00000000000E+00 -0.12793410838E+04  0.12793410838E+04  0.25500000920E-02 0. -1.
    10030    2    1    2    0    0  0.00000000000E+00  0.00000000000E+00 -0.24404882808E+03  0.23146333396E+04  0.23017314496E+04 0.  0.
        3    1    3    3  502    0 -0.45071993214E+03  0.79622022227E+03  0.58001255364E+03  0.10832957455E+04  0.10100000352E+00 0.  1.
       -3    1    3    3    0  502  0.45071993214E+03 -0.79622022227E+03 -0.82406138172E+03  0.12313375941E+04  0.10100000352E+00 0. -1.
</event>
<event>
 5   0  0.3238713E-06  0.2336304E+04  0.7818609E-02  0.8463743E-01
        1   -1    0    0  501    0  0.00000000000E+00  0.00000000000E+00  0.23430557242E+04  0.23430557242E+04  0.50400001928E-02 0. -1.
       -1   -1    0    0    0  501  0.00000000000E+00  0.00000000000E+00 -0.58239272367E+03  0.58239272369E+03  0.50400001928E-02 0.  1.
    10030    2    1    2    0    0  0.00000000000E+00  0.00000000000E+00  0.17606630006E+04  0.29254484479E+04  0.23363035804E+04 0.  0.
        3    1    3    3  502    0  0.59571726551E+03 -0.31100175700E+03 -0.31611476467E+03  0.74265046148E+03  0.10100000352E+00 0.  1.
       -3    1    3    3    0  502 -0.59571726551E+03  0.31100175700E+03  0.20767777652E+04  0.21827979865E+04  0.10100000352E+00 0. -1.
</event>
<event>
 5   0  0.3338758E-06  0.2288663E+04  0.7818609E-02  0.8482405E-01
        1   -1    0    0  501    0  0.00000000000E+00  0.00000000000E+00  0.10559518369E+04  0.10559518369E+04  0.50400001928E-02 0.  1.
       -1   -1    0    0    0  501  0.00000000000E+00  0.00000000000E+00 -0.12401082918E+04  0.12401082919E+04  0.50400001928E-02 0. -1.
    10030    2    1    2    0    0  0.00000000000E+00  0.00000000000E+00 -0.18415645492E+03  0.22960601288E+04  0.22886630410E+04 0.  0.
        5    1    3    3  502    0 -0.51593473675E+03 -0.85008478644E+03 -0.66015898133E+03  0.11935932169E+04  0.46999998093E+01 0.  1.
       -5    1    3    3    0  502  0.51593473675E+03  0.85008478644E+03  0.47600252640E+03  0.11024669119E+04  0.46999998093E+01 0. -1.
</event>
<event>
 5   0  0.3238713E-06  0.2302507E+04  0.7818609E-02  0.8476933E-01
       -1   -1    0    0    0  501  0.00000000000E+00  0.00000000000E+00  0.17594985120E+04  0.17594985120E+04  0.50400001928E-02 0. -1.
        1   -1    0    0  501    0  0.00000000000E+00  0.00000000000E+00 -0.75327408985E+03  0.75327408986E+03  0.50400001928E-02 0.  1.
    10030    2    1    2    0    0  0.00000000000E+00  0.00000000000E+00  0.10062244222E+04  0.25127726019E+04  0.23025070165E+04 0.  0.
        3    1    3    3  502    0 -0.36904001653E+03 -0.95538979545E+03  0.10768856513E+04  0.14861503663E+04  0.10100000352E+00 0.  1.
       -3    1    3    3    0  502  0.36904001653E+03  0.95538979545E+03 -0.70661229161E+02  0.10266222356E+04  0.10100000352E+00 0. -1.
</event>
<event>
 5   0  0.7497344E-06  0.2299232E+04  0.7818609E-02  0.8478224E-01
       -2   -1    0    0    0  501  0.00000000000E+00  0.00000000000E+00  0.90144601619E+03  0.90144601619E+03  0.25500000920E-02 0.  1.
        2   -1    0    0  501    0  0.00000000000E+00  0.00000000000E+00 -0.14661082224E+04  0.14661082224E+04  0.25500000920E-02 0. -1.
    10030    2    1    2    0    0  0.00000000000E+00  0.00000000000E+00 -0.56466220623E+03  0.23675542386E+04  0.22992324079E+04 0.  0.
        5    1    3    3  502    0  0.12011192595E+03  0.11006710345E+04  0.36201768913E+02  0.11078069593E+04  0.46999998093E+01 0.  1.
       -5    1    3    3    0  502 -0.12011192595E+03 -0.11006710345E+04 -0.60086397514E+03  0.12597472793E+04  0.46999998093E+01 0. -1.
</event>
<event>
 5   0  0.7242214E-06  0.2300038E+04  0.7818609E-02  0.8477906E-01
        2   -1    0    0  501    0  0.00000000000E+00  0.00000000000E+00  0.15028284252E+04  0.15028284252E+04  0.25500000920E-02 0. -1.
       -2   -1    0    0    0  501  0.00000000000E+00  0.00000000000E+00 -0.88003647080E+03  0.88003647080E+03  0.25500000920E-02 0.  1.
    10030    2    1    2    0    0  0.00000000000E+00  0.00000000000E+00  0.62279195439E+03  0.23828648960E+04  0.23000381071E+04 0.  0.
        1    1    3    3  502    0  0.74330750626E+03 -0.87226771155E+03  0.21209652558E+03  0.11654792772E+04  0.50400001928E-02 0.  1.
       -1    1    3    3    0  502 -0.74330750626E+03  0.87226771155E+03  0.41069542881E+03  0.12173856188E+04  0.50400001928E-02 0. -1.
</event>
<event>
 5   0  0.7242214E-06  0.2310449E+04  0.7818609E-02  0.8473812E-01
       -2   -1    0    0    0  501  0.00000000000E+00  0.00000000000E+00  0.96677187042E+03  0.96677187043E+03  0.25500000920E-02 0.  1.
        2   -1    0    0  501    0  0.00000000000E+00  0.00000000000E+00 -0.13804127379E+04  0.13804127379E+04  0.25500000920E-02 0. -1.
    10030    2    1    2    0    0  0.00000000000E+00  0.00000000000E+00 -0.41364086752E+03  0.23471846084E+04  0.23104494841E+04 0.  0.
        1    1    3    3  502    0  0.34497607968E+03 -0.37290568028E+02 -0.13262224142E+04  0.13708628574E+04  0.50400001928E-02 0. -1.
       -1    1    3    3    0  502 -0.34497607968E+03  0.37290568028E+02  0.91258154666E+03  0.97632175093E+03  0.50400001928E-02 0.  1.
</event>
<event>
 5   0  0.3195296E-06  0.2292612E+04  0.7818609E-02  0.8480840E-01
       -1   -1    0    0    0  501  0.00000000000E+00  0.00000000000E+00  0.89740113705E+03  0.89740113706E+03  0.50400001928E-02 0. -1.
        1   -1    0    0  501    0  0.00000000000E+00  0.00000000000E+00 -0.14642476910E+04  0.14642476911E+04  0.50400001928E-02 0.  1.
    10030    2    1    2    0    0  0.00000000000E+00  0.00000000000E+00 -0.56684655400E+03  0.23616488281E+04  0.22926120848E+04 0.  0.
        2    1    3    3  502    0  0.36313343183E+03  0.54272136144E+03  0.68707474713E+03  0.94788399798E+03  0.25500000920E-02 0. -1.
       -2    1    3    3    0  502 -0.36313343183E+03 -0.54272136144E+03 -0.12539213011E+04  0.14137648301E+04  0.25500000920E-02 0.  1.
</event>
<event>
 5   0  0.2519625E-06  0.2309419E+04  0.7818609E-02  0.8474217E-01
       -4   -1    0    0    0  501  0.00000000000E+00  0.00000000000E+00  0.57490586958E+03  0.57490727233E+03  0.12699999809E+01 0. -1.
        4   -1    0    0  501    0  0.00000000000E+00  0.00000000000E+00 -0.23192513862E+04  0.23192517339E+04  0.12699999809E+01 0.  1.
    10030    2    1    2    0    0  0.00000000000E+00  0.00000000000E+00 -0.17443455166E+04  0.28941590062E+04  0.23094187736E+04 0.  0.
        1    1    3    3  502    0 -0.21236498341E+03 -0.21665513687E+03 -0.22684150013E+04  0.22886120144E+04  0.50400001928E-02 0.  1.
       -1    1    3    3    0  502  0.21236498341E+03  0.21665513687E+03  0.52406948467E+03  0.60554699182E+03  0.50400001928E-02 0. -1.
</event>
<event>
 5   0  0.7003852E-06  0.2299232E+04  0.7818609E-02  0.8478224E-01
        2   -1    0    0  501    0  0.00000000000E+00  0.00000000000E+00  0.99195747726E+03  0.99195747726E+03  0.25500000920E-02 0. -1.
       -2   -1    0    0    0  501  0.00000000000E+00  0.00000000000E+00 -0.13323324318E+04  0.13323324318E+04  0.25500000920E-02 0.  1.
    10030    2    1    2    0    0  0.00000000000E+00  0.00000000000E+00 -0.34037495457E+03  0.23242899091E+04  0.22992321483E+04 0.  0.
        2    1    3    3  502    0  0.14074035084E+03  0.16600887951E+03  0.97094180476E+03  0.99503506605E+03  0.25500000920E-02 0. -1.
       -2    1    3    3    0  502 -0.14074035084E+03 -0.16600887951E+03 -0.13113167593E+04  0.13292548430E+04  0.25500000920E-02 0.  1.
</event>
<event>
 5   0  0.3338758E-06  0.2299290E+04  0.7818609E-02  0.8478201E-01
       -1   -1    0    0    0  501  0.00000000000E+00  0.00000000000E+00  0.10659087266E+04  0.10659087266E+04  0.50400001928E-02 0. -1.
        1   -1    0    0  501    0  0.00000000000E+00  0.00000000000E+00 -0.12399598733E+04  0.12399598733E+04  0.50400001928E-02 0.  1.
    10030    2    1    2    0    0  0.00000000000E+00  0.00000000000E+00 -0.17405114670E+03  0.23058685999E+04  0.22992903685E+04 0.  0.
        5    1    3    3  502    0 -0.54869702353E+03 -0.44354975777E+03 -0.99728815910E+03  0.12216425719E+04  0.46999998093E+01 0.  1.
       -5    1    3    3    0  502  0.54869702353E+03  0.44354975777E+03  0.82323701240E+03  0.10842260280E+04  0.46999998093E+01 0. -1.
</event>
<event>
 5   0  0.3226427E-06  0.2298226E+04  0.7818609E-02  0.8478621E-01
        1   -1    0    0  501    0  0.00000000000E+00  0.00000000000E+00  0.11554178141E+04  0.11554178141E+04  0.50400001928E-02 0.  1.
       -1   -1    0    0    0  501  0.00000000000E+00  0.00000000000E+00 -0.11428423529E+04  0.11428423529E+04  0.50400001928E-02 0. -1.
    10030    2    1    2    0    0  0.00000000000E+00  0.00000000000E+00  0.12575461221E+02  0.22982601670E+04  0.22982257620E+04 0.  0.
        4    1    3    3  502    0 -0.24571981617E+02 -0.10461194079E+04  0.48115187311E+03  0.11517284123E+04  0.12699999809E+01 0.  1.
       -4    1    3    3    0  502  0.24571981617E+02  0.10461194079E+04 -0.46857641189E+03  0.11465317547E+04  0.12699999809E+01 0. -1.
</event>
<event>
 5   0  0.3238713E-06  0.2303475E+04  0.7818609E-02  0.8476552E-01
        1   -1    0    0  501    0  0.00000000000E+00  0.00000000000E+00  0.17907135962E+04  0.17907135962E+04  0.50400001928E-02 0.  1.
       -1   -1    0    0    0  501  0.00000000000E+00  0.00000000000E+00 -0.74076590038E+03  0.74076590040E+03  0.50400001928E-02 0. -1.
    10030    2    1    2    0    0  0.00000000000E+00  0.00000000000E+00  0.10499476958E+04  0.25314794966E+04  0.23034752609E+04 0.  0.
        3    1    3    3  502    0  0.30976423882E+03 -0.45226929241E+03  0.16381506656E+04  0.17274371218E+04  0.10100000352E+00 0.  1.
       -3    1    3    3    0  502 -0.30976423882E+03  0.45226929241E+03 -0.58820296980E+03  0.80404237475E+03  0.10100000352E+00 0. -1.
</event>
<event>
 5   0  0.3338758E-06  0.2297999E+04  0.7818609E-02  0.8478711E-01
       -1   -1    0    0    0  501  0.00000000000E+00  0.00000000000E+00  0.85313278667E+03  0.85313278668E+03  0.50400001928E-02 0.  1.
        1   -1    0    0  501    0  0.00000000000E+00  0.00000000000E+00 -0.15474724523E+04  0.15474724524E+04  0.50400001928E-02 0. -1.
    10030    2    1    2    0    0  0.00000000000E+00  0.00000000000E+00 -0.69433966568E+03  0.24006052390E+04  0.22979986820E+04 0.  0.
        5    1    3    3  502    0  0.55938950007E+03 -0.96955614390E+02 -0.13907020616E+04  0.15021289286E+04  0.46999998093E+01 0. -1.
       -5    1    3    3    0  502 -0.55938950007E+03  0.96955614390E+02  0.69636239593E+03  0.89847631044E+03  0.46999998093E+01 0.  1.
</event>
<event>
 5   0  0.7003852E-06  0.2309690E+04  0.7818609E-02  0.8474110E-01
        2   -1    0    0  501    0  0.00000000000E+00  0.00000000000E+00  0.22843872335E+04  0.22843872335E+04  0.25500000920E-02 0. -1.
       -2   -1    0    0    0  501  0.00000000000E+00  0.00000000000E+00 -0.58381841692E+03  0.58381841693E+03  0.25500000920E-02 0.  1.
    10030    2    1    2    0    0  0.00000000000E+00  0.00000000000E+00  0.17005688166E+04  0.28682056504E+04  0.23096903154E+04 0.  0.
        2    1    3    3  502    0  0.11439010642E+04  0.88932355189E+02  0.68719149329E+03  0.13374044851E+04  0.25500000920E-02 0.  1.
       -2    1    3    3    0  502 -0.11439010642E+04 -0.88932355189E+02  0.10133773233E+04  0.15308011653E+04  0.25500000920E-02 0. -1.
</event>
<event>
 5   0  0.7003852E-06  0.2298846E+04  0.7818609E-02  0.8478376E-01
        2   -1    0    0  501    0  0.00000000000E+00  0.00000000000E+00  0.14872740639E+04  0.14872740639E+04  0.25500000920E-02 0. -1.
       -2   -1    0    0    0  501  0.00000000000E+00  0.00000000000E+00 -0.88831864456E+03  0.88831864456E+03  0.25500000920E-02 0.  1.
    10030    2    1    2    0    0  0.00000000000E+00  0.00000000000E+00  0.59895541939E+03  0.23755927085E+04  0.22988460415E+04 0.  0.
        2    1    3    3  502    0  0.10769542007E+04  0.29491268060E+03  0.58128962737E+03  0.12588492644E+04  0.25500000920E-02 0. -1.
       -2    1    3    3    0  502 -0.10769542007E+04 -0.29491268060E+03  0.17665792021E+02  0.11167434441E+04  0.25500000920E-02 0.  1.
</event>
<event>
 5   0  0.3226427E-06  0.2299296E+04  0.7818609E-02  0.8478199E-01
        1   -1    0    0  501    0  0.00000000000E+00  0.00000000000E+00  0.11533999755E+04  0.11533999755E+04  0.50400001928E-02 0. -1.
       -1   -1    0    0    0  501  0.00000000000E+00  0.00000000000E+00 -0.11459078920E+04  0.11459078920E+04  0.50400001928E-02 0.  1.
    10030    2    1    2    0    0  0.00000000000E+00  0.00000000000E+00  0.74920834364E+01  0.22993078675E+04  0.22992956614E+04 0.  0.
        4    1    3    3  502    0 -0.49911435115E+03  0.48587793319E+03  0.91835246065E+03  0.11526340947E+04  0.12699999809E+01 0. -1.
       -4    1    3    3    0  502  0.49911435115E+03 -0.48587793319E+03 -0.91086037722E+03  0.11466737728E+04  0.12699999809E+01 0.  1.
</event>
<event>
 5   0  0.3184492E-06  0.2296913E+04  0.7818609E-02  0.8479139E-01
       -1   -1    0    0    0  501  0.00000000000E+00  0.00000000000E+00  0.11174235863E+04  0.11174235863E+04  0.50400001928E-02 0.  1.
        1   -1    0    0  501    0  0.00000000000E+00  0.00000000000E+00 -0.11803513994E+04  0.11803513994E+04  0.50400001928E-02 0. -1.
    10030    2    1    2    0    0  0.00000000000E+00  0.00000000000E+00 -0.62927813046E+02  0.22977749857E+04  0.22969131406E+04 0.  0.
        1    1    3    3  502    0 -0.83296146329E+03  0.76602763066E+03  0.16438841735E+03  0.11435238004E+04  0.50400001928E-02 0.  1.
       -1    1    3    3    0  502  0.83296146329E+03 -0.76602763066E+03 -0.22731623040E+03  0.11542511854E+04  0.50400001928E-02 0. -1.
</event>
<event>
 5   0  0.3184492E-06  0.2300283E+04  0.7818609E-02  0.8477810E-01
        1   -1    0    0  501    0  0.00000000000E+00  0.00000000000E+00  0.18709469050E+04  0.18709469050E+04  0.50400001928E-02 0.  1.
       -1   -1    0    0    0  501  0.00000000000E+00  0.00000000000E+00 -0.70703499598E+03  0.70703499600E+03  0.50400001928E-02 0. -1.
    10030    2    1    2    0    0  0.00000000000E+00  0.00000000000E+00  0.11639119091E+04  0.25779819010E+04  0.23002825370E+04 0.  0.
        1    1    3    3  502    0 -0.43564648017E+03  0.25654739292E+03 -0.57582330280E+03  0.76627468742E+03  0.50400001928E-02 0. -1.
       -1    1    3    3    0  502  0.43564648017E+03 -0.25654739292E+03  0.17397352119E+04  0.18117072136E+04  0.50400001928E-02 0.  1.
</event>
<event>
 5   0  0.3338758E-06  0.2293717E+04  0.7818609E-02  0.8480402E-01
       -1   -1    0    0    0  501  0.00000000000E+00  0.00000000000E+00  0.68488126938E+03  0.68488126940E+03  0.50400001928E-02 0. -1.
        1   -1    0    0  501    0  0.00000000000E+00  0.00000000000E+00 -0.19204564542E+04  0.19204564542E+04  0.50400001928E-02 0.  1.
    10030    2    1    2    0    0  0.00000000000E+00  0.00000000000E+00 -0.12355751848E+04  0.26053377236E+04  0.22937172050E+04 0.  0.
        5    1    3    3  502    0  0.79190701361E+03 -0.60725334582E+03 -0.12597125816E+04  0.16071002528E+04  0.46999998093E+01 0.  1.
       -5    1    3    3    0  502 -0.79190701361E+03  0.60725334582E+03  0.24137396815E+02  0.99823747081E+03  0.46999998093E+01 0. -1.
</event>
<event>
 5   0  0.7044981E-06  0.2299766E+04  0.7818609E-02  0.8478013E-01
       -2   -1    0    0    0  501  0.00000000000E+00  0.00000000000E+00  0.78793599790E+03  0.78793599791E+03  0.25500000920E-02 0. -1.
        2   -1    0    0  501    0  0.00000000000E+00  0.00000000000E+00 -0.16780942567E+04  0.16780942567E+04  0.25500000920E-02 0.  1.
    10030    2    1    2    0    0  0.00000000000E+00  0.00000000000E+00 -0.89015825880E+03  0.24660302546E+04  0.22997659644E+04 0.  0.
        4    1    3    3  502    0  0.73248720450E+03  0.35491506940E+03 -0.13160365091E+04  0.15474029590E+04  0.12699999809E+01 0.  1.
       -4    1    3    3    0  502 -0.73248720450E+03 -0.35491506940E+03  0.42587825033E+03  0.91862729561E+03  0.12699999809E+01 0. -1.
</event>
<event>
 5   0  0.7348107E-06  0.2297824E+04  0.7818609E-02  0.8478779E-01
       -2   -1    0    0    0  501  0.00000000000E+00  0.00000000000E+00  0.84670386183E+03  0.84670386183E+03  0.25500000920E-02 0. -1.
        2   -1    0    0  501    0  0.00000000000E+00  0.00000000000E+00 -0.15589856009E+04  0.15589856009E+04  0.25500000920E-02 0.  1.
    10030    2    1    2    0    0  0.00000000000E+00  0.00000000000E+00 -0.71228173903E+03  0.24056894627E+04  0.22978243003E+04 0.  0.
        3    1    3    3  502    0 -0.10888470734E+04 -0.34109007088E+03 -0.21541089892E+03  0.11611770973E+04  0.10100000352E+00 0. -1.
       -3    1    3    3    0  502  0.10888470734E+04  0.34109007088E+03 -0.49687084011E+03  0.12445123654E+04  0.10100000352E+00 0.  1.
</event>
<event>
 5   0  0.7242214E-06  0.2314384E+04  0.7818609E-02  0.8472271E-01
       -2   -1    0    0    0  501  0.00000000000E+00  0.00000000000E+00  0.15778632953E+04  0.15778632953E+04  0.25500000920E-02 0.  1.
        2   -1    0    0  501    0  0.00000000000E+00  0.00000000000E+00 -0.84867497576E+03  0.84867497577E+03  0.25500000920E-02 0. -1.
    10030    2    1    2    0    0  0.00000000000E+00  0.00000000000E+00  0.72918831949E+03  0.24265382710E+04  0.23143838004E+04 0.  0.
        1    1    3    3  502    0  0.88929575934E+03  0.37893627566E+03  0.10315443269E+04  0.14136913903E+04  0.50400001928E-02 0.  1.
       -1    1    3    3    0  502 -0.88929575934E+03 -0.37893627566E+03 -0.30235600741E+03  0.10128468807E+04  0.50400001928E-02 0. -1.
</event>
<event>
 5   0  0.7348107E-06  0.2298576E+04  0.7818609E-02  0.8478483E-01
        2   -1    0    0  501    0  0.00000000000E+00  0.00000000000E+00  0.11099264317E+04  0.11099264317E+04  0.25500000920E-02 0.  1.
       -2   -1    0    0    0  501  0.00000000000E+00  0.00000000000E+00 -0.11900457919E+04  0.11900457919E+04  0.25500000920E-02 0. -1.
    10030    2    1    2    0    0  0.00000000000E+00  0.00000000000E+00 -0.80119360244E+02  0.22999722236E+04  0.22985763241E+04 0.  0.
        3    1    3    3  502    0  0.11383228181E+04  0.15816517242E+03 -0.48323585439E+02  0.11502739843E+04  0.10100000352E+00 0.  1.
       -3    1    3    3    0  502 -0.11383228181E+04 -0.15816517242E+03 -0.31795774804E+02  0.11496982393E+04  0.10100000352E+00 0. -1.
</event>
<event>
 5   0  0.7497344E-06  0.2301440E+04  0.7818609E-02  0.8477353E-01
        2   -1    0    0  501    0  0.00000000000E+00  0.00000000000E+00  0.13437491132E+04  0.13437491132E+04  0.25500000920E-02 0. -1.
       -2   -1    0    0    0  501  0.00000000000E+00  0.00000000000E+00 -0.98541979081E+03  0.98541979081E+03  0.25500000920E-02 0.  1.
    10030    2    1    2    0    0  0.00000000000E+00  0.00000000000E+00  0.35832932238E+03  0.23291689040E+04  0.23014403925E+04 0.  0.
        5    1    3    3  502    0 -0.10693494768E+04  0.22352881506E+03 -0.18666168651E+03  0.11083041595E+04  0.46999998093E+01 0. -1.
       -5    1    3    3    0  502  0.10693494768E+04 -0.22352881506E+03  0.54499100889E+03  0.12208647445E+04  0.46999998093E+01 0.  1.
</event>
<event>
 5   0  0.2519625E-06  0.2365174E+04  0.7818609E-02  0.8452658E-01
        4   -1    0    0  501    0  0.00000000000E+00  0.00000000000E+00  0.15529997464E+04  0.15530002657E+04  0.12699999809E+01 0. -1.
       -4   -1    0    0    0  501  0.00000000000E+00  0.00000000000E+00 -0.90052200595E+03  0.90052290149E+03  0.12699999809E+01 0.  1.
    10030    2    1    2    0    0  0.00000000000E+00  0.00000000000E+00  0.65247774044E+03  0.24535231672E+04  0.23651741437E+04 0.  0.
        4    1    3    3  502    0 -0.18908712963E+03  0.52940999693E+03  0.14055267958E+04  0.15137820431E+04  0.12699999809E+01 0. -1.
       -4    1    3    3    0  502  0.18908712963E+03 -0.52940999693E+03 -0.75304905539E+03  0.93974112402E+03  0.12699999809E+01 0.  1.
</event>
<event>
 5   0  0.3238713E-06  0.2297593E+04  0.7818609E-02  0.8478871E-01
       -1   -1    0    0    0  501  0.00000000000E+00  0.00000000000E+00  0.11870306928E+04  0.11870306928E+04  0.50400001928E-02 0. -1.
        1   -1    0    0  501    0  0.00000000000E+00  0.00000000000E+00 -0.11117934188E+04  0.11117934189E+04  0.50400001928E-02 0.  1.
    10030    2    1    2    0    0  0.00000000000E+00  0.00000000000E+00  0.75237273966E+02  0.22988241117E+04  0.22975925768E+04 0.  0.
        3    1    3    3  502    0 -0.10498617214E+04 -0.28358041827E+02 -0.42816186850E+03  0.11341677162E+04  0.10100000352E+00 0. -1.
       -3    1    3    3    0  502  0.10498617214E+04  0.28358041827E+02  0.50339914247E+03  0.11646563955E+04  0.10100000352E+00 0.  1.
</event>
<event>
 5   0  0.7044981E-06  0.2297237E+04  0.7818609E-02  0.8479011E-01
       -2   -1    0    0    0  501  0.00000000000E+00  0.00000000000E+00  0.13021019839E+04  0.13021019839E+04  0.25500000920E-02 0.  1.
        2   -1    0    0  501    0  0.00000000000E+00  0.00000000000E+00 -0.10132270474E+04  0.10132270474E+04  0.25500000920E-02 0. -1.
    10030    2    1    2    0    0  0.00000000000E+00  0.00000000000E+00  0.28887493643E+03  0.23153290313E+04  0.22972374266E+04 0.  0.
        4    1    3    3  502    0 -0.10338095972E+02 -0.10517782698E+04  0.60956832875E+03  0.12156971520E+04  0.12699999809E+01 0.  1.
       -4    1    3    3    0  502  0.10338095972E+02  0.10517782698E+04 -0.32069339232E+03  0.10996318793E+04  0.12699999809E+01 0. -1.
</event>
<event>
 5   0  0.3238713E-06  0.2355422E+04  0.7818609E-02  0.8456384E-01
       -1   -1    0    0    0  501  0.00000000000E+00  0.00000000000E+00  0.79678608795E+03  0.79678608796E+03  0.50400001928E-02 0. -1.
        1   -1    0    0  501    0  0.00000000000E+00  0.00000000000E+00 -0.17407471393E+04  0.17407471393E+04  0.50400001928E-02 0.  1.
    10030    2    1    2    0    0  0.00000000000E+00  0.00000000000E+00 -0.94396105137E+03  0.25375332273E+04  0.23554219183E+04 0.  0.
        3    1    3    3  502    0  0.93957010606E+03  0.67656505144E+03 -0.23974252325E+03  0.11823741966E+04  0.10100000352E+00 0. -1.
       -3    1    3    3    0  502 -0.93957010606E+03 -0.67656505144E+03 -0.70421852812E+03  0.13551590307E+04  0.10100000352E+00 0.  1.
</event>
<event>
 5   0  0.3195296E-06  0.2277856E+04  0.7818609E-02  0.8486704E-01
       -1   -1    0    0    0  501  0.00000000000E+00  0.00000000000E+00  0.67029591456E+03  0.67029591458E+03  0.50400001928E-02 0.  1.
        1   -1    0    0  501    0  0.00000000000E+00  0.00000000000E+00 -0.19352004086E+04  0.19352004086E+04  0.50400001928E-02 0. -1.
    10030    2    1    2    0    0  0.00000000000E+00  0.00000000000E+00 -0.12649044940E+04  0.26054963232E+04  0.22778559461E+04 0.  0.
        2    1    3    3  502    0 -0.44754353455E+03  0.33673910324E+03  0.50189085361E+03  0.75205243694E+03  0.25500000920E-02 0.  1.
       -2    1    3    3    0  502  0.44754353455E+03 -0.33673910324E+03 -0.17667953476E+04  0.18534438862E+04  0.25500000920E-02 0. -1.
</event>
<event>
 5   0  0.3226427E-06  0.2299450E+04  0.7818609E-02  0.8478138E-01
        1   -1    0    0  501    0  0.00000000000E+00  0.00000000000E+00  0.12520263925E+04  0.12520263925E+04  0.50400001928E-02 0.  1.
       -1   -1    0    0    0  501  0.00000000000E+00  0.00000000000E+00 -0.10557829412E+04  0.10557829412E+04  0.50400001928E-02 0. -1.
    10030    2    1    2    0    0  0.00000000000E+00  0.00000000000E+00  0.19624345128E+03  0.23078093337E+04  0.22994504623E+04 0.  0.
        4    1    3    3  502    0  0.62867253365E+03 -0.93383760535E+03 -0.13636118591E+03  0.11339655258E+04  0.12699999809E+01 0. -1.
       -4    1    3    3    0  502 -0.62867253365E+03  0.93383760535E+03  0.33260463719E+03  0.11738438079E+04  0.12699999809E+01 0.  1.
</event>
<event>
 5   0  0.7044981E-06  0.2297528E+04  0.7818609E-02  0.8478896E-01
       -2   -1    0    0    0  501  0.00000000000E+00  0.00000000000E+00  0.87108476135E+03  0.87108476136E+03  0.25500000920E-02 0. -1.
        2   -1    0    0  501    0  0.00000000000E+00  0.00000000000E+00 -0.15149605269E+04  0.15149605269E+04  0.25500000920E-02 0.  1.
    10030    2    1    2    0    0  0.00000000000E+00  0.00000000000E+00 -0.64387576553E+03  0.23860452882E+04  0.22975282623E+04 0.  0.
        4    1    3    3  502    0 -0.24844756256E+03  0.56840261625E+03 -0.13260650433E+04  0.14639869663E+04  0.12699999809E+01 0.  1.
       -4    1    3    3    0  502  0.24844756256E+03 -0.56840261625E+03  0.68218927776E+03  0.92205832196E+03  0.12699999809E+01 0. -1.
</event>
<event>
 5   0  0.3338758E-06  0.2302072E+04  0.7818609E-02  0.8477105E-01
       -1   -1    0    0    0  501  0.00000000000E+00  0.00000000000E+00  0.12626867660E+04  0.12626867660E+04  0.50400001928E-02 0.  1.
        1   -1    0    0  501    0  0.00000000000E+00  0.00000000000E+00 -0.10492578470E+04  0.10492578470E+04  0.50400001928E-02 0. -1.
    10030    2    1    2    0    0  0.00000000000E+00  0.00000000000E+00  0.21342891900E+03  0.23119446129E+04  0.23020721079E+04 0.  0.
        5    1    3    3  502    0 -0.96030890439E+03 -0.59191764027E+03 -0.12296310571E+03  0.11347694480E+04  0.46999998093E+01 0.  1.
       -5    1    3    3    0  502  0.96030890439E+03  0.59191764027E+03  0.33639202471E+03  0.11771751650E+04  0.46999998093E+01 0. -1.
</event>
<event>
 5   0  0.3338758E-06  0.2301683E+04  0.7818609E-02  0.8477258E-01
       -1   -1    0    0    0  501  0.00000000000E+00  0.00000000000E+00  0.72361515369E+03  0.72361515371E+03  0.50400001928E-02 0.  1.
        1   -1    0    0  501    0  0.00000000000E+00  0.00000000000E+00 -0.18303045399E+04  0.18303045399E+04  0.50400001928E-02 0. -1.
    10030    2    1    2    0    0  0.00000000000E+00  0.00000000000E+00 -0.11066893862E+04  0.25539196936E+04  0.23016829504E+04 0.  0.
        5    1    3    3  502    0  0.90941080028E+03 -0.11420314674E+03  0.21887085357E+03  0.94233587586E+03  0.46999998093E+01 0.  1.
       -5    1    3    3    0  502 -0.90941080028E+03  0.11420314674E+03 -0.13255602398E+04  0.16115838178E+04  0.46999998093E+01 0. -1.
</event>
<event>
 5   0  0.3338758E-06  0.2318906E+04  0.7818609E-02  0.8470504E-01
        1   -1    0    0  501    0  0.00000000000E+00  0.00000000000E+00  0.20562925285E+04  0.20562925285E+04  0.50400001928E-02 0.  1.
       -1   -1    0    0    0  501  0.00000000000E+00  0.00000000000E+00 -0.65376471184E+03  0.65376471186E+03  0.50400001928E-02 0. -1.
    10030    2    1    2    0    0  0.00000000000E+00  0.00000000000E+00  0.14025278166E+04  0.27100572403E+04  0.23189062011E+04 0.  0.
        5    1    3    3  502    0  0.72911551142E+03 -0.89647507608E+03  0.59019381528E+03  0.12975468472E+04  0.46999998093E+01 0.  1.
       -5    1    3    3    0  502 -0.72911551142E+03  0.89647507608E+03  0.81233400133E+03  0.14125103931E+04  0.46999998093E+01 0. -1.
</event>
<event>
 5   0  0.7497344E-06  0.2266116E+04  0.7818609E-02  0.8491402E-01
        2   -1    0    0  501    0  0.00000000000E+00  0.00000000000E+00  0.10602462367E+04  0.10602462367E+04  0.25500000920E-02 0.  1.
       -2   -1    0    0    0  501  0.00000000000E+00  0.00000000000E+00 -0.12108695668E+04  0.12108695668E+04  0.25500000920E-02 0. -1.
    10030    2    1    2    0    0  0.00000000000E+00  0.00000000000E+00 -0.15062333005E+03  0.22711158035E+04  0.22661155322E+04 0.  0.
        5    1    3    3  502    0 -0.72299118931E+03 -0.40428809215E+03  0.69946120423E+03  0.10841739655E+04  0.46999998093E+01 0.  1.
       -5    1    3    3    0  502  0.72299118931E+03  0.40428809215E+03 -0.85008453429E+03  0.11869418380E+04  0.46999998093E+01 0. -1.
</event>
<event>
 5   0  0.7242214E-06  0.2286173E+04  0.7818609E-02  0.8483393E-01
        2   -1    0    0  501    0  0.00000000000E+00  0.00000000000E+00  0.15255381195E+04  0.15255381195E+04  0.25500000920E-02 0. -1.
       -2   -1    0    0    0  501  0.00000000000E+00  0.00000000000E+00 -0.85651518741E+03  0.85651518741E+03  0.25500000920E-02 0.  1.
    10030    2    1    2    0    0  0.00000000000E+00  0.00000000000E+00  0.66902293208E+03  0.23820533069E+04  0.22861728441E+04 0.  0.
        1    1    3    3  502    0 -0.12494770991E+03 -0.73249631946E+02  0.15159388211E+04  0.15228420628E+04  0.50400001928E-02 0. -1.
       -1    1    3    3    0  502  0.12494770991E+03  0.73249631946E+02 -0.84691588907E+03  0.85921124409E+03  0.50400001928E-02 0.  1.
</event>
<event>
 5   0  0.3195296E-06  0.2300576E+04  0.7818609E-02  0.8477694E-01
        1   -1    0    0  501    0  0.00000000000E+00  0.00000000000E+00  0.17654513789E+04  0.17654513789E+04  0.50400001928E-02 0.  1.
       -1   -1    0    0    0  501  0.00000000000E+00  0.00000000000E+00 -0.74947526591E+03  0.74947526592E+03  0.50400001928E-02 0. -1.
    10030    2    1    2    0    0  0.00000000000E+00  0.00000000000E+00  0.10159761129E+04  0.25149266448E+04  0.23005757033E+04 0.  0.
        2    1    3    3  502    0 -0.28728931846E+02  0.55521755682E+03 -0.59284842926E+03  0.81274912920E+03  0.25500000920E-02 0. -1.
       -2    1    3    3    0  502  0.28728931846E+02 -0.55521755682E+03  0.16088245422E+04  0.17021775156E+04  0.25500000920E-02 0.  1.
</event>
<event>
 5   0  0.7497344E-06  0.2300080E+04  0.7818609E-02  0.8477890E-01
       -2   -1    0    0    0  501  0.00000000000E+00  0.00000000000E+00  0.74198438968E+03  0.74198438969E+03  0.25500000920E-02 0.  1.
        2   -1    0    0  501    0  0.00000000000E+00  0.00000000000E+00 -0.17825061702E+04  0.17825061702E+04  0.25500000920E-02 0. -1.
    10030    2    1    2    0    0  0.00000000000E+00  0.00000000000E+00 -0.10405217805E+04  0.25244905599E+04  0.23000797837E+04 0.  0.
        5    1    3    3  502    0 -0.42311943546E+03  0.95739047789E+02 -0.16892458228E+04  0.17440669602E+04  0.46999998093E+01 0. -1.
       -5    1    3    3    0  502  0.42311943546E+03 -0.95739047789E+02  0.64872404226E+03  0.78042359968E+03  0.46999998093E+01 0.  1.
</event>
<event>
 5   0  0.7242214E-06  0.2295663E+04  0.7818609E-02  0.8479633E-01
        2   -1    0    0  501    0  0.00000000000E+00  0.00000000000E+00  0.16593020801E+04  0.16593020801E+04  0.25500000920E-02 0. -1.
       -2   -1    0    0    0  501  0.00000000000E+00  0.00000000000E+00 -0.79401861345E+03  0.79401861346E+03  0.25500000920E-02 0.  1.
    10030    2    1    2    0    0  0.00000000000E+00  0.00000000000E+00  0.86528346663E+03  0.24533206935E+04  0.22956626381E+04 0.  0.
        1    1    3    3  502    0  0.54053834467E+03  0.43744733986E+03  0.14085808727E+04  0.15708729905E+04  0.50400001928E-02 0. -1.
       -1    1    3    3    0  502 -0.54053834467E+03 -0.43744733986E+03 -0.54329740607E+03  0.88244770308E+03  0.50400001928E-02 0.  1.
</event>
<event>
 5   0  0.7242214E-06  0.2300610E+04  0.7818609E-02  0.8477681E-01
        2   -1    0    0  501    0  0.00000000000E+00  0.00000000000E+00  0.18238875032E+04  0.18238875032E+04  0.25500000920E-02 0.  1.
       -2   -1    0    0    0  501  0.00000000000E+00  0.00000000000E+00 -0.72548433400E+03  0.72548433400E+03  0.25500000920E-02 0. -1.
    10030    2    1    2    0    0  0.00000000000E+00  0.00000000000E+00  0.10984031692E+04  0.25493718372E+04  0.23006101891E+04 0.  0.
        1    1    3    3  502    0 -0.44273947130E+03  0.14136294421E+02 -0.62718203695E+03  0.76783812211E+03  0.50400001928E-02 0. -1.
       -1    1    3    3    0  502  0.44273947130E+03 -0.14136294421E+02  0.17255852062E+04  0.17815337151E+04  0.50400001928E-02 0.  1.
</event>
<event>
 5   0  0.7348107E-06  0.2273086E+04  0.7818609E-02  0.8488609E-01
       -2   -1    0    0    0  501  0.00000000000E+00  0.00000000000E+00  0.69453646589E+03  0.69453646589E+03  0.25500000920E-02 0.  1.
        2   -1    0    0  501    0  0.00000000000E+00  0.00000000000E+00 -0.18598443178E+04  0.18598443178E+04  0.25500000920E-02 0. -1.
    10030    2    1    2    0    0  0.00000000000E+00  0.00000000000E+00 -0.11653078520E+04  0.25543807837E+04  0.22730857438E+04 0.  0.
        3    1    3    3  502    0 -0.50964254546E+03 -0.84865121608E+03  0.44822801756E+02  0.99093567120E+03  0.10100000352E+00 0.  1.
       -3    1    3    3    0  502  0.50964254546E+03  0.84865121608E+03 -0.12101306537E+04  0.15634451125E+04  0.10100000352E+00 0. -1.
</event>
<event>
 5   0  0.3226427E-06  0.2298709E+04  0.7818609E-02  0.8478430E-01
       -1   -1    0    0    0  501  0.00000000000E+00  0.00000000000E+00  0.53601167750E+03  0.53601167752E+03  0.50400001928E-02 0.  1.
        1   -1    0    0  501    0  0.00000000000E+00  0.00000000000E+00 -0.24645283745E+04  0.24645283745E+04  0.50400001928E-02 0. -1.
    10030    2    1    2    0    0  0.00000000000E+00  0.00000000000E+00 -0.19285166970E+04  0.30005400520E+04  0.22987091928E+04 0.  0.
        4    1    3    3  502    0  0.71992033462E+02  0.14218378781E+01 -0.24615803466E+04  0.24626336086E+04  0.12699999809E+01 0. -1.
       -4    1    3    3    0  502 -0.71992033462E+02 -0.14218378781E+01  0.53306364958E+03  0.53790644345E+03  0.12699999809E+01 0.  1.
</event>
<event>
 5   0  0.3226427E-06  0.2293827E+04  0.7818609E-02  0.8480359E-01
       -1   -1    0    0    0  501  0.00000000000E+00  0.00000000000E+00  0.71435370172E+03  0.71435370173E+03  0.50400001928E-02 0. -1.
        1   -1    0    0  501    0  0.00000000000E+00  0.00000000000E+00 -0.18414000361E+04  0.18414000361E+04  0.50400001928E-02 0.  1.
    10030    2    1    2    0    0  0.00000000000E+00  0.00000000000E+00 -0.11270463344E+04  0.25557537378E+04  0.22938273101E+04 0.  0.
        4    1    3    3  502    0  0.50916617986E+03  0.27685425954E+03 -0.16662372188E+04  0.17641560481E+04  0.12699999809E+01 0.  1.
       -4    1    3    3    0  502 -0.50916617986E+03 -0.27685425954E+03  0.53919088440E+03  0.79159768978E+03  0.12699999809E+01 0. -1.
</event>
<event>
 5   0  0.3184492E-06  0.2296868E+04  0.7818609E-02  0.8479157E-01
        1   -1    0    0  501    0  0.00000000000E+00  0.00000000000E+00  0.11396737076E+04  0.11396737076E+04  0.50400001928E-02 0.  1.
       -1   -1    0    0    0  501  0.00000000000E+00  0.00000000000E+00 -0.11572620888E+04  0.11572620888E+04  0.50400001928E-02 0. -1.
    10030    2    1    2    0    0  0.00000000000E+00  0.00000000000E+00 -0.17588381227E+02  0.22969357964E+04  0.22968684555E+04 0.  0.
        1    1    3    3  502    0  0.92208781739E+03  0.68438920236E+03  0.75357741237E+01  0.11483428544E+04  0.50400001928E-02 0. -1.
       -1    1    3    3    0  502 -0.92208781739E+03 -0.68438920236E+03 -0.25124155351E+02  0.11485929420E+04  0.50400001928E-02 0.  1.
</event>
<event>
 5   0  0.7497344E-06  0.2229446E+04  0.7818609E-02  0.8506271E-01
        2   -1    0    0  501    0  0.00000000000E+00  0.00000000000E+00  0.11459108374E+04  0.11459108374E+04  0.25500000920E-02 0. -1.
       -2   -1    0    0    0  501  0.00000000000E+00  0.00000000000E+00 -0.10843843007E+04  0.10843843008E+04  0.25500000920E-02 0.  1.
    10030    2    1    2    0    0  0.00000000000E+00  0.00000000000E+00  0.61526536624E+02  0.22302951381E+04  0.22294463188E+04 0.  0.
        5    1    3    3  502    0 -0.96501941507E+03  0.21753957386E+03  0.54476789714E+03  0.11293272729E+04  0.46999998093E+01 0. -1.
       -5    1    3    3    0  502  0.96501941507E+03 -0.21753957386E+03 -0.48324136052E+03  0.11009678652E+04  0.46999998093E+01 0.  1.
</event>
<event>
 5   0  0.3184492E-06  0.2301648E+04  0.7818609E-02  0.8477272E-01
       -1   -1    0    0    0  501  0.00000000000E+00  0.00000000000E+00  0.90329774141E+03  0.90329774143E+03  0.50400001928E-02 0. -1.
        1   -1    0    0  501    0  0.00000000000E+00  0.00000000000E+00 -0.14661783086E+04  0.14661783086E+04  0.50400001928E-02 0.  1.
    10030    2    1    2    0    0  0.00000000000E+00  0.00000000000E+00 -0.56288056716E+03  0.23694760500E+04  0.23016477182E+04 0.  0.
        1    1    3    3  502    0 -0.88208927640E+03  0.23327270469E+03  0.44058259372E+03  0.10132179766E+04  0.50400001928E-02 0.  1.
       -1    1    3    3    0  502  0.88208927640E+03 -0.23327270469E+03 -0.10034631609E+04  0.13562580734E+04  0.50400001928E-02 0. -1.
</event>
<event>
 5   0  0.7497344E-06  0.2295507E+04  0.7818609E-02  0.8479695E-01
       -2   -1    0    0    0  501  0.00000000000E+00  0.00000000000E+00  0.67976841277E+03  0.67976841277E+03  0.25500000920E-02 0.  1.
        2   -1    0    0  501    0  0.00000000000E+00  0.00000000000E+00 -0.19379223359E+04  0.19379223359E+04  0.25500000920E-02 0. -1.
    10030    2    1    2    0    0  0.00000000000E+00  0.00000000000E+00 -0.12581539231E+04  0.26176907487E+04  0.22955072558E+04 0.  0.
        5    1    3    3  502    0 -0.99632089694E+03 -0.32463642561E+03 -0.11630648632E+04  0.15654986760E+04  0.46999998093E+01 0.  1.
       -5    1    3    3    0  502  0.99632089694E+03  0.32463642561E+03 -0.95089059938E+02  0.10521920727E+04  0.46999998093E+01 0. -1.
</event>
<event>
 5   0  0.7242214E-06  0.2302472E+04  0.7818609E-02  0.8476947E-01
       -2   -1    0    0    0  501  0.00000000000E+00  0.00000000000E+00  0.91773867047E+03  0.91773867047E+03  0.25500000920E-02 0.  1.
        2   -1    0    0  501    0  0.00000000000E+00  0.00000000000E+00 -0.14441414535E+04  0.14441414535E+04  0.25500000920E-02 0. -1.
    10030    2    1    2    0    0  0.00000000000E+00  0.00000000000E+00 -0.52640278300E+03  0.23618801239E+04  0.23024721127E+04 0.  0.
        1    1    3    3  502    0 -0.10861704754E+04 -0.18016475355E+01  0.12818591592E+03  0.10937098229E+04  0.50400001928E-02 0.  1.
       -1    1    3    3    0  502  0.10861704754E+04  0.18016475355E+01 -0.65458869892E+03  0.12681703010E+04  0.50400001928E-02 0. -1.
</event>
<event>
 5   0  0.7044981E-06  0.2299026E+04  0.7818609E-02  0.8478305E-01
        2   -1    0    0  501    0  0.00000000000E+00  0.00000000000E+00  0.14463373860E+04  0.14463373860E+04  0.25500000920E-02 0. -1.
       -2   -1    0    0    0  501  0.00000000000E+00  0.00000000000E+00 -0.91360422920E+03  0.91360422920E+03  0.25500000920E-02 0.  1.
    10030    2    1    2    0    0  0.00000000000E+00  0.00000000000E+00  0.53273315677E+03  0.23599416152E+04  0.22990258395E+04 0.  0.
        4    1    3    3  502    0 -0.59190581231E+03  0.32929946286E+03  0.12197312183E+04  0.13951833158E+04  0.12699999809E+01 0. -1.
       -4    1    3    3    0  502  0.59190581231E+03 -0.32929946286E+03 -0.68699806149E+03  0.96475829941E+03  0.12699999809E+01 0.  1.
</event>
<event>
 5   0  0.7497344E-06  0.2296902E+04  0.7818609E-02  0.8479144E-01
       -2   -1    0    0    0  501  0.00000000000E+00  0.00000000000E+00  0.54836894374E+03  0.54836894374E+03  0.25500000920E-02 0. -1.
        2   -1    0    0  501    0  0.00000000000E+00  0.00000000000E+00 -0.24052042775E+04  0.24052042775E+04  0.25500000920E-02 0.  1.
    10030    2    1    2    0    0  0.00000000000E+00  0.00000000000E+00 -0.18568353337E+04  0.29535732212E+04  0.22969016776E+04 0.  0.
        5    1    3    3  502    0 -0.41479625904E+03  0.95911428252E+03 -0.15410233854E+04  0.18619160314E+04  0.46999998093E+01 0.  1.
       -5    1    3    3    0  502  0.41479625904E+03 -0.95911428252E+03 -0.31581194831E+03  0.10916571898E+04  0.46999998093E+01 0. -1.
</event>
<event>
 5   0  0.3226427E-06  0.2301615E+04  0.7818609E-02  0.8477285E-01
        1   -1    0    0  501    0  0.00000000000E+00  0.00000000000E+00  0.21812824377E+04  0.21812824377E+04  0.50400001928E-02 0. -1.
       -1   -1    0    0    0  501  0.00000000000E+00  0.00000000000E+00 -0.60714651698E+03  0.60714651700E+03  0.50400001928E-02 0.  1.
    10030    2    1    2    0    0  0.00000000000E+00  0.00000000000E+00  0.15741359207E+04  0.27884289547E+04  0.23016151152E+04 0.  0.
        4    1    3    3  502    0  0.46893069347E+03 -0.93621792693E+03  0.20863531378E+03  0.10676751889E+04  0.12699999809E+01 0.  1.
       -4    1    3    3    0  502 -0.46893069347E+03  0.93621792693E+03  0.13655006069E+04  0.17207537658E+04  0.12699999809E+01 0. -1.
</event>
<event>
 5   0  0.7242214E-06  0.2293516E+04  0.7818609E-02  0.8480482E-01
       -2   -1    0    0    0  501  0.00000000000E+00  0.00000000000E+00  0.11899526376E+04  0.11899526376E+04  0.25500000920E-02 0.  1.
        2   -1    0    0  501    0  0.00000000000E+00  0.00000000000E+00 -0.11051316119E+04  0.11051316119E+04  0.25500000920E-02 0. -1.
    10030    2    1    2    0    0  0.00000000000E+00  0.00000000000E+00  0.84821025666E+02  0.22950842495E+04  0.22935163191E+04 0.  0.
        1    1    3    3  502    0  0.81759285334E+03  0.34292789829E+03 -0.68540827559E+03  0.11206436193E+04  0.50400001928E-02 0. -1.
       -1    1    3    3    0  502 -0.81759285334E+03 -0.34292789829E+03  0.77022930125E+03  0.11744406302E+04  0.50400001928E-02 0.  1.
</event>
<event>
 5   0  0.3226427E-06  0.2312224E+04  0.7818609E-02  0.8473117E-01
       -1   -1    0    0    0  501  0.00000000000E+00  0.00000000000E+00  0.54357589680E+03  0.54357589682E+03  0.50400001928E-02 0.  1.
        1   -1    0    0  501    0  0.00000000000E+00  0.00000000000E+00 -0.24588938567E+04  0.24588938567E+04  0.50400001928E-02 0. -1.
    10030    2    1    2    0    0  0.00000000000E+00  0.00000000000E+00 -0.19153179599E+04  0.30024697535E+04  0.23122244124E+04 0.  0.
        4    1    3    3  502    0  0.10071230798E+04 -0.39427196106E+03 -0.42725439975E+03  0.11628822864E+04  0.12699999809E+01 0.  1.
       -4    1    3    3    0  502 -0.10071230798E+04  0.39427196106E+03 -0.14880635601E+04  0.18395874671E+04  0.12699999809E+01 0. -1.
</event>
<event>
 5   0  0.3195296E-06  0.2300141E+04  0.7818609E-02  0.8477866E-01
        1   -1    0    0  501    0  0.00000000000E+00  0.00000000000E+00  0.70255583968E+03  0.70255583969E+03  0.50400001928E-02 0. -1.
       -1   -1    0    0    0  501  0.00000000000E+00  0.00000000000E+00 -0.18826431188E+04  0.18826431188E+04  0.50400001928E-02 0.  1.
    10030    2    1    2    0    0  0.00000000000E+00  0.00000000000E+00 -0.11800872791E+04  0.25851989585E+04  0.23001407932E+04 0.  0.
        2    1    3    3  502    0 -0.53164199881E+03 -0.55695371967E+03 -0.15502129179E+04  0.17308959390E+04  0.25500000920E-02 0.  1.
       -2    1    3    3    0  502  0.53164199881E+03  0.55695371967E+03  0.37012563874E+03  0.85430301955E+03  0.25500000920E-02 0. -1.
</event>
<event>
 5   0  0.3195296E-06  0.2304847E+04  0.7818609E-02  0.8476012E-01
       -1   -1    0    0    0  501  0.00000000000E+00  0.00000000000E+00  0.93428055350E+03  0.93428055352E+03  0.50400001928E-02 0. -1.
        1   -1    0    0  501    0  0.00000000000E+00  0.00000000000E+00 -0.14215001548E+04  0.14215001548E+04  0.50400001928E-02 0.  1.
    10030    2    1    2    0    0  0.00000000000E+00  0.00000000000E+00 -0.48721960126E+03  0.23557807083E+04  0.23048470244E+04 0.  0.
        2    1    3    3  502    0 -0.78038898489E+03  0.63387070492E+03 -0.81933432327E+03  0.12969609753E+04  0.25500000920E-02 0.  1.
       -2    1    3    3    0  502  0.78038898489E+03 -0.63387070492E+03  0.33211472201E+03  0.10588197329E+04  0.25500000920E-02 0. -1.
</event>
<event>
 5   0  0.3184492E-06  0.2297558E+04  0.7818609E-02  0.8478885E-01
        1   -1    0    0  501    0  0.00000000000E+00  0.00000000000E+00  0.17581548751E+04  0.17581548751E+04  0.50400001928E-02 0.  1.
       -1   -1    0    0    0  501  0.00000000000E+00  0.00000000000E+00 -0.75061235989E+03  0.75061235991E+03  0.50400001928E-02 0. -1.
    10030    2    1    2    0    0  0.00000000000E+00  0.00000000000E+00  0.10075425152E+04  0.25087672350E+04  0.22975576423E+04 0.  0.
        1    1    3    3  502    0 -0.95056108853E+03 -0.57133265777E+03  0.83081302780E+03  0.13857264074E+04  0.50400001928E-02 0.  1.
       -1    1    3    3    0  502  0.95056108853E+03  0.57133265777E+03  0.17672948742E+03  0.11230408277E+04  0.50400001928E-02 0. -1.
</event>
<event>
 5   0  0.3226427E-06  0.2301006E+04  0.7818609E-02  0.8477524E-01
       -1   -1    0    0    0  501  0.00000000000E+00  0.00000000000E+00  0.67128852849E+03  0.67128852851E+03  0.50400001928E-02 0.  1.
        1   -1    0    0  501    0  0.00000000000E+00  0.00000000000E+00 -0.19718160427E+04  0.19718160427E+04  0.50400001928E-02 0. -1.
    10030    2    1    2    0    0  0.00000000000E+00  0.00000000000E+00 -0.13005275142E+04  0.26431045712E+04  0.23010062927E+04 0.  0.
        4    1    3    3  502    0  0.20682997016E+03 -0.86725851904E+03 -0.14855158688E+04  0.17325342666E+04  0.12699999809E+01 0. -1.
       -4    1    3    3    0  502 -0.20682997016E+03  0.86725851904E+03  0.18498835464E+03  0.91057030462E+03  0.12699999809E+01 0.  1.
</event>
<event>
 5   0  0.7044981E-06  0.2300054E+04  0.7818609E-02  0.8477900E-01
       -2   -1    0    0    0  501  0.00000000000E+00  0.00000000000E+00  0.12722234460E+04  0.12722234460E+04  0.25500000920E-02 0. -1.
        2   -1    0    0  501    0  0.00000000000E+00  0.00000000000E+00 -0.10395673005E+04  0.10395673005E+04  0.25500000920E-02 0.  1.
    10030    2    1    2    0    0  0.00000000000E+00  0.00000000000E+00  0.23265614552E+03  0.23117907465E+04  0.23000538197E+04 0.  0.
        4    1    3    3  502    0 -0.46218906560E+03  0.28616759609E+03 -0.90227795826E+03  0.10533839529E+04  0.12699999809E+01 0.  1.
       -4    1    3    3    0  502  0.46218906560E+03 -0.28616759609E+03  0.11349341038E+04  0.12584067936E+04  0.12699999809E+01 0. -1.
</event>
<event>
 5   0  0.7003852E-06  0.2297491E+04  0.7818609E-02  0.8478911E-01
       -2   -1    0    0    0  501  0.00000000000E+00  0.00000000000E+00  0.72005469628E+03  0.72005469629E+03  0.25500000920E-02 0. -1.
        2   -1    0    0  501    0  0.00000000000E+00  0.00000000000E+00 -0.18326615154E+04  0.18326615154E+04  0.25500000920E-02 0.  1.
    10030    2    1    2    0    0  0.00000000000E+00  0.00000000000E+00 -0.11126068191E+04  0.25527162117E+04  0.22974912673E+04 0.  0.
        2    1    3    3  502    0 -0.16656811133E+03 -0.69652584053E+03 -0.15542584603E+04  0.17113189485E+04  0.25500000920E-02 0.  1.
       -2    1    3    3    0  502  0.16656811133E+03  0.69652584053E+03  0.44165164119E+03  0.84139726313E+03  0.25500000920E-02 0. -1.
</event>
<event>
 5   0  0.3338758E-06  0.2300157E+04  0.7818609E-02  0.8477859E-01
        1   -1    0    0  501    0  0.00000000000E+00  0.00000000000E+00  0.13081255285E+04  0.13081255285E+04  0.50400001928E-02 0.  1.
       -1   -1    0    0    0  501  0.00000000000E+00  0.00000000000E+00 -0.10111268640E+04  0.10111268640E+04  0.50400001928E-02 0. -1.
    10030    2    1    2    0    0  0.00000000000E+00  0.00000000000E+00  0.29699866448E+03  0.23192523925E+04  0.23001572671E+04 0.  0.
        5    1    3    3  502    0 -0.65422702299E+03  0.93626306985E+03  0.28399211579E+03  0.11769771219E+04  0.46999998093E+01 0.  1.
       -5    1    3    3    0  502  0.65422702299E+03 -0.93626306985E+03  0.13006548690E+02  0.11422752706E+04  0.46999998093E+01 0. -1.
</event>
<event>
 5   0  0.7003852E-06  0.2299728E+04  0.7818609E-02  0.8478028E-01
       -2   -1    0    0    0  501  0.00000000000E+00  0.00000000000E+00  0.53264339167E+03  0.53264339168E+03  0.25500000920E-02 0.  1.
        2   -1    0    0  501    0  0.00000000000E+00  0.00000000000E+00 -0.24823119342E+04  0.24823119342E+04  0.25500000920E-02 0. -1.
    10030    2    1    2    0    0  0.00000000000E+00  0.00000000000E+00 -0.19496685426E+04  0.30149553259E+04  0.22997278516E+04 0.  0.
        2    1    3    3  502    0 -0.11200228331E+04  0.20894234381E+03 -0.77140022190E+03  0.13759238176E+04  0.25500000920E-02 0.  1.
       -2    1    3    3    0  502  0.11200228331E+04 -0.20894234381E+03 -0.11782683207E+04  0.16390315083E+04  0.25500000920E-02 0. -1.
</event>
<event>
 5   0  0.3338758E-06  0.2309416E+04  0.7818609E-02  0.8474218E-01
        1   -1    0    0  501    0  0.00000000000E+00  0.00000000000E+00  0.17035126054E+04  0.17035126054E+04  0.50400001928E-02 0. -1.
       -1   -1    0    0    0  501  0.00000000000E+00  0.00000000000E+00 -0.78270629816E+03  0.78270629818E+03  0.50400001928E-02 0.  1.
    10030    2    1    2    0    0  0.00000000000E+00  0.00000000000E+00  0.92080630724E+03  0.24862189036E+04  0.23094155497E+04 0.  0.
        5    1    3    3  502    0 -0.12605859273E+03 -0.70319125965E+03 -0.51621870669E+03  0.88140374380E+03  0.46999998093E+01 0.  1.
       -5    1    3    3    0  502  0.12605859273E+03  0.70319125965E+03  0.14370250139E+04  0.16048151598E+04  0.46999998093E+01 0. -1.
</event>
<event>
 5   0  0.7242214E-06  0.2300051E+04  0.7818609E-02  0.8477901E-01
        2   -1    0    0  501    0  0.00000000000E+00  0.00000000000E+00  0.21910541791E+04  0.21910541791E+04  0.25500000920E-02 0. -1.
       -2   -1    0    0    0  501  0.00000000000E+00  0.00000000000E+00 -0.60361748635E+03  0.60361748636E+03  0.25500000920E-02 0.  1.
    10030    2    1    2    0    0  0.00000000000E+00  0.00000000000E+00  0.15874366927E+04  0.27946716654E+04  0.23000509699E+04 0.  0.
        1    1    3    3  502    0  0.54808261477E+03 -0.57378645216E+03 -0.21771905066E+03  0.82281652289E+03  0.50400001928E-02 0.  1.
       -1    1    3    3    0  502 -0.54808261477E+03  0.57378645216E+03  0.18051557434E+04  0.19718551425E+04  0.50400001928E-02 0. -1.
</event>
<event>
 5   0  0.7044981E-06  0.2314436E+04  0.7818609E-02  0.8472251E-01
       -2   -1    0    0    0  501  0.00000000000E+00  0.00000000000E+00  0.60254515543E+03  0.60254515543E+03  0.25500000920E-02 0.  1.
        2   -1    0    0  501    0  0.00000000000E+00  0.00000000000E+00 -0.22224941416E+04  0.22224941416E+04  0.25500000920E-02 0. -1.
    10030    2    1    2    0    0  0.00000000000E+00  0.00000000000E+00 -0.16199489862E+04  0.28250392971E+04  0.23144356358E+04 0.  0.
        4    1    3    3  502    0 -0.64896742905E+03  0.62735242275E+03 -0.16939082181E+04  0.19193896036E+04  0.12699999809E+01 0. -1.
       -4    1    3    3    0  502  0.64896742905E+03 -0.62735242275E+03  0.73959231908E+02  0.90564969342E+03  0.12699999809E+01 0.  1.
</event>
<event>
 5   0  0.3338758E-06  0.2296122E+04  0.7818609E-02  0.8479452E-01
       -1   -1    0    0    0  501  0.00000000000E+00  0.00000000000E+00  0.72091358783E+03  0.72091358785E+03  0.50400001928E-02 0. -1.
        1   -1    0    0  501    0  0.00000000000E+00  0.00000000000E+00 -0.18282975426E+04  0.18282975426E+04  0.50400001928E-02 0.  1.
    10030    2    1    2    0    0  0.00000000000E+00  0.00000000000E+00 -0.11073839548E+04  0.25492111305E+04  0.22961224193E+04 0.  0.
        5    1    3    3  502    0  0.67644221839E+03  0.23375356742E+03 -0.15503047733E+04  0.17075367596E+04  0.46999998093E+01 0.  1.
       -5    1    3    3    0  502 -0.67644221839E+03 -0.23375356742E+03  0.44292081855E+03  0.84167437089E+03  0.46999998093E+01 0. -1.
</event>
<event>
 5   0  0.7044981E-06  0.2302390E+04  0.7818609E-02  0.8476979E-01
       -2   -1    0    0    0  501  0.00000000000E+00  0.00000000000E+00  0.14800659228E+04  0.14800659228E+04  0.25500000920E-02 0. -1.
        2   -1    0    0  501    0  0.00000000000E+00  0.00000000000E+00 -0.89539914053E+03  0.89539914054E+03  0.25500000920E-02 0.  1.
    10030    2    1    2    0    0  0.00000000000E+00  0.00000000000E+00  0.58466678223E+03  0.23754650633E+04  0.23023898499E+04 0.  0.
        4    1    3    3  502    0 -0.35732045661E+03  0.74881175339E+00  0.14214016027E+04  0.14656270326E+04  0.12699999809E+01 0. -1.
       -4    1    3    3    0  502  0.35732045661E+03 -0.74881175339E+00 -0.83673482051E+03  0.90983803074E+03  0.12699999809E+01 0.  1.
</event>
<event>
 5   0  0.7497344E-06  0.2294373E+04  0.7818609E-02  0.8480143E-01
       -2   -1    0    0    0  501  0.00000000000E+00  0.00000000000E+00  0.12221535598E+04  0.12221535598E+04  0.25500000920E-02 0. -1.
        2   -1    0    0  501    0  0.00000000000E+00  0.00000000000E+00 -0.10768174641E+04  0.10768174641E+04  0.25500000920E-02 0.  1.
    10030    2    1    2    0    0  0.00000000000E+00  0.00000000000E+00  0.14533609575E+03  0.22989710239E+04  0.22943725042E+04 0.  0.
        5    1    3    3  502    0  0.72234889160E+03  0.39864104082E+03 -0.72599384434E+03  0.10989957928E+04  0.46999998093E+01 0.  1.
       -5    1    3    3    0  502 -0.72234889160E+03 -0.39864104082E+03  0.87132994009E+03  0.11999752310E+04  0.46999998093E+01 0. -1.
</event>
<event>
 5   0  0.7242214E-06  0.2291885E+04  0.7818609E-02  0.8481128E-01
       -2   -1    0    0    0  501  0.00000000000E+00  0.00000000000E+00  0.60337623036E+03  0.60337623037E+03  0.25500000920E-02 0. -1.
        2   -1    0    0  501    0  0.00000000000E+00  0.00000000000E+00 -0.21763929369E+04  0.21763929369E+04  0.25500000920E-02 0.  1.
    10030    2    1    2    0    0  0.00000000000E+00  0.00000000000E+00 -0.15730167065E+04  0.27797691672E+04  0.22918846097E+04 0.  0.
        1    1    3    3  502    0  0.37535640779E+03  0.34914573054E+03 -0.20295651811E+04  0.20933059973E+04  0.50400001928E-02 0.  1.
       -1    1    3    3    0  502 -0.37535640779E+03 -0.34914573054E+03  0.45654847458E+03  0.68646316994E+03  0.50400001928E-02 0. -1.
</event>
<event>
 5   0  0.3226427E-06  0.2300885E+04  0.7818609E-02  0.8477572E-01
        1   -1    0    0  501    0  0.00000000000E+00  0.00000000000E+00  0.90987306296E+03  0.90987306298E+03  0.50400001928E-02 0. -1.
       -1   -1    0    0    0  501  0.00000000000E+00  0.00000000000E+00 -0.14546184978E+04  0.14546184978E+04  0.50400001928E-02 0.  1.
    10030    2    1    2    0    0  0.00000000000E+00  0.00000000000E+00 -0.54474543486E+03  0.23644915608E+04  0.23008852106E+04 0.  0.
        4    1    3    3  502    0 -0.33059511835E+03 -0.39374972031E+03 -0.13299902574E+04  0.14259059128E+04  0.12699999809E+01 0.  1.
       -4    1    3    3    0  502  0.33059511835E+03  0.39374972031E+03  0.78524482250E+03  0.93858564803E+03  0.12699999809E+01 0. -1.
</event>
<event>
 5   0  0.7242214E-06  0.2298442E+04  0.7818609E-02  0.8478536E-01
        2   -1    0    0  501    0  0.00000000000E+00  0.00000000000E+00  0.11943490792E+04  0.11943490792E+04  0.25500000920E-02 0.  1.
       -2   -1    0    0    0  501  0.00000000000E+00  0.00000000000E+00 -0.11057983586E+04  0.11057983586E+04  0.25500000920E-02 0. -1.
    10030    2    1    2    0    0  0.00000000000E+00  0.00000000000E+00  0.88550720545E+02  0.23001474378E+04  0.22984422998E+04 0.  0.
        1    1    3    3  502    0 -0.96659086517E+03 -0.60506110575E+03 -0.98351980899E+02  0.11445828736E+04  0.50400001928E-02 0.  1.
       -1    1    3    3    0  502  0.96659086517E+03  0.60506110575E+03  0.18690270144E+03  0.11555645643E+04  0.50400001928E-02 0. -1.
</event>
<event>
 5   0  0.3195296E-06  0.2298174E+04  0.7818609E-02  0.8478641E-01
        1   -1    0    0  501    0  0.00000000000E+00  0.00000000000E+00  0.13574793442E+04  0.13574793442E+04  0.50400001928E-02 0. -1.
       -1   -1    0    0    0  501  0.00000000000E+00  0.00000000000E+00 -0.97268610581E+03  0.97268610583E+03  0.50400001928E-02 0.  1.
    10030    2    1    2    0    0  0.00000000000E+00  0.00000000000E+00  0.38479323837E+03  0.23301654500E+04  0.22981743163E+04 0.  0.
        2    1    3    3  502    0 -0.13659068834E+03  0.18675418601E+03 -0.94882326519E+03  0.97662671001E+03  0.25500000920E-02 0.  1.
       -2    1    3    3    0  502  0.13659068834E+03 -0.18675418601E+03  0.13336165036E+04  0.13535387400E+04  0.25500000920E-02 0. -1.
</event>
<event>
 5   0  0.7348107E-06  0.2299657E+04  0.7818609E-02  0.8478057E-01
       -2   -1    0    0    0  501  0.00000000000E+00  0.00000000000E+00  0.10758993887E+04  0.10758993887E+04  0.25500000920E-02 0. -1.
        2   -1    0    0  501    0  0.00000000000E+00  0.00000000000E+00 -0.12288370896E+04  0.12288370896E+04  0.25500000920E-02 0.  1.
    10030    2    1    2    0    0  0.00000000000E+00  0.00000000000E+00 -0.15293770085E+03  0.23047364783E+04  0.22996565600E+04 0.  0.
        3    1    3    3  502    0 -0.85743114580E+03 -0.58950633549E+03 -0.56683402340E+03  0.11849078908E+04  0.10100000352E+00 0. -1.
       -3    1    3    3    0  502  0.85743114580E+03  0.58950633549E+03  0.41389632255E+03  0.11198285875E+04  0.10100000352E+00 0.  1.
</event>
<event>
 5   0  0.3226427E-06  0.2299555E+04  0.7818609E-02  0.8478096E-01
       -1   -1    0    0    0  501  0.00000000000E+00  0.00000000000E+00  0.13230471102E+04  0.13230471102E+04  0.50400001928E-02 0. -1.
        1   -1    0    0  501    0  0.00000000000E+00  0.00000000000E+00 -0.99920008206E+03  0.99920008208E+03  0.50400001928E-02 0.  1.
    10030    2    1    2    0    0  0.00000000000E+00  0.00000000000E+00  0.32384702812E+03  0.23222471923E+04  0.22995554189E+04 0.  0.
        4    1    3    3  502    0 -0.32175070539E+03  0.99116562528E+03 -0.32872509800E+03  0.10927006068E+04  0.12699999809E+01 0.  1.
       -4    1    3    3    0  502  0.32175070539E+03 -0.99116562528E+03  0.65257212611E+03  0.12295465855E+04  0.12699999809E+01 0. -1.
</event>
<event>
 5   0  0.3184492E-06  0.2300292E+04  0.7818609E-02  0.8477806E-01
       -1   -1    0    0    0  501  0.00000000000E+00  0.00000000000E+00  0.15515555145E+04  0.15515555145E+04  0.50400001928E-02 0.  1.
        1   -1    0    0  501    0  0.00000000000E+00  0.00000000000E+00 -0.85258702241E+03  0.85258702243E+03  0.50400001928E-02 0. -1.
    10030    2    1    2    0    0  0.00000000000E+00  0.00000000000E+00  0.69896849207E+03  0.24041425369E+04  0.23002922390E+04 0.  0.
        1    1    3    3  502    0 -0.43054673221E+03  0.83484546199E+03  0.10431487881E+04  0.14037438613E+04  0.50400001928E-02 0.  1.
       -1    1    3    3    0  502  0.43054673221E+03 -0.83484546199E+03 -0.34418029600E+03  0.10003986756E+04  0.50400001928E-02 0. -1.
</event>
<event>
 5   0  0.7242214E-06  0.2302869E+04  0.7818609E-02  0.8476791E-01
        2   -1    0    0  501    0  0.00000000000E+00  0.00000000000E+00  0.71133563573E+03  0.71133563574E+03  0.25500000920E-02 0.  1.
       -2   -1    0    0    0  501  0.00000000000E+00  0.00000000000E+00 -0.18638203882E+04  0.18638203882E+04  0.25500000920E-02 0. -1.
    10030    2    1    2    0    0  0.00000000000E+00  0.00000000000E+00 -0.11524847525E+04  0.25751560240E+04  0.23028693934E+04 0.  0.
        1    1    3    3  502    0  0.93090793415E+03  0.67761739514E+03 -0.58390411553E+03  0.12910069451E+04  0.50400001928E-02 0. -1.
       -1    1    3    3    0  502 -0.93090793415E+03 -0.67761739514E+03 -0.56858063696E+03  0.12841490789E+04  0.50400001928E-02 0.  1.
</event>
<event>
 5   0  0.7044981E-06  0.2300014E+04  0.7818609E-02  0.8477915E-01
        2   -1    0    0  501    0  0.00000000000E+00  0.00000000000E+00  0.10933322801E+04  0.10933322801E+04  0.25500000920E-02 0. -1.
       -2   -1    0    0    0  501  0.00000000000E+00  0.00000000000E+00 -0.12096200063E+04  0.12096200063E+04  0.25500000920E-02 0.  1.
    10030    2    1    2    0    0  0.00000000000E+00  0.00000000000E+00 -0.11628772613E+03  0.23029522864E+04  0.23000144343E+04 0.  0.
        4    1    3    3  502    0 -0.73497733350E+03  0.61055835908E+02 -0.94165152612E+03  0.11960889204E+04  0.12699999809E+01 0.  1.
       -4    1    3    3    0  502  0.73497733350E+03 -0.61055835908E+02  0.82536379999E+03  0.11068633660E+04  0.12699999809E+01 0. -1.
</event>
<event>
 5   0  0.3338758E-06  0.2295865E+04  0.7818609E-02  0.8479553E-01
       -1   -1    0    0    0  501  0.00000000000E+00  0.00000000000E+00  0.11865954797E+04  0.11865954797E+04  0.50400001928E-02 0.  1.
        1   -1    0    0  501    0  0.00000000000E+00  0.00000000000E+00 -0.11105292210E+04  0.11105292210E+04  0.50400001928E-02 0. -1.
    10030    2    1    2    0    0  0.00000000000E+00  0.00000000000E+00  0.76066258755E+02  0.22971247007E+04  0.22958649383E+04 0.  0.
        5    1    3    3  502    0  0.16175742266E+03  0.24760865616E+03 -0.10717424445E+04  0.11118135940E+04  0.46999998093E+01 0. -1.
       -5    1    3    3    0  502 -0.16175742266E+03 -0.24760865616E+03  0.11478087033E+04  0.11853111067E+04  0.46999998093E+01 0.  1.
</event>
<event>
 5   0  0.7242214E-06  0.2298785E+04  0.7818609E-02  0.8478400E-01
        2   -1    0    0  501    0  0.00000000000E+00  0.00000000000E+00  0.23089666637E+04  0.23089666637E+04  0.25500000920E-02 0. -1.
       -2   -1    0    0    0  501  0.00000000000E+00  0.00000000000E+00 -0.57216201594E+03  0.57216201594E+03  0.25500000920E-02 0.  1.
    10030    2    1    2    0    0  0.00000000000E+00  0.00000000000E+00  0.17368046478E+04  0.28811286797E+04  0.22987849147E+04 0.  0.
        1    1    3    3  502    0  0.50881585784E+03  0.25643183537E+03  0.21195038188E+04  0.21947544968E+04  0.50400001928E-02 0. -1.
       -1    1    3    3    0  502 -0.50881585784E+03 -0.25643183537E+03 -0.38269917100E+03  0.68637418286E+03  0.50400001928E-02 0.  1.
</event>
<event>
 5   0  0.7348107E-06  0.2302206E+04  0.7818609E-02  0.8477052E-01
       -2   -1    0    0    0  501  0.00000000000E+00  0.00000000000E+00  0.11163456289E+04  0.11163456289E+04  0.25500000920E-02 0. -1.
        2   -1    0    0  501    0  0.00000000000E+00  0.00000000000E+00 -0.11869426266E+04  0.11869426266E+04  0.25500000920E-02 0.  1.
    10030    2    1    2    0    0  0.00000000000E+00  0.00000000000E+00 -0.70596997660E+02  0.23032882555E+04  0.23022060837E+04 0.  0.
        3    1    3    3  502    0 -0.93541771099E+03 -0.60426937857E+03  0.25619807492E+03  0.11427096043E+04  0.10100000352E+00 0. -1.
       -3    1    3    3    0  502  0.93541771099E+03  0.60426937857E+03 -0.32679507258E+03  0.11605786512E+04  0.10100000352E+00 0.  1.
</event>
<event>
 5   0  0.3184492E-06  0.2303027E+04  0.7818609E-02  0.8476729E-01
       -1   -1    0    0    0  501  0.00000000000E+00  0.00000000000E+00  0.74957764311E+03  0.74957764312E+03  0.50400001928E-02 0. -1.
        1   -1    0    0  501    0  0.00000000000E+00  0.00000000000E+00 -0.17689733823E+04  0.17689733823E+04  0.50400001928E-02 0.  1.
    10030    2    1    2    0    0  0.00000000000E+00  0.00000000000E+00 -0.10193957392E+04  0.25185510255E+04  0.23030266161E+04 0.  0.
        1    1    3    3  502    0 -0.97591204405E+03  0.43150111366E+03 -0.98308847722E+03  0.14508826565E+04  0.50400001928E-02 0.  1.
       -1    1    3    3    0  502  0.97591204405E+03 -0.43150111366E+03 -0.36307261998E+02  0.10676683690E+04  0.50400001928E-02 0. -1.
</event>
<event>
 5   0  0.3184492E-06  0.2300279E+04  0.7818609E-02  0.8477811E-01
       -1   -1    0    0    0  501  0.00000000000E+00  0.00000000000E+00  0.83871261891E+03  0.83871261893E+03  0.50400001928E-02 0. -1.
        1   -1    0    0  501    0  0.00000000000E+00  0.00000000000E+00 -0.15772044049E+04  0.15772044049E+04  0.50400001928E-02 0.  1.
    10030    2    1    2    0    0  0.00000000000E+00  0.00000000000E+00 -0.73849178596E+03  0.24159170238E+04  0.23002793196E+04 0.  0.
        1    1    3    3  502    0 -0.18626370948E+03 -0.11348249740E+04 -0.35107450291E+03  0.12024039245E+04  0.50400001928E-02 0. -1.
       -1    1    3    3    0  502  0.18626370948E+03  0.11348249740E+04 -0.38741728305E+03  0.12135130993E+04  0.50400001928E-02 0.  1.
</event>
<event>
 5   0  0.3238713E-06  0.2296416E+04  0.7818609E-02  0.8479335E-01
       -1   -1    0    0    0  501  0.00000000000E+00  0.00000000000E+00  0.72934561881E+03  0.72934561883E+03  0.50400001928E-02 0.  1.
        1   -1    0    0  501    0  0.00000000000E+00  0.00000000000E+00 -0.18076232512E+04  0.18076232512E+04  0.50400001928E-02 0. -1.
    10030    2    1    2    0    0  0.00000000000E+00  0.00000000000E+00 -0.10782776324E+04  0.25369688700E+04  0.22964164246E+04 0.  0.
        3    1    3    3  502    0 -0.86441929753E+03 -0.73073449266E+03 -0.75218248712E+03  0.13590335260E+04  0.10100000352E+00 0. -1.
       -3    1    3    3    0  502  0.86441929753E+03  0.73073449266E+03 -0.32609514526E+03  0.11779353440E+04  0.10100000352E+00 0.  1.
</event>
<event>
 5   0  0.3338758E-06  0.2295410E+04  0.7818609E-02  0.8479733E-01
       -1   -1    0    0    0  501  0.00000000000E+00  0.00000000000E+00  0.23135660556E+04  0.23135660556E+04  0.50400001928E-02 0. -1.
        1   -1    0    0  501    0  0.00000000000E+00  0.00000000000E+00 -0.56934924008E+03  0.56934924010E+03  0.50400001928E-02 0.  1.
    10030    2    1    2    0    0  0.00000000000E+00  0.00000000000E+00  0.17442168155E+04  0.28829152957E+04  0.22954102689E+04 0.  0.
        5    1    3    3  502    0  0.53826286082E+03 -0.69164705281E+03 -0.58567016714E+02  0.87838188645E+03  0.46999998093E+01 0.  1.
       -5    1    3    3    0  502 -0.53826286082E+03  0.69164705281E+03  0.18027838322E+04  0.20045334092E+04  0.46999998093E+01 0. -1.
</event>
<event>
 5   0  0.3338758E-06  0.2297193E+04  0.7818609E-02  0.8479029E-01
        1   -1    0    0  501    0  0.00000000000E+00  0.00000000000E+00  0.14500554149E+04  0.14500554149E+04  0.50400001928E-02 0. -1.
       -1   -1    0    0    0  501  0.00000000000E+00  0.00000000000E+00 -0.90980920578E+03  0.90980920579E+03  0.50400001928E-02 0.  1.
    10030    2    1    2    0    0  0.00000000000E+00  0.00000000000E+00  0.54024620914E+03  0.23598646207E+04  0.22971928656E+04 0.  0.
        5    1    3    3  502    0  0.65362129598E+03  0.60731449824E+03  0.10131824295E+04  0.13500416378E+04  0.46999998093E+01 0. -1.
       -5    1    3    3    0  502 -0.65362129598E+03 -0.60731449824E+03 -0.47293622036E+03  0.10098229829E+04  0.46999998093E+01 0.  1.
</event>
<event>
 5   0  0.7044981E-06  0.2301558E+04  0.7818609E-02  0.8477307E-01
       -2   -1    0    0    0  501  0.00000000000E+00  0.00000000000E+00  0.70090967719E+03  0.70090967720E+03  0.25500000920E-02 0. -1.
        2   -1    0    0  501    0  0.00000000000E+00  0.00000000000E+00 -0.18893903275E+04  0.18893903275E+04  0.25500000920E-02 0.  1.
    10030    2    1    2    0    0  0.00000000000E+00  0.00000000000E+00 -0.11884806503E+04  0.25903000047E+04  0.23015577026E+04 0.  0.
        4    1    3    3  502    0 -0.10644916983E+04 -0.24426398992E+03 -0.10023367608E+04  0.14823926832E+04  0.12699999809E+01 0.  1.
       -4    1    3    3    0  502  0.10644916983E+04  0.24426398992E+03 -0.18614388956E+03  0.11079073215E+04  0.12699999809E+01 0. -1.
</event>
<event>
 5   0  0.7242214E-06  0.2296970E+04  0.7818609E-02  0.8479117E-01
       -2   -1    0    0    0  501  0.00000000000E+00  0.00000000000E+00  0.12582996325E+04  0.12582996325E+04  0.25500000920E-02 0. -1.
        2   -1    0    0  501    0  0.00000000000E+00  0.00000000000E+00 -0.10482540276E+04  0.10482540276E+04  0.25500000920E-02 0.  1.
    10030    2    1    2    0    0  0.00000000000E+00  0.00000000000E+00  0.21004560489E+03  0.23065536601E+04  0.22969698803E+04 0.  0.
        1    1    3    3  502    0 -0.38605974826E+01  0.10912950709E+04  0.46439562318E+03  0.11860030063E+04  0.50400001928E-02 0. -1.
       -1    1    3    3    0  502  0.38605974826E+01 -0.10912950709E+04 -0.25435001829E+03  0.11205506539E+04  0.50400001928E-02 0.  1.
</event>
<event>
 5   0  0.3195296E-06  0.2298712E+04  0.7818609E-02  0.8478429E-01
        1   -1    0    0  501    0  0.00000000000E+00  0.00000000000E+00  0.17200186499E+04  0.17200186499E+04  0.50400001928E-02 0.  1.
       -1   -1    0    0    0  501  0.00000000000E+00  0.00000000000E+00 -0.76802603517E+03  0.76802603519E+03  0.50400001928E-02 0. -1.
    10030    2    1    2    0    0  0.00000000000E+00  0.00000000000E+00  0.95199261474E+03  0.24880446851E+04  0.22987119038E+04 0.  0.
        2    1    3    3  502    0  0.23968736736E+03  0.18571518987E+03  0.16759473281E+04  0.17031557804E+04  0.25500000920E-02 0.  1.
       -2    1    3    3    0  502 -0.23968736736E+03 -0.18571518987E+03 -0.72395471332E+03  0.78488890473E+03  0.25500000920E-02 0. -1.
</event>
<event>
 5   0  0.7497344E-06  0.2290215E+04  0.7818609E-02  0.8481789E-01
        2   -1    0    0  501    0  0.00000000000E+00  0.00000000000E+00  0.14752380991E+04  0.14752380991E+04  0.25500000920E-02 0.  1.
       -2   -1    0    0    0  501  0.00000000000E+00  0.00000000000E+00 -0.88885371368E+03  0.88885371368E+03  0.25500000920E-02 0. -1.
    10030    2    1    2    0    0  0.00000000000E+00  0.00000000000E+00  0.58638438546E+03  0.23640918128E+04  0.22902147174E+04 0.  0.
        5    1    3    3  502    0 -0.15060329774E+03  0.72289444945E+03 -0.61024919253E+03  0.95795819601E+03  0.46999998093E+01 0. -1.
       -5    1    3    3    0  502  0.15060329774E+03 -0.72289444945E+03  0.11966335780E+04  0.14061336168E+04  0.46999998093E+01 0.  1.
</event>
<event>
 5   0  0.3195296E-06  0.2296652E+04  0.7818609E-02  0.8479242E-01
        1   -1    0    0  501    0  0.00000000000E+00  0.00000000000E+00  0.16589816131E+04  0.16589816131E+04  0.50400001928E-02 0. -1.
       -1   -1    0    0    0  501  0.00000000000E+00  0.00000000000E+00 -0.79485673684E+03  0.79485673685E+03  0.50400001928E-02 0.  1.
    10030    2    1    2    0    0  0.00000000000E+00  0.00000000000E+00  0.86412487625E+03  0.24538383499E+04  0.22966520951E+04 0.  0.
        2    1    3    3  502    0  0.25045088444E+03 -0.11204315949E+04  0.45734879410E+03  0.12358238240E+04  0.25500000920E-02 0.  1.
       -2    1    3    3    0  502 -0.25045088444E+03  0.11204315949E+04  0.40677608215E+03  0.12180145260E+04  0.25500000920E-02 0. -1.
</event>
<event>
 5   0  0.7003852E-06  0.2303029E+04  0.7818609E-02  0.8476728E-01
        2   -1    0    0  501    0  0.00000000000E+00  0.00000000000E+00  0.16478776270E+04  0.16478776270E+04  0.25500000920E-02 0. -1.
       -2   -1    0    0    0  501  0.00000000000E+00  0.00000000000E+00 -0.80466234041E+03  0.80466234041E+03  0.25500000920E-02 0.  1.
    10030    2    1    2    0    0  0.00000000000E+00  0.00000000000E+00  0.84321528654E+03  0.24525399674E+04  0.23030285001E+04 0.  0.
        2    1    3    3  502    0 -0.10658757019E+04 -0.23388103656E+03  0.81316468198E+03  0.13608924098E+04  0.25500000920E-02 0. -1.
       -2    1    3    3    0  502  0.10658757019E+04  0.23388103656E+03  0.30050604566E+02  0.10916475576E+04  0.25500000920E-02 0.  1.
</event>
<event>
 5   0  0.7348107E-06  0.2300233E+04  0.7818609E-02  0.8477829E-01
       -2   -1    0    0    0  501  0.00000000000E+00  0.00000000000E+00  0.11922776006E+04  0.11922776006E+04  0.25500000920E-02 0.  1.
        2   -1    0    0  501    0  0.00000000000E+00  0.00000000000E+00 -0.11094466391E+04  0.11094466391E+04  0.25500000920E-02 0. -1.
    10030    2    1    2    0    0  0.00000000000E+00  0.00000000000E+00  0.82830961440E+02  0.23017242397E+04  0.23002333593E+04 0.  0.
        3    1    3    3  502    0  0.91054933431E+03  0.20078238158E+03 -0.63233712933E+03  0.11266161326E+04  0.10100000352E+00 0. -1.
       -3    1    3    3    0  502 -0.91054933431E+03 -0.20078238158E+03  0.71516809077E+03  0.11751081070E+04  0.10100000352E+00 0.  1.
</event>
<event>
 5   0  0.7242214E-06  0.2301236E+04  0.7818609E-02  0.8477434E-01
        2   -1    0    0  501    0  0.00000000000E+00  0.00000000000E+00  0.14775528318E+04  0.14775528318E+04  0.25500000920E-02 0. -1.
       -2   -1    0    0    0  501  0.00000000000E+00  0.00000000000E+00 -0.89602332761E+03  0.89602332761E+03  0.25500000920E-02 0.  1.
    10030    2    1    2    0    0  0.00000000000E+00  0.00000000000E+00  0.58152950421E+03  0.23735761594E+04  0.23012360201E+04 0.  0.
        1    1    3    3  502    0  0.10031402624E+04 -0.50964604317E+03  0.42592900454E+02  0.11259856263E+04  0.50400001928E-02 0.  1.
       -1    1    3    3    0  502 -0.10031402624E+04  0.50964604317E+03  0.53893660375E+03  0.12475905331E+04  0.50400001928E-02 0. -1.
</event>
<event>
 5   0  0.7044981E-06  0.2301076E+04  0.7818609E-02  0.8477497E-01
        2   -1    0    0  501    0  0.00000000000E+00  0.00000000000E+00  0.98053283930E+03  0.98053283931E+03  0.25500000920E-02 0. -1.
       -2   -1    0    0    0  501  0.00000000000E+00  0.00000000000E+00 -0.13500185885E+04  0.13500185885E+04  0.25500000920E-02 0.  1.
    10030    2    1    2    0    0  0.00000000000E+00  0.00000000000E+00 -0.36948574924E+03  0.23305514278E+04  0.23010758873E+04 0.  0.
        4    1    3    3  502    0 -0.60851662467E+03 -0.84839929398E+03 -0.67432086947E+03  0.12428934357E+04  0.12699999809E+01 0.  1.
       -4    1    3    3    0  502  0.60851662467E+03  0.84839929398E+03  0.30483512023E+03  0.10876579922E+04  0.12699999809E+01 0. -1.
</event>
<event>
 5   0  0.3338758E-06  0.2304050E+04  0.7818609E-02  0.8476326E-01
        1   -1    0    0  501    0  0.00000000000E+00  0.00000000000E+00  0.23608306310E+04  0.23608306310E+04  0.50400001928E-02 0. -1.
       -1   -1    0    0    0  501  0.00000000000E+00  0.00000000000E+00 -0.56215856508E+03  0.56215856510E+03  0.50400001928E-02 0.  1.
    10030    2    1    2    0    0  0.00000000000E+00  0.00000000000E+00  0.17986720659E+04  0.29229891961E+04  0.23040496175E+04 0.  0.
        5    1    3    3  502    0  0.11091708831E+04  0.10560105841E+03  0.52789035748E+03  0.12329241465E+04  0.46999998093E+01 0.  1.
       -5    1    3    3    0  502 -0.11091708831E+04 -0.10560105841E+03  0.12707817084E+04  0.16900650496E+04  0.46999998093E+01 0. -1.
</event>
<event>
 5   0  0.3226427E-06  0.2301473E+04  0.7818609E-02  0.8477341E-01
        1   -1    0    0  501    0  0.00000000000E+00  0.00000000000E+00  0.12484792752E+04  0.12484792752E+04  0.50400001928E-02 0.  1.
       -1   -1    0    0    0  501  0.00000000000E+00  0.00000000000E+00 -0.10606458567E+04  0.10606458567E+04  0.50400001928E-02 0. -1.
    10030    2    1    2    0    0  0.00000000000E+00  0.00000000000E+00  0.18783341848E+03  0.23091251320E+04  0.23014728940E+04 0.  0.
        4    1    3    3  502    0 -0.61820601618E+03  0.38930046845E+03  0.98595056925E+03  0.12271241466E+04  0.12699999809E+01 0.  1.
       -4    1    3    3    0  502  0.61820601618E+03 -0.38930046845E+03 -0.79811715077E+03  0.10820009854E+04  0.12699999809E+01 0. -1.
</event>
<event>
 5   0  0.2519625E-06  0.2284635E+04  0.7818609E-02  0.8484004E-01
        3   -1    0    0  501    0  0.00000000000E+00  0.00000000000E+00  0.19678761388E+04  0.19678761414E+04  0.10100000352E+00 0.  1.
       -3   -1    0    0    0  501  0.00000000000E+00  0.00000000000E+00 -0.66309526093E+03  0.66309526863E+03  0.10100000352E+00 0. -1.
    10030    2    1    2    0    0  0.00000000000E+00  0.00000000000E+00  0.13047808779E+04  0.26309714100E+04  0.22846350739E+04 0.  0.
        2    1    3    3  502    0  0.98315974917E+03 -0.40235224368E+03  0.16872253557E+03  0.10756196885E+04  0.25500000920E-02 0.  1.
       -2    1    3    3    0  502 -0.98315974917E+03  0.40235224368E+03  0.11360583423E+04  0.15553517215E+04  0.25500000920E-02 0. -1.
</event>
<event>
 5   0  0.7348107E-06  0.2299112E+04  0.7818609E-02  0.8478271E-01
       -2   -1    0    0    0  501  0.00000000000E+00  0.00000000000E+00  0.12507402754E+04  0.12507402754E+04  0.25500000920E-02 0. -1.
        2   -1    0    0  501    0  0.00000000000E+00  0.00000000000E+00 -0.10565579372E+04  0.10565579372E+04  0.25500000920E-02 0.  1.
    10030    2    1    2    0    0  0.00000000000E+00  0.00000000000E+00  0.19418233813E+03  0.23072982126E+04  0.22991124943E+04 0.  0.
        3    1    3    3  502    0  0.58615976104E+03  0.80983873528E+03 -0.47243046393E+03  0.11057181359E+04  0.10100000352E+00 0.  1.
       -3    1    3    3    0  502 -0.58615976104E+03 -0.80983873528E+03  0.66661280206E+03  0.12015800767E+04  0.10100000352E+00 0. -1.
</event>
<event>
 5   0  0.7003852E-06  0.2270419E+04  0.7818609E-02  0.8489677E-01
        2   -1    0    0  501    0  0.00000000000E+00  0.00000000000E+00  0.21205838115E+04  0.21205838115E+04  0.25500000920E-02 0. -1.
       -2   -1    0    0    0  501  0.00000000000E+00  0.00000000000E+00 -0.60771011662E+03  0.60771011662E+03  0.25500000920E-02 0.  1.
    10030    2    1    2    0    0  0.00000000000E+00  0.00000000000E+00  0.15128736948E+04  0.27282939281E+04  0.22704186710E+04 0.  0.
        2    1    3    3  502    0 -0.90718832382E+03 -0.37483187864E+03  0.14417160980E+04  0.17441430272E+04  0.25500000920E-02 0. -1.
       -2    1    3    3    0  502  0.90718832382E+03  0.37483187864E+03  0.71157596856E+02  0.98415090088E+03  0.25500000920E-02 0.  1.
</event>
<event>
 5   0  0.7497344E-06  0.2299636E+04  0.7818609E-02  0.8478064E-01
       -2   -1    0    0    0  501  0.00000000000E+00  0.00000000000E+00  0.13333901506E+04  0.13333901506E+04  0.25500000920E-02 0.  1.
        2   -1    0    0  501    0  0.00000000000E+00  0.00000000000E+00 -0.99151918904E+03  0.99151918904E+03  0.25500000920E-02 0. -1.
    10030    2    1    2    0    0  0.00000000000E+00  0.00000000000E+00  0.34187096153E+03  0.23249093396E+04  0.22996364241E+04 0.  0.
        5    1    3    3  502    0  0.66500816345E+03 -0.90491605466E+03 -0.78660122531E+02  0.11257523832E+04  0.46999998093E+01 0. -1.
       -5    1    3    3    0  502 -0.66500816345E+03  0.90491605466E+03  0.42053108406E+03  0.11991569564E+04  0.46999998093E+01 0.  1.
</event>
<event>
 5   0  0.3226427E-06  0.2295690E+04  0.7818609E-02  0.8479622E-01
       -1   -1    0    0    0  501  0.00000000000E+00  0.00000000000E+00  0.11768078324E+04  0.11768078324E+04  0.50400001928E-02 0. -1.
        1   -1    0    0  501    0  0.00000000000E+00  0.00000000000E+00 -0.11195951684E+04  0.11195951685E+04  0.50400001928E-02 0.  1.
    10030    2    1    2    0    0  0.00000000000E+00  0.00000000000E+00  0.57212663966E+02  0.22964030009E+04  0.22956901911E+04 0.  0.
        4    1    3    3  502    0 -0.11592991346E+03  0.50011594038E+03 -0.99835310247E+03  0.11226157975E+04  0.12699999809E+01 0.  1.
       -4    1    3    3    0  502  0.11592991346E+03 -0.50011594038E+03  0.10555657664E+04  0.11737872034E+04  0.12699999809E+01 0. -1.
</event>
<event>
 5   0  0.3184492E-06  0.2297211E+04  0.7818609E-02  0.8479022E-01
       -1   -1    0    0    0  501  0.00000000000E+00  0.00000000000E+00  0.94286028354E+03  0.94286028355E+03  0.50400001928E-02 0. -1.
        1   -1    0    0  501    0  0.00000000000E+00  0.00000000000E+00 -0.13992472963E+04  0.13992472963E+04  0.50400001928E-02 0.  1.
    10030    2    1    2    0    0  0.00000000000E+00  0.00000000000E+00 -0.45638701278E+03  0.23421075799E+04  0.22972110940E+04 0.  0.
        1    1    3    3  502    0  0.50138540985E+03  0.35445523202E+03 -0.12178702263E+04  0.13639038561E+04  0.50400001928E-02 0.  1.
       -1    1    3    3    0  502 -0.50138540985E+03 -0.35445523202E+03  0.76148321348E+03  0.97820372375E+03  0.50400001928E-02 0. -1.
</event>
<event>
 5   0  0.7003852E-06  0.2298992E+04  0.7818609E-02  0.8478319E-01
       -2   -1    0    0    0  501  0.00000000000E+00  0.00000000000E+00  0.67728503660E+03  0.67728503661E+03  0.25500000920E-02 0.  1.
        2   -1    0    0  501    0  0.00000000000E+00  0.00000000000E+00 -0.19509383526E+04  0.19509383526E+04  0.25500000920E-02 0. -1.
    10030    2    1    2    0    0  0.00000000000E+00  0.00000000000E+00 -0.12736533160E+04  0.26282233892E+04  0.22989922606E+04 0.  0.
        2    1    3    3  502    0  0.80864482978E+02 -0.68517066655E+03 -0.16879201854E+04  0.18234781214E+04  0.25500000920E-02 0. -1.
       -2    1    3    3    0  502 -0.80864482978E+02  0.68517066655E+03  0.41426686943E+03  0.80474526779E+03  0.25500000920E-02 0.  1.
</event>
<event>
 5   0  0.3226427E-06  0.2298800E+04  0.7818609E-02  0.8478394E-01
       -1   -1    0    0    0  501  0.00000000000E+00  0.00000000000E+00  0.10328369319E+04  0.10328369319E+04  0.50400001928E-02 0.  1.
        1   -1    0    0  501    0  0.00000000000E+00  0.00000000000E+00 -0.12791181431E+04  0.12791181431E+04  0.50400001928E-02 0. -1.
    10030    2    1    2    0    0  0.00000000000E+00  0.00000000000E+00 -0.24628121124E+03  0.23119550751E+04  0.22988000857E+04 0.  0.
        4    1    3    3  502    0 -0.89556900299E+03 -0.67680029947E+03  0.12528784917E+03  0.11295136752E+04  0.12699999809E+01 0.  1.
       -4    1    3    3    0  502  0.89556900299E+03  0.67680029947E+03 -0.37156906041E+03  0.11824413998E+04  0.12699999809E+01 0. -1.
</event>
<event>
 5   0  0.7044981E-06  0.2298653E+04  0.7818609E-02  0.8478452E-01
       -2   -1    0    0    0  501  0.00000000000E+00  0.00000000000E+00  0.78873295847E+03  0.78873295848E+03  0.25500000920E-02 0.  1.
        2   -1    0    0  501    0  0.00000000000E+00  0.00000000000E+00 -0.16747766583E+04  0.16747766583E+04  0.25500000920E-02 0. -1.
    10030    2    1    2    0    0  0.00000000000E+00  0.00000000000E+00 -0.88604369982E+03  0.24635096168E+04  0.22986531261E+04 0.  0.
        4    1    3    3  502    0 -0.91856712922E+02  0.36718170578E+03 -0.16060662452E+04  0.16500637738E+04  0.12699999809E+01 0. -1.
       -4    1    3    3    0  502  0.91856712922E+02 -0.36718170578E+03  0.72002254535E+03  0.81344584299E+03  0.12699999809E+01 0.  1.
</event>
<event>
 5   0  0.3338758E-06  0.2300142E+04  0.7818609E-02  0.8477865E-01
       -1   -1    0    0    0  501  0.00000000000E+00  0.00000000000E+00  0.12175636925E+04  0.12175636925E+04  0.50400001928E-02 0.  1.
        1   -1    0    0  501    0  0.00000000000E+00  0.00000000000E+00 -0.10863195580E+04  0.10863195581E+04  0.50400001928E-02 0. -1.
    10030    2    1    2    0    0  0.00000000000E+00  0.00000000000E+00  0.13124413447E+03  0.23038832506E+04  0.23001419542E+04 0.  0.
        5    1    3    3  502    0 -0.61184561292E+03 -0.73309792897E+03  0.70764322706E+03  0.11885153151E+04  0.46999998093E+01 0.  1.
       -5    1    3    3    0  502  0.61184561292E+03  0.73309792897E+03 -0.57639909259E+03  0.11153679355E+04  0.46999998093E+01 0. -1.
</event>
<event>
 5   0  0.7348107E-06  0.2298597E+04  0.7818609E-02  0.8478475E-01
       -2   -1    0    0    0  501  0.00000000000E+00  0.00000000000E+00  0.94210160670E+03  0.94210160670E+03  0.25500000920E-02 0.  1.
        2   -1    0    0  501    0  0.00000000000E+00  0.00000000000E+00 -0.14020638283E+04  0.14020638283E+04  0.25500000920E-02 0. -1.
    10030    2    1    2    0    0  0.00000000000E+00  0.00000000000E+00 -0.45996222161E+03  0.23441654350E+04  0.22985966026E+04 0.  0.
        3    1    3    3  502    0  0.76366997894E+03  0.16707119910E+03 -0.10891686578E+04  0.13406688621E+04  0.10100000352E+00 0. -1.
       -3    1    3    3    0  502 -0.76366997894E+03 -0.16707119910E+03  0.62920643623E+03  0.10034965729E+04  0.10100000352E+00 0.  1.
</event>
<event>
 5   0  0.7242214E-06  0.2301674E+04  0.7818609E-02  0.8477261E-01
        2   -1    0    0  501    0  0.00000000000E+00  0.00000000000E+00  0.15845156894E+04  0.15845156894E+04  0.25500000920E-02 0.  1.
       -2   -1    0    0    0  501  0.00000000000E+00  0.00000000000E+00 -0.83585525583E+03  0.83585525583E+03  0.25500000920E-02 0. -1.
    10030    2    1    2    0    0  0.00000000000E+00  0.00000000000E+00  0.74866043353E+03  0.24203709452E+04  0.23016739707E+04 0.  0.
        1    1    3    3  502    0  0.59652191240E+03 -0.62847692874E+03  0.11707540674E+04  0.14565324329E+04  0.50400001928E-02 0. -1.
       -1    1    3    3    0  502 -0.59652191240E+03  0.62847692874E+03 -0.42209363384E+03  0.96383851225E+03  0.50400001928E-02 0.  1.
</event>
<event>
 5   0  0.3238713E-06  0.2303307E+04  0.7818609E-02  0.8476618E-01
       -1   -1    0    0    0  501  0.00000000000E+00  0.00000000000E+00  0.15332649681E+04  0.15332649681E+04  0.50400001928E-02 0.  1.
        1   -1    0    0  501    0  0.00000000000E+00  0.00000000000E+00 -0.86502074149E+03  0.86502074151E+03  0.50400001928E-02 0. -1.
    10030    2    1    2    0    0  0.00000000000E+00  0.00000000000E+00  0.66824422658E+03  0.23982857096E+04  0.23033071872E+04 0.  0.
        3    1    3    3  502    0 -0.10206633473E+04 -0.39187686093E+03  0.71096436070E+03  0.13041439625E+04  0.10100000352E+00 0.  1.
       -3    1    3    3    0  502  0.10206633473E+04  0.39187686093E+03 -0.42720134121E+02  0.10941417471E+04  0.10100000352E+00 0. -1.
</event>
<event>
 5   0  0.3226427E-06  0.2300759E+04  0.7818609E-02  0.8477622E-01
        1   -1    0    0  501    0  0.00000000000E+00  0.00000000000E+00  0.15770307023E+04  0.15770307023E+04  0.50400001928E-02 0.  1.
       -1   -1    0    0    0  501  0.00000000000E+00  0.00000000000E+00 -0.83915515383E+03  0.83915515385E+03  0.50400001928E-02 0. -1.
    10030    2    1    2    0    0  0.00000000000E+00  0.00000000000E+00  0.73787554850E+03  0.24161858562E+04  0.23007593891E+04 0.  0.
        4    1    3    3  502    0  0.11056833258E+03  0.72159290408E+03  0.13026141683E+04  0.14932270288E+04  0.12699999809E+01 0.  1.
       -4    1    3    3    0  502 -0.11056833258E+03 -0.72159290408E+03 -0.56473861978E+03  0.92295882734E+03  0.12699999809E+01 0. -1.
</event>
<event>
 5   0  0.3226427E-06  0.2301830E+04  0.7818609E-02  0.8477200E-01
       -1   -1    0    0    0  501  0.00000000000E+00  0.00000000000E+00  0.74177166054E+03  0.74177166056E+03  0.50400001928E-02 0. -1.
        1   -1    0    0  501    0  0.00000000000E+00  0.00000000000E+00 -0.17857324471E+04  0.17857324471E+04  0.50400001928E-02 0.  1.
    10030    2    1    2    0    0  0.00000000000E+00  0.00000000000E+00 -0.10439607866E+04  0.25275041077E+04  0.23018303349E+04 0.  0.
        4    1    3    3  502    0  0.25163735583E+03 -0.99760680712E+03  0.44403815997E+02  0.10298126103E+04  0.12699999809E+01 0. -1.
       -4    1    3    3    0  502 -0.25163735583E+03  0.99760680712E+03 -0.10883646026E+04  0.14976914974E+04  0.12699999809E+01 0.  1.
</event>
<event>
 5   0  0.3226427E-06  0.2292746E+04  0.7818609E-02  0.8480787E-01
        1   -1    0    0  501    0  0.00000000000E+00  0.00000000000E+00  0.12861874709E+04  0.12861874709E+04  0.50400001928E-02 0.  1.
       -1   -1    0    0    0  501  0.00000000000E+00  0.00000000000E+00 -0.10217565826E+04  0.10217565826E+04  0.50400001928E-02 0. -1.
    10030    2    1    2    0    0  0.00000000000E+00  0.00000000000E+00  0.26443088826E+03  0.23079440535E+04  0.22927455287E+04 0.  0.
        4    1    3    3  502    0 -0.91792260664E+03 -0.18270008654E+03 -0.53414530607E+03  0.10776242640E+04  0.12699999809E+01 0.  1.
       -4    1    3    3    0  502  0.91792260664E+03  0.18270008654E+03  0.79857619434E+03  0.12303197895E+04  0.12699999809E+01 0. -1.
</event>
<event>
 5   0  0.3238713E-06  0.2296850E+04  0.7818609E-02  0.8479164E-01
        1   -1    0    0  501    0  0.00000000000E+00  0.00000000000E+00  0.18982929245E+04  0.18982929245E+04  0.50400001928E-02 0.  1.
       -1   -1    0    0    0  501  0.00000000000E+00  0.00000000000E+00 -0.69477157403E+03  0.69477157405E+03  0.50400001928E-02 0. -1.
    10030    2    1    2    0    0  0.00000000000E+00  0.00000000000E+00  0.12035213504E+04  0.25930644985E+04  0.22968499848E+04 0.  0.
        3    1    3    3  502    0 -0.56212417920E+03 -0.71165439077E+03  0.13972163627E+04  0.16657278106E+04  0.10100000352E+00 0.  1.
       -3    1    3    3    0  502  0.56212417920E+03  0.71165439077E+03 -0.19369501225E+03  0.92733668790E+03  0.10100000352E+00 0. -1.
</event>
<event>
 5   0  0.7497344E-06  0.2295756E+04  0.7818609E-02  0.8479596E-01
        2   -1    0    0  501    0  0.00000000000E+00  0.00000000000E+00  0.14609969730E+04  0.14609969730E+04  0.25500000920E-02 0. -1.
       -2   -1    0    0    0  501  0.00000000000E+00  0.00000000000E+00 -0.90186658801E+03  0.90186658802E+03  0.25500000920E-02 0.  1.
    10030    2    1    2    0    0  0.00000000000E+00  0.00000000000E+00  0.55913038494E+03  0.23628635610E+04  0.22957563940E+04 0.  0.
        5    1    3    3  502    0  0.43878189732E+03  0.67881668654E+03 -0.55929315923E+03  0.98293060554E+03  0.46999998093E+01 0.  1.
       -5    1    3    3    0  502 -0.43878189732E+03 -0.67881668654E+03  0.11184235442E+04  0.13799329554E+04  0.46999998093E+01 0. -1.
</event>
<event>
 5   0  0.7003852E-06  0.2299276E+04  0.7818609E-02  0.8478207E-01
        2   -1    0    0  501    0  0.00000000000E+00  0.00000000000E+00  0.10162238254E+04  0.10162238254E+04  0.25500000920E-02 0.  1.
       -2   -1    0    0    0  501  0.00000000000E+00  0.00000000000E+00 -0.13005676310E+04  0.13005676310E+04  0.25500000920E-02 0. -1.
    10030    2    1    2    0    0  0.00000000000E+00  0.00000000000E+00 -0.28434380553E+03  0.23167914564E+04  0.22992762454E+04 0.  0.
        2    1    3    3  502    0 -0.14252289686E+03  0.10297673373E+04 -0.63676161377E+03  0.12190975752E+04  0.25500000920E-02 0. -1.
       -2    1    3    3    0  502  0.14252289686E+03 -0.10297673373E+04  0.35241780825E+03  0.10976938812E+04  0.25500000920E-02 0.  1.
</event>
<event>
 5   0  0.3195296E-06  0.2297968E+04  0.7818609E-02  0.8478723E-01
       -1   -1    0    0    0  501  0.00000000000E+00  0.00000000000E+00  0.89858017844E+03  0.89858017845E+03  0.50400001928E-02 0. -1.
        1   -1    0    0  501    0  0.00000000000E+00  0.00000000000E+00 -0.14691668902E+04  0.14691668902E+04  0.50400001928E-02 0.  1.
    10030    2    1    2    0    0  0.00000000000E+00  0.00000000000E+00 -0.57058671174E+03  0.23677470686E+04  0.22979680123E+04 0.  0.
        2    1    3    3  502    0 -0.48430653647E+03 -0.74918433108E+03  0.46080390852E+03  0.10040768025E+04  0.25500000920E-02 0. -1.
       -2    1    3    3    0  502  0.48430653647E+03  0.74918433108E+03 -0.10313906203E+04  0.13636702661E+04  0.25500000920E-02 0.  1.
</event>
<event>
 5   0  0.3184492E-06  0.2304526E+04  0.7818609E-02  0.8476139E-01
        1   -1    0    0  501    0  0.00000000000E+00  0.00000000000E+00  0.18297457131E+04  0.18297457131E+04  0.50400001928E-02 0.  1.
       -1   -1    0    0    0  501  0.00000000000E+00  0.00000000000E+00 -0.72562560206E+03  0.72562560208E+03  0.50400001928E-02 0. -1.
    10030    2    1    2    0    0  0.00000000000E+00  0.00000000000E+00  0.11041201110E+04  0.25553713152E+04  0.23045262721E+04 0.  0.
        1    1    3    3  502    0 -0.67564193774E+03  0.87956879540E+03  0.20568534688E+03  0.11280247142E+04  0.50400001928E-02 0. -1.
       -1    1    3    3    0  502  0.67564193774E+03 -0.87956879540E+03  0.89843476413E+03  0.14273466010E+04  0.50400001928E-02 0.  1.
</event>
<event>
 5   0  0.3238713E-06  0.2300093E+04  0.7818609E-02  0.8477885E-01
        1   -1    0    0  501    0  0.00000000000E+00  0.00000000000E+00  0.79773933890E+03  0.79773933892E+03  0.50400001928E-02 0. -1.
       -1   -1    0    0    0  501  0.00000000000E+00  0.00000000000E+00 -0.16579432379E+04  0.16579432379E+04  0.50400001928E-02 0.  1.
    10030    2    1    2    0    0  0.00000000000E+00  0.00000000000E+00 -0.86020389899E+03  0.24556825768E+04  0.23000926438E+04 0.  0.
        3    1    3    3  502    0 -0.38522606549E+03  0.90141675843E+02 -0.15830013809E+04  0.16316917678E+04  0.10100000352E+00 0.  1.
       -3    1    3    3    0  502  0.38522606549E+03 -0.90141675843E+02  0.72279748187E+03  0.82399080897E+03  0.10100000352E+00 0. -1.
</event>
<event>
 5   0  0.3184492E-06  0.2298383E+04  0.7818609E-02  0.8478559E-01
       -1   -1    0    0    0  501  0.00000000000E+00  0.00000000000E+00  0.80991635683E+03  0.80991635685E+03  0.50400001928E-02 0. -1.
        1   -1    0    0  501    0  0.00000000000E+00  0.00000000000E+00 -0.16305891929E+04  0.16305891929E+04  0.50400001928E-02 0.  1.
    10030    2    1    2    0    0  0.00000000000E+00  0.00000000000E+00 -0.82067283610E+03  0.24405055498E+04  0.22983827868E+04 0.  0.
        1    1    3    3  502    0 -0.45168069191E+03  0.33413986520E+03 -0.14748109521E+04  0.15782053864E+04  0.50400001928E-02 0.  1.
       -1    1    3    3    0  502  0.45168069191E+03 -0.33413986520E+03  0.65413811604E+03  0.86230016343E+03  0.50400001928E-02 0. -1.
</event>
<event>
 5   0  0.3226427E-06  0.2299750E+04  0.7818609E-02  0.8478020E-01
       -1   -1    0    0    0  501  0.00000000000E+00  0.00000000000E+00  0.11289079495E+04  0.11289079496E+04  0.50400001928E-02 0.  1.
        1   -1    0    0  501    0  0.00000000000E+00  0.00000000000E+00 -0.11712309887E+04  0.11712309887E+04  0.50400001928E-02 0. -1.
    10030    2    1    2    0    0  0.00000000000E+00  0.00000000000E+00 -0.42323039178E+02  0.23001389383E+04  0.22997495289E+04 0.  0.
        4    1    3    3  502    0  0.37413871778E+03 -0.86092895465E+03  0.64305326924E+03  0.11378477776E+04  0.12699999809E+01 0.  1.
       -4    1    3    3    0  502 -0.37413871778E+03  0.86092895465E+03 -0.68537630842E+03  0.11622911607E+04  0.12699999809E+01 0. -1.
</event>
<event>
 5   0  0.3226427E-06  0.2300685E+04  0.7818609E-02  0.8477651E-01
       -1   -1    0    0    0  501  0.00000000000E+00  0.00000000000E+00  0.10473604721E+04  0.10473604721E+04  0.50400001928E-02 0.  1.
        1   -1    0    0  501    0  0.00000000000E+00  0.00000000000E+00 -0.12634498807E+04  0.12634498807E+04  0.50400001928E-02 0. -1.
    10030    2    1    2    0    0  0.00000000000E+00  0.00000000000E+00 -0.21608940854E+03  0.23108103528E+04  0.23006846490E+04 0.  0.
        4    1    3    3  502    0  0.17296716218E+02 -0.13964409927E+02  0.10471440049E+04  0.10473807145E+04  0.12699999809E+01 0.  1.
       -4    1    3    3    0  502 -0.17296716218E+02  0.13964409927E+02 -0.12632334135E+04  0.12634296383E+04  0.12699999809E+01 0. -1.
</event>
<event>
 5   0  0.3238713E-06  0.2320954E+04  0.7818609E-02  0.8469705E-01
       -1   -1    0    0    0  501  0.00000000000E+00  0.00000000000E+00  0.94313444078E+03  0.94313444079E+03  0.50400001928E-02 0.  1.
        1   -1    0    0  501    0  0.00000000000E+00  0.00000000000E+00 -0.14279053130E+04  0.14279053130E+04  0.50400001928E-02 0. -1.
    10030    2    1    2    0    0  0.00000000000E+00  0.00000000000E+00 -0.48477087218E+03  0.23710397538E+04  0.23209538374E+04 0.  0.
        3    1    3    3  502    0 -0.62760293697E+03 -0.76519593871E+03  0.37674288032E+03  0.10589360128E+04  0.10100000352E+00 0.  1.
       -3    1    3    3    0  502  0.62760293697E+03  0.76519593871E+03 -0.86151375250E+03  0.13121037410E+04  0.10100000352E+00 0. -1.
</event>
<event>
 5   0  0.7003852E-06  0.2301381E+04  0.7818609E-02  0.8477377E-01
        2   -1    0    0  501    0  0.00000000000E+00  0.00000000000E+00  0.96904781002E+03  0.96904781002E+03  0.25500000920E-02 0. -1.
       -2   -1    0    0    0  501  0.00000000000E+00  0.00000000000E+00 -0.13663806547E+04  0.13663806547E+04  0.25500000920E-02 0.  1.
    10030    2    1    2    0    0  0.00000000000E+00  0.00000000000E+00 -0.39733284464E+03  0.23354284647E+04  0.23013806126E+04 0.  0.
        2    1    3    3  502    0 -0.27894353019E+03  0.51414008091E+02  0.93301617442E+03  0.97517797093E+03  0.25500000920E-02 0. -1.
       -2    1    3    3    0  502  0.27894353019E+03 -0.51414008091E+02 -0.13303490191E+04  0.13602504938E+04  0.25500000920E-02 0.  1.
</event>
<event>
 5   0  0.2519625E-06  0.2303412E+04  0.7818609E-02  0.8476577E-01
       -3   -1    0    0    0  501  0.00000000000E+00  0.00000000000E+00  0.67067040801E+03  0.67067041561E+03  0.10100000352E+00 0.  1.
        3   -1    0    0  501    0  0.00000000000E+00  0.00000000000E+00 -0.19777618633E+04  0.19777618659E+04  0.10100000352E+00 0. -1.
    10030    2    1    2    0    0  0.00000000000E+00  0.00000000000E+00 -0.13070914553E+04  0.26484322815E+04  0.23034117038E+04 0.  0.
        2    1    3    3  502    0  0.42970506158E+03  0.96531686844E+03 -0.11803730438E+04  0.15842233489E+04  0.25500000920E-02 0. -1.
       -2    1    3    3    0  502 -0.42970506158E+03 -0.96531686844E+03 -0.12671841142E+03  0.10642089326E+04  0.25500000920E-02 0.  1.
</event>
<event>
 5   0  0.7242214E-06  0.2325839E+04  0.7818609E-02  0.8467802E-01
        2   -1    0    0  501    0  0.00000000000E+00  0.00000000000E+00  0.93280094752E+03  0.93280094753E+03  0.25500000920E-02 0. -1.
       -2   -1    0    0    0  501  0.00000000000E+00  0.00000000000E+00 -0.14498078481E+04  0.14498078481E+04  0.25500000920E-02 0.  1.
    10030    2    1    2    0    0  0.00000000000E+00  0.00000000000E+00 -0.51700690056E+03  0.23826087956E+04  0.23258393190E+04 0.  0.
        1    1    3    3  502    0 -0.33748380332E+03 -0.87680005554E+03  0.44357757016E+03  0.10389584764E+04  0.50400001928E-02 0. -1.
       -1    1    3    3    0  502  0.33748380332E+03  0.87680005554E+03 -0.96058447072E+03  0.13436503192E+04  0.50400001928E-02 0.  1.
</event>
<event>
 5   0  0.3238713E-06  0.2301646E+04  0.7818609E-02  0.8477272E-01
       -1   -1    0    0    0  501  0.00000000000E+00  0.00000000000E+00  0.12812582900E+04  0.12812582900E+04  0.50400001928E-02 0. -1.
        1   -1    0    0  501    0  0.00000000000E+00  0.00000000000E+00 -0.10336667520E+04  0.10336667520E+04  0.50400001928E-02 0.  1.
    10030    2    1    2    0    0  0.00000000000E+00  0.00000000000E+00  0.24759153800E+03  0.23149250420E+04  0.23016464499E+04 0.  0.
        3    1    3    3  502    0 -0.55329518781E+03  0.77495669108E+03  0.77382201653E+03  0.12269857217E+04  0.10100000352E+00 0. -1.
       -3    1    3    3    0  502  0.55329518781E+03 -0.77495669108E+03 -0.52623047852E+03  0.10879393203E+04  0.10100000352E+00 0.  1.
</event>
<event>
 5   0  0.7242214E-06  0.2262991E+04  0.7818609E-02  0.8492658E-01
        2   -1    0    0  501    0  0.00000000000E+00  0.00000000000E+00  0.12936117677E+04  0.12936117677E+04  0.25500000920E-02 0. -1.
       -2   -1    0    0    0  501  0.00000000000E+00  0.00000000000E+00 -0.98969533699E+03  0.98969533699E+03  0.25500000920E-02 0.  1.
    10030    2    1    2    0    0  0.00000000000E+00  0.00000000000E+00  0.30391643075E+03  0.22833071047E+04  0.22629905297E+04 0.  0.
        1    1    3    3  502    0  0.78885392840E+03  0.31948747727E+03 -0.60033519693E+03  0.10415205793E+04  0.50400001928E-02 0.  1.
       -1    1    3    3    0  502 -0.78885392840E+03 -0.31948747727E+03  0.90425162767E+03  0.12417865254E+04  0.50400001928E-02 0. -1.
</event>
<event>
 5   0  0.3184492E-06  0.2304478E+04  0.7818609E-02  0.8476158E-01
       -1   -1    0    0    0  501  0.00000000000E+00  0.00000000000E+00  0.87308263156E+03  0.87308263158E+03  0.50400001928E-02 0. -1.
        1   -1    0    0  501    0  0.00000000000E+00  0.00000000000E+00 -0.15206515591E+04  0.15206515591E+04  0.50400001928E-02 0.  1.
    10030    2    1    2    0    0  0.00000000000E+00  0.00000000000E+00 -0.64756892751E+03  0.23937341907E+04  0.23044777846E+04 0.  0.
        1    1    3    3  502    0  0.43194287281E+03 -0.99948170531E+03  0.67799681266E+02  0.10909331425E+04  0.50400001928E-02 0. -1.
       -1    1    3    3    0  502 -0.43194287281E+03  0.99948170531E+03 -0.71536860878E+03  0.13028010482E+04  0.50400001928E-02 0.  1.
</event>
<event>
 5   0  0.7497344E-06  0.2298032E+04  0.7818609E-02  0.8478697E-01
        2   -1    0    0  501    0  0.00000000000E+00  0.00000000000E+00  0.18973837350E+04  0.18973837350E+04  0.25500000920E-02 0.  1.
       -2   -1    0    0    0  501  0.00000000000E+00  0.00000000000E+00 -0.69582027052E+03  0.69582027052E+03  0.25500000920E-02 0. -1.
    10030    2    1    2    0    0  0.00000000000E+00  0.00000000000E+00  0.12015634645E+04  0.25932040055E+04  0.22980322572E+04 0.  0.
        5    1    3    3  502    0 -0.18076248384E+03  0.10913168143E+04  0.25011196400E+03  0.11341188427E+04  0.46999998093E+01 0.  1.
       -5    1    3    3    0  502  0.18076248384E+03 -0.10913168143E+04  0.95145150050E+03  0.14590851629E+04  0.46999998093E+01 0. -1.
</event>
<event>
 5   0  0.3195296E-06  0.2298244E+04  0.7818609E-02  0.8478614E-01
        1   -1    0    0  501    0  0.00000000000E+00  0.00000000000E+00  0.15525193269E+04  0.15525193269E+04  0.50400001928E-02 0. -1.
       -1   -1    0    0    0  501  0.00000000000E+00  0.00000000000E+00 -0.85054078152E+03  0.85054078153E+03  0.50400001928E-02 0.  1.
    10030    2    1    2    0    0  0.00000000000E+00  0.00000000000E+00  0.70197854542E+03  0.24030601085E+04  0.22982436787E+04 0.  0.
        2    1    3    3  502    0 -0.10313796346E+04 -0.11754912611E+03 -0.16435746267E+03  0.10509876894E+04  0.25500000920E-02 0.  1.
       -2    1    3    3    0  502  0.10313796346E+04  0.11754912611E+03  0.86633600809E+03  0.13520724191E+04  0.25500000920E-02 0. -1.
</event>
<event>
 5   0  0.7348107E-06  0.2308802E+04  0.7818609E-02  0.8474459E-01
       -2   -1    0    0    0  501  0.00000000000E+00  0.00000000000E+00  0.61773556627E+03  0.61773556628E+03  0.25500000920E-02 0. -1.
        2   -1    0    0  501    0  0.00000000000E+00  0.00000000000E+00 -0.21573011010E+04  0.21573011010E+04  0.25500000920E-02 0.  1.
    10030    2    1    2    0    0  0.00000000000E+00  0.00000000000E+00 -0.15395655347E+04  0.27750366672E+04  0.23088019553E+04 0.  0.
        3    1    3    3  502    0  0.83054611569E+03  0.79949493364E+03 -0.69724097981E+03  0.13472727984E+04  0.10100000352E+00 0. -1.
       -3    1    3    3    0  502 -0.83054611569E+03 -0.79949493364E+03 -0.84232455488E+03  0.14277638688E+04  0.10100000352E+00 0.  1.
</event>
<event>
 5   0  0.7003852E-06  0.2282072E+04  0.7818609E-02  0.8485024E-01
        2   -1    0    0  501    0  0.00000000000E+00  0.00000000000E+00  0.10806488592E+04  0.10806488592E+04  0.25500000920E-02 0.  1.
       -2   -1    0    0    0  501  0.00000000000E+00  0.00000000000E+00 -0.12047974860E+04  0.12047974860E+04  0.25500000920E-02 0. -1.
    10030    2    1    2    0    0  0.00000000000E+00  0.00000000000E+00 -0.12414862678E+03  0.22854463452E+04  0.22820718909E+04 0.  0.
        2    1    3    3  502    0 -0.10774611391E+04 -0.39493319275E+02  0.31194921562E+03  0.11224056939E+04  0.25500000920E-02 0. -1.
       -2    1    3    3    0  502  0.10774611391E+04  0.39493319275E+02 -0.43609784241E+03  0.11630406513E+04  0.25500000920E-02 0.  1.
</event>
<event>
 5   0  0.3195296E-06  0.2298990E+04  0.7818609E-02  0.8478320E-01
       -1   -1    0    0    0  501  0.00000000000E+00  0.00000000000E+00  0.67997116231E+03  0.67997116233E+03  0.50400001928E-02 0.  1.
        1   -1    0    0  501    0  0.00000000000E+00  0.00000000000E+00 -0.19432270305E+04  0.19432270305E+04  0.50400001928E-02 0. -1.
    10030    2    1    2    0    0  0.00000000000E+00  0.00000000000E+00 -0.12632558682E+04  0.26231981929E+04  0.22989896412E+04 0.  0.
        2    1    3    3  502    0  0.99673610849E+02  0.10903446690E+03  0.66909482199E+03  0.68520889113E+03  0.25500000920E-02 0.  1.
       -2    1    3    3    0  502 -0.99673610849E+02 -0.10903446690E+03 -0.19323506902E+04  0.19379893017E+04  0.25500000920E-02 0. -1.
</event>
<event>
 5   0  0.7497344E-06  0.2301921E+04  0.7818609E-02  0.8477164E-01
        2   -1    0    0  501    0  0.00000000000E+00  0.00000000000E+00  0.99738132786E+03  0.99738132786E+03  0.25500000920E-02 0. -1.
       -2   -1    0    0    0  501  0.00000000000E+00  0.00000000000E+00 -0.13281883933E+04  0.13281883933E+04  0.25500000920E-02 0.  1.
    10030    2    1    2    0    0  0.00000000000E+00  0.00000000000E+00 -0.33080706548E+03  0.23255697212E+04  0.23019212006E+04 0.  0.
        5    1    3    3  502    0 -0.24012630583E+03 -0.10805124634E+04 -0.48411298186E+03  0.12081205634E+04  0.46999998093E+01 0. -1.
       -5    1    3    3    0  502  0.24012630583E+03  0.10805124634E+04  0.15330591638E+03  0.11174491579E+04  0.46999998093E+01 0.  1.
</event>
<event>
 5   0  0.7497344E-06  0.2301685E+04  0.7818609E-02  0.8477257E-01
        2   -1    0    0  501    0  0.00000000000E+00  0.00000000000E+00  0.18195731096E+04  0.18195731096E+04  0.25500000920E-02 0. -1.
       -2   -1    0    0    0  501  0.00000000000E+00  0.00000000000E+00 -0.72788437772E+03  0.72788437773E+03  0.25500000920E-02 0.  1.
    10030    2    1    2    0    0  0.00000000000E+00  0.00000000000E+00  0.10916887319E+04  0.25474574873E+04  0.23016853309E+04 0.  0.
        5    1    3    3  502    0 -0.65130607720E+03 -0.85012760118E+03  0.10121390089E+04  0.14735548880E+04  0.46999998093E+01 0.  1.
       -5    1    3    3    0  502  0.65130607720E+03  0.85012760118E+03  0.79549722959E+02  0.10739025994E+04  0.46999998093E+01 0. -1.
</event>
<event>
 5   0  0.7348107E-06  0.2298499E+04  0.7818609E-02  0.8478513E-01
        2   -1    0    0  501    0  0.00000000000E+00  0.00000000000E+00  0.10430364347E+04  0.10430364347E+04  0.25500000920E-02 0.  1.
       -2   -1    0    0    0  501  0.00000000000E+00  0.00000000000E+00 -0.12662778787E+04  0.12662778788E+04  0.25500000920E-02 0. -1.
    10030    2    1    2    0    0  0.00000000000E+00  0.00000000000E+00 -0.22324144404E+03  0.23093143135E+04  0.22984986091E+04 0.  0.
        3    1    3    3  502    0 -0.96577286671E+03  0.45885928912E+03 -0.53491650947E+03  0.11955771659E+04  0.10100000352E+00 0. -1.
       -3    1    3    3    0  502  0.96577286671E+03 -0.45885928912E+03  0.31167506543E+03  0.11137371476E+04  0.10100000352E+00 0.  1.
</event>
<event>
 5   0  0.7242214E-06  0.2301183E+04  0.7818609E-02  0.8477455E-01
        2   -1    0    0  501    0  0.00000000000E+00  0.00000000000E+00  0.72269679681E+03  0.72269679681E+03  0.25500000920E-02 0. -1.
       -2   -1    0    0    0  501  0.00000000000E+00  0.00000000000E+00 -0.18318345988E+04  0.18318345988E+04  0.25500000920E-02 0.  1.
    10030    2    1    2    0    0  0.00000000000E+00  0.00000000000E+00 -0.11091378020E+04  0.25545313956E+04  0.23011831712E+04 0.  0.
        1    1    3    3  502    0  0.34311275128E+03 -0.54623872212E+03  0.50308864606E+03  0.81804724036E+03  0.50400001928E-02 0. -1.
       -1    1    3    3    0  502 -0.34311275128E+03  0.54623872212E+03 -0.16122264481E+04  0.17364841553E+04  0.50400001928E-02 0.  1.
</event>
<event>
 5   0  0.3338758E-06  0.2298164E+04  0.7818609E-02  0.8478645E-01
        1   -1    0    0  501    0  0.00000000000E+00  0.00000000000E+00  0.11066235991E+04  0.11066235991E+04  0.50400001928E-02 0.  1.
       -1   -1    0    0    0  501  0.00000000000E+00  0.00000000000E+00 -0.11931695421E+04  0.11931695421E+04  0.50400001928E-02 0. -1.
    10030    2    1    2    0    0  0.00000000000E+00  0.00000000000E+00 -0.86545942982E+02  0.22997931412E+04  0.22981641134E+04 0.  0.
        5    1    3    3  502    0  0.11709802087E+03 -0.11145437088E+04  0.21077280477E+03  0.11403363059E+04  0.46999998093E+01 0.  1.
       -5    1    3    3    0  502 -0.11709802087E+03  0.11145437088E+04 -0.29731874775E+03  0.11594568353E+04  0.46999998093E+01 0. -1.
</event>
<event>
 5   0  0.3184492E-06  0.2313048E+04  0.7818609E-02  0.8472794E-01
       -1   -1    0    0    0  501  0.00000000000E+00  0.00000000000E+00  0.63840355609E+03  0.63840355611E+03  0.50400001928E-02 0. -1.
        1   -1    0    0  501    0  0.00000000000E+00  0.00000000000E+00 -0.20951453710E+04  0.20951453710E+04  0.50400001928E-02 0.  1.
    10030    2    1    2    0    0  0.00000000000E+00  0.00000000000E+00 -0.14567418149E+04  0.27335489271E+04  0.23130484261E+04 0.  0.
        1    1    3    3  502    0 -0.10721692354E+04 -0.27513401516E+03 -0.11244091707E+04  0.15778281208E+04  0.50400001928E-02 0. -1.
       -1    1    3    3    0  502  0.10721692354E+04  0.27513401516E+03 -0.33233264427E+03  0.11557208063E+04  0.50400001928E-02 0.  1.
</event>
<event>
 5   0  0.7003852E-06  0.2298992E+04  0.7818609E-02  0.8478319E-01
        2   -1    0    0  501    0  0.00000000000E+00  0.00000000000E+00  0.13521379316E+04  0.13521379316E+04  0.25500000920E-02 0.  1.
       -2   -1    0    0    0  501  0.00000000000E+00  0.00000000000E+00 -0.97722328030E+03  0.97722328031E+03  0.25500000920E-02 0. -1.
    10030    2    1    2    0    0  0.00000000000E+00  0.00000000000E+00  0.37491465130E+03  0.23293612119E+04  0.22989916615E+04 0.  0.
        2    1    3    3  502    0 -0.46061888897E+03  0.23313322637E+02 -0.87936536922E+03  0.99297367764E+03  0.25500000920E-02 0. -1.
       -2    1    3    3    0  502  0.46061888897E+03 -0.23313322637E+02  0.12542800205E+04  0.13363875343E+04  0.25500000920E-02 0.  1.
</event>
<event>
 5   0  0.3195296E-06  0.2291038E+04  0.7818609E-02  0.8481463E-01
       -1   -1    0    0    0  501  0.00000000000E+00  0.00000000000E+00  0.14732257982E+04  0.14732257982E+04  0.50400001928E-02 0.  1.
        1   -1    0    0  501    0  0.00000000000E+00  0.00000000000E+00 -0.89070811374E+03  0.89070811375E+03  0.50400001928E-02 0. -1.
    10030    2    1    2    0    0  0.00000000000E+00  0.00000000000E+00  0.58251768450E+03  0.23639339120E+04  0.22910383427E+04 0.  0.
        2    1    3    3  502    0 -0.82704903475E+03 -0.69527402911E+03 -0.10137198097E+03  0.10852153519E+04  0.25500000920E-02 0. -1.
       -2    1    3    3    0  502  0.82704903475E+03  0.69527402911E+03  0.68388966546E+03  0.12787185601E+04  0.25500000920E-02 0.  1.
</event>
<event>
 5   0  0.7242214E-06  0.2302869E+04  0.7818609E-02  0.8476791E-01
       -2   -1    0    0    0  501  0.00000000000E+00  0.00000000000E+00  0.48653071942E+03  0.48653071943E+03  0.25500000920E-02 0. -1.
        2   -1    0    0  501    0  0.00000000000E+00  0.00000000000E+00 -0.27250104164E+04  0.27250104164E+04  0.25500000920E-02 0.  1.
    10030    2    1    2    0    0  0.00000000000E+00  0.00000000000E+00 -0.22384796969E+04  0.32115411358E+04  0.23028688876E+04 0.  0.
        1    1    3    3  502    0 -0.71304549132E+03 -0.82091393780E+03 -0.59101191524E+03  0.12375898553E+04  0.50400001928E-02 0. -1.
       -1    1    3    3    0  502  0.71304549132E+03  0.82091393780E+03 -0.16474677817E+04  0.19739512805E+04  0.50400001928E-02 0.  1.
</event>
<event>
 5   0  0.7497344E-06  0.2304110E+04  0.7818609E-02  0.8476302E-01
        2   -1    0    0  501    0  0.00000000000E+00  0.00000000000E+00  0.12819783888E+04  0.12819783889E+04  0.25500000920E-02 0.  1.
       -2   -1    0    0    0  501  0.00000000000E+00  0.00000000000E+00 -0.10352990868E+04  0.10352990868E+04  0.25500000920E-02 0. -1.
    10030    2    1    2    0    0  0.00000000000E+00  0.00000000000E+00  0.24667930208E+03  0.23172774756E+04  0.23041102884E+04 0.  0.
        5    1    3    3  502    0 -0.68411061250E+03  0.62833715062E+03 -0.56201932533E+03  0.10856807620E+04  0.46999998093E+01 0. -1.
       -5    1    3    3    0  502  0.68411061250E+03 -0.62833715062E+03  0.80869862740E+03  0.12315967136E+04  0.46999998093E+01 0.  1.
</event>
<event>
 5   0  0.3338758E-06  0.2286789E+04  0.7818609E-02  0.8483148E-01
        1   -1    0    0  501    0  0.00000000000E+00  0.00000000000E+00  0.12129945497E+04  0.12129945497E+04  0.50400001928E-02 0. -1.
       -1   -1    0    0    0  501  0.00000000000E+00  0.00000000000E+00 -0.10777880721E+04  0.10777880722E+04  0.50400001928E-02 0.  1.
    10030    2    1    2    0    0  0.00000000000E+00  0.00000000000E+00  0.13520647755E+03  0.22907826218E+04  0.22867890653E+04 0.  0.
        5    1    3    3  502    0 -0.94110498131E+03  0.56939918241E+03  0.38029408067E+03  0.11638469369E+04  0.46999998093E+01 0. -1.
       -5    1    3    3    0  502  0.94110498131E+03 -0.56939918241E+03 -0.24508760312E+03  0.11269356849E+04  0.46999998093E+01 0.  1.
</event>
<event>
 5   0  0.3338758E-06  0.2299207E+04  0.7818609E-02  0.8478234E-01
       -1   -1    0    0    0  501  0.00000000000E+00  0.00000000000E+00  0.14530962692E+04  0.14530962692E+04  0.50400001928E-02 0. -1.
        1   -1    0    0  501    0  0.00000000000E+00  0.00000000000E+00 -0.90949809187E+03  0.90949809188E+03  0.50400001928E-02 0.  1.
    10030    2    1    2    0    0  0.00000000000E+00  0.00000000000E+00  0.54359817729E+03  0.23625943611E+04  0.22992070669E+04 0.  0.
        5    1    3    3  502    0 -0.16580541155E+03  0.46737310096E+03  0.13375211911E+04  0.14265041454E+04  0.46999998093E+01 0. -1.
       -5    1    3    3    0  502  0.16580541155E+03 -0.46737310096E+03 -0.79392301385E+03  0.93609021569E+03  0.46999998093E+01 0.  1.
</event>
<event>
 5   0  0.7242214E-06  0.2304191E+04  0.7818609E-02  0.8476271E-01
       -2   -1    0    0    0  501  0.00000000000E+00  0.00000000000E+00  0.51698468328E+03  0.51698468328E+03  0.25500000920E-02 0.  1.
        2   -1    0    0  501    0  0.00000000000E+00  0.00000000000E+00 -0.25674337408E+04  0.25674337408E+04  0.25500000920E-02 0. -1.
    10030    2    1    2    0    0  0.00000000000E+00  0.00000000000E+00 -0.20504490575E+04  0.30844184240E+04  0.23041908943E+04 0.  0.
        1    1    3    3  502    0  0.42006846535E+03  0.94468480340E+03 -0.17057309066E+04  0.19945938983E+04  0.50400001928E-02 0. -1.
       -1    1    3    3    0  502 -0.42006846535E+03 -0.94468480340E+03 -0.34471815089E+03  0.10898245258E+04  0.50400001928E-02 0.  1.
</event>
<event>
 5   0  0.7044981E-06  0.2300797E+04  0.7818609E-02  0.8477607E-01
       -2   -1    0    0    0  501  0.00000000000E+00  0.00000000000E+00  0.81642050272E+03  0.81642050273E+03  0.25500000920E-02 0. -1.
        2   -1    0    0  501    0  0.00000000000E+00  0.00000000000E+00 -0.16209983882E+04  0.16209983882E+04  0.25500000920E-02 0.  1.
    10030    2    1    2    0    0  0.00000000000E+00  0.00000000000E+00 -0.80457788546E+03  0.24374188909E+04  0.23007966612E+04 0.  0.
        4    1    3    3  502    0 -0.61329500292E+03  0.73388389438E+03  0.27496788149E+03  0.99515088292E+03  0.12699999809E+01 0. -1.
       -4    1    3    3    0  502  0.61329500292E+03 -0.73388389438E+03 -0.10795457669E+04  0.14422680080E+04  0.12699999809E+01 0.  1.
</event>
<event>
 5   0  0.3195296E-06  0.2297891E+04  0.7818609E-02  0.8478753E-01
       -1   -1    0    0    0  501  0.00000000000E+00  0.00000000000E+00  0.10795581840E+04  0.10795581840E+04  0.50400001928E-02 0.  1.
        1   -1    0    0  501    0  0.00000000000E+00  0.00000000000E+00 -0.12227928102E+04  0.12227928102E+04  0.50400001928E-02 0. -1.
    10030    2    1    2    0    0  0.00000000000E+00  0.00000000000E+00 -0.14323462623E+03  0.23023509942E+04  0.22978911946E+04 0.  0.
        2    1    3    3  502    0 -0.24894885219E+03 -0.36891385246E+03  0.98968493809E+03  0.10851494083E+04  0.25500000920E-02 0.  1.
       -2    1    3    3    0  502  0.24894885219E+03  0.36891385246E+03 -0.11329195643E+04  0.12172015859E+04  0.25500000920E-02 0. -1.
</event>
<event>
 5   0  0.3226427E-06  0.2279081E+04  0.7818609E-02  0.8486215E-01
       -1   -1    0    0    0  501  0.00000000000E+00  0.00000000000E+00  0.10441325838E+04  0.10441325838E+04  0.50400001928E-02 0. -1.
        1   -1    0    0  501    0  0.00000000000E+00  0.00000000000E+00 -0.12436665100E+04  0.12436665100E+04  0.50400001928E-02 0.  1.
    10030    2    1    2    0    0  0.00000000000E+00  0.00000000000E+00 -0.19953392614E+03  0.22877990938E+04  0.22790811539E+04 0.  0.
        4    1    3    3  502    0  0.97779835950E+03  0.57771852226E+03 -0.19341256082E+03  0.11520669921E+04  0.12699999809E+01 0.  1.
       -4    1    3    3    0  502 -0.97779835950E+03 -0.57771852226E+03 -0.61213653258E+01  0.11357321017E+04  0.12699999809E+01 0. -1.
</event>
<event>
 5   0  0.7348107E-06  0.2304802E+04  0.7818609E-02  0.8476030E-01
       -2   -1    0    0    0  501  0.00000000000E+00  0.00000000000E+00  0.14004993287E+04  0.14004993287E+04  0.25500000920E-02 0. -1.
        2   -1    0    0  501    0  0.00000000000E+00  0.00000000000E+00 -0.94825360896E+03  0.94825360896E+03  0.25500000920E-02 0.  1.
    10030    2    1    2    0    0  0.00000000000E+00  0.00000000000E+00  0.45224571969E+03  0.23487529376E+04  0.23048024147E+04 0.  0.
        3    1    3    3  502    0  0.42963789314E+03 -0.43356492576E+03  0.12222394640E+04  0.13661758971E+04  0.10100000352E+00 0. -1.
       -3    1    3    3    0  502 -0.42963789314E+03  0.43356492576E+03 -0.76999374435E+03  0.98257704055E+03  0.10100000352E+00 0.  1.
</event>
<event>
 5   0  0.3184492E-06  0.2295090E+04  0.7818609E-02  0.8479860E-01
       -1   -1    0    0    0  501  0.00000000000E+00  0.00000000000E+00  0.60625267315E+03  0.60625267317E+03  0.50400001928E-02 0. -1.
        1   -1    0    0  501    0  0.00000000000E+00  0.00000000000E+00 -0.21721299575E+04  0.21721299575E+04  0.50400001928E-02 0.  1.
    10030    2    1    2    0    0  0.00000000000E+00  0.00000000000E+00 -0.15658772844E+04  0.27783826307E+04  0.22950900577E+04 0.  0.
        1    1    3    3  502    0 -0.46975928610E+03  0.25066435657E+03 -0.20135380881E+04  0.20827486740E+04  0.50400001928E-02 0.  1.
       -1    1    3    3    0  502  0.46975928610E+03 -0.25066435657E+03  0.44766080375E+03  0.69563395674E+03  0.50400001928E-02 0. -1.
</event>
<event>
 5   0  0.7348107E-06  0.2296154E+04  0.7818609E-02  0.8479439E-01
        2   -1    0    0  501    0  0.00000000000E+00  0.00000000000E+00  0.12953666026E+04  0.12953666026E+04  0.25500000920E-02 0. -1.
       -2   -1    0    0    0  501  0.00000000000E+00  0.00000000000E+00 -0.10175348763E+04  0.10175348763E+04  0.25500000920E-02 0.  1.
    10030    2    1    2    0    0  0.00000000000E+00  0.00000000000E+00  0.27783172633E+03  0.23129014789E+04  0.22961539110E+04 0.  0.
        3    1    3    3  502    0  0.72729092865E+03  0.86821728360E+03  0.32824244837E+03  0.11791931401E+04  0.10100000352E+00 0. -1.
       -3    1    3    3    0  502 -0.72729092865E+03 -0.86821728360E+03 -0.50410722038E+02  0.11337083388E+04  0.10100000352E+00 0.  1.
</event>
<event>
 5   0  0.3195296E-06  0.2294893E+04  0.7818609E-02  0.8479937E-01
        1   -1    0    0  501    0  0.00000000000E+00  0.00000000000E+00  0.22713087420E+04  0.22713087420E+04  0.50400001928E-02 0. -1.
       -1   -1    0    0    0  501  0.00000000000E+00  0.00000000000E+00 -0.57968050425E+03  0.57968050427E+03  0.50400001928E-02 0.  1.
    10030    2    1    2    0    0  0.00000000000E+00  0.00000000000E+00  0.16916282377E+04  0.28509892463E+04  0.22948929360E+04 0.  0.
        2    1    3    3  502    0  0.41589183297E+03  0.64814252136E+03 -0.21094504535E+03  0.79846888285E+03  0.25500000920E-02 0.  1.
       -2    1    3    3    0  502 -0.41589183297E+03 -0.64814252136E+03  0.19025732831E+04  0.20525203634E+04  0.25500000920E-02 0. -1.
</event>
<event>
 5   0  0.7242214E-06  0.2299929E+04  0.7818609E-02  0.8477949E-01
       -2   -1    0    0    0  501  0.00000000000E+00  0.00000000000E+00  0.69473527558E+03  0.69473527558E+03  0.25500000920E-02 0. -1.
        2   -1    0    0  501    0  0.00000000000E+00  0.00000000000E+00 -0.19034848535E+04  0.19034848535E+04  0.25500000920E-02 0.  1.
    10030    2    1    2    0    0  0.00000000000E+00  0.00000000000E+00 -0.12087495779E+04  0.25982201290E+04  0.22999287591E+04 0.  0.
        1    1    3    3  502    0  0.51398406854E+03  0.76740133362E+03 -0.13783060749E+04  0.16591600483E+04  0.50400001928E-02 0.  1.
       -1    1    3    3    0  502 -0.51398406854E+03 -0.76740133362E+03  0.16955649706E+03  0.93906008076E+03  0.50400001928E-02 0. -1.
</event>
<event>
 5   0  0.7003852E-06  0.2299458E+04  0.7818609E-02  0.8478135E-01
        2   -1    0    0  501    0  0.00000000000E+00  0.00000000000E+00  0.13870463361E+04  0.13870463361E+04  0.25500000920E-02 0.  1.
       -2   -1    0    0    0  501  0.00000000000E+00  0.00000000000E+00 -0.95301539905E+03  0.95301539905E+03  0.25500000920E-02 0. -1.
    10030    2    1    2    0    0  0.00000000000E+00  0.00000000000E+00  0.43403093701E+03  0.23400617351E+04  0.22994577774E+04 0.  0.
        2    1    3    3  502    0 -0.97933789474E+03 -0.43833867703E+03 -0.20335616371E+03  0.10920610043E+04  0.25500000920E-02 0. -1.
       -2    1    3    3    0  502  0.97933789474E+03  0.43833867703E+03  0.63738710072E+03  0.12480007308E+04  0.25500000920E-02 0.  1.
</event>
<event>
 5   0  0.2519625E-06  0.2300268E+04  0.7818609E-02  0.8477815E-01
       -3   -1    0    0    0  501  0.00000000000E+00  0.00000000000E+00  0.13725444221E+04  0.13725444258E+04  0.10100000352E+00 0. -1.
        3   -1    0    0  501    0  0.00000000000E+00  0.00000000000E+00 -0.96376350202E+03  0.96376350731E+03  0.10100000352E+00 0.  1.
    10030    2    1    2    0    0  0.00000000000E+00  0.00000000000E+00  0.40878092010E+03  0.23363079331E+04  0.23002680100E+04 0.  0.
        5    1    3    3  502    0 -0.98021297499E+01  0.13650561529E+03 -0.95545415517E+03  0.96521738349E+03  0.46999998093E+01 0.  1.
       -5    1    3    3    0  502  0.98021297499E+01 -0.13650561529E+03  0.13642350753E+04  0.13710905497E+04  0.46999998093E+01 0. -1.
</event>
<event>
 5   0  0.3226427E-06  0.2301525E+04  0.7818609E-02  0.8477320E-01
       -1   -1    0    0    0  501  0.00000000000E+00  0.00000000000E+00  0.50442718914E+03  0.50442718916E+03  0.50400001928E-02 0.  1.
        1   -1    0    0  501    0  0.00000000000E+00  0.00000000000E+00 -0.26252629580E+04  0.26252629580E+04  0.50400001928E-02 0. -1.
    10030    2    1    2    0    0  0.00000000000E+00  0.00000000000E+00 -0.21208357689E+04  0.31296901472E+04  0.23015247248E+04 0.  0.
        4    1    3    3  502    0  0.83121611123E+02  0.82678589860E+03 -0.21429753179E+04  0.22984405475E+04  0.12699999809E+01 0. -1.
       -4    1    3    3    0  502 -0.83121611123E+02 -0.82678589860E+03  0.22139549078E+02  0.83124959963E+03  0.12699999809E+01 0.  1.
</event>
<event>
 5   0  0.7044981E-06  0.2297466E+04  0.7818609E-02  0.8478921E-01
        2   -1    0    0  501    0  0.00000000000E+00  0.00000000000E+00  0.22095924265E+04  0.22095924265E+04  0.25500000920E-02 0.  1.
       -2   -1    0    0    0  501  0.00000000000E+00  0.00000000000E+00 -0.59720872999E+03  0.59720872999E+03  0.25500000920E-02 0. -1.
    10030    2    1    2    0    0  0.00000000000E+00  0.00000000000E+00  0.16123836965E+04  0.28068011565E+04  0.22974663321E+04 0.  0.
        4    1    3    3  502    0 -0.65104699901E+03  0.62530906985E+03  0.16741216170E+04  0.19019880203E+04  0.12699999809E+01 0.  1.
       -4    1    3    3    0  502  0.65104699901E+03 -0.62530906985E+03 -0.61737920505E+02  0.90481313623E+03  0.12699999809E+01 0. -1.
</event>
<event>
 5   0  0.7497344E-06  0.2298666E+04  0.7818609E-02  0.8478447E-01
       -2   -1    0    0    0  501  0.00000000000E+00  0.00000000000E+00  0.84135101570E+03  0.84135101570E+03  0.25500000920E-02 0. -1.
        2   -1    0    0  501    0  0.00000000000E+00  0.00000000000E+00 -0.15700541914E+04  0.15700541914E+04  0.25500000920E-02 0.  1.
    10030    2    1    2    0    0  0.00000000000E+00  0.00000000000E+00 -0.72870317568E+03  0.24114052071E+04  0.22986662991E+04 0.  0.
        5    1    3    3  502    0 -0.93465139130E+03  0.44545907240E+03 -0.88775856339E+03  0.13638710956E+04  0.46999998093E+01 0.  1.
       -5    1    3    3    0  502  0.93465139130E+03 -0.44545907240E+03  0.15905538771E+03  0.10475341115E+04  0.46999998093E+01 0. -1.
</event>
<event>
 5   0  0.3184492E-06  0.2301070E+04  0.7818609E-02  0.8477499E-01
       -1   -1    0    0    0  501  0.00000000000E+00  0.00000000000E+00  0.82355430321E+03  0.82355430322E+03  0.50400001928E-02 0. -1.
        1   -1    0    0  501    0  0.00000000000E+00  0.00000000000E+00 -0.16073386663E+04  0.16073386664E+04  0.50400001928E-02 0.  1.
    10030    2    1    2    0    0  0.00000000000E+00  0.00000000000E+00 -0.78378436314E+03  0.24308929696E+04  0.23010699037E+04 0.  0.
        1    1    3    3  502    0  0.10857262473E+04 -0.37004696109E+03 -0.29743608537E+03  0.11849913343E+04  0.50400001928E-02 0.  1.
       -1    1    3    3    0  502 -0.10857262473E+04  0.37004696109E+03 -0.48634827777E+03  0.12459016353E+04  0.50400001928E-02 0. -1.
</event>
<event>
 5   0  0.7044981E-06  0.2319378E+04  0.7818609E-02  0.8470320E-01
        2   -1    0    0  501    0  0.00000000000E+00  0.00000000000E+00  0.22929707905E+04  0.22929707905E+04  0.25500000920E-02 0.  1.
       -2   -1    0    0    0  501  0.00000000000E+00  0.00000000000E+00 -0.58652220331E+03  0.58652220331E+03  0.25500000920E-02 0. -1.
    10030    2    1    2    0    0  0.00000000000E+00  0.00000000000E+00  0.17064485871E+04  0.28794929938E+04  0.23193777443E+04 0.  0.
        4    1    3    3  502    0  0.60993221092E+03  0.82981703336E+03  0.19130544008E+03  0.10474793531E+04  0.12699999809E+01 0. -1.
       -4    1    3    3    0  502 -0.60993221092E+03 -0.82981703336E+03  0.15151431471E+04  0.18320136407E+04  0.12699999809E+01 0.  1.
</event>
<event>
 5   0  0.3238713E-06  0.2315739E+04  0.7818609E-02  0.8471741E-01
        1   -1    0    0  501    0  0.00000000000E+00  0.00000000000E+00  0.16476061295E+04  0.16476061295E+04  0.50400001928E-02 0. -1.
       -1   -1    0    0    0  501  0.00000000000E+00  0.00000000000E+00 -0.81370300388E+03  0.81370300389E+03  0.50400001928E-02 0.  1.
    10030    2    1    2    0    0  0.00000000000E+00  0.00000000000E+00  0.83390312564E+03  0.24613091334E+04  0.23157392399E+04 0.  0.
        3    1    3    3  502    0 -0.94019283680E+03 -0.35800272400E+03 -0.19225750052E+03  0.10242516671E+04  0.10100000352E+00 0.  1.
       -3    1    3    3    0  502  0.94019283680E+03  0.35800272400E+03  0.10261606262E+04  0.14370574664E+04  0.10100000352E+00 0. -1.
</event>
<event>
 5   0  0.3195296E-06  0.2301609E+04  0.7818609E-02  0.8477287E-01
       -1   -1    0    0    0  501  0.00000000000E+00  0.00000000000E+00  0.70979445432E+03  0.70979445434E+03  0.50400001928E-02 0.  1.
        1   -1    0    0  501    0  0.00000000000E+00  0.00000000000E+00 -0.18658227122E+04  0.18658227122E+04  0.50400001928E-02 0. -1.
    10030    2    1    2    0    0  0.00000000000E+00  0.00000000000E+00 -0.11560282579E+04  0.25756171666E+04  0.23016086669E+04 0.  0.
        2    1    3    3  502    0 -0.22558194955E+03 -0.29812087604E+03 -0.17959750963E+04  0.18344726270E+04  0.25500000920E-02 0. -1.
       -2    1    3    3    0  502  0.22558194955E+03  0.29812087604E+03  0.63994683834E+03  0.74114453961E+03  0.25500000920E-02 0.  1.
</event>
<event>
 5   0  0.3195296E-06  0.2310496E+04  0.7818609E-02  0.8473794E-01
        1   -1    0    0  501    0  0.00000000000E+00  0.00000000000E+00  0.72529697364E+03  0.72529697366E+03  0.50400001928E-02 0. -1.
       -1   -1    0    0    0  501  0.00000000000E+00  0.00000000000E+00 -0.18400709840E+04  0.18400709840E+04  0.50400001928E-02 0.  1.
    10030    2    1    2    0    0  0.00000000000E+00  0.00000000000E+00 -0.11147740103E+04  0.25653679577E+04  0.23104959779E+04 0.  0.
        2    1    3    3  502    0  0.11244614161E+04 -0.15962813244E+03 -0.32263233710E+03  0.11806719450E+04  0.25500000920E-02 0. -1.
       -2    1    3    3    0  502 -0.11244614161E+04  0.15962813244E+03 -0.79214167324E+03  0.13846960126E+04  0.25500000920E-02 0.  1.
</event>
<event>
 5   0  0.3184492E-06  0.2299198E+04  0.7818609E-02  0.8478237E-01
       -1   -1    0    0    0  501  0.00000000000E+00  0.00000000000E+00  0.98590171490E+03  0.98590171491E+03  0.50400001928E-02 0. -1.
        1   -1    0    0  501    0  0.00000000000E+00  0.00000000000E+00 -0.13404767439E+04  0.13404767439E+04  0.50400001928E-02 0.  1.
    10030    2    1    2    0    0  0.00000000000E+00  0.00000000000E+00 -0.35457502903E+03  0.23263784588E+04  0.22991984000E+04 0.  0.
        1    1    3    3  502    0 -0.91181431259E+03 -0.65729545039E+03 -0.42125124384E+03  0.12003729671E+04  0.50400001928E-02 0.  1.
       -1    1    3    3    0  502  0.91181431259E+03  0.65729545039E+03  0.66676214809E+02  0.11260054917E+04  0.50400001928E-02 0. -1.
</event>
<event>
 5   0  0.3338758E-06  0.2296161E+04  0.7818609E-02  0.8479436E-01
       -1   -1    0    0    0  501  0.00000000000E+00  0.00000000000E+00  0.12794703292E+04  0.12794703292E+04  0.50400001928E-02 0.  1.
        1   -1    0    0  501    0  0.00000000000E+00  0.00000000000E+00 -0.10301829325E+04  0.10301829325E+04  0.50400001928E-02 0. -1.
    10030    2    1    2    0    0  0.00000000000E+00  0.00000000000E+00  0.24928739666E+03  0.23096532617E+04  0.22961607050E+04 0.  0.
        5    1    3    3  502    0 -0.18630019908E+02 -0.97922779898E+03  0.72718973922E+03  0.12198611260E+04  0.46999998093E+01 0.  1.
       -5    1    3    3    0  502  0.18630019908E+02  0.97922779898E+03 -0.47790234256E+03  0.10897921357E+04  0.46999998093E+01 0. -1.
</event>
<event>
 5   0  0.3195296E-06  0.2300509E+04  0.7818609E-02  0.8477720E-01
        1   -1    0    0  501    0  0.00000000000E+00  0.00000000000E+00  0.20016243181E+04  0.20016243181E+04  0.50400001928E-02 0. -1.
       -1   -1    0    0    0  501  0.00000000000E+00  0.00000000000E+00 -0.66100591778E+03  0.66100591780E+03  0.50400001928E-02 0.  1.
    10030    2    1    2    0    0  0.00000000000E+00  0.00000000000E+00  0.13406184003E+04  0.26626302359E+04  0.23005090910E+04 0.  0.
        2    1    3    3  502    0 -0.32175640032E+03  0.95589467789E+03  0.30246562459E+02  0.10090474077E+04  0.25500000920E-02 0.  1.
       -2    1    3    3    0  502  0.32175640032E+03 -0.95589467789E+03  0.13103718378E+04  0.16535828282E+04  0.25500000920E-02 0. -1.
</event>
<event>
 5   0  0.7044981E-06  0.2300960E+04  0.7818609E-02  0.8477543E-01
        2   -1    0    0  501    0  0.00000000000E+00  0.00000000000E+00  0.14897128094E+04  0.14897128094E+04  0.25500000920E-02 0. -1.
       -2   -1    0    0    0  501  0.00000000000E+00  0.00000000000E+00 -0.88849642912E+03  0.88849642912E+03  0.25500000920E-02 0.  1.
    10030    2    1    2    0    0  0.00000000000E+00  0.00000000000E+00  0.60121638026E+03  0.23782092385E+04  0.23009602444E+04 0.  0.
        4    1    3    3  502    0 -0.82647379041E+03 -0.73880890577E+03  0.61868225325E+03  0.12695144225E+04  0.12699999809E+01 0. -1.
       -4    1    3    3    0  502  0.82647379041E+03  0.73880890577E+03 -0.17465872983E+02  0.11086948160E+04  0.12699999809E+01 0.  1.
</event>
<event>
 5   0  0.7044981E-06  0.2333083E+04  0.7818609E-02  0.8464990E-01
        2   -1    0    0  501    0  0.00000000000E+00  0.00000000000E+00  0.15179390757E+04  0.15179390757E+04  0.25500000920E-02 0. -1.
       -2   -1    0    0    0  501  0.00000000000E+00  0.00000000000E+00 -0.89649158069E+03  0.89649158070E+03  0.25500000920E-02 0.  1.
    10030    2    1    2    0    0  0.00000000000E+00  0.00000000000E+00  0.62144749499E+03  0.24144306564E+04  0.23330834545E+04 0.  0.
        4    1    3    3  502    0  0.24979154951E+03 -0.41457378246E+03  0.14091220254E+04  0.14899307818E+04  0.12699999809E+01 0. -1.
       -4    1    3    3    0  502 -0.24979154951E+03  0.41457378246E+03 -0.78767453040E+03  0.92449987455E+03  0.12699999809E+01 0.  1.
</event>
<event>
 5   0  0.7044981E-06  0.2299121E+04  0.7818609E-02  0.8478268E-01
        2   -1    0    0  501    0  0.00000000000E+00  0.00000000000E+00  0.13561147096E+04  0.13561147096E+04  0.25500000920E-02 0. -1.
       -2   -1    0    0    0  501  0.00000000000E+00  0.00000000000E+00 -0.97446711182E+03  0.97446711183E+03  0.25500000920E-02 0.  1.
    10030    2    1    2    0    0  0.00000000000E+00  0.00000000000E+00  0.38164759773E+03  0.23305818214E+04  0.22991208618E+04 0.  0.
        4    1    3    3  502    0 -0.82464474940E+03  0.31162578763E+03 -0.55706472645E+03  0.10428194075E+04  0.12699999809E+01 0.  1.
       -4    1    3    3    0  502  0.82464474940E+03 -0.31162578763E+03  0.93871232418E+03  0.12877624139E+04  0.12699999809E+01 0. -1.
</event>
<event>
 5   0  0.3226427E-06  0.2301979E+04  0.7818609E-02  0.8477141E-01
        1   -1    0    0  501    0  0.00000000000E+00  0.00000000000E+00  0.17555655986E+04  0.17555655986E+04  0.50400001928E-02 0. -1.
       -1   -1    0    0    0  501  0.00000000000E+00  0.00000000000E+00 -0.75461523187E+03  0.75461523189E+03  0.50400001928E-02 0.  1.
    10030    2    1    2    0    0  0.00000000000E+00  0.00000000000E+00  0.10009503667E+04  0.25101808305E+04  0.23019787499E+04 0.  0.
        4    1    3    3  502    0  0.93481278783E+03  0.59685948592E+03  0.83596863256E+03  0.13888705346E+04  0.12699999809E+01 0.  1.
       -4    1    3    3    0  502 -0.93481278783E+03 -0.59685948592E+03  0.16498173415E+03  0.11213102959E+04  0.12699999809E+01 0. -1.
</event>
<event>
 5   0  0.3226427E-06  0.2297931E+04  0.7818609E-02  0.8478737E-01
       -1   -1    0    0    0  501  0.00000000000E+00  0.00000000000E+00  0.62604970746E+03  0.62604970748E+03  0.50400001928E-02 0.  1.
        1   -1    0    0  501    0  0.00000000000E+00  0.00000000000E+00 -0.21086533733E+04  0.21086533734E+04  0.50400001928E-02 0. -1.
    10030    2    1    2    0    0  0.00000000000E+00  0.00000000000E+00 -0.14826036659E+04  0.27347030808E+04  0.22979310934E+04 0.  0.
        4    1    3    3  502    0  0.83967764250E+03  0.64803059695E+03 -0.21562133597E+03  0.10823568595E+04  0.12699999809E+01 0.  1.
       -4    1    3    3    0  502 -0.83967764250E+03 -0.64803059695E+03 -0.12669823299E+04  0.16523462213E+04  0.12699999809E+01 0. -1.
</event>
<event>
 5   0  0.7497344E-06  0.2298769E+04  0.7818609E-02  0.8478407E-01
        2   -1    0    0  501    0  0.00000000000E+00  0.00000000000E+00  0.13621652669E+04  0.13621652669E+04  0.25500000920E-02 0. -1.
       -2   -1    0    0    0  501  0.00000000000E+00  0.00000000000E+00 -0.96984152161E+03  0.96984152162E+03  0.25500000920E-02 0.  1.
    10030    2    1    2    0    0  0.00000000000E+00  0.00000000000E+00  0.39232374531E+03  0.23320067885E+04  0.22987687445E+04 0.  0.
        5    1    3    3  502    0 -0.24767307511E+03 -0.80100770614E+03 -0.60140365477E+03  0.10318254423E+04  0.46999998093E+01 0.  1.
       -5    1    3    3    0  502  0.24767307511E+03  0.80100770614E+03  0.99372740007E+03  0.13001813462E+04  0.46999998093E+01 0. -1.
</event>
<event>
 5   0  0.3338758E-06  0.2298234E+04  0.7818609E-02  0.8478618E-01
        1   -1    0    0  501    0  0.00000000000E+00  0.00000000000E+00  0.54031566952E+03  0.54031566954E+03  0.50400001928E-02 0. -1.
       -1   -1    0    0    0  501  0.00000000000E+00  0.00000000000E+00 -0.24438869507E+04  0.24438869508E+04  0.50400001928E-02 0.  1.
    10030    2    1    2    0    0  0.00000000000E+00  0.00000000000E+00 -0.19035712812E+04  0.29842026203E+04  0.22982344650E+04 0.  0.
        5    1    3    3  502    0 -0.28222722457E+02 -0.11487366292E+04 -0.94207231573E+03  0.14859053481E+04  0.46999998093E+01 0. -1.
       -5    1    3    3    0  502  0.28222722457E+02  0.11487366292E+04 -0.96149896550E+03  0.14982972722E+04  0.46999998093E+01 0.  1.
</event>
<event>
 5   0  0.2519625E-06  0.2300671E+04  0.7818609E-02  0.8477656E-01
        3   -1    0    0  501    0  0.00000000000E+00  0.00000000000E+00  0.11221792537E+04  0.11221792582E+04  0.10100000352E+00 0. -1.
       -3   -1    0    0    0  501  0.00000000000E+00  0.00000000000E+00 -0.11791986983E+04  0.11791987026E+04  0.10100000352E+00 0.  1.
    10030    2    1    2    0    0  0.00000000000E+00  0.00000000000E+00 -0.57019444594E+02  0.23013779608E+04  0.23006714892E+04 0.  0.
        2    1    3    3  502    0 -0.46349163529E+02 -0.64631123791E+03  0.92225879340E+03  0.11271325313E+04  0.25500000920E-02 0. -1.
       -2    1    3    3    0  502  0.46349163529E+02  0.64631123791E+03 -0.97927823799E+03  0.11742454295E+04  0.25500000920E-02 0.  1.
</event>
<event>
 5   0  0.7003852E-06  0.2300384E+04  0.7818609E-02  0.8477770E-01
       -2   -1    0    0    0  501  0.00000000000E+00  0.00000000000E+00  0.12944084272E+04  0.12944084272E+04  0.25500000920E-02 0.  1.
        2   -1    0    0  501    0  0.00000000000E+00  0.00000000000E+00 -0.10220438445E+04  0.10220438445E+04  0.25500000920E-02 0. -1.
    10030    2    1    2    0    0  0.00000000000E+00  0.00000000000E+00  0.27236458267E+03  0.23164522717E+04  0.23003844595E+04 0.  0.
        2    1    3    3  502    0 -0.66174053160E+02  0.97052082348E+03 -0.48182465071E+03  0.10855619136E+04  0.25500000920E-02 0. -1.
       -2    1    3    3    0  502  0.66174053160E+02 -0.97052082348E+03  0.75418923338E+03  0.12308903582E+04  0.25500000920E-02 0.  1.
</event>
<event>
 5   0  0.3238713E-06  0.2301320E+04  0.7818609E-02  0.8477401E-01
       -1   -1    0    0    0  501  0.00000000000E+00  0.00000000000E+00  0.11949150201E+04  0.11949150201E+04  0.50400001928E-02 0. -1.
        1   -1    0    0  501    0  0.00000000000E+00  0.00000000000E+00 -0.11080442201E+04  0.11080442201E+04  0.50400001928E-02 0.  1.
    10030    2    1    2    0    0  0.00000000000E+00  0.00000000000E+00  0.86870800045E+02  0.23029592402E+04  0.23013202138E+04 0.  0.
        3    1    3    3  502    0 -0.10032347386E+03 -0.11192562457E+04  0.29103701906E+03  0.11608194948E+04  0.10100000352E+00 0. -1.
       -3    1    3    3    0  502  0.10032347386E+03  0.11192562457E+04 -0.20416621902E+03  0.11421397454E+04  0.10100000352E+00 0.  1.
</event>
<event>
 5   0  0.7348107E-06  0.2337136E+04  0.7818609E-02  0.8463421E-01
        2   -1    0    0  501    0  0.00000000000E+00  0.00000000000E+00  0.15893992071E+04  0.15893992071E+04  0.25500000920E-02 0. -1.
       -2   -1    0    0    0  501  0.00000000000E+00  0.00000000000E+00 -0.85916172829E+03  0.85916172830E+03  0.25500000920E-02 0.  1.
    10030    2    1    2    0    0  0.00000000000E+00  0.00000000000E+00  0.73023747878E+03  0.24485609354E+04  0.23371358281E+04 0.  0.
        3    1    3    3  502    0  0.89326407178E+03  0.40517566605E+03 -0.30035172696E+03  0.10258163541E+04  0.10100000352E+00 0.  1.
       -3    1    3    3    0  502 -0.89326407178E+03 -0.40517566605E+03  0.10305892057E+04  0.14227445813E+04  0.10100000352E+00 0. -1.
</event>
<event>
 5   0  0.7044981E-06  0.2300646E+04  0.7818609E-02  0.8477667E-01
       -2   -1    0    0    0  501  0.00000000000E+00  0.00000000000E+00  0.61773677253E+03  0.61773677254E+03  0.25500000920E-02 0.  1.
        2   -1    0    0  501    0  0.00000000000E+00  0.00000000000E+00 -0.21420819666E+04  0.21420819666E+04  0.25500000920E-02 0. -1.
    10030    2    1    2    0    0  0.00000000000E+00  0.00000000000E+00 -0.15243451940E+04  0.27598187391E+04  0.23006458228E+04 0.  0.
        4    1    3    3  502    0  0.55766285248E+03 -0.63413898977E+03  0.17482570966E+03  0.86237216852E+03  0.12699999809E+01 0.  1.
       -4    1    3    3    0  502 -0.55766285248E+03  0.63413898977E+03 -0.16991709037E+04  0.18974465706E+04  0.12699999809E+01 0. -1.
</event>
<event>
 5   0  0.7044981E-06  0.2298769E+04  0.7818609E-02  0.8478406E-01
       -2   -1    0    0    0  501  0.00000000000E+00  0.00000000000E+00  0.73189194003E+03  0.73189194003E+03  0.25500000920E-02 0.  1.
        2   -1    0    0  501    0  0.00000000000E+00  0.00000000000E+00 -0.18050276814E+04  0.18050276814E+04  0.25500000920E-02 0. -1.
    10030    2    1    2    0    0  0.00000000000E+00  0.00000000000E+00 -0.10731357414E+04  0.25369196215E+04  0.22987694200E+04 0.  0.
        4    1    3    3  502    0 -0.62901620825E+03 -0.90772346868E+03 -0.18504029842E+03  0.11197610507E+04  0.12699999809E+01 0.  1.
       -4    1    3    3    0  502  0.62901620825E+03  0.90772346868E+03 -0.88809544299E+03  0.14171585707E+04  0.12699999809E+01 0. -1.
</event>
<event>
 5   0  0.3195296E-06  0.2298347E+04  0.7818609E-02  0.8478573E-01
        1   -1    0    0  501    0  0.00000000000E+00  0.00000000000E+00  0.12991939139E+04  0.12991939139E+04  0.50400001928E-02 0. -1.
       -1   -1    0    0    0  501  0.00000000000E+00  0.00000000000E+00 -0.10164763957E+04  0.10164763958E+04  0.50400001928E-02 0.  1.
    10030    2    1    2    0    0  0.00000000000E+00  0.00000000000E+00  0.28271751816E+03  0.23156703097E+04  0.22983471861E+04 0.  0.
        2    1    3    3  502    0  0.49619842100E+03  0.40380550991E+03  0.11031891488E+04  0.12752639181E+04  0.25500000920E-02 0. -1.
       -2    1    3    3    0  502 -0.49619842100E+03 -0.40380550991E+03 -0.82047163065E+03  0.10404063915E+04  0.25500000920E-02 0.  1.
</event>
<event>
 5   0  0.7242214E-06  0.2300127E+04  0.7818609E-02  0.8477871E-01
       -2   -1    0    0    0  501  0.00000000000E+00  0.00000000000E+00  0.66149372003E+03  0.66149372004E+03  0.25500000920E-02 0. -1.
        2   -1    0    0  501    0  0.00000000000E+00  0.00000000000E+00 -0.19994833523E+04  0.19994833523E+04  0.25500000920E-02 0.  1.
    10030    2    1    2    0    0  0.00000000000E+00  0.00000000000E+00 -0.13379896323E+04  0.26609770723E+04  0.23001266755E+04 0.  0.
        1    1    3    3  502    0  0.11220304058E+04 -0.16931534260E+03 -0.45248221044E+03  0.12216219004E+04  0.50400001928E-02 0. -1.
       -1    1    3    3    0  502 -0.11220304058E+04  0.16931534260E+03 -0.88550742181E+03  0.14393551719E+04  0.50400001928E-02 0.  1.
</event>
<event>
 5   0  0.3184492E-06  0.2287183E+04  0.7818609E-02  0.8482992E-01
        1   -1    0    0  501    0  0.00000000000E+00  0.00000000000E+00  0.67420199015E+03  0.67420199017E+03  0.50400001928E-02 0.  1.
       -1   -1    0    0    0  501  0.00000000000E+00  0.00000000000E+00 -0.19397762675E+04  0.19397762675E+04  0.50400001928E-02 0. -1.
    10030    2    1    2    0    0  0.00000000000E+00  0.00000000000E+00 -0.12655742774E+04  0.26139782577E+04  0.22871825638E+04 0.  0.
        1    1    3    3  502    0  0.20307569929E+03 -0.58640475512E+03  0.46502801501E+03  0.77547490690E+03  0.50400001928E-02 0.  1.
       -1    1    3    3    0  502 -0.20307569929E+03  0.58640475512E+03 -0.17306022924E+04  0.18385033508E+04  0.50400001928E-02 0. -1.
</event>
<event>
 5   0  0.3338758E-06  0.2302039E+04  0.7818609E-02  0.8477118E-01
       -1   -1    0    0    0  501  0.00000000000E+00  0.00000000000E+00  0.11697905965E+04  0.11697905965E+04  0.50400001928E-02 0. -1.
        1   -1    0    0  501    0  0.00000000000E+00  0.00000000000E+00 -0.11325492157E+04  0.11325492158E+04  0.50400001928E-02 0.  1.
    10030    2    1    2    0    0  0.00000000000E+00  0.00000000000E+00  0.37241380714E+02  0.23023398122E+04  0.23020385945E+04 0.  0.
        5    1    3    3  502    0 -0.94269574052E+03  0.17612811771E+03  0.65519981886E+03  0.11614668595E+04  0.46999998093E+01 0. -1.
       -5    1    3    3    0  502  0.94269574052E+03 -0.17612811771E+03 -0.61795843815E+03  0.11408729528E+04  0.46999998093E+01 0.  1.
</event>
<event>
 5   0  0.7044981E-06  0.2303169E+04  0.7818609E-02  0.8476673E-01
       -2   -1    0    0    0  501  0.00000000000E+00  0.00000000000E+00  0.97505892777E+03  0.97505892777E+03  0.25500000920E-02 0. -1.
        2   -1    0    0  501    0  0.00000000000E+00  0.00000000000E+00 -0.13600679415E+04  0.13600679415E+04  0.25500000920E-02 0.  1.
    10030    2    1    2    0    0  0.00000000000E+00  0.00000000000E+00 -0.38500901376E+03  0.23351268693E+04  0.23031685902E+04 0.  0.
        4    1    3    3  502    0  0.83082742830E+03  0.48421505864E+03 -0.83486210315E+03  0.12734735108E+04  0.12699999809E+01 0.  1.
       -4    1    3    3    0  502 -0.83082742830E+03 -0.48421505864E+03  0.44985308939E+03  0.10616533585E+04  0.12699999809E+01 0. -1.
</event>
<event>
 5   0  0.3338758E-06  0.2293308E+04  0.7818609E-02  0.8480564E-01
        1   -1    0    0  501    0  0.00000000000E+00  0.00000000000E+00  0.11130995487E+04  0.11130995487E+04  0.50400001928E-02 0.  1.
       -1   -1    0    0    0  501  0.00000000000E+00  0.00000000000E+00 -0.11812199912E+04  0.11812199912E+04  0.50400001928E-02 0. -1.
    10030    2    1    2    0    0  0.00000000000E+00  0.00000000000E+00 -0.68120442554E+02  0.22943195399E+04  0.22933080379E+04 0.  0.
        5    1    3    3  502    0  0.73208585665E+03 -0.84717442617E+03  0.21331213785E+03  0.11398150587E+04  0.46999998093E+01 0. -1.
       -5    1    3    3    0  502 -0.73208585665E+03  0.84717442617E+03 -0.28143258040E+03  0.11545044812E+04  0.46999998093E+01 0.  1.
</event>
<event>
 5   0  0.3238713E-06  0.2301115E+04  0.7818609E-02  0.8477481E-01
        1   -1    0    0  501    0  0.00000000000E+00  0.00000000000E+00  0.20097891434E+04  0.20097891434E+04  0.50400001928E-02 0.  1.
       -1   -1    0    0    0  501  0.00000000000E+00  0.00000000000E+00 -0.65866761445E+03  0.65866761447E+03  0.50400001928E-02 0. -1.
    10030    2    1    2    0    0  0.00000000000E+00  0.00000000000E+00  0.13511215290E+04  0.26684567579E+04  0.23011153997E+04 0.  0.
        3    1    3    3  502    0 -0.26101867530E+03 -0.94898699630E+03 -0.15446152790E+02  0.98435037555E+03  0.10100000352E+00 0.  1.
       -3    1    3    3    0  502  0.26101867530E+03  0.94898699630E+03  0.13665676818E+04  0.16841063823E+04  0.10100000352E+00 0. -1.
</event>
<event>
 5   0  0.3226427E-06  0.2280115E+04  0.7818609E-02  0.8485803E-01
        1   -1    0    0  501    0  0.00000000000E+00  0.00000000000E+00  0.24830692346E+04  0.24830692346E+04  0.50400001928E-02 0. -1.
       -1   -1    0    0    0  501  0.00000000000E+00  0.00000000000E+00 -0.52343730877E+03  0.52343730880E+03  0.50400001928E-02 0.  1.
    10030    2    1    2    0    0  0.00000000000E+00  0.00000000000E+00  0.19596319258E+04  0.30065065434E+04  0.22801149775E+04 0.  0.
        4    1    3    3  502    0  0.72368525731E+03  0.37356241731E+01  0.21413579463E+04  0.22603428443E+04  0.12699999809E+01 0. -1.
       -4    1    3    3    0  502 -0.72368525731E+03 -0.37356241731E+01 -0.18172602045E+03  0.74616369916E+03  0.12699999809E+01 0.  1.
</event>
<event>
 5   0  0.7497344E-06  0.2301393E+04  0.7818609E-02  0.8477372E-01
       -2   -1    0    0    0  501  0.00000000000E+00  0.00000000000E+00  0.80697294076E+03  0.80697294077E+03  0.25500000920E-02 0. -1.
        2   -1    0    0  501    0  0.00000000000E+00  0.00000000000E+00 -0.16408266486E+04  0.16408266486E+04  0.25500000920E-02 0.  1.
    10030    2    1    2    0    0  0.00000000000E+00  0.00000000000E+00 -0.83385370780E+03  0.24477995893E+04  0.23013932353E+04 0.  0.
        5    1    3    3  502    0  0.23174252243E+03  0.87724655542E+03 -0.11696295518E+04  0.14803112829E+04  0.46999998093E+01 0.  1.
       -5    1    3    3    0  502 -0.23174252243E+03 -0.87724655542E+03  0.33577584402E+03  0.96748830646E+03  0.46999998093E+01 0. -1.
</event>
<event>
 5   0  0.7242214E-06  0.2298026E+04  0.7818609E-02  0.8478700E-01
        2   -1    0    0  501    0  0.00000000000E+00  0.00000000000E+00  0.21357648973E+04  0.21357648973E+04  0.25500000920E-02 0.  1.
       -2   -1    0    0    0  501  0.00000000000E+00  0.00000000000E+00 -0.61815346991E+03  0.61815346991E+03  0.25500000920E-02 0. -1.
    10030    2    1    2    0    0  0.00000000000E+00  0.00000000000E+00  0.15176114274E+04  0.27539183673E+04  0.22980256589E+04 0.  0.
        1    1    3    3  502    0  0.66750275293E+03  0.45934356217E+03  0.17350839482E+04  0.19149602452E+04  0.50400001928E-02 0.  1.
       -1    1    3    3    0  502 -0.66750275293E+03 -0.45934356217E+03 -0.21747252077E+03  0.83895812207E+03  0.50400001928E-02 0. -1.
</event>
<event>
 5   0  0.3195296E-06  0.2306901E+04  0.7818609E-02  0.8475205E-01
       -1   -1    0    0    0  501  0.00000000000E+00  0.00000000000E+00  0.12496195549E+04  0.12496195549E+04  0.50400001928E-02 0. -1.
        1   -1    0    0  501    0  0.00000000000E+00  0.00000000000E+00 -0.10646824073E+04  0.10646824073E+04  0.50400001928E-02 0.  1.
    10030    2    1    2    0    0  0.00000000000E+00  0.00000000000E+00  0.18493714761E+03  0.23143019623E+04  0.23069009133E+04 0.  0.
        2    1    3    3  502    0 -0.54885475062E+03 -0.47625934187E+03  0.99110095930E+03  0.12289611912E+04  0.25500000920E-02 0. -1.
       -2    1    3    3    0  502  0.54885475062E+03  0.47625934187E+03 -0.80616381168E+03  0.10853407710E+04  0.25500000920E-02 0.  1.
</event>
<event>
 5   0  0.3338758E-06  0.2299083E+04  0.7818609E-02  0.8478283E-01
       -1   -1    0    0    0  501  0.00000000000E+00  0.00000000000E+00  0.63377587070E+03  0.63377587072E+03  0.50400001928E-02 0. -1.
        1   -1    0    0  501    0  0.00000000000E+00  0.00000000000E+00 -0.20850370124E+04  0.20850370124E+04  0.50400001928E-02 0.  1.
    10030    2    1    2    0    0  0.00000000000E+00  0.00000000000E+00 -0.14512611417E+04  0.27188128832E+04  0.22990834244E+04 0.  0.
        5    1    3    3  502    0  0.28362718695E+03  0.70757266893E+03  0.29186963193E+03  0.81628024295E+03  0.46999998093E+01 0. -1.
       -5    1    3    3    0  502 -0.28362718695E+03 -0.70757266893E+03 -0.17431307737E+04  0.19025326402E+04  0.46999998093E+01 0.  1.
</event>
<event>
 5   0  0.7348107E-06  0.2300886E+04  0.7818609E-02  0.8477572E-01
       -2   -1    0    0    0  501  0.00000000000E+00  0.00000000000E+00  0.70938891412E+03  0.70938891412E+03  0.25500000920E-02 0.  1.
        2   -1    0    0  501    0  0.00000000000E+00  0.00000000000E+00 -0.18657175882E+04  0.18657175882E+04  0.25500000920E-02 0. -1.
    10030    2    1    2    0    0  0.00000000000E+00  0.00000000000E+00 -0.11563286741E+04  0.25751065023E+04  0.23008862414E+04 0.  0.
        3    1    3    3  502    0 -0.74012650493E+03 -0.60114847712E+03  0.14225456253E+03  0.96405555110E+03  0.10100000352E+00 0.  1.
       -3    1    3    3    0  502  0.74012650493E+03  0.60114847712E+03 -0.12985832366E+04  0.16110509512E+04  0.10100000352E+00 0. -1.
</event>
<event>
 5   0  0.7242214E-06  0.2301649E+04  0.7818609E-02  0.8477271E-01
       -2   -1    0    0    0  501  0.00000000000E+00  0.00000000000E+00  0.92009906500E+03  0.92009906501E+03  0.25500000920E-02 0.  1.
        2   -1    0    0  501    0  0.00000000000E+00  0.00000000000E+00 -0.14394075763E+04  0.14394075763E+04  0.25500000920E-02 0. -1.
    10030    2    1    2    0    0  0.00000000000E+00  0.00000000000E+00 -0.51930851131E+03  0.23595066413E+04  0.23016494652E+04 0.  0.
        1    1    3    3  502    0 -0.41227146895E+03 -0.66356083501E+03  0.60664242945E+03  0.98908835960E+03  0.50400001928E-02 0.  1.
       -1    1    3    3    0  502  0.41227146895E+03  0.66356083501E+03 -0.11259509408E+04  0.13704182817E+04  0.50400001928E-02 0. -1.
</event>
<event>
 5   0  0.2519625E-06  0.2298078E+04  0.7818609E-02  0.8478679E-01
       -3   -1    0    0    0  501  0.00000000000E+00  0.00000000000E+00  0.20824231833E+04  0.20824231858E+04  0.10100000352E+00 0.  1.
        3   -1    0    0  501    0  0.00000000000E+00  0.00000000000E+00 -0.63401635345E+03  0.63401636150E+03  0.10100000352E+00 0. -1.
    10030    2    1    2    0    0  0.00000000000E+00  0.00000000000E+00  0.14484068299E+04  0.27164395473E+04  0.22980777770E+04 0.  0.
        1    1    3    3  502    0 -0.22917657334E+03  0.60362639679E+02  0.20532196927E+04  0.20668518710E+04  0.50400001928E-02 0.  1.
       -1    1    3    3    0  502  0.22917657334E+03 -0.60362639679E+02 -0.60481286286E+03  0.64958767626E+03  0.50400001928E-02 0. -1.
</event>
<event>
 5   0  0.3195296E-06  0.2309051E+04  0.7818609E-02  0.8474361E-01
       -1   -1    0    0    0  501  0.00000000000E+00  0.00000000000E+00  0.10036490802E+04  0.10036490802E+04  0.50400001928E-02 0. -1.
        1   -1    0    0  501    0  0.00000000000E+00  0.00000000000E+00 -0.13280824469E+04  0.13280824469E+04  0.50400001928E-02 0.  1.
    10030    2    1    2    0    0  0.00000000000E+00  0.00000000000E+00 -0.32443336672E+03  0.23317315271E+04  0.23090506502E+04 0.  0.
        2    1    3    3  502    0 -0.68118311397E+03  0.39914421731E+03 -0.10128699174E+04  0.12842242836E+04  0.25500000920E-02 0.  1.
       -2    1    3    3    0  502  0.68118311397E+03 -0.39914421731E+03  0.68843655068E+03  0.10475072435E+04  0.25500000920E-02 0. -1.
</event>
<event>
 5   0  0.3338758E-06  0.2299578E+04  0.7818609E-02  0.8478088E-01
        1   -1    0    0  501    0  0.00000000000E+00  0.00000000000E+00  0.11427836640E+04  0.11427836640E+04  0.50400001928E-02 0.  1.
       -1   -1    0    0    0  501  0.00000000000E+00  0.00000000000E+00 -0.11568368394E+04  0.11568368394E+04  0.50400001928E-02 0. -1.
    10030    2    1    2    0    0  0.00000000000E+00  0.00000000000E+00 -0.14053175320E+02  0.22996205034E+04  0.22995775629E+04 0.  0.
        5    1    3    3  502    0 -0.11196912409E+04  0.87012882733E+02  0.23937694859E+03  0.11483044589E+04  0.46999998093E+01 0.  1.
       -5    1    3    3    0  502  0.11196912409E+04 -0.87012882733E+02 -0.25343012391E+03  0.11513160445E+04  0.46999998093E+01 0. -1.
</event>
<event>
 5   0  0.3195296E-06  0.2294142E+04  0.7818609E-02  0.8480234E-01
       -1   -1    0    0    0  501  0.00000000000E+00  0.00000000000E+00  0.59683478858E+03  0.59683478860E+03  0.50400001928E-02 0.  1.
        1   -1    0    0  501    0  0.00000000000E+00  0.00000000000E+00 -0.22045831685E+04  0.22045831685E+04  0.50400001928E-02 0. -1.
    10030    2    1    2    0    0  0.00000000000E+00  0.00000000000E+00 -0.16077483799E+04  0.28014179571E+04  0.22941420438E+04 0.  0.
        2    1    3    3  502    0  0.12088412601E+03 -0.57572599836E+03  0.39860058075E+03  0.71060243462E+03  0.25500000920E-02 0.  1.
       -2    1    3    3    0  502 -0.12088412601E+03  0.57572599836E+03 -0.20063489606E+04  0.20908155224E+04  0.25500000920E-02 0. -1.
</event>
<event>
 5   0  0.3338758E-06  0.2300164E+04  0.7818609E-02  0.8477856E-01
        1   -1    0    0  501    0  0.00000000000E+00  0.00000000000E+00  0.73416889857E+03  0.73416889859E+03  0.50400001928E-02 0.  1.
       -1   -1    0    0    0  501  0.00000000000E+00  0.00000000000E+00 -0.18016139152E+04  0.18016139152E+04  0.50400001928E-02 0. -1.
    10030    2    1    2    0    0  0.00000000000E+00  0.00000000000E+00 -0.10674450166E+04  0.25357828138E+04  0.23001642583E+04 0.  0.
        5    1    3    3  502    0 -0.20653163255E+03  0.10308848096E+04 -0.19831424724E+02  0.10515674878E+04  0.46999998093E+01 0.  1.
       -5    1    3    3    0  502  0.20653163255E+03 -0.10308848096E+04 -0.10476135919E+04  0.14842153260E+04  0.46999998093E+01 0. -1.
</event>
<event>
 5   0  0.3195296E-06  0.2304109E+04  0.7818609E-02  0.8476303E-01
       -1   -1    0    0    0  501  0.00000000000E+00  0.00000000000E+00  0.68228591594E+03  0.68228591596E+03  0.50400001928E-02 0. -1.
        1   -1    0    0  501    0  0.00000000000E+00  0.00000000000E+00 -0.19452694743E+04  0.19452694743E+04  0.50400001928E-02 0.  1.
    10030    2    1    2    0    0  0.00000000000E+00  0.00000000000E+00 -0.12629835584E+04  0.26275553903E+04  0.23041093421E+04 0.  0.
        2    1    3    3  502    0  0.50247725499E+03  0.90347057022E+03 -0.51704650213E+02  0.10350921862E+04  0.25500000920E-02 0. -1.
       -2    1    3    3    0  502 -0.50247725499E+03 -0.90347057022E+03 -0.12112789081E+04  0.15924632041E+04  0.25500000920E-02 0.  1.
</event>
<event>
 5   0  0.7348107E-06  0.2237294E+04  0.7818609E-02  0.8503064E-01
       -2   -1    0    0    0  501  0.00000000000E+00  0.00000000000E+00  0.68714473751E+03  0.68714473751E+03  0.25500000920E-02 0.  1.
        2   -1    0    0  501    0  0.00000000000E+00  0.00000000000E+00 -0.18211178745E+04  0.18211178745E+04  0.25500000920E-02 0. -1.
    10030    2    1    2    0    0  0.00000000000E+00  0.00000000000E+00 -0.11339731370E+04  0.25082626120E+04  0.22372944052E+04 0.  0.
        3    1    3    3  502    0  0.39867017139E+03 -0.73487736030E+03 -0.14002308558E+04  0.16308369324E+04  0.10100000352E+00 0. -1.
       -3    1    3    3    0  502 -0.39867017139E+03  0.73487736030E+03  0.26625771882E+03  0.87742567963E+03  0.10100000352E+00 0.  1.
</event>
<event>
 5   0  0.7003852E-06  0.2298324E+04  0.7818609E-02  0.8478582E-01
        2   -1    0    0  501    0  0.00000000000E+00  0.00000000000E+00  0.11350519202E+04  0.11350519202E+04  0.25500000920E-02 0.  1.
       -2   -1    0    0    0  501  0.00000000000E+00  0.00000000000E+00 -0.11634472203E+04  0.11634472203E+04  0.25500000920E-02 0. -1.
    10030    2    1    2    0    0  0.00000000000E+00  0.00000000000E+00 -0.28395300043E+02  0.22984991405E+04  0.22983237382E+04 0.  0.
        2    1    3    3  502    0 -0.28473709645E+03  0.11323807708E+03 -0.11218357524E+04  0.11629331587E+04  0.25500000920E-02 0. -1.
       -2    1    3    3    0  502  0.28473709645E+03 -0.11323807708E+03  0.10934404524E+04  0.11355659818E+04  0.25500000920E-02 0.  1.
</event>
<event>
 5   0  0.7242214E-06  0.2292511E+04  0.7818609E-02  0.8480880E-01
       -2   -1    0    0    0  501  0.00000000000E+00  0.00000000000E+00  0.99528081377E+03  0.99528081378E+03  0.25500000920E-02 0. -1.
        2   -1    0    0  501    0  0.00000000000E+00  0.00000000000E+00 -0.13201316456E+04  0.13201316456E+04  0.25500000920E-02 0.  1.
    10030    2    1    2    0    0  0.00000000000E+00  0.00000000000E+00 -0.32485083185E+03  0.23154124594E+04  0.22925110238E+04 0.  0.
        1    1    3    3  502    0  0.66989663105E+03  0.61545739769E+03  0.54193097932E+03  0.10588854948E+04  0.50400001928E-02 0. -1.
       -1    1    3    3    0  502 -0.66989663105E+03 -0.61545739769E+03 -0.86678181116E+03  0.12565269646E+04  0.50400001928E-02 0.  1.
</event>
<event>
 5   0  0.3195296E-06  0.2297097E+04  0.7818609E-02  0.8479067E-01
        1   -1    0    0  501    0  0.00000000000E+00  0.00000000000E+00  0.14211028283E+04  0.14211028283E+04  0.50400001928E-02 0.  1.
       -1   -1    0    0    0  501  0.00000000000E+00  0.00000000000E+00 -0.92826743856E+03  0.92826743858E+03  0.50400001928E-02 0. -1.
    10030    2    1    2    0    0  0.00000000000E+00  0.00000000000E+00  0.49283538970E+03  0.23493702669E+04  0.22970968481E+04 0.  0.
        2    1    3    3  502    0 -0.11375128040E+04  0.14897113137E+03  0.19006665309E+03  0.11628641838E+04  0.25500000920E-02 0.  1.
       -2    1    3    3    0  502  0.11375128040E+04 -0.14897113137E+03  0.30276873661E+03  0.11865060831E+04  0.25500000920E-02 0. -1.
</event>
<event>
 5   0  0.7044981E-06  0.2302201E+04  0.7818609E-02  0.8477054E-01
       -2   -1    0    0    0  501  0.00000000000E+00  0.00000000000E+00  0.12319848207E+04  0.12319848207E+04  0.25500000920E-02 0.  1.
        2   -1    0    0  501    0  0.00000000000E+00  0.00000000000E+00 -0.10755268133E+04  0.10755268133E+04  0.25500000920E-02 0. -1.
    10030    2    1    2    0    0  0.00000000000E+00  0.00000000000E+00  0.15645800735E+03  0.23075116340E+04  0.23022013016E+04 0.  0.
        4    1    3    3  502    0  0.10826185887E+04 -0.22440872413E+03  0.39929397973E+03  0.11755252355E+04  0.12699999809E+01 0. -1.
       -4    1    3    3    0  502 -0.10826185887E+04  0.22440872413E+03 -0.24283597238E+03  0.11319863985E+04  0.12699999809E+01 0.  1.
</event>
<event>
 5   0  0.3184492E-06  0.2300806E+04  0.7818609E-02  0.8477603E-01
       -1   -1    0    0    0  501  0.00000000000E+00  0.00000000000E+00  0.98026358134E+03  0.98026358136E+03  0.50400001928E-02 0.  1.
        1   -1    0    0  501    0  0.00000000000E+00  0.00000000000E+00 -0.13500727210E+04  0.13500727210E+04  0.50400001928E-02 0. -1.
    10030    2    1    2    0    0  0.00000000000E+00  0.00000000000E+00 -0.36980913964E+03  0.23303363023E+04  0.23008060506E+04 0.  0.
        1    1    3    3  502    0  0.60418383867E+03  0.56174851985E+03  0.62715118958E+03  0.10363002099E+04  0.50400001928E-02 0.  1.
       -1    1    3    3    0  502 -0.60418383867E+03 -0.56174851985E+03 -0.99696032922E+03  0.12940360924E+04  0.50400001928E-02 0. -1.
</event>
<event>
 5   0  0.3226427E-06  0.2294480E+04  0.7818609E-02  0.8480101E-01
        1   -1    0    0  501    0  0.00000000000E+00  0.00000000000E+00  0.12675440855E+04  0.12675440855E+04  0.50400001928E-02 0. -1.
       -1   -1    0    0    0  501  0.00000000000E+00  0.00000000000E+00 -0.10383538479E+04  0.10383538479E+04  0.50400001928E-02 0.  1.
    10030    2    1    2    0    0  0.00000000000E+00  0.00000000000E+00  0.22919023757E+03  0.23058979334E+04  0.22944797045E+04 0.  0.
        4    1    3    3  502    0  0.37566251395E+03 -0.10106245507E+04  0.50855786072E+03  0.11921061267E+04  0.12699999809E+01 0. -1.
       -4    1    3    3    0  502 -0.37566251395E+03  0.10106245507E+04 -0.27936762315E+03  0.11137918067E+04  0.12699999809E+01 0.  1.
</event>
<event>
 5   0  0.7348107E-06  0.2301356E+04  0.7818609E-02  0.8477387E-01
        2   -1    0    0  501    0  0.00000000000E+00  0.00000000000E+00  0.22093198091E+04  0.22093198091E+04  0.25500000920E-02 0. -1.
       -2   -1    0    0    0  501  0.00000000000E+00  0.00000000000E+00 -0.59930654676E+03  0.59930654677E+03  0.25500000920E-02 0.  1.
    10030    2    1    2    0    0  0.00000000000E+00  0.00000000000E+00  0.16100132623E+04  0.28086263558E+04  0.23013559703E+04 0.  0.
        3    1    3    3  502    0  0.55491135105E+03  0.33519199568E+03 -0.35521622905E+03  0.73922855808E+03  0.10100000352E+00 0.  1.
       -3    1    3    3    0  502 -0.55491135105E+03 -0.33519199568E+03  0.19652294914E+04  0.20693977978E+04  0.10100000352E+00 0. -1.
</event>
<event>
 5   0  0.3338758E-06  0.2298164E+04  0.7818609E-02  0.8478645E-01
       -1   -1    0    0    0  501  0.00000000000E+00  0.00000000000E+00  0.11995032629E+04  0.11995032629E+04  0.50400001928E-02 0. -1.
        1   -1    0    0  501    0  0.00000000000E+00  0.00000000000E+00 -0.11007800937E+04  0.11007800937E+04  0.50400001928E-02 0.  1.
    10030    2    1    2    0    0  0.00000000000E+00  0.00000000000E+00  0.98723169263E+02  0.23002833566E+04  0.22981638881E+04 0.  0.
        5    1    3    3  502    0 -0.10318845679E+04  0.32695636755E+03 -0.33658577361E+03  0.11335776553E+04  0.46999998093E+01 0.  1.
       -5    1    3    3    0  502  0.10318845679E+04 -0.32695636755E+03  0.43530894287E+03  0.11667057013E+04  0.46999998093E+01 0. -1.
</event>
<event>
 5   0  0.7348107E-06  0.2307170E+04  0.7818609E-02  0.8475100E-01
        2   -1    0    0  501    0  0.00000000000E+00  0.00000000000E+00  0.13565865948E+04  0.13565865948E+04  0.25500000920E-02 0.  1.
       -2   -1    0    0    0  501  0.00000000000E+00  0.00000000000E+00 -0.98096054231E+03  0.98096054232E+03  0.25500000920E-02 0. -1.
    10030    2    1    2    0    0  0.00000000000E+00  0.00000000000E+00  0.37562605247E+03  0.23375471371E+04  0.23071696268E+04 0.  0.
        3    1    3    3  502    0  0.43068350247E+03 -0.84023419425E+03  0.85931865029E+03  0.12766794169E+04  0.10100000352E+00 0.  1.
       -3    1    3    3    0  502 -0.43068350247E+03  0.84023419425E+03 -0.48369259782E+03  0.10608677203E+04  0.10100000352E+00 0. -1.
</event>
<event>
 5   0  0.3226427E-06  0.2295174E+04  0.7818609E-02  0.8479826E-01
        1   -1    0    0  501    0  0.00000000000E+00  0.00000000000E+00  0.13434849666E+04  0.13434849666E+04  0.50400001928E-02 0. -1.
       -1   -1    0    0    0  501  0.00000000000E+00  0.00000000000E+00 -0.98025343097E+03  0.98025343098E+03  0.50400001928E-02 0.  1.
    10030    2    1    2    0    0  0.00000000000E+00  0.00000000000E+00  0.36323153559E+03  0.23237383976E+04  0.22951738478E+04 0.  0.
        4    1    3    3  502    0  0.45804454292E+03 -0.23037732097E+02  0.12466673192E+04  0.13283510674E+04  0.12699999809E+01 0. -1.
       -4    1    3    3    0  502 -0.45804454292E+03  0.23037732097E+02 -0.88343578364E+03  0.99538733020E+03  0.12699999809E+01 0.  1.
</event>
<event>
 5   0  0.3338758E-06  0.2301588E+04  0.7818609E-02  0.8477295E-01
        1   -1    0    0  501    0  0.00000000000E+00  0.00000000000E+00  0.14404884908E+04  0.14404884908E+04  0.50400001928E-02 0. -1.
       -1   -1    0    0    0  501  0.00000000000E+00  0.00000000000E+00 -0.91935986033E+03  0.91935986034E+03  0.50400001928E-02 0.  1.
    10030    2    1    2    0    0  0.00000000000E+00  0.00000000000E+00  0.52112863050E+03  0.23598483512E+04  0.23015884061E+04 0.  0.
        5    1    3    3  502    0 -0.62017471976E+03 -0.29083652622E+03  0.12086892267E+04  0.13892999333E+04  0.46999998093E+01 0.  1.
       -5    1    3    3    0  502  0.62017471976E+03  0.29083652622E+03 -0.68756059617E+03  0.97054841787E+03  0.46999998093E+01 0. -1.
</event>
<event>
 5   0  0.7497344E-06  0.2300905E+04  0.7818609E-02  0.8477564E-01
       -2   -1    0    0    0  501  0.00000000000E+00  0.00000000000E+00  0.80507653571E+03  0.80507653572E+03  0.25500000920E-02 0.  1.
        2   -1    0    0  501    0  0.00000000000E+00  0.00000000000E+00 -0.16439935255E+04  0.16439935255E+04  0.25500000920E-02 0. -1.
    10030    2    1    2    0    0  0.00000000000E+00  0.00000000000E+00 -0.83891698979E+03  0.24490700612E+04  0.23009047023E+04 0.  0.
        5    1    3    3  502    0 -0.35701253449E+03 -0.10694074643E+04 -0.66317517233E+03  0.13080189883E+04  0.46999998093E+01 0. -1.
       -5    1    3    3    0  502  0.35701253449E+03  0.10694074643E+04 -0.17574181746E+03  0.11410510729E+04  0.46999998093E+01 0.  1.
</event>
<event>
 5   0  0.3184492E-06  0.2316531E+04  0.7818609E-02  0.8471432E-01
       -1   -1    0    0    0  501  0.00000000000E+00  0.00000000000E+00  0.73004268724E+03  0.73004268726E+03  0.50400001928E-02 0. -1.
        1   -1    0    0  501    0  0.00000000000E+00  0.00000000000E+00 -0.18376715046E+04  0.18376715046E+04  0.50400001928E-02 0.  1.
    10030    2    1    2    0    0  0.00000000000E+00  0.00000000000E+00 -0.11076288173E+04  0.25677141918E+04  0.23165307194E+04 0.  0.
        1    1    3    3  502    0  0.28523025579E+03  0.96773735128E+03  0.76829934642E+02  0.10118175323E+04  0.50400001928E-02 0. -1.
       -1    1    3    3    0  502 -0.28523025579E+03 -0.96773735128E+03 -0.11844587520E+04  0.15558966595E+04  0.50400001928E-02 0.  1.
</event>
<event>
 5   0  0.7497344E-06  0.2298544E+04  0.7818609E-02  0.8478495E-01
       -2   -1    0    0    0  501  0.00000000000E+00  0.00000000000E+00  0.65270922777E+03  0.65270922777E+03  0.25500000920E-02 0. -1.
        2   -1    0    0  501    0  0.00000000000E+00  0.00000000000E+00 -0.20236062457E+04  0.20236062457E+04  0.25500000920E-02 0.  1.
    10030    2    1    2    0    0  0.00000000000E+00  0.00000000000E+00 -0.13708970180E+04  0.26763154735E+04  0.22985442958E+04 0.  0.
        5    1    3    3  502    0 -0.95958473843E+03 -0.62909879146E+03 -0.60966517681E+03  0.12993390156E+04  0.46999998093E+01 0. -1.
       -5    1    3    3    0  502  0.95958473843E+03  0.62909879146E+03 -0.76123184116E+03  0.13769764579E+04  0.46999998093E+01 0.  1.
</event>
<event>
 5   0  0.3195296E-06  0.2296434E+04  0.7818609E-02  0.8479328E-01
        1   -1    0    0  501    0  0.00000000000E+00  0.00000000000E+00  0.89145402619E+03  0.89145402621E+03  0.50400001928E-02 0.  1.
       -1   -1    0    0    0  501  0.00000000000E+00  0.00000000000E+00 -0.14789347838E+04  0.14789347838E+04  0.50400001928E-02 0. -1.
    10030    2    1    2    0    0  0.00000000000E+00  0.00000000000E+00 -0.58748075757E+03  0.23703888100E+04  0.22964340770E+04 0.  0.
        2    1    3    3  502    0  0.18862132603E+03  0.97339176432E+03  0.30398768455E+03  0.10370525753E+04  0.25500000920E-02 0. -1.
       -2    1    3    3    0  502 -0.18862132603E+03 -0.97339176432E+03 -0.89146844212E+03  0.13333362347E+04  0.25500000920E-02 0.  1.
</event>
<event>
 5   0  0.3238713E-06  0.2311564E+04  0.7818609E-02  0.8473375E-01
        1   -1    0    0  501    0  0.00000000000E+00  0.00000000000E+00  0.17458601290E+04  0.17458601290E+04  0.50400001928E-02 0. -1.
       -1   -1    0    0    0  501  0.00000000000E+00  0.00000000000E+00 -0.76514273398E+03  0.76514273400E+03  0.50400001928E-02 0.  1.
    10030    2    1    2    0    0  0.00000000000E+00  0.00000000000E+00  0.98071739498E+03  0.25110028630E+04  0.23115641391E+04 0.  0.
        3    1    3    3  502    0  0.45648813388E+03 -0.61398005654E+03 -0.45068676662E+03  0.88795917587E+03  0.10100000352E+00 0.  1.
       -3    1    3    3    0  502 -0.45648813388E+03  0.61398005654E+03  0.14314041616E+04  0.16230436871E+04  0.10100000352E+00 0. -1.
</event>
<event>
 5   0  0.3338758E-06  0.2275811E+04  0.7818609E-02  0.8487520E-01
        1   -1    0    0  501    0  0.00000000000E+00  0.00000000000E+00  0.10477427685E+04  0.10477427685E+04  0.50400001928E-02 0.  1.
       -1   -1    0    0    0  501  0.00000000000E+00  0.00000000000E+00 -0.12358273203E+04  0.12358273203E+04  0.50400001928E-02 0. -1.
    10030    2    1    2    0    0  0.00000000000E+00  0.00000000000E+00 -0.18808455181E+03  0.22835700888E+04  0.22758111854E+04 0.  0.
        5    1    3    3  502    0 -0.77466681936E+03  0.21239349339E+02  0.74201340925E+03  0.10729239397E+04  0.46999998093E+01 0.  1.
       -5    1    3    3    0  502  0.77466681936E+03 -0.21239349339E+02 -0.93009796105E+03  0.12106461490E+04  0.46999998093E+01 0. -1.
</event>
<event>
 5   0  0.7003852E-06  0.2299023E+04  0.7818609E-02  0.8478307E-01
       -2   -1    0    0    0  501  0.00000000000E+00  0.00000000000E+00  0.70270114800E+03  0.70270114800E+03  0.25500000920E-02 0.  1.
        2   -1    0    0  501    0  0.00000000000E+00  0.00000000000E+00 -0.18804243835E+04  0.18804243835E+04  0.25500000920E-02 0. -1.
    10030    2    1    2    0    0  0.00000000000E+00  0.00000000000E+00 -0.11777232355E+04  0.25831255315E+04  0.22990227254E+04 0.  0.
        2    1    3    3  502    0  0.34127044825E+03  0.94617233586E+03  0.36384420842E+02  0.10064946270E+04  0.25500000920E-02 0.  1.
       -2    1    3    3    0  502 -0.34127044825E+03 -0.94617233586E+03 -0.12141076564E+04  0.15766309046E+04  0.25500000920E-02 0. -1.
</event>
<event>
 5   0  0.7242214E-06  0.2300780E+04  0.7818609E-02  0.8477614E-01
        2   -1    0    0  501    0  0.00000000000E+00  0.00000000000E+00  0.11904226866E+04  0.11904226866E+04  0.25500000920E-02 0.  1.
       -2   -1    0    0    0  501  0.00000000000E+00  0.00000000000E+00 -0.11117037767E+04  0.11117037767E+04  0.25500000920E-02 0. -1.
    10030    2    1    2    0    0  0.00000000000E+00  0.00000000000E+00  0.78718909862E+02  0.23021264633E+04  0.23007802125E+04 0.  0.
        1    1    3    3  502    0 -0.89302293172E+02  0.83501223815E+03 -0.74734296411E+03  0.11241627300E+04  0.50400001928E-02 0. -1.
       -1    1    3    3    0  502  0.89302293172E+02 -0.83501223815E+03  0.82606187397E+03  0.11779637333E+04  0.50400001928E-02 0.  1.
</event>
<event>
 5   0  0.3184492E-06  0.2299329E+04  0.7818609E-02  0.8478186E-01
       -1   -1    0    0    0  501  0.00000000000E+00  0.00000000000E+00  0.11034956033E+04  0.11034956034E+04  0.50400001928E-02 0. -1.
        1   -1    0    0  501    0  0.00000000000E+00  0.00000000000E+00 -0.11977655580E+04  0.11977655580E+04  0.50400001928E-02 0.  1.
    10030    2    1    2    0    0  0.00000000000E+00  0.00000000000E+00 -0.94269954630E+02  0.23012611613E+04  0.22993294910E+04 0.  0.
        1    1    3    3  502    0  0.25387180187E+03  0.89113700744E+03  0.63399018534E+03  0.11227286462E+04  0.50400001928E-02 0. -1.
       -1    1    3    3    0  502 -0.25387180187E+03 -0.89113700744E+03 -0.72826013997E+03  0.11785325152E+04  0.50400001928E-02 0.  1.
</event>
<event>
 5   0  0.3238713E-06  0.2301388E+04  0.7818609E-02  0.8477374E-01
        1   -1    0    0  501    0  0.00000000000E+00  0.00000000000E+00  0.12435008862E+04  0.12435008863E+04  0.50400001928E-02 0.  1.
       -1   -1    0    0    0  501  0.00000000000E+00  0.00000000000E+00 -0.10648137912E+04  0.10648137912E+04  0.50400001928E-02 0. -1.
    10030    2    1    2    0    0  0.00000000000E+00  0.00000000000E+00  0.17868709503E+03  0.23083146775E+04  0.23013881838E+04 0.  0.
        3    1    3    3  502    0 -0.62029715333E+03 -0.59939551787E+03 -0.67456100664E+03  0.10950233363E+04  0.10100000352E+00 0. -1.
       -3    1    3    3    0  502  0.62029715333E+03  0.59939551787E+03  0.85324810167E+03  0.12132913411E+04  0.10100000352E+00 0.  1.
</event>
<event>
 5   0  0.3238713E-06  0.2293562E+04  0.7818609E-02  0.8480464E-01
        1   -1    0    0  501    0  0.00000000000E+00  0.00000000000E+00  0.12181772816E+04  0.12181772816E+04  0.50400001928E-02 0. -1.
       -1   -1    0    0    0  501  0.00000000000E+00  0.00000000000E+00 -0.10795693478E+04  0.10795693478E+04  0.50400001928E-02 0.  1.
    10030    2    1    2    0    0  0.00000000000E+00  0.00000000000E+00  0.13860793381E+03  0.22977466294E+04  0.22935621670E+04 0.  0.
        3    1    3    3  502    0  0.20688954328E+03 -0.91237938139E+03  0.73373899800E+03  0.11889543078E+04  0.10100000352E+00 0. -1.
       -3    1    3    3    0  502 -0.20688954328E+03  0.91237938139E+03 -0.59513106419E+03  0.11087923216E+04  0.10100000352E+00 0.  1.
</event>
<event>
 5   0  0.3195296E-06  0.2313611E+04  0.7818609E-02  0.8472574E-01
       -1   -1    0    0    0  501  0.00000000000E+00  0.00000000000E+00  0.81042190702E+03  0.81042190704E+03  0.50400001928E-02 0. -1.
        1   -1    0    0  501    0  0.00000000000E+00  0.00000000000E+00 -0.16512366968E+04  0.16512366968E+04  0.50400001928E-02 0.  1.
    10030    2    1    2    0    0  0.00000000000E+00  0.00000000000E+00 -0.84081478973E+03  0.24616586038E+04  0.23136105055E+04 0.  0.
        2    1    3    3  502    0  0.69305026238E+03  0.76433582596E+03  0.13620329804E+03  0.10407109394E+04  0.25500000920E-02 0. -1.
       -2    1    3    3    0  502 -0.69305026238E+03 -0.76433582596E+03 -0.97701808777E+03  0.14209476644E+04  0.25500000920E-02 0.  1.
</event>
<event>
 5   0  0.7242214E-06  0.2303455E+04  0.7818609E-02  0.8476560E-01
        2   -1    0    0  501    0  0.00000000000E+00  0.00000000000E+00  0.27324857946E+04  0.27324857946E+04  0.25500000920E-02 0. -1.
       -2   -1    0    0    0  501  0.00000000000E+00  0.00000000000E+00 -0.48544681191E+03  0.48544681191E+03  0.25500000920E-02 0.  1.
    10030    2    1    2    0    0  0.00000000000E+00  0.00000000000E+00  0.22470389827E+04  0.32179326065E+04  0.23034552460E+04 0.  0.
        1    1    3    3  502    0  0.89318994936E+03 -0.50364079588E+03  0.39087970281E+03  0.10973738101E+04  0.50400001928E-02 0.  1.
       -1    1    3    3    0  502 -0.89318994936E+03  0.50364079588E+03  0.18561592799E+04  0.21205587965E+04  0.50400001928E-02 0. -1.
</event>
<event>
 5   0  0.7348107E-06  0.2300325E+04  0.7818609E-02  0.8477793E-01
        2   -1    0    0  501    0  0.00000000000E+00  0.00000000000E+00  0.18508761497E+04  0.18508761497E+04  0.25500000920E-02 0.  1.
       -2   -1    0    0    0  501  0.00000000000E+00  0.00000000000E+00 -0.71472837655E+03  0.71472837655E+03  0.25500000920E-02 0. -1.
    10030    2    1    2    0    0  0.00000000000E+00  0.00000000000E+00  0.11361477731E+04  0.25656045262E+04  0.23003249385E+04 0.  0.
        3    1    3    3  502    0  0.41711664955E+03 -0.10555450182E+04  0.36027604317E+03  0.11907814335E+04  0.10100000352E+00 0. -1.
       -3    1    3    3    0  502 -0.41711664955E+03  0.10555450182E+04  0.77587172996E+03  0.13748230928E+04  0.10100000352E+00 0.  1.
</event>
<event>
 5   0  0.3238713E-06  0.2302815E+04  0.7818609E-02  0.8476812E-01
       -1   -1    0    0    0  501  0.00000000000E+00  0.00000000000E+00  0.12315445773E+04  0.12315445773E+04  0.50400001928E-02 0. -1.
        1   -1    0    0  501    0  0.00000000000E+00  0.00000000000E+00 -0.10764853947E+04  0.10764853947E+04  0.50400001928E-02 0.  1.
    10030    2    1    2    0    0  0.00000000000E+00  0.00000000000E+00  0.15505918261E+03  0.23080299720E+04  0.23028154511E+04 0.  0.
        3    1    3    3  502    0 -0.92269292830E+03 -0.59116483957E+02  0.76529241404E+03  0.12002205996E+04  0.10100000352E+00 0. -1.
       -3    1    3    3    0  502  0.92269292830E+03  0.59116483957E+02 -0.61023323143E+03  0.11078093724E+04  0.10100000352E+00 0.  1.
</event>
<event>
 5   0  0.7044981E-06  0.2275186E+04  0.7818609E-02  0.8487770E-01
       -2   -1    0    0    0  501  0.00000000000E+00  0.00000000000E+00  0.10307760874E+04  0.10307760874E+04  0.25500000920E-02 0. -1.
        2   -1    0    0  501    0  0.00000000000E+00  0.00000000000E+00 -0.12554791234E+04  0.12554791234E+04  0.25500000920E-02 0.  1.
    10030    2    1    2    0    0  0.00000000000E+00  0.00000000000E+00 -0.22470303600E+03  0.22862552109E+04  0.22751860220E+04 0.  0.
        4    1    3    3  502    0  0.79521227091E+03  0.41048038733E+03 -0.81809283723E+03  0.12124909102E+04  0.12699999809E+01 0.  1.
       -4    1    3    3    0  502 -0.79521227091E+03 -0.41048038733E+03  0.59338980123E+03  0.10737643006E+04  0.12699999809E+01 0. -1.
</event>
<event>
 5   0  0.3238713E-06  0.2298214E+04  0.7818609E-02  0.8478625E-01
        1   -1    0    0  501    0  0.00000000000E+00  0.00000000000E+00  0.12307081895E+04  0.12307081895E+04  0.50400001928E-02 0. -1.
       -1   -1    0    0    0  501  0.00000000000E+00  0.00000000000E+00 -0.10729166750E+04  0.10729166750E+04  0.50400001928E-02 0.  1.
    10030    2    1    2    0    0  0.00000000000E+00  0.00000000000E+00  0.15779151446E+03  0.23036248645E+04  0.22982143839E+04 0.  0.
        3    1    3    3  502    0 -0.11251897413E+04 -0.14248806378E+03 -0.10618054355E+03  0.11391352511E+04  0.10100000352E+00 0. -1.
       -3    1    3    3    0  502  0.11251897413E+04  0.14248806378E+03  0.26397205801E+03  0.11644896135E+04  0.10100000352E+00 0.  1.
</event>
<event>
 5   0  0.3238713E-06  0.2301229E+04  0.7818609E-02  0.8477437E-01
        1   -1    0    0  501    0  0.00000000000E+00  0.00000000000E+00  0.17572001726E+04  0.17572001726E+04  0.50400001928E-02 0.  1.
       -1   -1    0    0    0  501  0.00000000000E+00  0.00000000000E+00 -0.75342221036E+03  0.75342221038E+03  0.50400001928E-02 0. -1.
    10030    2    1    2    0    0  0.00000000000E+00  0.00000000000E+00  0.10037779622E+04  0.25106223830E+04  0.23012289222E+04 0.  0.
        3    1    3    3  502    0 -0.98920368194E+03  0.58746688294E+03  0.48388381166E+03  0.12481125015E+04  0.10100000352E+00 0. -1.
       -3    1    3    3    0  502  0.98920368194E+03 -0.58746688294E+03  0.51989415057E+03  0.12625098815E+04  0.10100000352E+00 0.  1.
</event>
<event>
 5   0  0.7348107E-06  0.2301312E+04  0.7818609E-02  0.8477404E-01
       -2   -1    0    0    0  501  0.00000000000E+00  0.00000000000E+00  0.95520101563E+03  0.95520101563E+03  0.25500000920E-02 0. -1.
        2   -1    0    0  501    0  0.00000000000E+00  0.00000000000E+00 -0.13861056447E+04  0.13861056447E+04  0.25500000920E-02 0.  1.
    10030    2    1    2    0    0  0.00000000000E+00  0.00000000000E+00 -0.43090462909E+03  0.23413066603E+04  0.23013122514E+04 0.  0.
        3    1    3    3  502    0 -0.56073467639E+03  0.99838672382E+03 -0.10030370387E+03  0.11494608609E+04  0.10100000352E+00 0. -1.
       -3    1    3    3    0  502  0.56073467639E+03 -0.99838672382E+03 -0.33060092522E+03  0.11918457994E+04  0.10100000352E+00 0.  1.
</event>
<event>
 5   0  0.3226427E-06  0.2300060E+04  0.7818609E-02  0.8477898E-01
       -1   -1    0    0    0  501  0.00000000000E+00  0.00000000000E+00  0.47176304940E+03  0.47176304943E+03  0.50400001928E-02 0. -1.
        1   -1    0    0  501    0  0.00000000000E+00  0.00000000000E+00 -0.28034591485E+04  0.28034591485E+04  0.50400001928E-02 0.  1.
    10030    2    1    2    0    0  0.00000000000E+00  0.00000000000E+00 -0.23316960991E+04  0.32752221979E+04  0.23000595095E+04 0.  0.
        4    1    3    3  502    0 -0.72460278775E+03  0.88279692952E+01  0.10575224567E+03  0.73233345098E+03  0.12699999809E+01 0. -1.
       -4    1    3    3    0  502  0.72460278775E+03 -0.88279692952E+01 -0.24374483447E+04  0.25428887469E+04  0.12699999809E+01 0.  1.
</event>
<event>
 5   0  0.3238713E-06  0.2302442E+04  0.7818609E-02  0.8476959E-01
       -1   -1    0    0    0  501  0.00000000000E+00  0.00000000000E+00  0.10862421168E+04  0.10862421168E+04  0.50400001928E-02 0.  1.
        1   -1    0    0  501    0  0.00000000000E+00  0.00000000000E+00 -0.12200874226E+04  0.12200874226E+04  0.50400001928E-02 0. -1.
    10030    2    1    2    0    0  0.00000000000E+00  0.00000000000E+00 -0.13384530579E+03  0.23063295394E+04  0.23024424810E+04 0.  0.
        3    1    3    3  502    0  0.51088574323E+03 -0.29589086603E+03 -0.10569001522E+04  0.12106170283E+04  0.10100000352E+00 0. -1.
       -3    1    3    3    0  502 -0.51088574323E+03  0.29589086603E+03  0.92305484645E+03  0.10957125111E+04  0.10100000352E+00 0.  1.
</event>
<event>
 5   0  0.7003852E-06  0.2269991E+04  0.7818609E-02  0.8489848E-01
       -2   -1    0    0    0  501  0.00000000000E+00  0.00000000000E+00  0.12320881332E+04  0.12320881332E+04  0.25500000920E-02 0. -1.
        2   -1    0    0  501    0  0.00000000000E+00  0.00000000000E+00 -0.10455542307E+04  0.10455542307E+04  0.25500000920E-02 0.  1.
    10030    2    1    2    0    0  0.00000000000E+00  0.00000000000E+00  0.18653390247E+03  0.22776423639E+04  0.22699911544E+04 0.  0.
        2    1    3    3  502    0  0.32612557268E+03 -0.76779681360E+03  0.86550069742E+03  0.12020654281E+04  0.25500000920E-02 0. -1.
       -2    1    3    3    0  502 -0.32612557268E+03  0.76779681360E+03 -0.67896679495E+03  0.10755769358E+04  0.25500000920E-02 0.  1.
</event>
<event>
 5   0  0.3226427E-06  0.2299545E+04  0.7818609E-02  0.8478100E-01
       -1   -1    0    0    0  501  0.00000000000E+00  0.00000000000E+00  0.45645206015E+03  0.45645206018E+03  0.50400001928E-02 0.  1.
        1   -1    0    0  501    0  0.00000000000E+00  0.00000000000E+00 -0.28962014480E+04  0.28962014480E+04  0.50400001928E-02 0. -1.
    10030    2    1    2    0    0  0.00000000000E+00  0.00000000000E+00 -0.24397493878E+04  0.33526535082E+04  0.22995452747E+04 0.  0.
        4    1    3    3  502    0  0.47428785680E+03  0.33532419646E+03  0.22680752046E+03  0.62356599657E+03  0.12699999809E+01 0.  1.
       -4    1    3    3    0  502 -0.47428785680E+03 -0.33532419646E+03 -0.26665569083E+04  0.27290875116E+04  0.12699999809E+01 0. -1.
</event>
<event>
 5   0  0.7242214E-06  0.2298429E+04  0.7818609E-02  0.8478541E-01
       -2   -1    0    0    0  501  0.00000000000E+00  0.00000000000E+00  0.11478866596E+04  0.11478866596E+04  0.25500000920E-02 0.  1.
        2   -1    0    0  501    0  0.00000000000E+00  0.00000000000E+00 -0.11505441311E+04  0.11505441311E+04  0.25500000920E-02 0. -1.
    10030    2    1    2    0    0  0.00000000000E+00  0.00000000000E+00 -0.26574714593E+01  0.22984307907E+04  0.22984292544E+04 0.  0.
        1    1    3    3  502    0  0.71916037049E+03  0.55184977912E+03  0.70504588809E+03  0.11483986771E+04  0.50400001928E-02 0.  1.
       -1    1    3    3    0  502 -0.71916037049E+03 -0.55184977912E+03 -0.70770335955E+03  0.11500321136E+04  0.50400001928E-02 0. -1.
</event>
<event>
 5   0  0.3195296E-06  0.2296858E+04  0.7818609E-02  0.8479161E-01
        1   -1    0    0  501    0  0.00000000000E+00  0.00000000000E+00  0.10817780720E+04  0.10817780721E+04  0.50400001928E-02 0.  1.
       -1   -1    0    0    0  501  0.00000000000E+00  0.00000000000E+00 -0.12191868356E+04  0.12191868356E+04  0.50400001928E-02 0. -1.
    10030    2    1    2    0    0  0.00000000000E+00  0.00000000000E+00 -0.13740876355E+03  0.23009649077E+04  0.22968583626E+04 0.  0.
        2    1    3    3  502    0 -0.47153307048E+03  0.31708497220E+03 -0.10684883353E+04  0.12101874395E+04  0.25500000920E-02 0. -1.
       -2    1    3    3    0  502  0.47153307048E+03 -0.31708497220E+03  0.93107957172E+03  0.10907774681E+04  0.25500000920E-02 0.  1.
</event>
<event>
 5   0  0.3226427E-06  0.2303223E+04  0.7818609E-02  0.8476652E-01
        1   -1    0    0  501    0  0.00000000000E+00  0.00000000000E+00  0.13918544872E+04  0.13918544872E+04  0.50400001928E-02 0.  1.
       -1   -1    0    0    0  501  0.00000000000E+00  0.00000000000E+00 -0.95283558456E+03  0.95283558458E+03  0.50400001928E-02 0. -1.
    10030    2    1    2    0    0  0.00000000000E+00  0.00000000000E+00  0.43901890261E+03  0.23446900718E+04  0.23032225111E+04 0.  0.
        4    1    3    3  502    0  0.90108821259E+03 -0.40248205264E+03 -0.38468703263E+03  0.10592155095E+04  0.12699999809E+01 0. -1.
       -4    1    3    3    0  502 -0.90108821259E+03  0.40248205264E+03  0.82370593524E+03  0.12854745623E+04  0.12699999809E+01 0.  1.
</event>
<event>
 5   0  0.7348107E-06  0.2301168E+04  0.7818609E-02  0.8477461E-01
       -2   -1    0    0    0  501  0.00000000000E+00  0.00000000000E+00  0.96081082449E+03  0.96081082449E+03  0.25500000920E-02 0.  1.
        2   -1    0    0  501    0  0.00000000000E+00  0.00000000000E+00 -0.13778401745E+04  0.13778401745E+04  0.25500000920E-02 0. -1.
    10030    2    1    2    0    0  0.00000000000E+00  0.00000000000E+00 -0.41702935000E+03  0.23386509990E+04  0.23011681851E+04 0.  0.
        3    1    3    3  502    0  0.14157242796E+03  0.88429362875E+03 -0.94265624499E+03  0.13002379708E+04  0.10100000352E+00 0. -1.
       -3    1    3    3    0  502 -0.14157242796E+03 -0.88429362875E+03  0.52562689499E+03  0.10384130282E+04  0.10100000352E+00 0.  1.
</event>
<event>
 5   0  0.3238713E-06  0.2299942E+04  0.7818609E-02  0.8477944E-01
       -1   -1    0    0    0  501  0.00000000000E+00  0.00000000000E+00  0.14206891160E+04  0.14206891160E+04  0.50400001928E-02 0.  1.
        1   -1    0    0  501    0  0.00000000000E+00  0.00000000000E+00 -0.93083930496E+03  0.93083930497E+03  0.50400001928E-02 0. -1.
    10030    2    1    2    0    0  0.00000000000E+00  0.00000000000E+00  0.48984981105E+03  0.23515284210E+04  0.22999419726E+04 0.  0.
        3    1    3    3  502    0 -0.87332045379E+03  0.27834962848E+03  0.95495496223E+03  0.13236714550E+04  0.10100000352E+00 0.  1.
       -3    1    3    3    0  502  0.87332045379E+03 -0.27834962848E+03 -0.46510515118E+03  0.10278569660E+04  0.10100000352E+00 0. -1.
</event>
<event>
 5   0  0.7003852E-06  0.2299606E+04  0.7818609E-02  0.8478076E-01
        2   -1    0    0  501    0  0.00000000000E+00  0.00000000000E+00  0.12740712759E+04  0.12740712759E+04  0.25500000920E-02 0.  1.
       -2   -1    0    0    0  501  0.00000000000E+00  0.00000000000E+00 -0.10376557174E+04  0.10376557174E+04  0.25500000920E-02 0. -1.
    10030    2    1    2    0    0  0.00000000000E+00  0.00000000000E+00  0.23641555858E+03  0.23117269933E+04  0.22996063522E+04 0.  0.
        2    1    3    3  502    0  0.49616862466E+02 -0.42286284062E+03 -0.95549127765E+03  0.10460585054E+04  0.25500000920E-02 0. -1.
       -2    1    3    3    0  502 -0.49616862466E+02  0.42286284062E+03  0.11919068362E+04  0.12656684879E+04  0.25500000920E-02 0.  1.
</event>
<event>
 5   0  0.7348107E-06  0.2302317E+04  0.7818609E-02  0.8477008E-01
       -2   -1    0    0    0  501  0.00000000000E+00  0.00000000000E+00  0.19082710086E+04  0.19082710086E+04  0.25500000920E-02 0.  1.
        2   -1    0    0  501    0  0.00000000000E+00  0.00000000000E+00 -0.69443251398E+03  0.69443251398E+03  0.25500000920E-02 0. -1.
    10030    2    1    2    0    0  0.00000000000E+00  0.00000000000E+00  0.12138384946E+04  0.26027035226E+04  0.23023166019E+04 0.  0.
        3    1    3    3  502    0  0.34664047550E+03 -0.53831816137E+01  0.18478541563E+04  0.18800940378E+04  0.10100000352E+00 0.  1.
       -3    1    3    3    0  502 -0.34664047550E+03  0.53831816137E+01 -0.63401566172E+03  0.72260948472E+03  0.10100000352E+00 0. -1.
</event>
<event>
 5   0  0.7003852E-06  0.2303685E+04  0.7818609E-02  0.8476469E-01
        2   -1    0    0  501    0  0.00000000000E+00  0.00000000000E+00  0.10515917368E+04  0.10515917368E+04  0.25500000920E-02 0.  1.
       -2   -1    0    0    0  501  0.00000000000E+00  0.00000000000E+00 -0.12616506698E+04  0.12616506698E+04  0.25500000920E-02 0. -1.
    10030    2    1    2    0    0  0.00000000000E+00  0.00000000000E+00 -0.21005893303E+03  0.23132424066E+04  0.23036852382E+04 0.  0.
        2    1    3    3  502    0  0.23347858940E+03 -0.65369502964E+02 -0.12357365077E+04  0.12592974788E+04  0.25500000920E-02 0. -1.
       -2    1    3    3    0  502 -0.23347858940E+03  0.65369502964E+02  0.10256775747E+04  0.10539449278E+04  0.25500000920E-02 0.  1.
</event>
<event>
 5   0  0.7003852E-06  0.2297859E+04  0.7818609E-02  0.8478766E-01
        2   -1    0    0  501    0  0.00000000000E+00  0.00000000000E+00  0.15236095522E+04  0.15236095522E+04  0.25500000920E-02 0. -1.
       -2   -1    0    0    0  501  0.00000000000E+00  0.00000000000E+00 -0.86638917389E+03  0.86638917389E+03  0.25500000920E-02 0.  1.
    10030    2    1    2    0    0  0.00000000000E+00  0.00000000000E+00  0.65722037833E+03  0.23899987261E+04  0.22978588480E+04 0.  0.
        2    1    3    3  502    0 -0.53710616125E+02  0.13100216606E+03  0.15145010785E+04  0.15211048335E+04  0.25500000920E-02 0. -1.
       -2    1    3    3    0  502  0.53710616125E+02 -0.13100216606E+03 -0.85728070014E+03  0.86889389262E+03  0.25500000920E-02 0.  1.
</event>
<event>
 5   0  0.3338758E-06  0.2300450E+04  0.7818609E-02  0.8477744E-01
        1   -1    0    0  501    0  0.00000000000E+00  0.00000000000E+00  0.14703587009E+04  0.14703587009E+04  0.50400001928E-02 0.  1.
       -1   -1    0    0    0  501  0.00000000000E+00  0.00000000000E+00 -0.89979204414E+03  0.89979204415E+03  0.50400001928E-02 0. -1.
    10030    2    1    2    0    0  0.00000000000E+00  0.00000000000E+00  0.57056665674E+03  0.23701507450E+04  0.23004495744E+04 0.  0.
        5    1    3    3  502    0 -0.83343738326E+03  0.25787268438E+03  0.10575807150E+04  0.13709906097E+04  0.46999998093E+01 0.  1.
       -5    1    3    3    0  502  0.83343738326E+03 -0.25787268438E+03 -0.48701405823E+03  0.99916013535E+03  0.46999998093E+01 0. -1.
</event>
<event>
 5   0  0.3226427E-06  0.2290531E+04  0.7818609E-02  0.8481664E-01
       -1   -1    0    0    0  501  0.00000000000E+00  0.00000000000E+00  0.15117466342E+04  0.15117466342E+04  0.50400001928E-02 0. -1.
        1   -1    0    0  501    0  0.00000000000E+00  0.00000000000E+00 -0.86762758142E+03  0.86762758144E+03  0.50400001928E-02 0.  1.
    10030    2    1    2    0    0  0.00000000000E+00  0.00000000000E+00  0.64411905277E+03  0.23793742156E+04  0.22905310092E+04 0.  0.
        4    1    3    3  502    0  0.63617540060E+03  0.19366010198E+02  0.13111121737E+04  0.14574329925E+04  0.12699999809E+01 0. -1.
       -4    1    3    3    0  502 -0.63617540060E+03 -0.19366010198E+02 -0.66699312092E+03  0.92194122315E+03  0.12699999809E+01 0.  1.
</event>
<event>
 5   0  0.7003852E-06  0.2305913E+04  0.7818609E-02  0.8475593E-01
        2   -1    0    0  501    0  0.00000000000E+00  0.00000000000E+00  0.23345472128E+04  0.23345472128E+04  0.25500000920E-02 0. -1.
       -2   -1    0    0    0  501  0.00000000000E+00  0.00000000000E+00 -0.56940765472E+03  0.56940765473E+03  0.25500000920E-02 0.  1.
    10030    2    1    2    0    0  0.00000000000E+00  0.00000000000E+00  0.17651395581E+04  0.29039548675E+04  0.23059133143E+04 0.  0.
        2    1    3    3  502    0  0.96447225456E+03 -0.28070008290E+03  0.16982837253E+03  0.10187447877E+04  0.25500000920E-02 0.  1.
       -2    1    3    3    0  502 -0.96447225456E+03  0.28070008290E+03  0.15953111856E+04  0.18852100798E+04  0.25500000920E-02 0. -1.
</event>
<event>
 5   0  0.7003852E-06  0.2299860E+04  0.7818609E-02  0.8477976E-01
       -2   -1    0    0    0  501  0.00000000000E+00  0.00000000000E+00  0.63719031443E+03  0.63719031443E+03  0.25500000920E-02 0. -1.
        2   -1    0    0  501    0  0.00000000000E+00  0.00000000000E+00 -0.20752659199E+04  0.20752659199E+04  0.25500000920E-02 0.  1.
    10030    2    1    2    0    0  0.00000000000E+00  0.00000000000E+00 -0.14380756055E+04  0.27124562343E+04  0.22998602949E+04 0.  0.
        2    1    3    3  502    0  0.11617980634E+03  0.80936262560E+03  0.23458146889E+03  0.85064332871E+03  0.25500000920E-02 0. -1.
       -2    1    3    3    0  502 -0.11617980634E+03 -0.80936262560E+03 -0.16726570744E+04  0.18618129056E+04  0.25500000920E-02 0.  1.
</event>
<event>
 5   0  0.7348107E-06  0.2296177E+04  0.7818609E-02  0.8479430E-01
       -2   -1    0    0    0  501  0.00000000000E+00  0.00000000000E+00  0.58447077878E+03  0.58447077879E+03  0.25500000920E-02 0.  1.
        2   -1    0    0  501    0  0.00000000000E+00  0.00000000000E+00 -0.22552141473E+04  0.22552141473E+04  0.25500000920E-02 0. -1.
    10030    2    1    2    0    0  0.00000000000E+00  0.00000000000E+00 -0.16707433685E+04  0.28396849261E+04  0.22961766213E+04 0.  0.
        3    1    3    3  502    0  0.32201963927E+03  0.46293054452E+03 -0.20721383067E+04  0.21475005260E+04  0.10100000352E+00 0. -1.
       -3    1    3    3    0  502 -0.32201963927E+03 -0.46293054452E+03  0.40139493815E+03  0.69218440007E+03  0.10100000352E+00 0.  1.
</event>
<event>
 5   0  0.3195296E-06  0.2300145E+04  0.7818609E-02  0.8477864E-01
       -1   -1    0    0    0  501  0.00000000000E+00  0.00000000000E+00  0.11608063410E+04  0.11608063410E+04  0.50400001928E-02 0. -1.
        1   -1    0    0  501    0  0.00000000000E+00  0.00000000000E+00 -0.11394380262E+04  0.11394380262E+04  0.50400001928E-02 0.  1.
    10030    2    1    2    0    0  0.00000000000E+00  0.00000000000E+00  0.21368314788E+02  0.23002443672E+04  0.23001451137E+04 0.  0.
        2    1    3    3  502    0  0.38899564739E+03 -0.27651200650E+03  0.10570994076E+04  0.11598429467E+04  0.25500000920E-02 0. -1.
       -2    1    3    3    0  502 -0.38899564739E+03  0.27651200650E+03 -0.10357310928E+04  0.11404014206E+04  0.25500000920E-02 0.  1.
</event>
<event>
 5   0  0.3184492E-06  0.2305592E+04  0.7818609E-02  0.8475720E-01
       -1   -1    0    0    0  501  0.00000000000E+00  0.00000000000E+00  0.11236919972E+04  0.11236919972E+04  0.50400001928E-02 0.  1.
        1   -1    0    0  501    0  0.00000000000E+00  0.00000000000E+00 -0.11826533910E+04  0.11826533910E+04  0.50400001928E-02 0. -1.
    10030    2    1    2    0    0  0.00000000000E+00  0.00000000000E+00 -0.58961393795E+02  0.23063453883E+04  0.23055915953E+04 0.  0.
        1    1    3    3  502    0 -0.98385349176E+03  0.22744648045E+03  0.52679333184E+03  0.11389516272E+04  0.50400001928E-02 0.  1.
       -1    1    3    3    0  502  0.98385349176E+03 -0.22744648045E+03 -0.58575472563E+03  0.11673937610E+04  0.50400001928E-02 0. -1.
</event>
<event>
 5   0  0.7003852E-06  0.2311831E+04  0.7818609E-02  0.8473271E-01
       -2   -1    0    0    0  501  0.00000000000E+00  0.00000000000E+00  0.82499284828E+03  0.82499284829E+03  0.25500000920E-02 0. -1.
        2   -1    0    0  501    0  0.00000000000E+00  0.00000000000E+00 -0.16195786722E+04  0.16195786722E+04  0.25500000920E-02 0.  1.
    10030    2    1    2    0    0  0.00000000000E+00  0.00000000000E+00 -0.79458582389E+03  0.24445715205E+04  0.23118311545E+04 0.  0.
        2    1    3    3  502    0 -0.72736736016E+02 -0.63195813517E+03  0.62325452021E+03  0.89056606399E+03  0.25500000920E-02 0. -1.
       -2    1    3    3    0  502  0.72736736016E+02  0.63195813517E+03 -0.14178403441E+04  0.15540054565E+04  0.25500000920E-02 0.  1.
</event>
<event>
 5   0  0.7497344E-06  0.2292906E+04  0.7818609E-02  0.8480724E-01
       -2   -1    0    0    0  501  0.00000000000E+00  0.00000000000E+00  0.60902361714E+03  0.60902361715E+03  0.25500000920E-02 0. -1.
        2   -1    0    0  501    0  0.00000000000E+00  0.00000000000E+00 -0.21581333742E+04  0.21581333742E+04  0.25500000920E-02 0.  1.
    10030    2    1    2    0    0  0.00000000000E+00  0.00000000000E+00 -0.15491097571E+04  0.27671569914E+04  0.22929057493E+04 0.  0.
        5    1    3    3  502    0 -0.54401616607E+03  0.78675530695E+03 -0.11863756443E+02  0.95660877096E+03  0.46999998093E+01 0. -1.
       -5    1    3    3    0  502  0.54401616607E+03 -0.78675530695E+03 -0.15372460006E+04  0.18105482204E+04  0.46999998093E+01 0.  1.
</event>
<event>
 5   0  0.3195296E-06  0.2299761E+04  0.7818609E-02  0.8478015E-01
        1   -1    0    0  501    0  0.00000000000E+00  0.00000000000E+00  0.17510996458E+04  0.17510996458E+04  0.50400001928E-02 0. -1.
       -1   -1    0    0    0  501  0.00000000000E+00  0.00000000000E+00 -0.75508297607E+03  0.75508297609E+03  0.50400001928E-02 0.  1.
    10030    2    1    2    0    0  0.00000000000E+00  0.00000000000E+00  0.99601666971E+03  0.25061826219E+04  0.22997613198E+04 0.  0.
        2    1    3    3  502    0  0.22132373445E+03 -0.85138167342E+03 -0.30899428222E+03  0.93236924859E+03  0.25500000920E-02 0.  1.
       -2    1    3    3    0  502 -0.22132373445E+03  0.85138167342E+03  0.13050109519E+04  0.15738133733E+04  0.25500000920E-02 0. -1.
</event>
<event>
 5   0  0.3338758E-06  0.2296052E+04  0.7818609E-02  0.8479479E-01
        1   -1    0    0  501    0  0.00000000000E+00  0.00000000000E+00  0.16217488989E+04  0.16217488990E+04  0.50400001928E-02 0.  1.
       -1   -1    0    0    0  501  0.00000000000E+00  0.00000000000E+00 -0.81268034636E+03  0.81268034637E+03  0.50400001928E-02 0. -1.
    10030    2    1    2    0    0  0.00000000000E+00  0.00000000000E+00  0.80906855259E+03  0.24344292453E+04  0.22960517912E+04 0.  0.
        5    1    3    3  502    0 -0.67023284903E+03  0.59853720269E+03 -0.35300631912E+03  0.96545036448E+03  0.46999998093E+01 0. -1.
       -5    1    3    3    0  502  0.67023284903E+03 -0.59853720269E+03  0.11620748717E+04  0.14689788809E+04  0.46999998093E+01 0.  1.
</event>
<event>
 5   0  0.7044981E-06  0.2298625E+04  0.7818609E-02  0.8478463E-01
       -2   -1    0    0    0  501  0.00000000000E+00  0.00000000000E+00  0.16264022077E+04  0.16264022077E+04  0.25500000920E-02 0. -1.
        2   -1    0    0  501    0  0.00000000000E+00  0.00000000000E+00 -0.81217262075E+03  0.81217262075E+03  0.25500000920E-02 0.  1.
    10030    2    1    2    0    0  0.00000000000E+00  0.00000000000E+00  0.81422958692E+03  0.24385748284E+04  0.22986251050E+04 0.  0.
        4    1    3    3  502    0  0.39052194219E+01 -0.92544400856E+03  0.11301179069E+04  0.14606950263E+04  0.12699999809E+01 0. -1.
       -4    1    3    3    0  502 -0.39052194219E+01  0.92544400856E+03 -0.31588831994E+03  0.97787980206E+03  0.12699999809E+01 0.  1.
</event>
<event>
 5   0  0.3238713E-06  0.2297726E+04  0.7818609E-02  0.8478818E-01
        1   -1    0    0  501    0  0.00000000000E+00  0.00000000000E+00  0.15561548205E+04  0.15561548205E+04  0.50400001928E-02 0.  1.
       -1   -1    0    0    0  501  0.00000000000E+00  0.00000000000E+00 -0.84817117971E+03  0.84817117973E+03  0.50400001928E-02 0. -1.
    10030    2    1    2    0    0  0.00000000000E+00  0.00000000000E+00  0.70798364077E+03  0.24043260002E+04  0.22977255449E+04 0.  0.
        3    1    3    3  502    0  0.40287995464E+03 -0.82743785097E+03  0.10735883214E+04  0.14140571237E+04  0.10100000352E+00 0.  1.
       -3    1    3    3    0  502 -0.40287995464E+03  0.82743785097E+03 -0.36560468063E+03  0.99026887650E+03  0.10100000352E+00 0. -1.
</event>
<event>
 5   0  0.3195296E-06  0.2299394E+04  0.7818609E-02  0.8478160E-01
       -1   -1    0    0    0  501  0.00000000000E+00  0.00000000000E+00  0.14736626039E+04  0.14736626039E+04  0.50400001928E-02 0.  1.
        1   -1    0    0  501    0  0.00000000000E+00  0.00000000000E+00 -0.89695110528E+03  0.89695110529E+03  0.50400001928E-02 0. -1.
    10030    2    1    2    0    0  0.00000000000E+00  0.00000000000E+00  0.57671149865E+03  0.23706137092E+04  0.22993940953E+04 0.  0.
        2    1    3    3  502    0 -0.93033611464E+02  0.10706844451E+04  0.70939549823E+03  0.12877353792E+04  0.25500000920E-02 0.  1.
       -2    1    3    3    0  502  0.93033611464E+02 -0.10706844451E+04 -0.13268399958E+03  0.10828783300E+04  0.25500000920E-02 0. -1.
</event>
<event>
 5   0  0.7003852E-06  0.2294720E+04  0.7818609E-02  0.8480006E-01
        2   -1    0    0  501    0  0.00000000000E+00  0.00000000000E+00  0.11698760876E+04  0.11698760876E+04  0.25500000920E-02 0. -1.
       -2   -1    0    0    0  501  0.00000000000E+00  0.00000000000E+00 -0.11252770315E+04  0.11252770315E+04  0.25500000920E-02 0.  1.
    10030    2    1    2    0    0  0.00000000000E+00  0.00000000000E+00  0.44599056085E+02  0.22951531191E+04  0.22947197572E+04 0.  0.
        2    1    3    3  502    0  0.10555561956E+04  0.12375943576E+03  0.45472295223E+03  0.11559793438E+04  0.25500000920E-02 0.  1.
       -2    1    3    3    0  502 -0.10555561956E+04 -0.12375943576E+03 -0.41012389615E+03  0.11391737753E+04  0.25500000920E-02 0. -1.
</event>
<event>
 5   0  0.7348107E-06  0.2298425E+04  0.7818609E-02  0.8478542E-01
        2   -1    0    0  501    0  0.00000000000E+00  0.00000000000E+00  0.90814472389E+03  0.90814472389E+03  0.25500000920E-02 0. -1.
       -2   -1    0    0    0  501  0.00000000000E+00  0.00000000000E+00 -0.14542715839E+04  0.14542715839E+04  0.25500000920E-02 0.  1.
    10030    2    1    2    0    0  0.00000000000E+00  0.00000000000E+00 -0.54612686001E+03  0.23624163078E+04  0.22984247354E+04 0.  0.
        3    1    3    3  502    0 -0.99441872645E+03  0.55868243717E+03 -0.41730730328E+03  0.12145534425E+04  0.10100000352E+00 0.  1.
       -3    1    3    3    0  502  0.99441872645E+03 -0.55868243717E+03 -0.12881955673E+03  0.11478628653E+04  0.10100000352E+00 0. -1.
</event>
<event>
 5   0  0.3226427E-06  0.2299725E+04  0.7818609E-02  0.8478029E-01
        1   -1    0    0  501    0  0.00000000000E+00  0.00000000000E+00  0.14898432650E+04  0.14898432650E+04  0.50400001928E-02 0.  1.
       -1   -1    0    0    0  501  0.00000000000E+00  0.00000000000E+00 -0.88746525977E+03  0.88746525979E+03  0.50400001928E-02 0. -1.
    10030    2    1    2    0    0  0.00000000000E+00  0.00000000000E+00  0.60237800524E+03  0.23773085248E+04  0.22997253229E+04 0.  0.
        4    1    3    3  502    0  0.52066505309E+03 -0.10185339328E+03 -0.75338184600E+03  0.92144019341E+03  0.12699999809E+01 0. -1.
       -4    1    3    3    0  502 -0.52066505309E+03  0.10185339328E+03  0.13557598512E+04  0.14558683314E+04  0.12699999809E+01 0.  1.
</event>
<event>
 5   0  0.7348107E-06  0.2295250E+04  0.7818609E-02  0.8479796E-01
        2   -1    0    0  501    0  0.00000000000E+00  0.00000000000E+00  0.11632138840E+04  0.11632138840E+04  0.25500000920E-02 0.  1.
       -2   -1    0    0    0  501  0.00000000000E+00  0.00000000000E+00 -0.11322446468E+04  0.11322446468E+04  0.25500000920E-02 0. -1.
    10030    2    1    2    0    0  0.00000000000E+00  0.00000000000E+00  0.30969237252E+02  0.22954585308E+04  0.22952496102E+04 0.  0.
        3    1    3    3  502    0  0.35661450793E+03  0.10872892943E+04  0.10307550206E+03  0.11489110000E+04  0.10100000352E+00 0.  1.
       -3    1    3    3    0  502 -0.35661450793E+03 -0.10872892943E+04 -0.72106264811E+02  0.11465475308E+04  0.10100000352E+00 0. -1.
</event>
<event>
 5   0  0.3238713E-06  0.2298686E+04  0.7818609E-02  0.8478439E-01
       -1   -1    0    0    0  501  0.00000000000E+00  0.00000000000E+00  0.15471847484E+04  0.15471847484E+04  0.50400001928E-02 0. -1.
        1   -1    0    0  501    0  0.00000000000E+00  0.00000000000E+00 -0.85380188710E+03  0.85380188711E+03  0.50400001928E-02 0.  1.
    10030    2    1    2    0    0  0.00000000000E+00  0.00000000000E+00  0.69338286130E+03  0.24009866355E+04  0.22986859358E+04 0.  0.
        3    1    3    3  502    0 -0.21888830862E+03 -0.11170467392E+04  0.18060630136E+03  0.11525294597E+04  0.10100000352E+00 0. -1.
       -3    1    3    3    0  502  0.21888830862E+03  0.11170467392E+04  0.51277655994E+03  0.12484571758E+04  0.10100000352E+00 0.  1.
</event>
<event>
 5   0  0.7003852E-06  0.2313182E+04  0.7818609E-02  0.8472742E-01
        2   -1    0    0  501    0  0.00000000000E+00  0.00000000000E+00  0.18775865372E+04  0.18775865372E+04  0.25500000920E-02 0.  1.
       -2   -1    0    0    0  501  0.00000000000E+00  0.00000000000E+00 -0.71245889871E+03  0.71245889872E+03  0.25500000920E-02 0. -1.
    10030    2    1    2    0    0  0.00000000000E+00  0.00000000000E+00  0.11651276385E+04  0.25900454360E+04  0.23131824282E+04 0.  0.
        2    1    3    3  502    0 -0.49684723778E+03  0.89118703613E+03  0.11923903256E+04  0.15693521592E+04  0.25500000920E-02 0.  1.
       -2    1    3    3    0  502  0.49684723778E+03 -0.89118703613E+03 -0.27262687074E+02  0.10206932767E+04  0.25500000920E-02 0. -1.
</event>
<event>
 5   0  0.7348107E-06  0.2297538E+04  0.7818609E-02  0.8478892E-01
       -2   -1    0    0    0  501  0.00000000000E+00  0.00000000000E+00  0.11514639158E+04  0.11514639159E+04  0.25500000920E-02 0. -1.
        2   -1    0    0  501    0  0.00000000000E+00  0.00000000000E+00 -0.11460806780E+04  0.11460806780E+04  0.25500000920E-02 0.  1.
    10030    2    1    2    0    0  0.00000000000E+00  0.00000000000E+00  0.53832378863E+01  0.22975445938E+04  0.22975382872E+04 0.  0.
        3    1    3    3  502    0  0.10715239337E+04  0.11906673511E+03 -0.39395806399E+03  0.11478429310E+04  0.10100000352E+00 0.  1.
       -3    1    3    3    0  502 -0.10715239337E+04 -0.11906673511E+03  0.39934130187E+03  0.11497016628E+04  0.10100000352E+00 0. -1.
</event>
<event>
 5   0  0.7242214E-06  0.2297701E+04  0.7818609E-02  0.8478828E-01
       -2   -1    0    0    0  501  0.00000000000E+00  0.00000000000E+00  0.44306008369E+03  0.44306008369E+03  0.25500000920E-02 0.  1.
        2   -1    0    0  501    0  0.00000000000E+00  0.00000000000E+00 -0.29789591972E+04  0.29789591972E+04  0.25500000920E-02 0. -1.
    10030    2    1    2    0    0  0.00000000000E+00  0.00000000000E+00 -0.25358991136E+04  0.34220192809E+04  0.22977013829E+04 0.  0.
        1    1    3    3  502    0  0.52284104749E+02 -0.96707659928E+03 -0.21883066854E+04  0.23930434442E+04  0.50400001928E-02 0. -1.
       -1    1    3    3    0  502 -0.52284104749E+02  0.96707659928E+03 -0.34759242820E+03  0.10289758368E+04  0.50400001928E-02 0.  1.
</event>
<event>
 5   0  0.3184492E-06  0.2297585E+04  0.7818609E-02  0.8478874E-01
       -1   -1    0    0    0  501  0.00000000000E+00  0.00000000000E+00  0.24441720502E+04  0.24441720503E+04  0.50400001928E-02 0.  1.
        1   -1    0    0  501    0  0.00000000000E+00  0.00000000000E+00 -0.53994727673E+03  0.53994727676E+03  0.50400001928E-02 0. -1.
    10030    2    1    2    0    0  0.00000000000E+00  0.00000000000E+00  0.19042247735E+04  0.29841193270E+04  0.22975848558E+04 0.  0.
        1    1    3    3  502    0 -0.42997036956E+03  0.98466514827E+03  0.14801442426E+04  0.18290070945E+04  0.50400001928E-02 0.  1.
       -1    1    3    3    0  502  0.42997036956E+03 -0.98466514827E+03  0.42408053093E+03  0.11551122325E+04  0.50400001928E-02 0. -1.
</event>
<event>
 5   0  0.7348107E-06  0.2298595E+04  0.7818609E-02  0.8478475E-01
        2   -1    0    0  501    0  0.00000000000E+00  0.00000000000E+00  0.20185792154E+04  0.20185792154E+04  0.25500000920E-02 0.  1.
       -2   -1    0    0    0  501  0.00000000000E+00  0.00000000000E+00 -0.65436353555E+03  0.65436353555E+03  0.25500000920E-02 0. -1.
    10030    2    1    2    0    0  0.00000000000E+00  0.00000000000E+00  0.13642156798E+04  0.26729427509E+04  0.22985949031E+04 0.  0.
        3    1    3    3  502    0  0.85972081270E+03 -0.33762816113E+03  0.14774322561E+04  0.17423888007E+04  0.10100000352E+00 0.  1.
       -3    1    3    3    0  502 -0.85972081270E+03  0.33762816113E+03 -0.11321657633E+03  0.93055395025E+03  0.10100000352E+00 0. -1.
</event>
<event>
 5   0  0.3226427E-06  0.2296824E+04  0.7818609E-02  0.8479175E-01
       -1   -1    0    0    0  501  0.00000000000E+00  0.00000000000E+00  0.16432500258E+04  0.16432500258E+04  0.50400001928E-02 0.  1.
        1   -1    0    0  501    0  0.00000000000E+00  0.00000000000E+00 -0.80258610166E+03  0.80258610168E+03  0.50400001928E-02 0. -1.
    10030    2    1    2    0    0  0.00000000000E+00  0.00000000000E+00  0.84066392418E+03  0.24458361275E+04  0.22968235738E+04 0.  0.
        4    1    3    3  502    0 -0.33686983750E+03 -0.94963461515E+03  0.10070407379E+04  0.14245770777E+04  0.12699999809E+01 0.  1.
       -4    1    3    3    0  502  0.33686983750E+03  0.94963461515E+03 -0.16637681373E+03  0.10212590498E+04  0.12699999809E+01 0. -1.
</event>
<event>
 5   0  0.7497344E-06  0.2303999E+04  0.7818609E-02  0.8476346E-01
        2   -1    0    0  501    0  0.00000000000E+00  0.00000000000E+00  0.21551665542E+04  0.21551665542E+04  0.25500000920E-02 0. -1.
       -2   -1    0    0    0  501  0.00000000000E+00  0.00000000000E+00 -0.61577761250E+03  0.61577761251E+03  0.25500000920E-02 0.  1.
    10030    2    1    2    0    0  0.00000000000E+00  0.00000000000E+00  0.15393889417E+04  0.27709441667E+04  0.23039994056E+04 0.  0.
        5    1    3    3  502    0 -0.93216848283E+02  0.74094734413E+03  0.18246116486E+04  0.19715278608E+04  0.46999998093E+01 0. -1.
       -5    1    3    3    0  502  0.93216848283E+02 -0.74094734413E+03 -0.28522270694E+03  0.79941630590E+03  0.46999998093E+01 0.  1.
</event>
<event>
 5   0  0.3226427E-06  0.2298109E+04  0.7818609E-02  0.8478667E-01
       -1   -1    0    0    0  501  0.00000000000E+00  0.00000000000E+00  0.66072982265E+03  0.66072982267E+03  0.50400001928E-02 0. -1.
        1   -1    0    0  501    0  0.00000000000E+00  0.00000000000E+00 -0.19982854334E+04  0.19982854334E+04  0.50400001928E-02 0.  1.
    10030    2    1    2    0    0  0.00000000000E+00  0.00000000000E+00 -0.13375556108E+04  0.26590152561E+04  0.22981094665E+04 0.  0.
        4    1    3    3  502    0  0.68435072031E+02 -0.11264620040E+04 -0.41867099177E+03  0.12036972285E+04  0.12699999809E+01 0. -1.
       -4    1    3    3    0  502 -0.68435072031E+02  0.11264620040E+04 -0.91888461900E+03  0.14553180276E+04  0.12699999809E+01 0.  1.
</event>
<event>
 5   0  0.3238713E-06  0.2273232E+04  0.7818609E-02  0.8488551E-01
        1   -1    0    0  501    0  0.00000000000E+00  0.00000000000E+00  0.16652854878E+04  0.16652854878E+04  0.50400001928E-02 0. -1.
       -1   -1    0    0    0  501  0.00000000000E+00  0.00000000000E+00 -0.77578034586E+03  0.77578034588E+03  0.50400001928E-02 0.  1.
    10030    2    1    2    0    0  0.00000000000E+00  0.00000000000E+00  0.88950514196E+03  0.24410658337E+04  0.22732318419E+04 0.  0.
        3    1    3    3  502    0 -0.74247182878E+03  0.59983290905E+03 -0.21792514653E+03  0.97905838182E+03  0.10100000352E+00 0.  1.
       -3    1    3    3    0  502  0.74247182878E+03 -0.59983290905E+03  0.11074302885E+04  0.14620074519E+04  0.10100000352E+00 0. -1.
</event>
<event>
 5   0  0.7242214E-06  0.2298214E+04  0.7818609E-02  0.8478626E-01
        2   -1    0    0  501    0  0.00000000000E+00  0.00000000000E+00  0.12360311481E+04  0.12360311481E+04  0.25500000920E-02 0.  1.
       -2   -1    0    0    0  501  0.00000000000E+00  0.00000000000E+00 -0.10682958670E+04  0.10682958670E+04  0.25500000920E-02 0. -1.
    10030    2    1    2    0    0  0.00000000000E+00  0.00000000000E+00  0.16773528107E+03  0.23043270151E+04  0.22982140605E+04 0.  0.
        1    1    3    3  502    0  0.11173675985E+04 -0.91037211155E+02  0.33682591514E+03  0.11705767045E+04  0.50400001928E-02 0.  1.
       -1    1    3    3    0  502 -0.11173675985E+04  0.91037211155E+02 -0.16909063407E+03  0.11337503105E+04  0.50400001928E-02 0. -1.
</event>
<event>
 5   0  0.7044981E-06  0.2299066E+04  0.7818609E-02  0.8478289E-01
        2   -1    0    0  501    0  0.00000000000E+00  0.00000000000E+00  0.24501206739E+04  0.24501206739E+04  0.25500000920E-02 0.  1.
       -2   -1    0    0    0  501  0.00000000000E+00  0.00000000000E+00 -0.53933113528E+03  0.53933113528E+03  0.25500000920E-02 0. -1.
    10030    2    1    2    0    0  0.00000000000E+00  0.00000000000E+00  0.19107895386E+04  0.29894518092E+04  0.22990662145E+04 0.  0.
        4    1    3    3  502    0  0.16960733996E+03  0.67463392337E+03 -0.23458486889E+03  0.73411801091E+03  0.12699999809E+01 0. -1.
       -4    1    3    3    0  502 -0.16960733996E+03 -0.67463392337E+03  0.21453744075E+04  0.22553337983E+04  0.12699999809E+01 0.  1.
</event>
<event>
 5   0  0.7348107E-06  0.2307419E+04  0.7818609E-02  0.8475001E-01
        2   -1    0    0  501    0  0.00000000000E+00  0.00000000000E+00  0.24747794058E+04  0.24747794058E+04  0.25500000920E-02 0. -1.
       -2   -1    0    0    0  501  0.00000000000E+00  0.00000000000E+00 -0.53784434788E+03  0.53784434788E+03  0.25500000920E-02 0.  1.
    10030    2    1    2    0    0  0.00000000000E+00  0.00000000000E+00  0.19369350579E+04  0.30126237537E+04  0.23074194380E+04 0.  0.
        3    1    3    3  502    0 -0.10367596300E+04  0.12732229964E+03  0.16080432144E+04  0.19175204009E+04  0.10100000352E+00 0. -1.
       -3    1    3    3    0  502  0.10367596300E+04 -0.12732229964E+03  0.32889184357E+03  0.10951033528E+04  0.10100000352E+00 0.  1.
</event>
<event>
 5   0  0.3226427E-06  0.2302517E+04  0.7818609E-02  0.8476929E-01
       -1   -1    0    0    0  501  0.00000000000E+00  0.00000000000E+00  0.11044173260E+04  0.11044173260E+04  0.50400001928E-02 0. -1.
        1   -1    0    0  501    0  0.00000000000E+00  0.00000000000E+00 -0.12000862670E+04  0.12000862670E+04  0.50400001928E-02 0.  1.
    10030    2    1    2    0    0  0.00000000000E+00  0.00000000000E+00 -0.95668940998E+02  0.23045035930E+04  0.23025169411E+04 0.  0.
        4    1    3    3  502    0 -0.39780561170E+03  0.88581003789E+03  0.57115344592E+03  0.11265551915E+04  0.12699999809E+01 0. -1.
       -4    1    3    3    0  502  0.39780561170E+03 -0.88581003789E+03 -0.66682238691E+03  0.11779484015E+04  0.12699999809E+01 0.  1.
</event>
<event>
 5   0  0.3195296E-06  0.2297390E+04  0.7818609E-02  0.8478951E-01
       -1   -1    0    0    0  501  0.00000000000E+00  0.00000000000E+00  0.89473105231E+03  0.89473105232E+03  0.50400001928E-02 0.  1.
        1   -1    0    0  501    0  0.00000000000E+00  0.00000000000E+00 -0.14747454046E+04  0.14747454046E+04  0.50400001928E-02 0. -1.
    10030    2    1    2    0    0  0.00000000000E+00  0.00000000000E+00 -0.58001435228E+03  0.23694764569E+04  0.22973902653E+04 0.  0.
        2    1    3    3  502    0  0.66859344034E+02  0.10911581896E+04  0.73769658918E+02  0.10956908000E+04  0.25500000920E-02 0.  1.
       -2    1    3    3    0  502 -0.66859344034E+02 -0.10911581896E+04 -0.65378401120E+03  0.12737856570E+04  0.25500000920E-02 0. -1.
</event>
<event>
 5   0  0.7497344E-06  0.2302674E+04  0.7818609E-02  0.8476867E-01
       -2   -1    0    0    0  501  0.00000000000E+00  0.00000000000E+00  0.79604005827E+03  0.79604005827E+03  0.25500000920E-02 0. -1.
        2   -1    0    0  501    0  0.00000000000E+00  0.00000000000E+00 -0.16652144716E+04  0.16652144717E+04  0.25500000920E-02 0.  1.
    10030    2    1    2    0    0  0.00000000000E+00  0.00000000000E+00 -0.86917441338E+03  0.24612545299E+04  0.23026744668E+04 0.  0.
        5    1    3    3  502    0 -0.60201461673E+03 -0.98011063496E+03 -0.38096370161E+03  0.12116905081E+04  0.46999998093E+01 0. -1.
       -5    1    3    3    0  502  0.60201461673E+03  0.98011063496E+03 -0.48821071177E+03  0.12495640218E+04  0.46999998093E+01 0.  1.
</event>
<event>
 5   0  0.3184492E-06  0.2297167E+04  0.7818609E-02  0.8479039E-01
        1   -1    0    0  501    0  0.00000000000E+00  0.00000000000E+00  0.14840016307E+04  0.14840016307E+04  0.50400001928E-02 0.  1.
       -1   -1    0    0    0  501  0.00000000000E+00  0.00000000000E+00 -0.88897785946E+03  0.88897785948E+03  0.50400001928E-02 0. -1.
    10030    2    1    2    0    0  0.00000000000E+00  0.00000000000E+00  0.59502377127E+03  0.23729794902E+04  0.22971674673E+04 0.  0.
        1    1    3    3  502    0 -0.70426865152E+03 -0.74569742651E+03  0.83147082016E+03  0.13203797599E+04  0.50400001928E-02 0.  1.
       -1    1    3    3    0  502  0.70426865152E+03  0.74569742651E+03 -0.23644704889E+03  0.10525997304E+04  0.50400001928E-02 0. -1.
</event>
<event>
 5   0  0.7242214E-06  0.2294615E+04  0.7818609E-02  0.8480047E-01
        2   -1    0    0  501    0  0.00000000000E+00  0.00000000000E+00  0.78299057361E+03  0.78299057362E+03  0.25500000920E-02 0.  1.
       -2   -1    0    0    0  501  0.00000000000E+00  0.00000000000E+00 -0.16811375176E+04  0.16811375176E+04  0.25500000920E-02 0. -1.
    10030    2    1    2    0    0  0.00000000000E+00  0.00000000000E+00 -0.89814694402E+03  0.24641280913E+04  0.22946152874E+04 0.  0.
        1    1    3    3  502    0 -0.94794502548E+03 -0.35217035280E+03 -0.10310410501E+04  0.14441846751E+04  0.50400001928E-02 0. -1.
       -1    1    3    3    0  502  0.94794502548E+03  0.35217035280E+03  0.13289410610E+03  0.10199434162E+04  0.50400001928E-02 0.  1.
</event>
<event>
 5   0  0.3195296E-06  0.2311458E+04  0.7818609E-02  0.8473417E-01
        1   -1    0    0  501    0  0.00000000000E+00  0.00000000000E+00  0.19398224202E+04  0.19398224202E+04  0.50400001928E-02 0.  1.
       -1   -1    0    0    0  501  0.00000000000E+00  0.00000000000E+00 -0.68857288076E+03  0.68857288078E+03  0.50400001928E-02 0. -1.
    10030    2    1    2    0    0  0.00000000000E+00  0.00000000000E+00  0.12512495395E+04  0.26283953010E+04  0.23114576458E+04 0.  0.
        2    1    3    3  502    0 -0.48092125332E+03  0.41924192097E+03  0.17214293938E+04  0.18358562574E+04  0.25500000920E-02 0.  1.
       -2    1    3    3    0  502  0.48092125332E+03 -0.41924192097E+03 -0.47017985431E+03  0.79253904358E+03  0.25500000920E-02 0. -1.
</event>
<event>
 5   0  0.3226427E-06  0.2310866E+04  0.7818609E-02  0.8473649E-01
       -1   -1    0    0    0  501  0.00000000000E+00  0.00000000000E+00  0.13289980320E+04  0.13289980320E+04  0.50400001928E-02 0. -1.
        1   -1    0    0  501    0  0.00000000000E+00  0.00000000000E+00 -0.10045352474E+04  0.10045352474E+04  0.50400001928E-02 0.  1.
    10030    2    1    2    0    0  0.00000000000E+00  0.00000000000E+00  0.32446278458E+03  0.23335332794E+04  0.23108659562E+04 0.  0.
        4    1    3    3  502    0  0.11534107771E+04 -0.68313741404E+02  0.16299107861E+03  0.11668722692E+04  0.12699999809E+01 0. -1.
       -4    1    3    3    0  502 -0.11534107771E+04  0.68313741404E+02  0.16147170597E+03  0.11666610102E+04  0.12699999809E+01 0.  1.
</event>
<event>
 5   0  0.2519625E-06  0.2304196E+04  0.7818609E-02  0.8476269E-01
        3   -1    0    0  501    0  0.00000000000E+00  0.00000000000E+00  0.90192071447E+03  0.90192072012E+03  0.10100000352E+00 0. -1.
       -3   -1    0    0    0  501  0.00000000000E+00  0.00000000000E+00 -0.14716699883E+04  0.14716699918E+04  0.10100000352E+00 0.  1.
    10030    2    1    2    0    0  0.00000000000E+00  0.00000000000E+00 -0.56974927385E+03  0.23735907119E+04  0.23041958755E+04 0.  0.
        1    1    3    3  502    0  0.10212641132E+04  0.14587476674E+03 -0.81322493174E+03  0.13136189045E+04  0.50400001928E-02 0.  1.
       -1    1    3    3    0  502 -0.10212641132E+04 -0.14587476674E+03  0.24347565789E+03  0.10599718074E+04  0.50400001928E-02 0. -1.
</event>
<event>
 5   0  0.7044981E-06  0.2299128E+04  0.7818609E-02  0.8478265E-01
       -2   -1    0    0    0  501  0.00000000000E+00  0.00000000000E+00  0.61203795875E+03  0.61203795875E+03  0.25500000920E-02 0.  1.
        2   -1    0    0  501    0  0.00000000000E+00  0.00000000000E+00 -0.21591750449E+04  0.21591750449E+04  0.25500000920E-02 0. -1.
    10030    2    1    2    0    0  0.00000000000E+00  0.00000000000E+00 -0.15471370861E+04  0.27712130036E+04  0.22991277364E+04 0.  0.
        4    1    3    3  502    0 -0.10247758575E+04  0.47196986244E+03 -0.10392188816E+04  0.15339161013E+04  0.12699999809E+01 0. -1.
       -4    1    3    3    0  502  0.10247758575E+04 -0.47196986244E+03 -0.50791820449E+03  0.12372969023E+04  0.12699999809E+01 0.  1.
</event>
<event>
 5   0  0.3338758E-06  0.2308982E+04  0.7818609E-02  0.8474388E-01
        1   -1    0    0  501    0  0.00000000000E+00  0.00000000000E+00  0.11978497505E+04  0.11978497505E+04  0.50400001928E-02 0.  1.
       -1   -1    0    0    0  501  0.00000000000E+00  0.00000000000E+00 -0.11127019111E+04  0.11127019111E+04  0.50400001928E-02 0. -1.
    10030    2    1    2    0    0  0.00000000000E+00  0.00000000000E+00  0.85147839461E+02  0.23105516616E+04  0.23089822057E+04 0.  0.
        5    1    3    3  502    0  0.63829701058E+03  0.84936858388E+03 -0.40937180723E+03  0.11386208463E+04  0.46999998093E+01 0. -1.
       -5    1    3    3    0  502 -0.63829701058E+03 -0.84936858388E+03  0.49451964669E+03  0.11719308154E+04  0.46999998093E+01 0.  1.
</event>
<event>
 5   0  0.7003852E-06  0.2292189E+04  0.7818609E-02  0.8481007E-01
       -2   -1    0    0    0  501  0.00000000000E+00  0.00000000000E+00  0.89461451203E+03  0.89461451203E+03  0.25500000920E-02 0. -1.
        2   -1    0    0  501    0  0.00000000000E+00  0.00000000000E+00 -0.14682664826E+04  0.14682664826E+04  0.25500000920E-02 0.  1.
    10030    2    1    2    0    0  0.00000000000E+00  0.00000000000E+00 -0.57365197053E+03  0.23628809946E+04  0.22921889127E+04 0.  0.
        2    1    3    3  502    0 -0.47324714351E+03 -0.40914956853E+03  0.70308480733E+03  0.94111342280E+03  0.25500000920E-02 0. -1.
       -2    1    3    3    0  502  0.47324714351E+03  0.40914956853E+03 -0.12767367779E+04  0.14217675718E+04  0.25500000920E-02 0.  1.
</event>
<event>
 5   0  0.3226427E-06  0.2304193E+04  0.7818609E-02  0.8476270E-01
        1   -1    0    0  501    0  0.00000000000E+00  0.00000000000E+00  0.19941096319E+04  0.19941096319E+04  0.50400001928E-02 0. -1.
       -1   -1    0    0    0  501  0.00000000000E+00  0.00000000000E+00 -0.66562337668E+03  0.66562337670E+03  0.50400001928E-02 0.  1.
    10030    2    1    2    0    0  0.00000000000E+00  0.00000000000E+00  0.13284862552E+04  0.26597330086E+04  0.23041926887E+04 0.  0.
        4    1    3    3  502    0  0.25781623416E+03  0.50762981164E+02  0.19590577623E+04  0.19766018870E+04  0.12699999809E+01 0. -1.
       -4    1    3    3    0  502 -0.25781623416E+03 -0.50762981164E+02 -0.63057150708E+03  0.68313112159E+03  0.12699999809E+01 0.  1.
</event>
<event>
 5   0  0.3184492E-06  0.2304310E+04  0.7818609E-02  0.8476224E-01
        1   -1    0    0  501    0  0.00000000000E+00  0.00000000000E+00  0.13121513698E+04  0.13121513698E+04  0.50400001928E-02 0. -1.
       -1   -1    0    0    0  501  0.00000000000E+00  0.00000000000E+00 -0.10116675848E+04  0.10116675848E+04  0.50400001928E-02 0.  1.
    10030    2    1    2    0    0  0.00000000000E+00  0.00000000000E+00  0.30048378499E+03  0.23238189546E+04  0.23043098812E+04 0.  0.
        1    1    3    3  502    0  0.12286772819E+03  0.32422624286E+03  0.12582898376E+04  0.13051867493E+04  0.50400001928E-02 0. -1.
       -1    1    3    3    0  502 -0.12286772819E+03 -0.32422624286E+03 -0.95780605260E+03  0.10186322053E+04  0.50400001928E-02 0.  1.
</event>
<event>
 5   0  0.7003852E-06  0.2303284E+04  0.7818609E-02  0.8476627E-01
       -2   -1    0    0    0  501  0.00000000000E+00  0.00000000000E+00  0.60853287793E+03  0.60853287794E+03  0.25500000920E-02 0.  1.
        2   -1    0    0  501    0  0.00000000000E+00  0.00000000000E+00 -0.21794701168E+04  0.21794701168E+04  0.25500000920E-02 0. -1.
    10030    2    1    2    0    0  0.00000000000E+00  0.00000000000E+00 -0.15709372389E+04  0.27880029948E+04  0.23032839361E+04 0.  0.
        2    1    3    3  502    0 -0.82858457260E+03  0.50717548955E+03 -0.36848676041E+02  0.97218166825E+03  0.25500000920E-02 0.  1.
       -2    1    3    3    0  502  0.82858457260E+03 -0.50717548955E+03 -0.15340885629E+04  0.18158213265E+04  0.25500000920E-02 0. -1.
</event>
<event>
 5   0  0.7044981E-06  0.2298524E+04  0.7818609E-02  0.8478503E-01
        2   -1    0    0  501    0  0.00000000000E+00  0.00000000000E+00  0.18083545039E+04  0.18083545039E+04  0.25500000920E-02 0. -1.
       -2   -1    0    0    0  501  0.00000000000E+00  0.00000000000E+00 -0.73038939570E+03  0.73038939570E+03  0.25500000920E-02 0.  1.
    10030    2    1    2    0    0  0.00000000000E+00  0.00000000000E+00  0.10779651082E+04  0.25387438996E+04  0.22985238335E+04 0.  0.
        4    1    3    3  502    0 -0.36573745725E+03 -0.89705128737E+03  0.12219385589E+04  0.15593589562E+04  0.12699999809E+01 0. -1.
       -4    1    3    3    0  502  0.36573745725E+03  0.89705128737E+03 -0.14397345071E+03  0.97938494333E+03  0.12699999809E+01 0.  1.
</event>
<event>
 5   0  0.3195296E-06  0.2297328E+04  0.7818609E-02  0.8478975E-01
       -1   -1    0    0    0  501  0.00000000000E+00  0.00000000000E+00  0.14664435866E+04  0.14664435866E+04  0.50400001928E-02 0.  1.
        1   -1    0    0  501    0  0.00000000000E+00  0.00000000000E+00 -0.89974743932E+03  0.89974743933E+03  0.50400001928E-02 0. -1.
    10030    2    1    2    0    0  0.00000000000E+00  0.00000000000E+00  0.56669614729E+03  0.23661910260E+04  0.22973278930E+04 0.  0.
        2    1    3    3  502    0 -0.68767040200E+03 -0.68499286254E+03  0.91602717682E+03  0.13346203925E+04  0.25500000920E-02 0.  1.
       -2    1    3    3    0  502  0.68767040200E+03  0.68499286254E+03 -0.34933102953E+03  0.10315706334E+04  0.25500000920E-02 0. -1.
</event>
<event>
 5   0  0.3184492E-06  0.2300115E+04  0.7818609E-02  0.8477876E-01
        1   -1    0    0  501    0  0.00000000000E+00  0.00000000000E+00  0.14246566084E+04  0.14246566084E+04  0.50400001928E-02 0. -1.
       -1   -1    0    0    0  501  0.00000000000E+00  0.00000000000E+00 -0.92838672820E+03  0.92838672821E+03  0.50400001928E-02 0.  1.
    10030    2    1    2    0    0  0.00000000000E+00  0.00000000000E+00  0.49626988016E+03  0.23530433366E+04  0.23001150297E+04 0.  0.
        1    1    3    3  502    0 -0.38671419933E+02 -0.10899998455E+04  0.62127066275E+03  0.12552180601E+04  0.50400001928E-02 0. -1.
       -1    1    3    3    0  502  0.38671419933E+02  0.10899998455E+04 -0.12500078259E+03  0.10978252765E+04  0.50400001928E-02 0.  1.
</event>
<event>
 5   0  0.3226427E-06  0.2308428E+04  0.7818609E-02  0.8474605E-01
        1   -1    0    0  501    0  0.00000000000E+00  0.00000000000E+00  0.15794745702E+04  0.15794745702E+04  0.50400001928E-02 0.  1.
       -1   -1    0    0    0  501  0.00000000000E+00  0.00000000000E+00 -0.84345131856E+03  0.84345131857E+03  0.50400001928E-02 0. -1.
    10030    2    1    2    0    0  0.00000000000E+00  0.00000000000E+00  0.73602325168E+03  0.24229258888E+04  0.23084279577E+04 0.  0.
        4    1    3    3  502    0  0.86220958467E+03 -0.35178297129E+03  0.10837831368E+04  0.14288961220E+04  0.12699999809E+01 0.  1.
       -4    1    3    3    0  502 -0.86220958467E+03  0.35178297129E+03 -0.34775988514E+03  0.99402976686E+03  0.12699999809E+01 0. -1.
</event>
<event>
 5   0  0.7044981E-06  0.2302990E+04  0.7818609E-02  0.8476743E-01
        2   -1    0    0  501    0  0.00000000000E+00  0.00000000000E+00  0.13961120789E+04  0.13961120789E+04  0.25500000920E-02 0. -1.
       -2   -1    0    0    0  501  0.00000000000E+00  0.00000000000E+00 -0.94973795681E+03  0.94973795682E+03  0.25500000920E-02 0.  1.
    10030    2    1    2    0    0  0.00000000000E+00  0.00000000000E+00  0.44637412206E+03  0.23458500357E+04  0.23029899116E+04 0.  0.
        4    1    3    3  502    0 -0.52839637304E+03  0.85155273616E+03 -0.35445968924E+03  0.10630089716E+04  0.12699999809E+01 0.  1.
       -4    1    3    3    0  502  0.52839637304E+03 -0.85155273616E+03  0.80083381129E+03  0.12828410641E+04  0.12699999809E+01 0. -1.
</event>
<event>
 5   0  0.3238713E-06  0.2304645E+04  0.7818609E-02  0.8476092E-01
        1   -1    0    0  501    0  0.00000000000E+00  0.00000000000E+00  0.13539843598E+04  0.13539843598E+04  0.50400001928E-02 0. -1.
       -1   -1    0    0    0  501  0.00000000000E+00  0.00000000000E+00 -0.98069605926E+03  0.98069605927E+03  0.50400001928E-02 0.  1.
    10030    2    1    2    0    0  0.00000000000E+00  0.00000000000E+00  0.37328830050E+03  0.23346804190E+04  0.23046449843E+04 0.  0.
        3    1    3    3  502    0  0.77056082175E+03 -0.79543654344E+03  0.50917030286E+03  0.12189083978E+04  0.10100000352E+00 0. -1.
       -3    1    3    3    0  502 -0.77056082175E+03  0.79543654344E+03 -0.13588200236E+03  0.11157720213E+04  0.10100000352E+00 0.  1.
</event>
<event>
 5   0  0.3184492E-06  0.2316852E+04  0.7818609E-02  0.8471306E-01
        1   -1    0    0  501    0  0.00000000000E+00  0.00000000000E+00  0.88396037869E+03  0.88396037871E+03  0.50400001928E-02 0. -1.
       -1   -1    0    0    0  501  0.00000000000E+00  0.00000000000E+00 -0.15181113476E+04  0.15181113476E+04  0.50400001928E-02 0.  1.
    10030    2    1    2    0    0  0.00000000000E+00  0.00000000000E+00 -0.63415096886E+03  0.24020717263E+04  0.23168515548E+04 0.  0.
        1    1    3    3  502    0 -0.10731691607E+04 -0.28019578295E+03  0.29508687779E+02  0.11095370597E+04  0.50400001928E-02 0. -1.
       -1    1    3    3    0  502  0.10731691607E+04  0.28019578295E+03 -0.66365965664E+03  0.12925346665E+04  0.50400001928E-02 0.  1.
</event>
<event>
 5   0  0.3184492E-06  0.2311436E+04  0.7818609E-02  0.8473426E-01
        1   -1    0    0  501    0  0.00000000000E+00  0.00000000000E+00  0.15774273146E+04  0.15774273146E+04  0.50400001928E-02 0.  1.
       -1   -1    0    0    0  501  0.00000000000E+00  0.00000000000E+00 -0.84674814025E+03  0.84674814027E+03  0.50400001928E-02 0. -1.
    10030    2    1    2    0    0  0.00000000000E+00  0.00000000000E+00  0.73067917437E+03  0.24241754549E+04  0.23114356102E+04 0.  0.
        1    1    3    3  502    0  0.13827998226E+03  0.55791189877E+03 -0.68620903273E+03  0.89513679229E+03  0.50400001928E-02 0. -1.
       -1    1    3    3    0  502 -0.13827998226E+03 -0.55791189877E+03  0.14168882071E+04  0.15290386626E+04  0.50400001928E-02 0.  1.
</event>
<event>
 5   0  0.7044981E-06  0.2301889E+04  0.7818609E-02  0.8477177E-01
       -2   -1    0    0    0  501  0.00000000000E+00  0.00000000000E+00  0.79356042330E+03  0.79356042330E+03  0.25500000920E-02 0.  1.
        2   -1    0    0  501    0  0.00000000000E+00  0.00000000000E+00 -0.16692779616E+04  0.16692779616E+04  0.25500000920E-02 0. -1.
    10030    2    1    2    0    0  0.00000000000E+00  0.00000000000E+00 -0.87571753833E+03  0.24628383849E+04  0.23018887252E+04 0.  0.
        4    1    3    3  502    0  0.26108385874E+03 -0.11174239108E+04 -0.53277668690E+03  0.12651693913E+04  0.12699999809E+01 0. -1.
       -4    1    3    3    0  502 -0.26108385874E+03  0.11174239108E+04 -0.34294085142E+03  0.11976689936E+04  0.12699999809E+01 0.  1.
</event>
<event>
 5   0  0.7348107E-06  0.2302434E+04  0.7818609E-02  0.8476962E-01
       -2   -1    0    0    0  501  0.00000000000E+00  0.00000000000E+00  0.70854844352E+03  0.70854844353E+03  0.25500000920E-02 0.  1.
        2   -1    0    0  501    0  0.00000000000E+00  0.00000000000E+00 -0.18704446325E+04  0.18704446325E+04  0.25500000920E-02 0. -1.
    10030    2    1    2    0    0  0.00000000000E+00  0.00000000000E+00 -0.11618961890E+04  0.25789930760E+04  0.23024340451E+04 0.  0.
        3    1    3    3  502    0 -0.10832378050E+03 -0.21481165705E+03 -0.18419730749E+04  0.18576175355E+04  0.10100000352E+00 0. -1.
       -3    1    3    3    0  502  0.10832378050E+03  0.21481165705E+03  0.68007688594E+03  0.72137554049E+03  0.10100000352E+00 0.  1.
</event>
<event>
 5   0  0.7497344E-06  0.2297474E+04  0.7818609E-02  0.8478918E-01
        2   -1    0    0  501    0  0.00000000000E+00  0.00000000000E+00  0.11858755884E+04  0.11858755884E+04  0.25500000920E-02 0. -1.
       -2   -1    0    0    0  501  0.00000000000E+00  0.00000000000E+00 -0.11127619713E+04  0.11127619713E+04  0.25500000920E-02 0.  1.
    10030    2    1    2    0    0  0.00000000000E+00  0.00000000000E+00  0.73113617061E+02  0.22986375598E+04  0.22974744895E+04 0.  0.
        5    1    3    3  502    0 -0.83691497145E+03 -0.38626295315E+03  0.72243242598E+03  0.11711346799E+04  0.46999998093E+01 0. -1.
       -5    1    3    3    0  502  0.83691497145E+03  0.38626295315E+03 -0.64931880892E+03  0.11275028798E+04  0.46999998093E+01 0.  1.
</event>
<event>
 5   0  0.7348107E-06  0.2290991E+04  0.7818609E-02  0.8481482E-01
       -2   -1    0    0    0  501  0.00000000000E+00  0.00000000000E+00  0.89412092136E+03  0.89412092137E+03  0.25500000920E-02 0. -1.
        2   -1    0    0  501    0  0.00000000000E+00  0.00000000000E+00 -0.14675420806E+04  0.14675420806E+04  0.25500000920E-02 0.  1.
    10030    2    1    2    0    0  0.00000000000E+00  0.00000000000E+00 -0.57342115920E+03  0.23616630019E+04  0.22909911193E+04 0.  0.
        3    1    3    3  502    0 -0.61243646618E+03 -0.29625843654E+02 -0.12841344443E+04  0.14230099779E+04  0.10100000352E+00 0.  1.
       -3    1    3    3    0  502  0.61243646618E+03  0.29625843654E+02  0.71071328514E+03  0.93865302407E+03  0.10100000352E+00 0. -1.
</event>
<event>
 5   0  0.3338758E-06  0.2303018E+04  0.7818609E-02  0.8476732E-01
       -1   -1    0    0    0  501  0.00000000000E+00  0.00000000000E+00  0.76379565229E+03  0.76379565230E+03  0.50400001928E-02 0.  1.
        1   -1    0    0  501    0  0.00000000000E+00  0.00000000000E+00 -0.17360311026E+04  0.17360311026E+04  0.50400001928E-02 0. -1.
    10030    2    1    2    0    0  0.00000000000E+00  0.00000000000E+00 -0.97223545029E+03  0.24998267549E+04  0.23030180272E+04 0.  0.
        5    1    3    3  502    0 -0.67403000813E+03 -0.26186400225E+03 -0.14588359082E+04  0.16282240339E+04  0.46999998093E+01 0. -1.
       -5    1    3    3    0  502  0.67403000813E+03  0.26186400225E+03  0.48660045793E+03  0.87160272097E+03  0.46999998093E+01 0.  1.
</event>
<event>
 5   0  0.7497344E-06  0.2300047E+04  0.7818609E-02  0.8477903E-01
       -2   -1    0    0    0  501  0.00000000000E+00  0.00000000000E+00  0.73849971858E+03  0.73849971859E+03  0.25500000920E-02 0. -1.
        2   -1    0    0  501    0  0.00000000000E+00  0.00000000000E+00 -0.17908656003E+04  0.17908656003E+04  0.25500000920E-02 0.  1.
    10030    2    1    2    0    0  0.00000000000E+00  0.00000000000E+00 -0.10523658817E+04  0.25293653189E+04  0.23000467316E+04 0.  0.
        5    1    3    3  502    0  0.26824441581E+03 -0.75528902101E+02  0.70079638112E+03  0.75418654155E+03  0.46999998093E+01 0. -1.
       -5    1    3    3    0  502 -0.26824441581E+03  0.75528902101E+02 -0.17531622628E+04  0.17751787773E+04  0.46999998093E+01 0.  1.
</event>
<event>
 5   0  0.7003852E-06  0.2301155E+04  0.7818609E-02  0.8477466E-01
       -2   -1    0    0    0  501  0.00000000000E+00  0.00000000000E+00  0.66960061471E+03  0.66960061471E+03  0.25500000920E-02 0.  1.
        2   -1    0    0  501    0  0.00000000000E+00  0.00000000000E+00 -0.19770428703E+04  0.19770428703E+04  0.25500000920E-02 0. -1.
    10030    2    1    2    0    0  0.00000000000E+00  0.00000000000E+00 -0.13074422556E+04  0.26466434850E+04  0.23011554674E+04 0.  0.
        2    1    3    3  502    0 -0.32868275852E+03 -0.44147902008E+03 -0.18158107010E+04  0.18973941559E+04  0.25500000920E-02 0. -1.
       -2    1    3    3    0  502  0.32868275852E+03  0.44147902008E+03  0.50836844540E+03  0.74924932913E+03  0.25500000920E-02 0.  1.
</event>
<event>
 5   0  0.7497344E-06  0.2297094E+04  0.7818609E-02  0.8479068E-01
        2   -1    0    0  501    0  0.00000000000E+00  0.00000000000E+00  0.18737734642E+04  0.18737734642E+04  0.25500000920E-02 0.  1.
       -2   -1    0    0    0  501  0.00000000000E+00  0.00000000000E+00 -0.70401282028E+03  0.70401282029E+03  0.25500000920E-02 0. -1.
    10030    2    1    2    0    0  0.00000000000E+00  0.00000000000E+00  0.11697606439E+04  0.25777862845E+04  0.22970942872E+04 0.  0.
        5    1    3    3  502    0  0.33776192092E+03  0.53306173545E+03  0.16617780147E+04  0.17775731178E+04  0.46999998093E+01 0.  1.
       -5    1    3    3    0  502 -0.33776192092E+03 -0.53306173545E+03 -0.49201737076E+03  0.80021316670E+03  0.46999998093E+01 0. -1.
</event>
<event>
 5   0  0.3184492E-06  0.2305024E+04  0.7818609E-02  0.8475943E-01
        1   -1    0    0  501    0  0.00000000000E+00  0.00000000000E+00  0.12033344657E+04  0.12033344657E+04  0.50400001928E-02 0.  1.
       -1   -1    0    0    0  501  0.00000000000E+00  0.00000000000E+00 -0.11038361425E+04  0.11038361425E+04  0.50400001928E-02 0. -1.
    10030    2    1    2    0    0  0.00000000000E+00  0.00000000000E+00  0.99498323230E+02  0.23071706082E+04  0.23050241428E+04 0.  0.
        1    1    3    3  502    0  0.86877236314E+03 -0.65575136292E+03  0.42892748955E+03  0.11699376309E+04  0.50400001928E-02 0.  1.
       -1    1    3    3    0  502 -0.86877236314E+03  0.65575136292E+03 -0.32942916632E+03  0.11372329773E+04  0.50400001928E-02 0. -1.
</event>
<event>
 5   0  0.7003852E-06  0.2301951E+04  0.7818609E-02  0.8477152E-01
       -2   -1    0    0    0  501  0.00000000000E+00  0.00000000000E+00  0.13527168547E+04  0.13527168547E+04  0.25500000920E-02 0. -1.
        2   -1    0    0  501    0  0.00000000000E+00  0.00000000000E+00 -0.97932109595E+03  0.97932109595E+03  0.25500000920E-02 0.  1.
    10030    2    1    2    0    0  0.00000000000E+00  0.00000000000E+00  0.37339575880E+03  0.23320379507E+04  0.23019506100E+04 0.  0.
        2    1    3    3  502    0 -0.49173647587E+01 -0.74547016748E+03  0.10750827319E+04  0.13082632883E+04  0.25500000920E-02 0. -1.
       -2    1    3    3    0  502  0.49173647587E+01  0.74547016748E+03 -0.70168697312E+03  0.10237746624E+04  0.25500000920E-02 0.  1.
</event>
<event>
 5   0  0.3338758E-06  0.2308011E+04  0.7818609E-02  0.8474769E-01
        1   -1    0    0  501    0  0.00000000000E+00  0.00000000000E+00  0.17584537688E+04  0.17584537688E+04  0.50400001928E-02 0. -1.
       -1   -1    0    0    0  501  0.00000000000E+00  0.00000000000E+00 -0.75732956514E+03  0.75732956515E+03  0.50400001928E-02 0.  1.
    10030    2    1    2    0    0  0.00000000000E+00  0.00000000000E+00  0.10011242037E+04  0.25157833340E+04  0.23080112895E+04 0.  0.
        5    1    3    3  502    0  0.14510649107E+03 -0.73652266632E+03 -0.45480071238E+03  0.87771710120E+03  0.46999998093E+01 0.  1.
       -5    1    3    3    0  502 -0.14510649107E+03  0.73652266632E+03  0.14559249161E+04  0.16380662328E+04  0.46999998093E+01 0. -1.
</event>
<event>
 5   0  0.3238713E-06  0.2300814E+04  0.7818609E-02  0.8477600E-01
       -1   -1    0    0    0  501  0.00000000000E+00  0.00000000000E+00  0.14159054496E+04  0.14159054496E+04  0.50400001928E-02 0. -1.
        1   -1    0    0  501    0  0.00000000000E+00  0.00000000000E+00 -0.93469284966E+03  0.93469284968E+03  0.50400001928E-02 0.  1.
    10030    2    1    2    0    0  0.00000000000E+00  0.00000000000E+00  0.48121259992E+03  0.23505982993E+04  0.23008143772E+04 0.  0.
        3    1    3    3  502    0  0.17445648331E+03  0.10645416187E+04  0.64894545834E+03  0.12588940149E+04  0.10100000352E+00 0. -1.
       -3    1    3    3    0  502 -0.17445648331E+03 -0.10645416187E+04 -0.16773285841E+03  0.10917042844E+04  0.10100000352E+00 0.  1.
</event>
<event>
 5   0  0.7044981E-06  0.2300562E+04  0.7818609E-02  0.8477700E-01
       -2   -1    0    0    0  501  0.00000000000E+00  0.00000000000E+00  0.17626119082E+04  0.17626119082E+04  0.25500000920E-02 0.  1.
        2   -1    0    0  501    0  0.00000000000E+00  0.00000000000E+00 -0.75067378030E+03  0.75067378030E+03  0.25500000920E-02 0. -1.
    10030    2    1    2    0    0  0.00000000000E+00  0.00000000000E+00  0.10119381279E+04  0.25132856885E+04  0.23005621438E+04 0.  0.
        4    1    3    3  502    0  0.79190556363E+03  0.29336373962E+03 -0.34725185632E+03  0.91310578251E+03  0.12699999809E+01 0. -1.
       -4    1    3    3    0  502 -0.79190556363E+03 -0.29336373962E+03  0.13591899842E+04  0.16001799060E+04  0.12699999809E+01 0.  1.
</event>
<event>
 5   0  0.3338758E-06  0.2303931E+04  0.7818609E-02  0.8476373E-01
       -1   -1    0    0    0  501  0.00000000000E+00  0.00000000000E+00  0.64701197092E+03  0.64701197094E+03  0.50400001928E-02 0.  1.
        1   -1    0    0  501    0  0.00000000000E+00  0.00000000000E+00 -0.20510049402E+04  0.20510049402E+04  0.50400001928E-02 0. -1.
    10030    2    1    2    0    0  0.00000000000E+00  0.00000000000E+00 -0.14039929693E+04  0.26980169111E+04  0.23039312045E+04 0.  0.
        5    1    3    3  502    0  0.57776931172E+03 -0.88906311184E+02 -0.18643954196E+04  0.19538971519E+04  0.46999998093E+01 0. -1.
       -5    1    3    3    0  502 -0.57776931172E+03  0.88906311184E+02  0.46040245035E+03  0.74411975919E+03  0.46999998093E+01 0.  1.
</event>
<event>
 5   0  0.3184492E-06  0.2288148E+04  0.7818609E-02  0.8482609E-01
       -1   -1    0    0    0  501  0.00000000000E+00  0.00000000000E+00  0.74791373226E+03  0.74791373228E+03  0.50400001928E-02 0.  1.
        1   -1    0    0  501    0  0.00000000000E+00  0.00000000000E+00 -0.17500755508E+04  0.17500755508E+04  0.50400001928E-02 0. -1.
    10030    2    1    2    0    0  0.00000000000E+00  0.00000000000E+00 -0.10021618186E+04  0.24979892831E+04  0.22881481919E+04 0.  0.
        1    1    3    3  502    0  0.11121714438E+04  0.26809505060E+03 -0.51228144858E+03  0.12534881568E+04  0.50400001928E-02 0. -1.
       -1    1    3    3    0  502 -0.11121714438E+04 -0.26809505060E+03 -0.48988036998E+03  0.12445011263E+04  0.50400001928E-02 0.  1.
</event>
<event>
 5   0  0.3338758E-06  0.2306454E+04  0.7818609E-02  0.8475381E-01
        1   -1    0    0  501    0  0.00000000000E+00  0.00000000000E+00  0.13124170814E+04  0.13124170814E+04  0.50400001928E-02 0. -1.
       -1   -1    0    0    0  501  0.00000000000E+00  0.00000000000E+00 -0.10133462023E+04  0.10133462023E+04  0.50400001928E-02 0.  1.
    10030    2    1    2    0    0  0.00000000000E+00  0.00000000000E+00  0.29907087912E+03  0.23257632837E+04  0.23064543050E+04 0.  0.
        5    1    3    3  502    0  0.11157818345E+03 -0.65726185917E+03  0.10984062222E+04  0.12848973350E+04  0.46999998093E+01 0. -1.
       -5    1    3    3    0  502 -0.11157818345E+03  0.65726185917E+03 -0.79933534305E+03  0.10408659487E+04  0.46999998093E+01 0.  1.
</event>
<event>
 5   0  0.7348107E-06  0.2297535E+04  0.7818609E-02  0.8478894E-01
       -2   -1    0    0    0  501  0.00000000000E+00  0.00000000000E+00  0.70413140662E+03  0.70413140663E+03  0.25500000920E-02 0.  1.
        2   -1    0    0  501    0  0.00000000000E+00  0.00000000000E+00 -0.18741763425E+04  0.18741763425E+04  0.25500000920E-02 0. -1.
    10030    2    1    2    0    0  0.00000000000E+00  0.00000000000E+00 -0.11700449358E+04  0.25783077491E+04  0.22975346999E+04 0.  0.
        3    1    3    3  502    0 -0.55739092899E+03 -0.99764046518E+03 -0.71635065577E+03  0.13487510585E+04  0.10100000352E+00 0.  1.
       -3    1    3    3    0  502  0.55739092899E+03  0.99764046518E+03 -0.45369428006E+03  0.12295566906E+04  0.10100000352E+00 0. -1.
</event>
<event>
 5   0  0.3226427E-06  0.2300003E+04  0.7818609E-02  0.8477920E-01
       -1   -1    0    0    0  501  0.00000000000E+00  0.00000000000E+00  0.15409924789E+04  0.15409924790E+04  0.50400001928E-02 0. -1.
        1   -1    0    0  501    0  0.00000000000E+00  0.00000000000E+00 -0.85821556398E+03  0.85821556400E+03  0.50400001928E-02 0.  1.
    10030    2    1    2    0    0  0.00000000000E+00  0.00000000000E+00  0.68277691496E+03  0.23992080430E+04  0.23000032430E+04 0.  0.
        4    1    3    3  502    0  0.49873681821E+03  0.41847999372E+03  0.13302418269E+04  0.14810161545E+04  0.12699999809E+01 0. -1.
       -4    1    3    3    0  502 -0.49873681821E+03 -0.41847999372E+03 -0.64746491192E+03  0.91819188846E+03  0.12699999809E+01 0.  1.
</event>
<event>
 5   0  0.2519625E-06  0.2298504E+04  0.7818609E-02  0.8478511E-01
        3   -1    0    0  501    0  0.00000000000E+00  0.00000000000E+00  0.53529944157E+03  0.53529945110E+03  0.10100000352E+00 0. -1.
       -3   -1    0    0    0  501  0.00000000000E+00  0.00000000000E+00 -0.24673676161E+04  0.24673676182E+04  0.10100000352E+00 0.  1.
    10030    2    1    2    0    0  0.00000000000E+00  0.00000000000E+00 -0.19320681745E+04  0.30026670693E+04  0.22985043175E+04 0.  0.
        4    1    3    3  502    0  0.85963443413E+03  0.62308866326E+03 -0.15407837378E+04  0.18711565894E+04  0.12699999809E+01 0.  1.
       -4    1    3    3    0  502 -0.85963443413E+03 -0.62308866326E+03 -0.39128443673E+03  0.11315104798E+04  0.12699999809E+01 0. -1.
</event>
<event>
 5   0  0.7497344E-06  0.2298438E+04  0.7818609E-02  0.8478537E-01
        2   -1    0    0  501    0  0.00000000000E+00  0.00000000000E+00  0.10626402019E+04  0.10626402019E+04  0.25500000920E-02 0. -1.
       -2   -1    0    0    0  501  0.00000000000E+00  0.00000000000E+00 -0.12428515865E+04  0.12428515865E+04  0.25500000920E-02 0.  1.
    10030    2    1    2    0    0  0.00000000000E+00  0.00000000000E+00 -0.18021138468E+03  0.23054917884E+04  0.22984377832E+04 0.  0.
        5    1    3    3  502    0  0.10173616001E+03 -0.62085480040E+03 -0.10547593563E+04  0.12281491437E+04  0.46999998093E+01 0.  1.
       -5    1    3    3    0  502 -0.10173616001E+03  0.62085480040E+03  0.87454797162E+03  0.10773426447E+04  0.46999998093E+01 0. -1.
</event>
<event>
 5   0  0.3338758E-06  0.2302455E+04  0.7818609E-02  0.8476954E-01
       -1   -1    0    0    0  501  0.00000000000E+00  0.00000000000E+00  0.86657890777E+03  0.86657890779E+03  0.50400001928E-02 0. -1.
        1   -1    0    0  501    0  0.00000000000E+00  0.00000000000E+00 -0.15293759624E+04  0.15293759624E+04  0.50400001928E-02 0.  1.
    10030    2    1    2    0    0  0.00000000000E+00  0.00000000000E+00 -0.66279705458E+03  0.23959548701E+04  0.23024551688E+04 0.  0.
        5    1    3    3  502    0 -0.40120005474E+03  0.97937805118E+03 -0.80273799442E+03  0.13283648703E+04  0.46999998093E+01 0. -1.
       -5    1    3    3    0  502  0.40120005474E+03 -0.97937805118E+03  0.13994093984E+03  0.10675899998E+04  0.46999998093E+01 0.  1.
</event>
<event>
 5   0  0.7044981E-06  0.2300277E+04  0.7818609E-02  0.8477812E-01
       -2   -1    0    0    0  501  0.00000000000E+00  0.00000000000E+00  0.12656313910E+04  0.12656313910E+04  0.25500000920E-02 0. -1.
        2   -1    0    0  501    0  0.00000000000E+00  0.00000000000E+00 -0.10451849761E+04  0.10451849761E+04  0.25500000920E-02 0.  1.
    10030    2    1    2    0    0  0.00000000000E+00  0.00000000000E+00  0.22044641489E+03  0.23108163671E+04  0.23002773008E+04 0.  0.
        4    1    3    3  502    0  0.80099539176E+02 -0.51801285362E+03 -0.91821725073E+03  0.10572973967E+04  0.12699999809E+01 0.  1.
       -4    1    3    3    0  502 -0.80099539176E+02  0.51801285362E+03  0.11386636656E+04  0.12535189703E+04  0.12699999809E+01 0. -1.
</event>
<event>
 5   0  0.3226427E-06  0.2297338E+04  0.7818609E-02  0.8478972E-01
       -1   -1    0    0    0  501  0.00000000000E+00  0.00000000000E+00  0.50563630557E+03  0.50563630559E+03  0.50400001928E-02 0.  1.
        1   -1    0    0  501    0  0.00000000000E+00  0.00000000000E+00 -0.26094649507E+04  0.26094649507E+04  0.50400001928E-02 0. -1.
    10030    2    1    2    0    0  0.00000000000E+00  0.00000000000E+00 -0.21038286451E+04  0.31151012563E+04  0.22973377786E+04 0.  0.
        4    1    3    3  502    0  0.77092658006E+03  0.11987139556E+03  0.91235623017E+02  0.78550779444E+03  0.12699999809E+01 0. -1.
       -4    1    3    3    0  502 -0.77092658006E+03 -0.11987139556E+03 -0.21950642682E+04  0.23295934619E+04  0.12699999809E+01 0.  1.
</event>
<event>
 5   0  0.3195296E-06  0.2302527E+04  0.7818609E-02  0.8476925E-01
        1   -1    0    0  501    0  0.00000000000E+00  0.00000000000E+00  0.18916932429E+04  0.18916932430E+04  0.50400001928E-02 0. -1.
       -1   -1    0    0    0  501  0.00000000000E+00  0.00000000000E+00 -0.70064625124E+03  0.70064625125E+03  0.50400001928E-02 0.  1.
    10030    2    1    2    0    0  0.00000000000E+00  0.00000000000E+00  0.11910469917E+04  0.25923394942E+04  0.23025271153E+04 0.  0.
        2    1    3    3  502    0 -0.10167298047E+04 -0.26880506820E+03  0.11228959339E+04  0.15384703243E+04  0.25500000920E-02 0.  1.
       -2    1    3    3    0  502  0.10167298047E+04  0.26880506820E+03  0.68151057810E+02  0.10538691699E+04  0.25500000920E-02 0. -1.
</event>
<event>
 5   0  0.3238713E-06  0.2300053E+04  0.7818609E-02  0.8477900E-01
        1   -1    0    0  501    0  0.00000000000E+00  0.00000000000E+00  0.22691596329E+04  0.22691596329E+04  0.50400001928E-02 0.  1.
       -1   -1    0    0    0  501  0.00000000000E+00  0.00000000000E+00 -0.58284180164E+03  0.58284180167E+03  0.50400001928E-02 0. -1.
    10030    2    1    2    0    0  0.00000000000E+00  0.00000000000E+00  0.16863178313E+04  0.28520014346E+04  0.23000531200E+04 0.  0.
        3    1    3    3  502    0  0.74789457453E+03 -0.15993569964E+03 -0.22179971095E+03  0.79631705031E+03  0.10100000352E+00 0. -1.
       -3    1    3    3    0  502 -0.74789457453E+03  0.15993569964E+03  0.19081175422E+04  0.20556843843E+04  0.10100000352E+00 0.  1.
</event>
<event>
 5   0  0.7348107E-06  0.2303151E+04  0.7818609E-02  0.8476680E-01
       -2   -1    0    0    0  501  0.00000000000E+00  0.00000000000E+00  0.63768214083E+03  0.63768214084E+03  0.25500000920E-02 0. -1.
        2   -1    0    0  501    0  0.00000000000E+00  0.00000000000E+00 -0.20796045224E+04  0.20796045224E+04  0.25500000920E-02 0.  1.
    10030    2    1    2    0    0  0.00000000000E+00  0.00000000000E+00 -0.14419223815E+04  0.27172866632E+04  0.23031514617E+04 0.  0.
        3    1    3    3  502    0  0.64458433490E+03 -0.90464645961E+03 -0.36261568329E+03  0.11684880511E+04  0.10100000352E+00 0. -1.
       -3    1    3    3    0  502 -0.64458433490E+03  0.90464645961E+03 -0.10793066982E+04  0.15487986121E+04  0.10100000352E+00 0.  1.
</event>
<event>
 5   0  0.3195296E-06  0.2297357E+04  0.7818609E-02  0.8478964E-01
       -1   -1    0    0    0  501  0.00000000000E+00  0.00000000000E+00  0.77461455377E+03  0.77461455378E+03  0.50400001928E-02 0. -1.
        1   -1    0    0  501    0  0.00000000000E+00  0.00000000000E+00 -0.17033795440E+04  0.17033795440E+04  0.50400001928E-02 0.  1.
    10030    2    1    2    0    0  0.00000000000E+00  0.00000000000E+00 -0.92876499020E+03  0.24779940978E+04  0.22973572516E+04 0.  0.
        2    1    3    3  502    0 -0.42063634701E+03 -0.97736911056E+02 -0.16124883278E+04  0.16693130466E+04  0.25500000920E-02 0.  1.
       -2    1    3    3    0  502  0.42063634701E+03  0.97736911056E+02  0.68372333758E+03  0.80868105120E+03  0.25500000920E-02 0. -1.
</event>
<event>
 5   0  0.3195296E-06  0.2306442E+04  0.7818609E-02  0.8475385E-01
       -1   -1    0    0    0  501  0.00000000000E+00  0.00000000000E+00  0.80208687850E+03  0.80208687852E+03  0.50400001928E-02 0.  1.
        1   -1    0    0  501    0  0.00000000000E+00  0.00000000000E+00 -0.16580729709E+04  0.16580729709E+04  0.50400001928E-02 0. -1.
    10030    2    1    2    0    0  0.00000000000E+00  0.00000000000E+00 -0.85598609239E+03  0.24601598494E+04  0.23064419122E+04 0.  0.
        2    1    3    3  502    0  0.47781782264E+03  0.61786459010E+03  0.47699413576E+03  0.91519939297E+03  0.25500000920E-02 0.  1.
       -2    1    3    3    0  502 -0.47781782264E+03 -0.61786459010E+03 -0.13329802281E+04  0.15449604564E+04  0.25500000920E-02 0. -1.
</event>
<event>
 5   0  0.7497344E-06  0.2326963E+04  0.7818609E-02  0.8467365E-01
       -2   -1    0    0    0  501  0.00000000000E+00  0.00000000000E+00  0.12362523008E+04  0.12362523008E+04  0.25500000920E-02 0.  1.
        2   -1    0    0  501    0  0.00000000000E+00  0.00000000000E+00 -0.10949940692E+04  0.10949940692E+04  0.25500000920E-02 0. -1.
    10030    2    1    2    0    0  0.00000000000E+00  0.00000000000E+00  0.14125823154E+03  0.23312463700E+04  0.23269627736E+04 0.  0.
        5    1    3    3  502    0  0.18357604969E+03 -0.11420632394E+04 -0.54734119126E+02  0.11580269956E+04  0.46999998093E+01 0.  1.
       -5    1    3    3    0  502 -0.18357604969E+03  0.11420632394E+04  0.19599235067E+03  0.11732193744E+04  0.46999998093E+01 0. -1.
</event>
<event>
 5   0  0.7044981E-06  0.2295288E+04  0.7818609E-02  0.8479781E-01
       -2   -1    0    0    0  501  0.00000000000E+00  0.00000000000E+00  0.73537406753E+03  0.73537406754E+03  0.25500000920E-02 0.  1.
        2   -1    0    0  501    0  0.00000000000E+00  0.00000000000E+00 -0.17910427186E+04  0.17910427186E+04  0.25500000920E-02 0. -1.
    10030    2    1    2    0    0  0.00000000000E+00  0.00000000000E+00 -0.10556686511E+04  0.25264167862E+04  0.22952876675E+04 0.  0.
        4    1    3    3  502    0 -0.92092104600E+02  0.80350920812E+02 -0.17838584204E+04  0.17880407443E+04  0.12699999809E+01 0. -1.
       -4    1    3    3    0  502  0.92092104600E+02 -0.80350920812E+02  0.72818976932E+03  0.73837604189E+03  0.12699999809E+01 0.  1.
</event>
<event>
 5   0  0.3195296E-06  0.2302631E+04  0.7818609E-02  0.8476884E-01
       -1   -1    0    0    0  501  0.00000000000E+00  0.00000000000E+00  0.54569943727E+03  0.54569943729E+03  0.50400001928E-02 0. -1.
        1   -1    0    0  501    0  0.00000000000E+00  0.00000000000E+00 -0.24290433218E+04  0.24290433218E+04  0.50400001928E-02 0.  1.
    10030    2    1    2    0    0  0.00000000000E+00  0.00000000000E+00 -0.18833438845E+04  0.29747427591E+04  0.23026311679E+04 0.  0.
        2    1    3    3  502    0 -0.42237942265E+03 -0.90397146193E+03 -0.19958482807E+03  0.10175474850E+04  0.25500000920E-02 0. -1.
       -2    1    3    3    0  502  0.42237942265E+03  0.90397146193E+03 -0.16837590565E+04  0.19571952741E+04  0.25500000920E-02 0.  1.
</event>
<event>
 5   0  0.3238713E-06  0.2303821E+04  0.7818609E-02  0.8476416E-01
       -1   -1    0    0    0  501  0.00000000000E+00  0.00000000000E+00  0.16394957659E+04  0.16394957659E+04  0.50400001928E-02 0.  1.
        1   -1    0    0  501    0  0.00000000000E+00  0.00000000000E+00 -0.80933260648E+03  0.80933260650E+03  0.50400001928E-02 0. -1.
    10030    2    1    2    0    0  0.00000000000E+00  0.00000000000E+00  0.83016315942E+03  0.24488283724E+04  0.23038206367E+04 0.  0.
        3    1    3    3  502    0  0.11155033192E+04 -0.11473367219E+03  0.69507337130E+03  0.13193325859E+04  0.10100000352E+00 0.  1.
       -3    1    3    3    0  502 -0.11155033192E+04  0.11473367219E+03  0.13508978812E+03  0.11294957865E+04  0.10100000352E+00 0. -1.
</event>
<event>
 5   0  0.3238713E-06  0.2287175E+04  0.7818609E-02  0.8482995E-01
       -1   -1    0    0    0  501  0.00000000000E+00  0.00000000000E+00  0.54888361582E+03  0.54888361584E+03  0.50400001928E-02 0.  1.
        1   -1    0    0  501    0  0.00000000000E+00  0.00000000000E+00 -0.23826415311E+04  0.23826415311E+04  0.50400001928E-02 0. -1.
    10030    2    1    2    0    0  0.00000000000E+00  0.00000000000E+00 -0.18337579153E+04  0.29315251470E+04  0.22871754623E+04 0.  0.
        3    1    3    3  502    0  0.91493452583E+03  0.62534380122E+03 -0.12785720564E+04  0.16920125797E+04  0.10100000352E+00 0. -1.
       -3    1    3    3    0  502 -0.91493452583E+03 -0.62534380122E+03 -0.55518585892E+03  0.12395125673E+04  0.10100000352E+00 0.  1.
</event>
<event>
 5   0  0.7003852E-06  0.2297136E+04  0.7818609E-02  0.8479051E-01
        2   -1    0    0  501    0  0.00000000000E+00  0.00000000000E+00  0.19552893072E+04  0.19552893072E+04  0.25500000920E-02 0.  1.
       -2   -1    0    0    0  501  0.00000000000E+00  0.00000000000E+00 -0.67468679792E+03  0.67468679792E+03  0.25500000920E-02 0. -1.
    10030    2    1    2    0    0  0.00000000000E+00  0.00000000000E+00  0.12806025093E+04  0.26299761052E+04  0.22971355047E+04 0.  0.
        2    1    3    3  502    0 -0.17198724772E+03  0.11166507659E+04  0.40366709863E+03  0.11997648407E+04  0.25500000920E-02 0. -1.
       -2    1    3    3    0  502  0.17198724772E+03 -0.11166507659E+04  0.87693541068E+03  0.14302112645E+04  0.25500000920E-02 0.  1.
</event>
<event>
 5   0  0.3184492E-06  0.2301246E+04  0.7818609E-02  0.8477430E-01
        1   -1    0    0  501    0  0.00000000000E+00  0.00000000000E+00  0.10546317377E+04  0.10546317377E+04  0.50400001928E-02 0.  1.
       -1   -1    0    0    0  501  0.00000000000E+00  0.00000000000E+00 -0.12553510637E+04  0.12553510638E+04  0.50400001928E-02 0. -1.
    10030    2    1    2    0    0  0.00000000000E+00  0.00000000000E+00 -0.20071932607E+03  0.23099828014E+04  0.23012458137E+04 0.  0.
        1    1    3    3  502    0 -0.26851086735E+03 -0.11164313798E+04 -0.17423229046E+03  0.11614103507E+04  0.50400001928E-02 0.  1.
       -1    1    3    3    0  502  0.26851086735E+03  0.11164313798E+04 -0.26487035603E+02  0.11485724508E+04  0.50400001928E-02 0. -1.
</event>
<event>
 5   0  0.7497344E-06  0.2293749E+04  0.7818609E-02  0.8480390E-01
       -2   -1    0    0    0  501  0.00000000000E+00  0.00000000000E+00  0.67739318104E+03  0.67739318105E+03  0.25500000920E-02 0. -1.
        2   -1    0    0  501    0  0.00000000000E+00  0.00000000000E+00 -0.19417396149E+04  0.19417396149E+04  0.25500000920E-02 0.  1.
    10030    2    1    2    0    0  0.00000000000E+00  0.00000000000E+00 -0.12643464339E+04  0.26191327960E+04  0.22937490486E+04 0.  0.
        5    1    3    3  502    0 -0.42954507961E+03  0.96293636469E+02  0.57707281949E+03  0.72582130641E+03  0.46999998093E+01 0. -1.
       -5    1    3    3    0  502  0.42954507961E+03 -0.96293636469E+02 -0.18414192534E+04  0.18933114895E+04  0.46999998093E+01 0.  1.
</event>
<event>
 5   0  0.3238713E-06  0.2300898E+04  0.7818609E-02  0.8477567E-01
        1   -1    0    0  501    0  0.00000000000E+00  0.00000000000E+00  0.14292242435E+04  0.14292242436E+04  0.50400001928E-02 0.  1.
       -1   -1    0    0    0  501  0.00000000000E+00  0.00000000000E+00 -0.92605000124E+03  0.92605000125E+03  0.50400001928E-02 0. -1.
    10030    2    1    2    0    0  0.00000000000E+00  0.00000000000E+00  0.50317424231E+03  0.23552742448E+04  0.23008981833E+04 0.  0.
        3    1    3    3  502    0 -0.57838026762E+03  0.94722769362E+03 -0.58506073174E+02  0.11113896744E+04  0.10100000352E+00 0. -1.
       -3    1    3    3    0  502  0.57838026762E+03 -0.94722769362E+03  0.56168031548E+03  0.12438845704E+04  0.10100000352E+00 0.  1.
</event>
<event>
 5   0  0.7003852E-06  0.2298312E+04  0.7818609E-02  0.8478587E-01
       -2   -1    0    0    0  501  0.00000000000E+00  0.00000000000E+00  0.52766365347E+03  0.52766365348E+03  0.25500000920E-02 0.  1.
        2   -1    0    0  501    0  0.00000000000E+00  0.00000000000E+00 -0.25026542728E+04  0.25026542728E+04  0.25500000920E-02 0. -1.
    10030    2    1    2    0    0  0.00000000000E+00  0.00000000000E+00 -0.19749906194E+04  0.30303179263E+04  0.22983121607E+04 0.  0.
        2    1    3    3  502    0 -0.37070889116E+03  0.24420579297E+03 -0.23850388912E+04  0.24259991888E+04  0.25500000920E-02 0. -1.
       -2    1    3    3    0  502  0.37070889116E+03 -0.24420579297E+03  0.41004827185E+03  0.60431873755E+03  0.25500000920E-02 0.  1.
</event>
<event>
 5   0  0.7497344E-06  0.2300681E+04  0.7818609E-02  0.8477653E-01
        2   -1    0    0  501    0  0.00000000000E+00  0.00000000000E+00  0.20994884200E+04  0.20994884200E+04  0.25500000920E-02 0. -1.
       -2   -1    0    0    0  501  0.00000000000E+00  0.00000000000E+00 -0.63028858579E+03  0.63028858579E+03  0.25500000920E-02 0.  1.
    10030    2    1    2    0    0  0.00000000000E+00  0.00000000000E+00  0.14691998342E+04  0.27297770058E+04  0.23006812792E+04 0.  0.
        5    1    3    3  502    0  0.73144081038E+03  0.80647104191E+02 -0.31447180437E+03  0.80026509373E+03  0.46999998093E+01 0.  1.
       -5    1    3    3    0  502 -0.73144081038E+03 -0.80647104191E+02  0.17836716386E+04  0.19295119121E+04  0.46999998093E+01 0. -1.
</event>
<event>
 5   0  0.3184492E-06  0.2299457E+04  0.7818609E-02  0.8478135E-01
       -1   -1    0    0    0  501  0.00000000000E+00  0.00000000000E+00  0.83341420067E+03  0.83341420069E+03  0.50400001928E-02 0.  1.
        1   -1    0    0  501    0  0.00000000000E+00  0.00000000000E+00 -0.15860973775E+04  0.15860973775E+04  0.50400001928E-02 0. -1.
    10030    2    1    2    0    0  0.00000000000E+00  0.00000000000E+00 -0.75268317686E+03  0.24195115782E+04  0.22994573952E+04 0.  0.
        1    1    3    3  502    0 -0.11153706249E+03 -0.11435628786E+04 -0.33296419023E+03  0.11962615624E+04  0.50400001928E-02 0.  1.
       -1    1    3    3    0  502  0.11153706249E+03  0.11435628786E+04 -0.41971898663E+03  0.12232500159E+04  0.50400001928E-02 0. -1.
</event>
<event>
 5   0  0.3226427E-06  0.2302640E+04  0.7818609E-02  0.8476881E-01
       -1   -1    0    0    0  501  0.00000000000E+00  0.00000000000E+00  0.11992654240E+04  0.11992654241E+04  0.50400001928E-02 0. -1.
        1   -1    0    0  501    0  0.00000000000E+00  0.00000000000E+00 -0.11052916051E+04  0.11052916051E+04  0.50400001928E-02 0.  1.
    10030    2    1    2    0    0  0.00000000000E+00  0.00000000000E+00  0.93973818968E+02  0.23045570291E+04  0.23026402285E+04 0.  0.
        4    1    3    3  502    0  0.10741790398E+04 -0.17592217358E+03 -0.32846157185E+03  0.11369687057E+04  0.12699999809E+01 0.  1.
       -4    1    3    3    0  502 -0.10741790398E+04  0.17592217358E+03  0.42243539082E+03  0.11675883234E+04  0.12699999809E+01 0. -1.
</event>
<event>
 5   0  0.7348107E-06  0.2299637E+04  0.7818609E-02  0.8478064E-01
       -2   -1    0    0    0  501  0.00000000000E+00  0.00000000000E+00  0.91489932339E+03  0.91489932340E+03  0.25500000920E-02 0.  1.
        2   -1    0    0  501    0  0.00000000000E+00  0.00000000000E+00 -0.14450574916E+04  0.14450574917E+04  0.25500000920E-02 0. -1.
    10030    2    1    2    0    0  0.00000000000E+00  0.00000000000E+00 -0.53015816826E+03  0.23599568150E+04  0.22996365986E+04 0.  0.
        3    1    3    3  502    0 -0.98602672848E+03  0.52649395315E+03  0.11503828466E+02  0.11178447747E+04  0.10100000352E+00 0.  1.
       -3    1    3    3    0  502  0.98602672848E+03 -0.52649395315E+03 -0.54166199672E+03  0.12421120404E+04  0.10100000352E+00 0. -1.
</event>
<event>
 5   0  0.3338758E-06  0.2307461E+04  0.7818609E-02  0.8474985E-01
       -1   -1    0    0    0  501  0.00000000000E+00  0.00000000000E+00  0.65553512787E+03  0.65553512789E+03  0.50400001928E-02 0.  1.
        1   -1    0    0  501    0  0.00000000000E+00  0.00000000000E+00 -0.20305457992E+04  0.20305457992E+04  0.50400001928E-02 0. -1.
    10030    2    1    2    0    0  0.00000000000E+00  0.00000000000E+00 -0.13750106713E+04  0.26860809271E+04  0.23074610290E+04 0.  0.
        5    1    3    3  502    0 -0.16318228546E+03 -0.88388769474E+02  0.63803489919E+03  0.66449353303E+03  0.46999998093E+01 0.  1.
       -5    1    3    3    0  502  0.16318228546E+03  0.88388769474E+02 -0.20130455705E+04  0.20215873940E+04  0.46999998093E+01 0. -1.
</event>
<event>
 5   0  0.7242214E-06  0.2301171E+04  0.7818609E-02  0.8477459E-01
        2   -1    0    0  501    0  0.00000000000E+00  0.00000000000E+00  0.28360896494E+04  0.28360896494E+04  0.25500000920E-02 0. -1.
       -2   -1    0    0    0  501  0.00000000000E+00  0.00000000000E+00 -0.46678618881E+03  0.46678618882E+03  0.25500000920E-02 0.  1.
    10030    2    1    2    0    0  0.00000000000E+00  0.00000000000E+00  0.23693034606E+04  0.33028758382E+04  0.23011714222E+04 0.  0.
        1    1    3    3  502    0 -0.47425839584E+03 -0.10478981775E+04  0.11431553124E+04  0.16216706462E+04  0.50400001928E-02 0.  1.
       -1    1    3    3    0  502  0.47425839584E+03  0.10478981775E+04  0.12261481482E+04  0.16812051920E+04  0.50400001928E-02 0. -1.
</event>
<event>
 5   0  0.3184492E-06  0.2302786E+04  0.7818609E-02  0.8476824E-01
       -1   -1    0    0    0  501  0.00000000000E+00  0.00000000000E+00  0.81654611399E+03  0.81654611401E+03  0.50400001928E-02 0.  1.
        1   -1    0    0  501    0  0.00000000000E+00  0.00000000000E+00 -0.16235523916E+04  0.16235523916E+04  0.50400001928E-02 0. -1.
    10030    2    1    2    0    0  0.00000000000E+00  0.00000000000E+00 -0.80700627762E+03  0.24400985056E+04  0.23027856142E+04 0.  0.
        1    1    3    3  502    0  0.55051243840E+03 -0.29687142408E+02  0.66759268560E+03  0.86580902348E+03  0.50400001928E-02 0.  1.
       -1    1    3    3    0  502 -0.55051243840E+03  0.29687142408E+02 -0.14745989632E+04  0.15742894821E+04  0.50400001928E-02 0. -1.
</event>
<event>
 5   0  0.7003852E-06  0.2320676E+04  0.7818609E-02  0.8469813E-01
       -2   -1    0    0    0  501  0.00000000000E+00  0.00000000000E+00  0.11383316846E+04  0.11383316846E+04  0.25500000920E-02 0.  1.
        2   -1    0    0  501    0  0.00000000000E+00  0.00000000000E+00 -0.11827699714E+04  0.11827699714E+04  0.25500000920E-02 0. -1.
    10030    2    1    2    0    0  0.00000000000E+00  0.00000000000E+00 -0.44438286838E+02  0.23211016560E+04  0.23206762239E+04 0.  0.
        2    1    3    3  502    0 -0.40649172214E+03  0.73155144619E+03 -0.82609622542E+03  0.11759413303E+04  0.25500000920E-02 0. -1.
       -2    1    3    3    0  502  0.40649172214E+03 -0.73155144619E+03  0.78165793859E+03  0.11451603257E+04  0.25500000920E-02 0.  1.
</event>
<event>
 5   0  0.3238713E-06  0.2298843E+04  0.7818609E-02  0.8478377E-01
        1   -1    0    0  501    0  0.00000000000E+00  0.00000000000E+00  0.16688981014E+04  0.16688981014E+04  0.50400001928E-02 0.  1.
       -1   -1    0    0    0  501  0.00000000000E+00  0.00000000000E+00 -0.79164211171E+03  0.79164211172E+03  0.50400001928E-02 0. -1.
    10030    2    1    2    0    0  0.00000000000E+00  0.00000000000E+00  0.87725598967E+03  0.24605402131E+04  0.22988432023E+04 0.  0.
        3    1    3    3  502    0 -0.55642163528E+03  0.14080908747E+03 -0.62727956903E+03  0.85024226151E+03  0.10100000352E+00 0. -1.
       -3    1    3    3    0  502  0.55642163528E+03 -0.14080908747E+03  0.15045355587E+04  0.16102979516E+04  0.10100000352E+00 0.  1.
</event>
<event>
 5   0  0.7044981E-06  0.2298464E+04  0.7818609E-02  0.8478527E-01
       -2   -1    0    0    0  501  0.00000000000E+00  0.00000000000E+00  0.18937459634E+04  0.18937459634E+04  0.25500000920E-02 0.  1.
        2   -1    0    0  501    0  0.00000000000E+00  0.00000000000E+00 -0.69741891657E+03  0.69741891657E+03  0.25500000920E-02 0. -1.
    10030    2    1    2    0    0  0.00000000000E+00  0.00000000000E+00  0.11963270468E+04  0.25911648799E+04  0.22984640593E+04 0.  0.
        4    1    3    3  502    0 -0.10361065769E+03 -0.13095133431E+03  0.18799960016E+04  0.18873976791E+04  0.12699999809E+01 0.  1.
       -4    1    3    3    0  502  0.10361065769E+03  0.13095133431E+03 -0.68366895477E+03  0.70376720082E+03  0.12699999809E+01 0. -1.
</event>
<event>
 5   0  0.7242214E-06  0.2299963E+04  0.7818609E-02  0.8477936E-01
       -2   -1    0    0    0  501  0.00000000000E+00  0.00000000000E+00  0.82513278457E+03  0.82513278458E+03  0.25500000920E-02 0. -1.
        2   -1    0    0  501    0  0.00000000000E+00  0.00000000000E+00 -0.16027205090E+04  0.16027205090E+04  0.25500000920E-02 0.  1.
    10030    2    1    2    0    0  0.00000000000E+00  0.00000000000E+00 -0.77758772443E+03  0.24278532936E+04  0.22999628140E+04 0.  0.
        1    1    3    3  502    0 -0.53111918733E+03 -0.30079734131E+02 -0.14650274236E+04  0.15586204585E+04  0.50400001928E-02 0.  1.
       -1    1    3    3    0  502  0.53111918733E+03  0.30079734131E+02  0.68743969921E+03  0.86923283511E+03  0.50400001928E-02 0. -1.
</event>
<event>
 5   0  0.3238713E-06  0.2295932E+04  0.7818609E-02  0.8479527E-01
        1   -1    0    0  501    0  0.00000000000E+00  0.00000000000E+00  0.21200281224E+04  0.21200281224E+04  0.50400001928E-02 0. -1.
       -1   -1    0    0    0  501  0.00000000000E+00  0.00000000000E+00 -0.62160792056E+03  0.62160792058E+03  0.50400001928E-02 0.  1.
    10030    2    1    2    0    0  0.00000000000E+00  0.00000000000E+00  0.14984202018E+04  0.27416360430E+04  0.22959322923E+04 0.  0.
        3    1    3    3  502    0 -0.82764685534E+03 -0.68244349985E+03  0.26107941528E+03  0.11040339302E+04  0.10100000352E+00 0.  1.
       -3    1    3    3    0  502  0.82764685534E+03  0.68244349985E+03  0.12373407865E+04  0.16376021128E+04  0.10100000352E+00 0. -1.
</event>
<event>
 5   0  0.3338758E-06  0.2261788E+04  0.7818609E-02  0.8493142E-01
       -1   -1    0    0    0  501  0.00000000000E+00  0.00000000000E+00  0.10417897353E+04  0.10417897353E+04  0.50400001928E-02 0.  1.
        1   -1    0    0  501    0  0.00000000000E+00  0.00000000000E+00 -0.12276194826E+04  0.12276194826E+04  0.50400001928E-02 0. -1.
    10030    2    1    2    0    0  0.00000000000E+00  0.00000000000E+00 -0.18582974727E+03  0.22694092180E+04  0.22617881209E+04 0.  0.
        5    1    3    3  502    0 -0.98210942461E+02  0.53133409299E+03 -0.10897098176E+04  0.12163267999E+04  0.46999998093E+01 0. -1.
       -5    1    3    3    0  502  0.98210942461E+02 -0.53133409299E+03  0.90388007036E+03  0.10530824180E+04  0.46999998093E+01 0.  1.
</event>
<event>
 5   0  0.3238713E-06  0.2305689E+04  0.7818609E-02  0.8475681E-01
       -1   -1    0    0    0  501  0.00000000000E+00  0.00000000000E+00  0.64515777126E+03  0.64515777128E+03  0.50400001928E-02 0. -1.
        1   -1    0    0  501    0  0.00000000000E+00  0.00000000000E+00 -0.20600400312E+04  0.20600400312E+04  0.50400001928E-02 0.  1.
    10030    2    1    2    0    0  0.00000000000E+00  0.00000000000E+00 -0.14148822599E+04  0.27051978025E+04  0.23056893418E+04 0.  0.
        3    1    3    3  502    0  0.10498180853E+04  0.31183520274E+03 -0.11299678614E+04  0.15735903482E+04  0.10100000352E+00 0.  1.
       -3    1    3    3    0  502 -0.10498180853E+04 -0.31183520274E+03 -0.28491439854E+03  0.11316074543E+04  0.10100000352E+00 0. -1.
</event>
<event>
 5   0  0.2519625E-06  0.2352257E+04  0.7818609E-02  0.8457597E-01
        3   -1    0    0  501    0  0.00000000000E+00  0.00000000000E+00  0.16273605478E+04  0.16273605509E+04  0.10100000352E+00 0.  1.
       -3   -1    0    0    0  501  0.00000000000E+00  0.00000000000E+00 -0.85001354384E+03  0.85001354984E+03  0.10100000352E+00 0. -1.
    10030    2    1    2    0    0  0.00000000000E+00  0.00000000000E+00  0.77734700392E+03  0.24773741007E+04  0.23522572288E+04 0.  0.
        2    1    3    3  502    0 -0.70642608395E+03 -0.75275440288E+03  0.98221086584E+03  0.14249263799E+04  0.25500000920E-02 0.  1.
       -2    1    3    3    0  502  0.70642608395E+03  0.75275440288E+03 -0.20486386193E+03  0.10524477208E+04  0.25500000920E-02 0. -1.
</event>
<event>
 5   0  0.7003852E-06  0.2298359E+04  0.7818609E-02  0.8478568E-01
       -2   -1    0    0    0  501  0.00000000000E+00  0.00000000000E+00  0.24712820486E+04  0.24712820486E+04  0.25500000920E-02 0. -1.
        2   -1    0    0  501    0  0.00000000000E+00  0.00000000000E+00 -0.53438390607E+03  0.53438390608E+03  0.25500000920E-02 0.  1.
    10030    2    1    2    0    0  0.00000000000E+00  0.00000000000E+00  0.19368981425E+04  0.30056659547E+04  0.22983588529E+04 0.  0.
        2    1    3    3  502    0 -0.28837916457E+03 -0.38585017287E+03 -0.39598057044E+03  0.62357317985E+03  0.25500000920E-02 0.  1.
       -2    1    3    3    0  502  0.28837916457E+03  0.38585017287E+03  0.23328787130E+04  0.23820927748E+04  0.25500000920E-02 0. -1.
</event>
<event>
 5   0  0.3238713E-06  0.2298641E+04  0.7818609E-02  0.8478457E-01
        1   -1    0    0  501    0  0.00000000000E+00  0.00000000000E+00  0.12404338822E+04  0.12404338822E+04  0.50400001928E-02 0.  1.
       -1   -1    0    0    0  501  0.00000000000E+00  0.00000000000E+00 -0.10648993212E+04  0.10648993212E+04  0.50400001928E-02 0. -1.
    10030    2    1    2    0    0  0.00000000000E+00  0.00000000000E+00  0.17553456106E+03  0.23053332034E+04  0.22986406410E+04 0.  0.
        3    1    3    3  502    0 -0.10702640793E+04 -0.41016438968E+03  0.17308648604E+03  0.11591630462E+04  0.10100000352E+00 0. -1.
       -3    1    3    3    0  502  0.10702640793E+04  0.41016438968E+03  0.24480750269E+01  0.11461701572E+04  0.10100000352E+00 0.  1.
</event>
<event>
 5   0  0.7242214E-06  0.2293869E+04  0.7818609E-02  0.8480342E-01
       -2   -1    0    0    0  501  0.00000000000E+00  0.00000000000E+00  0.80464480409E+03  0.80464480409E+03  0.25500000920E-02 0.  1.
        2   -1    0    0  501    0  0.00000000000E+00  0.00000000000E+00 -0.16348312905E+04  0.16348312905E+04  0.25500000920E-02 0. -1.
    10030    2    1    2    0    0  0.00000000000E+00  0.00000000000E+00 -0.83018648645E+03  0.24394760946E+04  0.22938687874E+04 0.  0.
        1    1    3    3  502    0 -0.60410129489E+03  0.71472920504E+03  0.29008269064E+03  0.97975720383E+03  0.50400001928E-02 0. -1.
       -1    1    3    3    0  502  0.60410129489E+03 -0.71472920504E+03 -0.11202691771E+04  0.14597188908E+04  0.50400001928E-02 0.  1.
</event>
<event>
 5   0  0.7044981E-06  0.2299727E+04  0.7818609E-02  0.8478029E-01
       -2   -1    0    0    0  501  0.00000000000E+00  0.00000000000E+00  0.64813708409E+03  0.64813708409E+03  0.25500000920E-02 0.  1.
        2   -1    0    0  501    0  0.00000000000E+00  0.00000000000E+00 -0.20399788309E+04  0.20399788309E+04  0.25500000920E-02 0. -1.
    10030    2    1    2    0    0  0.00000000000E+00  0.00000000000E+00 -0.13918417468E+04  0.26881159150E+04  0.22997268804E+04 0.  0.
        4    1    3    3  502    0 -0.18178460696E+03 -0.11288838859E+04 -0.55391292363E+03  0.12705296577E+04  0.12699999809E+01 0.  1.
       -4    1    3    3    0  502  0.18178460696E+03  0.11288838859E+04 -0.83792882318E+03  0.14175862573E+04  0.12699999809E+01 0. -1.
</event>
<event>
 5   0  0.3338758E-06  0.2299818E+04  0.7818609E-02  0.8477993E-01
       -1   -1    0    0    0  501  0.00000000000E+00  0.00000000000E+00  0.62951369071E+03  0.62951369073E+03  0.50400001928E-02 0.  1.
        1   -1    0    0  501    0  0.00000000000E+00  0.00000000000E+00 -0.21004956660E+04  0.21004956660E+04  0.50400001928E-02 0. -1.
    10030    2    1    2    0    0  0.00000000000E+00  0.00000000000E+00 -0.14709819752E+04  0.27300093567E+04  0.22998180615E+04 0.  0.
        5    1    3    3  502    0  0.11163641343E+04 -0.25663856301E+03 -0.61597837578E+03  0.13006089658E+04  0.46999998093E+01 0.  1.
       -5    1    3    3    0  502 -0.11163641343E+04  0.25663856301E+03 -0.85500359946E+03  0.14294003909E+04  0.46999998093E+01 0. -1.
</event>
<event>
 5   0  0.7348107E-06  0.2304864E+04  0.7818609E-02  0.8476006E-01
        2   -1    0    0  501    0  0.00000000000E+00  0.00000000000E+00  0.22034975944E+04  0.22034975944E+04  0.25500000920E-02 0. -1.
       -2   -1    0    0    0  501  0.00000000000E+00  0.00000000000E+00 -0.60272354545E+03  0.60272354546E+03  0.25500000920E-02 0.  1.
    10030    2    1    2    0    0  0.00000000000E+00  0.00000000000E+00  0.16007740490E+04  0.28062211399E+04  0.23048643192E+04 0.  0.
        3    1    3    3  502    0 -0.55428164254E+03  0.96912928187E+03  0.11483088408E+04  0.16015782555E+04  0.10100000352E+00 0. -1.
       -3    1    3    3    0  502  0.55428164254E+03 -0.96912928187E+03  0.45246520816E+03  0.12046428844E+04  0.10100000352E+00 0.  1.
</event>
<event>
 5   0  0.7242214E-06  0.2297724E+04  0.7818609E-02  0.8478819E-01
        2   -1    0    0  501    0  0.00000000000E+00  0.00000000000E+00  0.12075155709E+04  0.12075155709E+04  0.25500000920E-02 0. -1.
       -2   -1    0    0    0  501  0.00000000000E+00  0.00000000000E+00 -0.10930576083E+04  0.10930576083E+04  0.25500000920E-02 0.  1.
    10030    2    1    2    0    0  0.00000000000E+00  0.00000000000E+00  0.11445796258E+03  0.23005731791E+04  0.22977241626E+04 0.  0.
        1    1    3    3  502    0 -0.42180961587E+02  0.10339545519E+04  0.55688967312E+03  0.11751456748E+04  0.50400001928E-02 0. -1.
       -1    1    3    3    0  502  0.42180961587E+02 -0.10339545519E+04 -0.44243171054E+03  0.11254275043E+04  0.50400001928E-02 0.  1.
</event>
<event>
 5   0  0.3195296E-06  0.2298347E+04  0.7818609E-02  0.8478573E-01
       -1   -1    0    0    0  501  0.00000000000E+00  0.00000000000E+00  0.61334274897E+03  0.61334274899E+03  0.50400001928E-02 0.  1.
        1   -1    0    0  501    0  0.00000000000E+00  0.00000000000E+00 -0.21531183193E+04  0.21531183193E+04  0.50400001928E-02 0. -1.
    10030    2    1    2    0    0  0.00000000000E+00  0.00000000000E+00 -0.15397755704E+04  0.27664610683E+04  0.22983468049E+04 0.  0.
        2    1    3    3  502    0 -0.20040310375E+03 -0.11313683132E+04 -0.74452922654E+03  0.13691162965E+04  0.25500000920E-02 0. -1.
       -2    1    3    3    0  502  0.20040310375E+03  0.11313683132E+04 -0.79524634383E+03  0.13973447719E+04  0.25500000920E-02 0.  1.
</event>
<event>
 5   0  0.3338758E-06  0.2287737E+04  0.7818609E-02  0.8482772E-01
        1   -1    0    0  501    0  0.00000000000E+00  0.00000000000E+00  0.15722375508E+04  0.15722375508E+04  0.50400001928E-02 0. -1.
       -1   -1    0    0    0  501  0.00000000000E+00  0.00000000000E+00 -0.83221217182E+03  0.83221217184E+03  0.50400001928E-02 0.  1.
    10030    2    1    2    0    0  0.00000000000E+00  0.00000000000E+00  0.74002537900E+03  0.24044497227E+04  0.22877370713E+04 0.  0.
        5    1    3    3  502    0 -0.89471756874E+03 -0.59561124776E+03 -0.41283909258E+02  0.10756387579E+04  0.46999998093E+01 0.  1.
       -5    1    3    3    0  502  0.89471756874E+03  0.59561124776E+03  0.78130928826E+03  0.13288109648E+04  0.46999998093E+01 0. -1.
</event>
<event>
 5   0  0.3184492E-06  0.2302038E+04  0.7818609E-02  0.8477118E-01
       -1   -1    0    0    0  501  0.00000000000E+00  0.00000000000E+00  0.24239084813E+04  0.24239084813E+04  0.50400001928E-02 0.  1.
        1   -1    0    0  501    0  0.00000000000E+00  0.00000000000E+00 -0.54657352427E+03  0.54657352429E+03  0.50400001928E-02 0. -1.
    10030    2    1    2    0    0  0.00000000000E+00  0.00000000000E+00  0.18773349570E+04  0.29704820056E+04  0.23020375333E+04 0.  0.
        1    1    3    3  502    0  0.52998184326E+03  0.13577504852E+03 -0.36807018968E+03  0.65938705063E+03  0.50400001928E-02 0. -1.
       -1    1    3    3    0  502 -0.52998184326E+03 -0.13577504852E+03  0.22454051467E+04  0.23110949549E+04  0.50400001928E-02 0.  1.
</event>
<event>
 5   0  0.7497344E-06  0.2301249E+04  0.7818609E-02  0.8477429E-01
        2   -1    0    0  501    0  0.00000000000E+00  0.00000000000E+00  0.23679559732E+04  0.23679559732E+04  0.25500000920E-02 0. -1.
       -2   -1    0    0    0  501  0.00000000000E+00  0.00000000000E+00 -0.55910543924E+03  0.55910543925E+03  0.25500000920E-02 0.  1.
    10030    2    1    2    0    0  0.00000000000E+00  0.00000000000E+00  0.18088505340E+04  0.29270614125E+04  0.23012492821E+04 0.  0.
        5    1    3    3  502    0  0.67653072757E+03  0.71293276927E+03  0.16654138620E+04  0.19338025702E+04  0.46999998093E+01 0. -1.
       -5    1    3    3    0  502 -0.67653072757E+03 -0.71293276927E+03  0.14343667198E+03  0.99325884225E+03  0.46999998093E+01 0.  1.
</event>
<event>
 5   0  0.7348107E-06  0.2298065E+04  0.7818609E-02  0.8478684E-01
       -2   -1    0    0    0  501  0.00000000000E+00  0.00000000000E+00  0.91786509340E+03  0.91786509341E+03  0.25500000920E-02 0.  1.
        2   -1    0    0  501    0  0.00000000000E+00  0.00000000000E+00 -0.14384204099E+04  0.14384204099E+04  0.25500000920E-02 0. -1.
    10030    2    1    2    0    0  0.00000000000E+00  0.00000000000E+00 -0.52055531648E+03  0.23562855033E+04  0.22980651722E+04 0.  0.
        3    1    3    3  502    0  0.26841895523E+02 -0.14714351595E+03  0.90784079473E+03  0.92007968156E+03  0.10100000352E+00 0.  1.
       -3    1    3    3    0  502 -0.26841895523E+02  0.14714351595E+03 -0.14283961112E+04  0.14362058217E+04  0.10100000352E+00 0. -1.
</event>
<event>
 5   0  0.7044981E-06  0.2307900E+04  0.7818609E-02  0.8474813E-01
       -2   -1    0    0    0  501  0.00000000000E+00  0.00000000000E+00  0.12986633831E+04  0.12986633831E+04  0.25500000920E-02 0. -1.
        2   -1    0    0  501    0  0.00000000000E+00  0.00000000000E+00 -0.10253623610E+04  0.10253623610E+04  0.25500000920E-02 0.  1.
    10030    2    1    2    0    0  0.00000000000E+00  0.00000000000E+00  0.27330102211E+03  0.23240257441E+04  0.23078999568E+04 0.  0.
        4    1    3    3  502    0 -0.14654944529E+03 -0.10480376454E+04 -0.32671604559E+03  0.11075218434E+04  0.12699999809E+01 0.  1.
       -4    1    3    3    0  502  0.14654944529E+03  0.10480376454E+04  0.60001706769E+03  0.12165039008E+04  0.12699999809E+01 0. -1.
</event>
<event>
 5   0  0.7348107E-06  0.2289986E+04  0.7818609E-02  0.8481880E-01
        2   -1    0    0  501    0  0.00000000000E+00  0.00000000000E+00  0.18104106106E+04  0.18104106106E+04  0.25500000920E-02 0. -1.
       -2   -1    0    0    0  501  0.00000000000E+00  0.00000000000E+00 -0.72415031238E+03  0.72415031239E+03  0.25500000920E-02 0.  1.
    10030    2    1    2    0    0  0.00000000000E+00  0.00000000000E+00  0.10862602982E+04  0.25345609229E+04  0.22899863835E+04 0.  0.
        3    1    3    3  502    0 -0.41960074766E+03 -0.10366663177E+04  0.81484390729E+03  0.13837313486E+04  0.10100000352E+00 0.  1.
       -3    1    3    3    0  502  0.41960074766E+03  0.10366663177E+04  0.27141639089E+03  0.11508295743E+04  0.10100000352E+00 0. -1.
</event>
<event>
 5   0  0.3338758E-06  0.2297823E+04  0.7818609E-02  0.8478780E-01
       -1   -1    0    0    0  501  0.00000000000E+00  0.00000000000E+00  0.50239597725E+03  0.50239597727E+03  0.50400001928E-02 0.  1.
        1   -1    0    0  501    0  0.00000000000E+00  0.00000000000E+00 -0.26274038784E+04  0.26274038784E+04  0.50400001928E-02 0. -1.
    10030    2    1    2    0    0  0.00000000000E+00  0.00000000000E+00 -0.21250079011E+04  0.31297998557E+04  0.22978225686E+04 0.  0.
        5    1    3    3  502    0 -0.28339668475E+03  0.61333887359E+02 -0.25767332936E+04  0.25930005945E+04  0.46999998093E+01 0. -1.
       -5    1    3    3    0  502  0.28339668475E+03 -0.61333887359E+02  0.45172539243E+03  0.53679926120E+03  0.46999998093E+01 0.  1.
</event>
<event>
 5   0  0.3226427E-06  0.2299838E+04  0.7818609E-02  0.8477985E-01
       -1   -1    0    0    0  501  0.00000000000E+00  0.00000000000E+00  0.15708452218E+04  0.15708452218E+04  0.50400001928E-02 0.  1.
        1   -1    0    0  501    0  0.00000000000E+00  0.00000000000E+00 -0.84178450720E+03  0.84178450722E+03  0.50400001928E-02 0. -1.
    10030    2    1    2    0    0  0.00000000000E+00  0.00000000000E+00  0.72906071458E+03  0.24126297290E+04  0.22998375342E+04 0.  0.
        4    1    3    3  502    0  0.93124394455E+03  0.59916125140E+03  0.68973735754E+03  0.13045875688E+04  0.12699999809E+01 0.  1.
       -4    1    3    3    0  502 -0.93124394455E+03 -0.59916125140E+03  0.39323357033E+02  0.11080421602E+04  0.12699999809E+01 0. -1.
</event>
<event>
 5   0  0.3338758E-06  0.2305686E+04  0.7818609E-02  0.8475683E-01
        1   -1    0    0  501    0  0.00000000000E+00  0.00000000000E+00  0.33008520460E+04  0.33008520460E+04  0.50400001928E-02 0. -1.
       -1   -1    0    0    0  501  0.00000000000E+00  0.00000000000E+00 -0.40263757223E+03  0.40263757226E+03  0.50400001928E-02 0.  1.
    10030    2    1    2    0    0  0.00000000000E+00  0.00000000000E+00  0.28982144738E+04  0.37034896183E+04  0.23056860620E+04 0.  0.
        5    1    3    3  502    0 -0.70585477255E+01 -0.40130599815E+03  0.31849848845E+04  0.32101786760E+04  0.46999998093E+01 0. -1.
       -5    1    3    3    0  502  0.70585477255E+01  0.40130599815E+03 -0.28677041077E+03  0.49331094224E+03  0.46999998093E+01 0.  1.
</event>
<event>
 5   0  0.3226427E-06  0.2299300E+04  0.7818609E-02  0.8478197E-01
        1   -1    0    0  501    0  0.00000000000E+00  0.00000000000E+00  0.16399481087E+04  0.16399481087E+04  0.50400001928E-02 0.  1.
       -1   -1    0    0    0  501  0.00000000000E+00  0.00000000000E+00 -0.80593750453E+03  0.80593750454E+03  0.50400001928E-02 0. -1.
    10030    2    1    2    0    0  0.00000000000E+00  0.00000000000E+00  0.83401060419E+03  0.24458856133E+04  0.22993004904E+04 0.  0.
        4    1    3    3  502    0  0.35160479542E+03  0.38163438202E+03 -0.67427331618E+03  0.85083303387E+03  0.12699999809E+01 0. -1.
       -4    1    3    3    0  502 -0.35160479542E+03 -0.38163438202E+03  0.15082839204E+04  0.15950525794E+04  0.12699999809E+01 0.  1.
</event>
<event>
 5   0  0.7348107E-06  0.2306209E+04  0.7818609E-02  0.8475477E-01
        2   -1    0    0  501    0  0.00000000000E+00  0.00000000000E+00  0.15373840276E+04  0.15373840276E+04  0.25500000920E-02 0. -1.
       -2   -1    0    0    0  501  0.00000000000E+00  0.00000000000E+00 -0.86487840240E+03  0.86487840240E+03  0.25500000920E-02 0.  1.
    10030    2    1    2    0    0  0.00000000000E+00  0.00000000000E+00  0.67250562518E+03  0.24022624300E+04  0.23062092200E+04 0.  0.
        3    1    3    3  502    0  0.42532078592E+03  0.98833679767E+03 -0.95677602364E+02  0.10802136874E+04  0.10100000352E+00 0.  1.
       -3    1    3    3    0  502 -0.42532078592E+03 -0.98833679767E+03  0.76818322754E+03  0.13220487426E+04  0.10100000352E+00 0. -1.
</event>
<event>
 5   0  0.3238713E-06  0.2297201E+04  0.7818609E-02  0.8479026E-01
       -1   -1    0    0    0  501  0.00000000000E+00  0.00000000000E+00  0.48046498000E+03  0.48046498003E+03  0.50400001928E-02 0.  1.
        1   -1    0    0  501    0  0.00000000000E+00  0.00000000000E+00 -0.27458460098E+04  0.27458460098E+04  0.50400001928E-02 0. -1.
    10030    2    1    2    0    0  0.00000000000E+00  0.00000000000E+00 -0.22653810298E+04  0.32263109898E+04  0.22972007733E+04 0.  0.
        3    1    3    3  502    0  0.10480125406E+04  0.16090175181E+02 -0.17924751557E+04  0.20764287546E+04  0.10100000352E+00 0. -1.
       -3    1    3    3    0  502 -0.10480125406E+04 -0.16090175181E+02 -0.47290587412E+03  0.11498822352E+04  0.10100000352E+00 0.  1.
</event>
<event>
 5   0  0.7497344E-06  0.2306883E+04  0.7818609E-02  0.8475212E-01
        2   -1    0    0  501    0  0.00000000000E+00  0.00000000000E+00  0.86979022007E+03  0.86979022007E+03  0.25500000920E-02 0.  1.
       -2   -1    0    0    0  501  0.00000000000E+00  0.00000000000E+00 -0.15295955237E+04  0.15295955237E+04  0.25500000920E-02 0. -1.
    10030    2    1    2    0    0  0.00000000000E+00  0.00000000000E+00 -0.65980530365E+03  0.23993857438E+04  0.23068829422E+04 0.  0.
        5    1    3    3  502    0  0.37076339834E+03 -0.55868871952E+03  0.64624336219E+03  0.93126320449E+03  0.46999998093E+01 0.  1.
       -5    1    3    3    0  502 -0.37076339834E+03  0.55868871952E+03 -0.13060486658E+04  0.14681225393E+04  0.46999998093E+01 0. -1.
</event>
<event>
 5   0  0.7348107E-06  0.2305550E+04  0.7818609E-02  0.8475736E-01
       -2   -1    0    0    0  501  0.00000000000E+00  0.00000000000E+00  0.89137760477E+03  0.89137760478E+03  0.25500000920E-02 0. -1.
        2   -1    0    0  501    0  0.00000000000E+00  0.00000000000E+00 -0.14908277304E+04  0.14908277304E+04  0.25500000920E-02 0.  1.
    10030    2    1    2    0    0  0.00000000000E+00  0.00000000000E+00 -0.59945012565E+03  0.23822053352E+04  0.23055502176E+04 0.  0.
        3    1    3    3  502    0 -0.11444753541E+04  0.78254770648E+02 -0.41727398711E+03  0.12206822829E+04  0.10100000352E+00 0.  1.
       -3    1    3    3    0  502  0.11444753541E+04 -0.78254770648E+02 -0.18217613853E+03  0.11615230523E+04  0.10100000352E+00 0. -1.
</event>
<event>
 5   0  0.3238713E-06  0.2292858E+04  0.7818609E-02  0.8480742E-01
       -1   -1    0    0    0  501  0.00000000000E+00  0.00000000000E+00  0.93727206289E+03  0.93727206290E+03  0.50400001928E-02 0. -1.
        1   -1    0    0  501    0  0.00000000000E+00  0.00000000000E+00 -0.14022606504E+04  0.14022606504E+04  0.50400001928E-02 0.  1.
    10030    2    1    2    0    0  0.00000000000E+00  0.00000000000E+00 -0.46498858749E+03  0.23395327133E+04  0.22928582446E+04 0.  0.
        3    1    3    3  502    0 -0.10862030214E+03 -0.10978173996E+04 -0.55077078655E+03  0.12330246885E+04  0.10100000352E+00 0. -1.
       -3    1    3    3    0  502  0.10862030214E+03  0.10978173996E+04  0.85782199060E+02  0.11065080248E+04  0.10100000352E+00 0.  1.
</event>
<event>
 5   0  0.7044981E-06  0.2300381E+04  0.7818609E-02  0.8477771E-01
       -2   -1    0    0    0  501  0.00000000000E+00  0.00000000000E+00  0.14428586483E+04  0.14428586483E+04  0.25500000920E-02 0.  1.
        2   -1    0    0  501    0  0.00000000000E+00  0.00000000000E+00 -0.91688721026E+03  0.91688721026E+03  0.25500000920E-02 0. -1.
    10030    2    1    2    0    0  0.00000000000E+00  0.00000000000E+00  0.52597143803E+03  0.23597458586E+04  0.23003813952E+04 0.  0.
        4    1    3    3  502    0  0.17982488101E+03  0.11334269124E+04  0.34206916505E+03  0.11975000961E+04  0.12699999809E+01 0. -1.
       -4    1    3    3    0  502 -0.17982488101E+03 -0.11334269124E+04  0.18390227298E+03  0.11622457625E+04  0.12699999809E+01 0.  1.
</event>
<event>
 5   0  0.7497344E-06  0.2291209E+04  0.7818609E-02  0.8481395E-01
        2   -1    0    0  501    0  0.00000000000E+00  0.00000000000E+00  0.15037417087E+04  0.15037417087E+04  0.25500000920E-02 0. -1.
       -2   -1    0    0    0  501  0.00000000000E+00  0.00000000000E+00 -0.87276244097E+03  0.87276244097E+03  0.25500000920E-02 0.  1.
    10030    2    1    2    0    0  0.00000000000E+00  0.00000000000E+00  0.63097926775E+03  0.23765041497E+04  0.22912086629E+04 0.  0.
        5    1    3    3  502    0  0.93726608489E+03  0.44480372035E+03 -0.18846742736E+03  0.10544477819E+04  0.46999998093E+01 0.  1.
       -5    1    3    3    0  502 -0.93726608489E+03 -0.44480372035E+03  0.81944669511E+03  0.13220563678E+04  0.46999998093E+01 0. -1.
</event>
<event>
 5   0  0.3195296E-06  0.2297288E+04  0.7818609E-02  0.8478991E-01
        1   -1    0    0  501    0  0.00000000000E+00  0.00000000000E+00  0.14332618050E+04  0.14332618050E+04  0.50400001928E-02 0.  1.
       -1   -1    0    0    0  501  0.00000000000E+00  0.00000000000E+00 -0.92054587353E+03  0.92054587354E+03  0.50400001928E-02 0. -1.
    10030    2    1    2    0    0  0.00000000000E+00  0.00000000000E+00  0.51271593151E+03  0.23538076786E+04  0.22972881755E+04 0.  0.
        2    1    3    3  502    0 -0.53743719265E+03 -0.75358753774E+03 -0.44056044069E+03  0.10250982465E+04  0.25500000920E-02 0. -1.
       -2    1    3    3    0  502  0.53743719265E+03  0.75358753774E+03  0.95327637220E+03  0.13287094321E+04  0.25500000920E-02 0.  1.
</event>
<event>
 5   0  0.3226427E-06  0.2291749E+04  0.7818609E-02  0.8481182E-01
       -1   -1    0    0    0  501  0.00000000000E+00  0.00000000000E+00  0.16461647337E+04  0.16461647337E+04  0.50400001928E-02 0.  1.
        1   -1    0    0  501    0  0.00000000000E+00  0.00000000000E+00 -0.79762857702E+03  0.79762857704E+03  0.50400001928E-02 0. -1.
    10030    2    1    2    0    0  0.00000000000E+00  0.00000000000E+00  0.84853615669E+03  0.24437933108E+04  0.22917487071E+04 0.  0.
        4    1    3    3  502    0 -0.40415774608E+03  0.61138009143E+03 -0.51502171454E+03  0.89575559126E+03  0.12699999809E+01 0. -1.
       -4    1    3    3    0  502  0.40415774608E+03 -0.61138009143E+03  0.13635578712E+04  0.15480377195E+04  0.12699999809E+01 0.  1.
</event>
<event>
 5   0  0.3238713E-06  0.2304677E+04  0.7818609E-02  0.8476079E-01
        1   -1    0    0  501    0  0.00000000000E+00  0.00000000000E+00  0.73765153599E+03  0.73765153601E+03  0.50400001928E-02 0. -1.
       -1   -1    0    0    0  501  0.00000000000E+00  0.00000000000E+00 -0.18001513800E+04  0.18001513800E+04  0.50400001928E-02 0.  1.
    10030    2    1    2    0    0  0.00000000000E+00  0.00000000000E+00 -0.10624998440E+04  0.25378029160E+04  0.23046773574E+04 0.  0.
        3    1    3    3  502    0 -0.99764844247E+03  0.40861508319E+03 -0.97937426320E+03  0.14565173046E+04  0.10100000352E+00 0.  1.
       -3    1    3    3    0  502  0.99764844247E+03 -0.40861508319E+03 -0.83125580766E+02  0.10812856114E+04  0.10100000352E+00 0. -1.
</event>
<event>
 5   0  0.3338758E-06  0.2308309E+04  0.7818609E-02  0.8474652E-01
       -1   -1    0    0    0  501  0.00000000000E+00  0.00000000000E+00  0.72128327893E+03  0.72128327895E+03  0.50400001928E-02 0.  1.
        1   -1    0    0  501    0  0.00000000000E+00  0.00000000000E+00 -0.18468098730E+04  0.18468098730E+04  0.50400001928E-02 0. -1.
    10030    2    1    2    0    0  0.00000000000E+00  0.00000000000E+00 -0.11255265941E+04  0.25680931520E+04  0.23083094080E+04 0.  0.
        5    1    3    3  502    0  0.99330870196E+03  0.26908189070E+03 -0.11440429864E+04  0.15388059287E+04  0.46999998093E+01 0. -1.
       -5    1    3    3    0  502 -0.99330870196E+03 -0.26908189070E+03  0.18516392344E+02  0.10292872233E+04  0.46999998093E+01 0.  1.
</event>
<event>
 5   0  0.7242214E-06  0.2298685E+04  0.7818609E-02  0.8478440E-01
        2   -1    0    0  501    0  0.00000000000E+00  0.00000000000E+00  0.20027061214E+04  0.20027061214E+04  0.25500000920E-02 0.  1.
       -2   -1    0    0    0  501  0.00000000000E+00  0.00000000000E+00 -0.65960133373E+03  0.65960133374E+03  0.25500000920E-02 0. -1.
    10030    2    1    2    0    0  0.00000000000E+00  0.00000000000E+00  0.13431047877E+04  0.26623074552E+04  0.22986845184E+04 0.  0.
        1    1    3    3  502    0  0.61779339228E+03 -0.73779776537E+03  0.13994373902E+04  0.16983636911E+04  0.50400001928E-02 0.  1.
       -1    1    3    3    0  502 -0.61779339228E+03  0.73779776537E+03 -0.56332602526E+02  0.96394376405E+03  0.50400001928E-02 0. -1.
</event>
<event>
 5   0  0.3184492E-06  0.2301970E+04  0.7818609E-02  0.8477145E-01
       -1   -1    0    0    0  501  0.00000000000E+00  0.00000000000E+00  0.99022702636E+03  0.99022702637E+03  0.50400001928E-02 0.  1.
        1   -1    0    0  501    0  0.00000000000E+00  0.00000000000E+00 -0.13378409361E+04  0.13378409361E+04  0.50400001928E-02 0. -1.
    10030    2    1    2    0    0  0.00000000000E+00  0.00000000000E+00 -0.34761390972E+03  0.23280679625E+04  0.23019698103E+04 0.  0.
        1    1    3    3  502    0 -0.13842306370E+03  0.40199978046E+03 -0.12555131688E+04  0.13255482206E+04  0.50400001928E-02 0. -1.
       -1    1    3    3    0  502  0.13842306370E+03 -0.40199978046E+03  0.90789925911E+03  0.10025197418E+04  0.50400001928E-02 0.  1.
</event>
<event>
 5   0  0.7242214E-06  0.2303141E+04  0.7818609E-02  0.8476684E-01
       -2   -1    0    0    0  501  0.00000000000E+00  0.00000000000E+00  0.74073456640E+03  0.74073456641E+03  0.25500000920E-02 0.  1.
        2   -1    0    0  501    0  0.00000000000E+00  0.00000000000E+00 -0.17902697578E+04  0.17902697578E+04  0.25500000920E-02 0. -1.
    10030    2    1    2    0    0  0.00000000000E+00  0.00000000000E+00 -0.10495351914E+04  0.25310043243E+04  0.23031410663E+04 0.  0.
        1    1    3    3  502    0  0.37592887999E+03 -0.82093850870E+03  0.26068495502E+03  0.93979742693E+03  0.50400001928E-02 0.  1.
       -1    1    3    3    0  502 -0.37592887999E+03  0.82093850870E+03 -0.13102201465E+04  0.15912068973E+04  0.50400001928E-02 0. -1.
</event>
<event>
 5   0  0.3238713E-06  0.2300704E+04  0.7818609E-02  0.8477643E-01
       -1   -1    0    0    0  501  0.00000000000E+00  0.00000000000E+00  0.73631565062E+03  0.73631565064E+03  0.50400001928E-02 0.  1.
        1   -1    0    0  501    0  0.00000000000E+00  0.00000000000E+00 -0.17972047882E+04  0.17972047882E+04  0.50400001928E-02 0. -1.
    10030    2    1    2    0    0  0.00000000000E+00  0.00000000000E+00 -0.10608891376E+04  0.25335204389E+04  0.23007042513E+04 0.  0.
        3    1    3    3  502    0 -0.10631448859E+04 -0.42427857696E+03 -0.40478954914E+03  0.12141432982E+04  0.10100000352E+00 0.  1.
       -3    1    3    3    0  502  0.10631448859E+04  0.42427857696E+03 -0.65609958848E+03  0.13193771407E+04  0.10100000352E+00 0. -1.
</event>
<event>
 5   0  0.3195296E-06  0.2300080E+04  0.7818609E-02  0.8477889E-01
       -1   -1    0    0    0  501  0.00000000000E+00  0.00000000000E+00  0.13573598516E+04  0.13573598516E+04  0.50400001928E-02 0.  1.
        1   -1    0    0  501    0  0.00000000000E+00  0.00000000000E+00 -0.97438601832E+03  0.97438601833E+03  0.50400001928E-02 0. -1.
    10030    2    1    2    0    0  0.00000000000E+00  0.00000000000E+00  0.38297383330E+03  0.23317458700E+04  0.23000803997E+04 0.  0.
        2    1    3    3  502    0 -0.87063340370E+03  0.38863725813E+03  0.84341958912E+03  0.12729485635E+04  0.25500000920E-02 0.  1.
       -2    1    3    3    0  502  0.87063340370E+03 -0.38863725813E+03 -0.46044575582E+03  0.10587973064E+04  0.25500000920E-02 0. -1.
</event>
<event>
 5   0  0.3338758E-06  0.2295920E+04  0.7818609E-02  0.8479532E-01
        1   -1    0    0  501    0  0.00000000000E+00  0.00000000000E+00  0.10065657055E+04  0.10065657055E+04  0.50400001928E-02 0.  1.
       -1   -1    0    0    0  501  0.00000000000E+00  0.00000000000E+00 -0.13092162194E+04  0.13092162194E+04  0.50400001928E-02 0. -1.
    10030    2    1    2    0    0  0.00000000000E+00  0.00000000000E+00 -0.30265051386E+03  0.23157819249E+04  0.22959199878E+04 0.  0.
        5    1    3    3  502    0 -0.66343570836E+03  0.91627177365E+03  0.45527536224E+02  0.11321641881E+04  0.46999998093E+01 0.  1.
       -5    1    3    3    0  502  0.66343570836E+03 -0.91627177365E+03 -0.34817805008E+03  0.11836177368E+04  0.46999998093E+01 0. -1.
</event>
<event>
 5   0  0.7497344E-06  0.2284311E+04  0.7818609E-02  0.8484133E-01
       -2   -1    0    0    0  501  0.00000000000E+00  0.00000000000E+00  0.61800467839E+03  0.61800467839E+03  0.25500000920E-02 0.  1.
        2   -1    0    0  501    0  0.00000000000E+00  0.00000000000E+00 -0.21108573191E+04  0.21108573191E+04  0.25500000920E-02 0. -1.
    10030    2    1    2    0    0  0.00000000000E+00  0.00000000000E+00 -0.14928526407E+04  0.27288619975E+04  0.22843114487E+04 0.  0.
        5    1    3    3  502    0 -0.49240597604E+03 -0.81845459228E+03 -0.14945290690E+04  0.17736884712E+04  0.46999998093E+01 0. -1.
       -5    1    3    3    0  502  0.49240597604E+03  0.81845459228E+03  0.16764282901E+01  0.95517352627E+03  0.46999998093E+01 0.  1.
</event>
<event>
 5   0  0.7497344E-06  0.2290716E+04  0.7818609E-02  0.8481591E-01
       -2   -1    0    0    0  501  0.00000000000E+00  0.00000000000E+00  0.10717385770E+04  0.10717385770E+04  0.25500000920E-02 0. -1.
        2   -1    0    0  501    0  0.00000000000E+00  0.00000000000E+00 -0.12240345969E+04  0.12240345969E+04  0.25500000920E-02 0.  1.
    10030    2    1    2    0    0  0.00000000000E+00  0.00000000000E+00 -0.15229601990E+03  0.22957731739E+04  0.22907161300E+04 0.  0.
        5    1    3    3  502    0  0.95467035064E+03 -0.42921904523E+03  0.38985002063E+03  0.11169734087E+04  0.46999998093E+01 0. -1.
       -5    1    3    3    0  502 -0.95467035064E+03  0.42921904523E+03 -0.54214604053E+03  0.11787997652E+04  0.46999998093E+01 0.  1.
</event>
<event>
 5   0  0.7497344E-06  0.2302607E+04  0.7818609E-02  0.8476894E-01
        2   -1    0    0  501    0  0.00000000000E+00  0.00000000000E+00  0.19620778231E+04  0.19620778231E+04  0.25500000920E-02 0.  1.
       -2   -1    0    0    0  501  0.00000000000E+00  0.00000000000E+00 -0.67555900426E+03  0.67555900426E+03  0.25500000920E-02 0. -1.
    10030    2    1    2    0    0  0.00000000000E+00  0.00000000000E+00  0.12865188188E+04  0.26376368273E+04  0.23026066450E+04 0.  0.
        5    1    3    3  502    0 -0.67818077968E+03 -0.14821280193E+03  0.16953633587E+04  0.18319866847E+04  0.46999998093E+01 0.  1.
       -5    1    3    3    0  502  0.67818077968E+03  0.14821280193E+03 -0.40884453992E+03  0.80565014269E+03  0.46999998093E+01 0. -1.
</event>
<event>
 5   0  0.3226427E-06  0.2298897E+04  0.7818609E-02  0.8478356E-01
        1   -1    0    0  501    0  0.00000000000E+00  0.00000000000E+00  0.20642358064E+04  0.20642358064E+04  0.50400001928E-02 0. -1.
       -1   -1    0    0    0  501  0.00000000000E+00  0.00000000000E+00 -0.64005878331E+03  0.64005878333E+03  0.50400001928E-02 0.  1.
    10030    2    1    2    0    0  0.00000000000E+00  0.00000000000E+00  0.14241770231E+04  0.27042945897E+04  0.22988973520E+04 0.  0.
        4    1    3    3  502    0 -0.30862162431E+03  0.34021825957E+03 -0.52739813384E+03  0.69938985953E+03  0.12699999809E+01 0.  1.
       -4    1    3    3    0  502  0.30862162431E+03 -0.34021825957E+03  0.19515751569E+04  0.20049047302E+04  0.12699999809E+01 0. -1.
</event>
<event>
 5   0  0.7003852E-06  0.2296815E+04  0.7818609E-02  0.8479178E-01
        2   -1    0    0  501    0  0.00000000000E+00  0.00000000000E+00  0.90453247615E+03  0.90453247615E+03  0.25500000920E-02 0.  1.
       -2   -1    0    0    0  501  0.00000000000E+00  0.00000000000E+00 -0.14580345441E+04  0.14580345441E+04  0.25500000920E-02 0. -1.
    10030    2    1    2    0    0  0.00000000000E+00  0.00000000000E+00 -0.55350206799E+03  0.23625670203E+04  0.22968148350E+04 0.  0.
        2    1    3    3  502    0  0.52717105744E+03 -0.69926863464E+03 -0.10409552991E+04  0.13603212422E+04  0.25500000920E-02 0. -1.
       -2    1    3    3    0  502 -0.52717105744E+03  0.69926863464E+03  0.48745323111E+03  0.10022457781E+04  0.25500000920E-02 0.  1.
</event>
<event>
 5   0  0.7348107E-06  0.2298889E+04  0.7818609E-02  0.8478359E-01
        2   -1    0    0  501    0  0.00000000000E+00  0.00000000000E+00  0.26761083324E+04  0.26761083324E+04  0.25500000920E-02 0. -1.
       -2   -1    0    0    0  501  0.00000000000E+00  0.00000000000E+00 -0.49371037382E+03  0.49371037383E+03  0.25500000920E-02 0.  1.
    10030    2    1    2    0    0  0.00000000000E+00  0.00000000000E+00  0.21823979586E+04  0.31698187062E+04  0.22988888143E+04 0.  0.
        3    1    3    3  502    0 -0.99463760554E+03 -0.50523450838E+03  0.14729595933E+04  0.18477488597E+04  0.10100000352E+00 0.  1.
       -3    1    3    3    0  502  0.99463760554E+03  0.50523450838E+03  0.70943836529E+03  0.13220698465E+04  0.10100000352E+00 0. -1.
</event>
<event>
 5   0  0.3184492E-06  0.2302377E+04  0.7818609E-02  0.8476984E-01
        1   -1    0    0  501    0  0.00000000000E+00  0.00000000000E+00  0.91599359601E+03  0.91599359603E+03  0.50400001928E-02 0. -1.
       -1   -1    0    0    0  501  0.00000000000E+00  0.00000000000E+00 -0.14467732525E+04  0.14467732525E+04  0.50400001928E-02 0.  1.
    10030    2    1    2    0    0  0.00000000000E+00  0.00000000000E+00 -0.53077965647E+03  0.23627668485E+04  0.23023770622E+04 0.  0.
        1    1    3    3  502    0 -0.82422233966E+03  0.48187456245E+03  0.39466749638E+03  0.10331059926E+04  0.50400001928E-02 0. -1.
       -1    1    3    3    0  502  0.82422233966E+03 -0.48187456245E+03 -0.92544715284E+03  0.13296608560E+04  0.50400001928E-02 0.  1.
</event>
<event>
 5   0  0.7348107E-06  0.2284913E+04  0.7818609E-02  0.8483894E-01
       -2   -1    0    0    0  501  0.00000000000E+00  0.00000000000E+00  0.15344079422E+04  0.15344079422E+04  0.25500000920E-02 0.  1.
        2   -1    0    0  501    0  0.00000000000E+00  0.00000000000E+00 -0.85062578176E+03  0.85062578177E+03  0.25500000920E-02 0. -1.
    10030    2    1    2    0    0  0.00000000000E+00  0.00000000000E+00  0.68378216044E+03  0.23850337240E+04  0.22849130884E+04 0.  0.
        3    1    3    3  502    0  0.26536559234E+03 -0.20671576442E+03  0.14815457766E+04  0.15192525147E+04  0.10100000352E+00 0.  1.
       -3    1    3    3    0  502 -0.26536559234E+03  0.20671576442E+03 -0.79776361620E+03  0.86578120930E+03  0.10100000352E+00 0. -1.
</event>
<event>
 5   0  0.3226427E-06  0.2306384E+04  0.7818609E-02  0.8475408E-01
       -1   -1    0    0    0  501  0.00000000000E+00  0.00000000000E+00  0.13772014360E+04  0.13772014361E+04  0.50400001928E-02 0. -1.
        1   -1    0    0  501    0  0.00000000000E+00  0.00000000000E+00 -0.96561911974E+03  0.96561911976E+03  0.50400001928E-02 0.  1.
    10030    2    1    2    0    0  0.00000000000E+00  0.00000000000E+00  0.41158231631E+03  0.23428205558E+04  0.23063842164E+04 0.  0.
        4    1    3    3  502    0  0.52962787041E+03 -0.53705303913E+03  0.10918784730E+04  0.13270764336E+04  0.12699999809E+01 0. -1.
       -4    1    3    3    0  502 -0.52962787041E+03  0.53705303913E+03 -0.68029615674E+03  0.10157441222E+04  0.12699999809E+01 0.  1.
</event>
<event>
 5   0  0.7497344E-06  0.2305285E+04  0.7818609E-02  0.8475840E-01
        2   -1    0    0  501    0  0.00000000000E+00  0.00000000000E+00  0.17827664751E+04  0.17827664751E+04  0.25500000920E-02 0. -1.
       -2   -1    0    0    0  501  0.00000000000E+00  0.00000000000E+00 -0.74523788062E+03  0.74523788063E+03  0.25500000920E-02 0.  1.
    10030    2    1    2    0    0  0.00000000000E+00  0.00000000000E+00  0.10375285944E+04  0.25280043557E+04  0.23052853268E+04 0.  0.
        5    1    3    3  502    0  0.49008906946E+03 -0.44281374068E+03 -0.51710881900E+03  0.83886526071E+03  0.46999998093E+01 0.  1.
       -5    1    3    3    0  502 -0.49008906946E+03  0.44281374068E+03  0.15546374134E+04  0.16891390950E+04  0.46999998093E+01 0. -1.
</event>
<event>
 5   0  0.3238713E-06  0.2296137E+04  0.7818609E-02  0.8479446E-01
        1   -1    0    0  501    0  0.00000000000E+00  0.00000000000E+00  0.21856076549E+04  0.21856076549E+04  0.50400001928E-02 0.  1.
       -1   -1    0    0    0  501  0.00000000000E+00  0.00000000000E+00 -0.60306407079E+03  0.60306407081E+03  0.50400001928E-02 0. -1.
    10030    2    1    2    0    0  0.00000000000E+00  0.00000000000E+00  0.15825435841E+04  0.27886717257E+04  0.22961371471E+04 0.  0.
        3    1    3    3  502    0 -0.56181183980E+03  0.98547714511E+03  0.10060151321E+04  0.15162005814E+04  0.10100000352E+00 0. -1.
       -3    1    3    3    0  502  0.56181183980E+03 -0.98547714511E+03  0.57652845199E+03  0.12724711443E+04  0.10100000352E+00 0.  1.
</event>
<event>
 5   0  0.7003852E-06  0.2299209E+04  0.7818609E-02  0.8478233E-01
        2   -1    0    0  501    0  0.00000000000E+00  0.00000000000E+00  0.20419683445E+04  0.20419683445E+04  0.25500000920E-02 0. -1.
       -2   -1    0    0    0  501  0.00000000000E+00  0.00000000000E+00 -0.64721373799E+03  0.64721373800E+03  0.25500000920E-02 0.  1.
    10030    2    1    2    0    0  0.00000000000E+00  0.00000000000E+00  0.13947546065E+04  0.26891820825E+04  0.22992085292E+04 0.  0.
        2    1    3    3  502    0  0.46135204452E+03  0.10133926002E+04  0.10318530161E+04  0.15180681532E+04  0.25500000920E-02 0. -1.
       -2    1    3    3    0  502 -0.46135204452E+03 -0.10133926002E+04  0.36290159048E+03  0.11711139293E+04  0.25500000920E-02 0.  1.
</event>
<event>
 5   0  0.3338758E-06  0.2311098E+04  0.7818609E-02  0.8473558E-01
       -1   -1    0    0    0  501  0.00000000000E+00  0.00000000000E+00  0.13750654199E+04  0.13750654199E+04  0.50400001928E-02 0.  1.
        1   -1    0    0  501    0  0.00000000000E+00  0.00000000000E+00 -0.97107642028E+03  0.97107642029E+03  0.50400001928E-02 0. -1.
    10030    2    1    2    0    0  0.00000000000E+00  0.00000000000E+00  0.40398899958E+03  0.23461418402E+04  0.23110980988E+04 0.  0.
        5    1    3    3  502    0 -0.56594358967E+03 -0.10058902676E+04  0.14489088226E+03  0.11632380818E+04  0.46999998093E+01 0. -1.
       -5    1    3    3    0  502  0.56594358967E+03  0.10058902676E+04  0.25909811732E+03  0.11829037584E+04  0.46999998093E+01 0.  1.
</event>
<event>
 5   0  0.3195296E-06  0.2302994E+04  0.7818609E-02  0.8476742E-01
        1   -1    0    0  501    0  0.00000000000E+00  0.00000000000E+00  0.19198250312E+04  0.19198250312E+04  0.50400001928E-02 0.  1.
       -1   -1    0    0    0  501  0.00000000000E+00  0.00000000000E+00 -0.69065939218E+03  0.69065939219E+03  0.50400001928E-02 0. -1.
    10030    2    1    2    0    0  0.00000000000E+00  0.00000000000E+00  0.12291656390E+04  0.26104844234E+04  0.23029938681E+04 0.  0.
        2    1    3    3  502    0  0.95838558728E+03  0.51227632603E+03  0.18292946631E+03  0.11019950806E+04  0.25500000920E-02 0. -1.
       -2    1    3    3    0  502 -0.95838558728E+03 -0.51227632603E+03  0.10462361727E+04  0.15084893427E+04  0.25500000920E-02 0.  1.
</event>
<event>
 5   0  0.3338758E-06  0.2303234E+04  0.7818609E-02  0.8476647E-01
       -1   -1    0    0    0  501  0.00000000000E+00  0.00000000000E+00  0.10204143475E+04  0.10204143475E+04  0.50400001928E-02 0.  1.
        1   -1    0    0  501    0  0.00000000000E+00  0.00000000000E+00 -0.12996896618E+04  0.12996896618E+04  0.50400001928E-02 0. -1.
    10030    2    1    2    0    0  0.00000000000E+00  0.00000000000E+00 -0.27927531430E+03  0.23201040093E+04  0.23032342288E+04 0.  0.
        5    1    3    3  502    0  0.67039310736E+03 -0.91368973287E+03  0.66664841347E+02  0.11352189821E+04  0.46999998093E+01 0.  1.
       -5    1    3    3    0  502 -0.67039310736E+03  0.91368973287E+03 -0.34594015564E+03  0.11848850272E+04  0.46999998093E+01 0. -1.
</event>
<event>
 5   0  0.7497344E-06  0.2302877E+04  0.7818609E-02  0.8476787E-01
       -2   -1    0    0    0  501  0.00000000000E+00  0.00000000000E+00  0.14903171320E+04  0.14903171320E+04  0.25500000920E-02 0.  1.
        2   -1    0    0  501    0  0.00000000000E+00  0.00000000000E+00 -0.88961681562E+03  0.88961681563E+03  0.25500000920E-02 0. -1.
    10030    2    1    2    0    0  0.00000000000E+00  0.00000000000E+00  0.60070031637E+03  0.23799339476E+04  0.23028774880E+04 0.  0.
        5    1    3    3  502    0  0.10077605404E+03  0.82470363714E+03 -0.52350504045E+03  0.98202419499E+03  0.46999998093E+01 0. -1.
       -5    1    3    3    0  502 -0.10077605404E+03 -0.82470363714E+03  0.11242053568E+04  0.13979097526E+04  0.46999998093E+01 0.  1.
</event>
<event>
 5   0  0.3338758E-06  0.2304714E+04  0.7818609E-02  0.8476065E-01
        1   -1    0    0  501    0  0.00000000000E+00  0.00000000000E+00  0.10984150202E+04  0.10984150202E+04  0.50400001928E-02 0.  1.
       -1   -1    0    0    0  501  0.00000000000E+00  0.00000000000E+00 -0.12089478771E+04  0.12089478771E+04  0.50400001928E-02 0. -1.
    10030    2    1    2    0    0  0.00000000000E+00  0.00000000000E+00 -0.11053285693E+03  0.23073628973E+04  0.23047138710E+04 0.  0.
        5    1    3    3  502    0  0.57124902614E+02 -0.56152104952E+02  0.10956148306E+04  0.10985491616E+04  0.46999998093E+01 0.  1.
       -5    1    3    3    0  502 -0.57124902614E+02  0.56152104952E+02 -0.12061476875E+04  0.12088137357E+04  0.46999998093E+01 0. -1.
</event>
<event>
 5   0  0.7242214E-06  0.2298467E+04  0.7818609E-02  0.8478526E-01
       -2   -1    0    0    0  501  0.00000000000E+00  0.00000000000E+00  0.11838790564E+04  0.11838790564E+04  0.25500000920E-02 0.  1.
        2   -1    0    0  501    0  0.00000000000E+00  0.00000000000E+00 -0.11156015476E+04  0.11156015476E+04  0.25500000920E-02 0. -1.
    10030    2    1    2    0    0  0.00000000000E+00  0.00000000000E+00  0.68277508816E+02  0.22994806040E+04  0.22984667128E+04 0.  0.
        1    1    3    3  502    0  0.11051224918E+04 -0.12430398762E+03 -0.25579954846E+03  0.11411312861E+04  0.50400001928E-02 0. -1.
       -1    1    3    3    0  502 -0.11051224918E+04  0.12430398762E+03  0.32407705727E+03  0.11583493179E+04  0.50400001928E-02 0.  1.
</event>
<event>
 5   0  0.7497344E-06  0.2301428E+04  0.7818609E-02  0.8477358E-01
       -2   -1    0    0    0  501  0.00000000000E+00  0.00000000000E+00  0.56776116009E+03  0.56776116010E+03  0.25500000920E-02 0.  1.
        2   -1    0    0  501    0  0.00000000000E+00  0.00000000000E+00 -0.23322171698E+04  0.23322171698E+04  0.25500000920E-02 0. -1.
    10030    2    1    2    0    0  0.00000000000E+00  0.00000000000E+00 -0.17644560097E+04  0.28999783299E+04  0.23014276664E+04 0.  0.
        5    1    3    3  502    0 -0.21449234582E+03  0.29454431538E+03 -0.22575942711E+04  0.22868137884E+04  0.46999998093E+01 0. -1.
       -5    1    3    3    0  502  0.21449234582E+03 -0.29454431538E+03  0.49313826135E+03  0.61316454149E+03  0.46999998093E+01 0.  1.
</event>
<event>
 5   0  0.7497344E-06  0.2299172E+04  0.7818609E-02  0.8478248E-01
       -2   -1    0    0    0  501  0.00000000000E+00  0.00000000000E+00  0.88982765778E+03  0.88982765778E+03  0.25500000920E-02 0. -1.
        2   -1    0    0  501    0  0.00000000000E+00  0.00000000000E+00 -0.14851733102E+04  0.14851733102E+04  0.25500000920E-02 0.  1.
    10030    2    1    2    0    0  0.00000000000E+00  0.00000000000E+00 -0.59534565246E+03  0.23750009680E+04  0.22991722755E+04 0.  0.
        5    1    3    3  502    0  0.11305821019E+04 -0.22517553506E+02 -0.51138573004E+03  0.12410722719E+04  0.46999998093E+01 0.  1.
       -5    1    3    3    0  502 -0.11305821019E+04  0.22517553506E+02 -0.83959922422E+02  0.11339286961E+04  0.46999998093E+01 0. -1.
</event>
<event>
 5   0  0.3338758E-06  0.2328585E+04  0.7818609E-02  0.8466735E-01
       -1   -1    0    0    0  501  0.00000000000E+00  0.00000000000E+00  0.11008760353E+04  0.11008760353E+04  0.50400001928E-02 0.  1.
        1   -1    0    0  501    0  0.00000000000E+00  0.00000000000E+00 -0.12313620516E+04  0.12313620516E+04  0.50400001928E-02 0. -1.
    10030    2    1    2    0    0  0.00000000000E+00  0.00000000000E+00 -0.13048601632E+03  0.23322380870E+04  0.23285849553E+04 0.  0.
        5    1    3    3  502    0  0.26736605206E+03  0.76821445275E+03 -0.89956656767E+03  0.12127984791E+04  0.46999998093E+01 0. -1.
       -5    1    3    3    0  502 -0.26736605206E+03 -0.76821445275E+03  0.76908055135E+03  0.11194396079E+04  0.46999998093E+01 0.  1.
</event>
<event>
 5   0  0.3338758E-06  0.2301339E+04  0.7818609E-02  0.8477393E-01
       -1   -1    0    0    0  501  0.00000000000E+00  0.00000000000E+00  0.98098772483E+03  0.98098772484E+03  0.50400001928E-02 0. -1.
        1   -1    0    0  501    0  0.00000000000E+00  0.00000000000E+00 -0.13497007808E+04  0.13497007808E+04  0.50400001928E-02 0.  1.
    10030    2    1    2    0    0  0.00000000000E+00  0.00000000000E+00 -0.36871305598E+03  0.23306885057E+04  0.23013386523E+04 0.  0.
        5    1    3    3  502    0  0.31921348628E+03 -0.10686897545E+04 -0.47084719890E+03  0.12106668476E+04  0.46999998093E+01 0.  1.
       -5    1    3    3    0  502 -0.31921348628E+03  0.10686897545E+04  0.10213414292E+03  0.11200216580E+04  0.46999998093E+01 0. -1.
</event>
<event>
 5   0  0.7497344E-06  0.2306946E+04  0.7818609E-02  0.8475187E-01
        2   -1    0    0  501    0  0.00000000000E+00  0.00000000000E+00  0.14885317902E+04  0.14885317902E+04  0.25500000920E-02 0.  1.
       -2   -1    0    0    0  501  0.00000000000E+00  0.00000000000E+00 -0.89383414333E+03  0.89383414333E+03  0.25500000920E-02 0. -1.
    10030    2    1    2    0    0  0.00000000000E+00  0.00000000000E+00  0.59469764691E+03  0.23823659336E+04  0.23069464992E+04 0.  0.
        5    1    3    3  502    0 -0.24508371491E+03 -0.11220338587E+04  0.40786350143E+03  0.12187701724E+04  0.46999998093E+01 0.  1.
       -5    1    3    3    0  502  0.24508371491E+03  0.11220338587E+04  0.18683414548E+03  0.11635957611E+04  0.46999998093E+01 0. -1.
</event>
<event>
 5   0  0.3226427E-06  0.2314963E+04  0.7818609E-02  0.8472045E-01
        1   -1    0    0  501    0  0.00000000000E+00  0.00000000000E+00  0.67888225362E+03  0.67888225363E+03  0.50400001928E-02 0.  1.
       -1   -1    0    0    0  501  0.00000000000E+00  0.00000000000E+00 -0.19734840085E+04  0.19734840085E+04  0.50400001928E-02 0. -1.
    10030    2    1    2    0    0  0.00000000000E+00  0.00000000000E+00 -0.12946017549E+04  0.26523662621E+04  0.23149628690E+04 0.  0.
        4    1    3    3  502    0  0.51141934752E+03  0.10289900372E+04 -0.80684991493E+03  0.14040579204E+04  0.12699999809E+01 0.  1.
       -4    1    3    3    0  502 -0.51141934752E+03 -0.10289900372E+04 -0.48775183995E+03  0.12483083417E+04  0.12699999809E+01 0. -1.
</event>
<event>
 5   0  0.7242214E-06  0.2295270E+04  0.7818609E-02  0.8479789E-01
       -2   -1    0    0    0  501  0.00000000000E+00  0.00000000000E+00  0.92149095974E+03  0.92149095974E+03  0.25500000920E-02 0.  1.
        2   -1    0    0  501    0  0.00000000000E+00  0.00000000000E+00 -0.14292768669E+04  0.14292768669E+04  0.25500000920E-02 0. -1.
    10030    2    1    2    0    0  0.00000000000E+00  0.00000000000E+00 -0.50778590719E+03  0.23507678267E+04  0.22952696677E+04 0.  0.
        1    1    3    3  502    0 -0.10305692827E+02  0.83344218298E+03 -0.10618488535E+04  0.13499092811E+04  0.50400001928E-02 0. -1.
       -1    1    3    3    0  502  0.10305692827E+02 -0.83344218298E+03  0.55406294629E+03  0.10008585455E+04  0.50400001928E-02 0.  1.
</event>
<event>
 5   0  0.3338758E-06  0.2299478E+04  0.7818609E-02  0.8478127E-01
        1   -1    0    0  501    0  0.00000000000E+00  0.00000000000E+00  0.20078059596E+04  0.20078059596E+04  0.50400001928E-02 0. -1.
       -1   -1    0    0    0  501  0.00000000000E+00  0.00000000000E+00 -0.65837999133E+03  0.65837999135E+03  0.50400001928E-02 0.  1.
    10030    2    1    2    0    0  0.00000000000E+00  0.00000000000E+00  0.13494259682E+04  0.26661859509E+04  0.22994775670E+04 0.  0.
        5    1    3    3  502    0 -0.29372914582E+03  0.11114390652E+04  0.69491492808E+03  0.13433177041E+04  0.46999998093E+01 0.  1.
       -5    1    3    3    0  502  0.29372914582E+03 -0.11114390652E+04  0.65451104014E+03  0.13228682468E+04  0.46999998093E+01 0. -1.
</event>
<event>
 5   0  0.3184492E-06  0.2301887E+04  0.7818609E-02  0.8477178E-01
        1   -1    0    0  501    0  0.00000000000E+00  0.00000000000E+00  0.13089739472E+04  0.13089739472E+04  0.50400001928E-02 0.  1.
       -1   -1    0    0    0  501  0.00000000000E+00  0.00000000000E+00 -0.10119916288E+04  0.10119916288E+04  0.50400001928E-02 0. -1.
    10030    2    1    2    0    0  0.00000000000E+00  0.00000000000E+00  0.29698231847E+03  0.23209655760E+04  0.23018867712E+04 0.  0.
        1    1    3    3  502    0 -0.15525134755E+03  0.57187492696E+03 -0.84636132748E+03  0.10331850801E+04  0.50400001928E-02 0. -1.
       -1    1    3    3    0  502  0.15525134755E+03 -0.57187492696E+03  0.11433436460E+04  0.12877804960E+04  0.50400001928E-02 0.  1.
</event>
<event>
 5   0  0.3184492E-06  0.2301140E+04  0.7818609E-02  0.8477472E-01
       -1   -1    0    0    0  501  0.00000000000E+00  0.00000000000E+00  0.85651673635E+03  0.85651673637E+03  0.50400001928E-02 0.  1.
        1   -1    0    0  501    0  0.00000000000E+00  0.00000000000E+00 -0.15455761399E+04  0.15455761399E+04  0.50400001928E-02 0. -1.
    10030    2    1    2    0    0  0.00000000000E+00  0.00000000000E+00 -0.68905940358E+03  0.24020928763E+04  0.23011404400E+04 0.  0.
        1    1    3    3  502    0 -0.35723462324E+03  0.17581682206E+03  0.78231095053E+03  0.87780325489E+03  0.50400001928E-02 0.  1.
       -1    1    3    3    0  502  0.35723462324E+03 -0.17581682206E+03 -0.14713703541E+04  0.15242896214E+04  0.50400001928E-02 0. -1.
</event>
<event>
 5   0  0.3226427E-06  0.2364296E+04  0.7818609E-02  0.8452993E-01
        1   -1    0    0  501    0  0.00000000000E+00  0.00000000000E+00  0.13012070031E+04  0.13012070031E+04  0.50400001928E-02 0.  1.
       -1   -1    0    0    0  501  0.00000000000E+00  0.00000000000E+00 -0.10739824588E+04  0.10739824588E+04  0.50400001928E-02 0. -1.
    10030    2    1    2    0    0  0.00000000000E+00  0.00000000000E+00  0.22722454427E+03  0.23751894619E+04  0.23642956639E+04 0.  0.
        4    1    3    3  502    0 -0.18633929256E+03  0.49787092209E+03 -0.94712879847E+03  0.10861180234E+04  0.12699999809E+01 0. -1.
       -4    1    3    3    0  502  0.18633929256E+03 -0.49787092209E+03  0.11743533427E+04  0.12890714385E+04  0.12699999809E+01 0.  1.
</event>
<event>
 5   0  0.7044981E-06  0.2325207E+04  0.7818609E-02  0.8468048E-01
       -2   -1    0    0    0  501  0.00000000000E+00  0.00000000000E+00  0.12252948653E+04  0.12252948653E+04  0.25500000920E-02 0. -1.
        2   -1    0    0  501    0  0.00000000000E+00  0.00000000000E+00 -0.11031199415E+04  0.11031199415E+04  0.25500000920E-02 0.  1.
    10030    2    1    2    0    0  0.00000000000E+00  0.00000000000E+00  0.12217492378E+03  0.23284148068E+04  0.23252072597E+04 0.  0.
        4    1    3    3  502    0  0.35938135641E+03  0.11027901368E+04  0.14084997312E+03  0.11683926451E+04  0.12699999809E+01 0. -1.
       -4    1    3    3    0  502 -0.35938135641E+03 -0.11027901368E+04 -0.18675049340E+02  0.11600221617E+04  0.12699999809E+01 0.  1.
</event>
<event>
 5   0  0.7242214E-06  0.2303159E+04  0.7818609E-02  0.8476677E-01
        2   -1    0    0  501    0  0.00000000000E+00  0.00000000000E+00  0.76586925359E+03  0.76586925359E+03  0.25500000920E-02 0. -1.
       -2   -1    0    0    0  501  0.00000000000E+00  0.00000000000E+00 -0.17315429514E+04  0.17315429514E+04  0.25500000920E-02 0.  1.
    10030    2    1    2    0    0  0.00000000000E+00  0.00000000000E+00 -0.96567369780E+03  0.24974122050E+04  0.23031591415E+04 0.  0.
        1    1    3    3  502    0 -0.48482002395E+03  0.33337387728E+03  0.59057789503E+03  0.83364911551E+03  0.50400001928E-02 0. -1.
       -1    1    3    3    0  502  0.48482002395E+03 -0.33337387728E+03 -0.15562515928E+04  0.16637630895E+04  0.50400001928E-02 0.  1.
</event>
<event>
 5   0  0.3226427E-06  0.2299381E+04  0.7818609E-02  0.8478165E-01
        1   -1    0    0  501    0  0.00000000000E+00  0.00000000000E+00  0.19473326541E+04  0.19473326541E+04  0.50400001928E-02 0. -1.
       -1   -1    0    0    0  501  0.00000000000E+00  0.00000000000E+00 -0.67876857738E+03  0.67876857740E+03  0.50400001928E-02 0.  1.
    10030    2    1    2    0    0  0.00000000000E+00  0.00000000000E+00  0.12685640767E+04  0.26261012315E+04  0.22993809735E+04 0.  0.
        4    1    3    3  502    0  0.87288647448E+03 -0.64017181230E+03  0.19189941482E+03  0.10993533303E+04  0.12699999809E+01 0.  1.
       -4    1    3    3    0  502 -0.87288647448E+03  0.64017181230E+03  0.10766646619E+04  0.15267479011E+04  0.12699999809E+01 0. -1.
</event>
<event>
 5   0  0.7497344E-06  0.2302681E+04  0.7818609E-02  0.8476865E-01
        2   -1    0    0  501    0  0.00000000000E+00  0.00000000000E+00  0.13881593248E+04  0.13881593248E+04  0.25500000920E-02 0.  1.
       -2   -1    0    0    0  501  0.00000000000E+00  0.00000000000E+00 -0.95492236847E+03  0.95492236847E+03  0.25500000920E-02 0. -1.
    10030    2    1    2    0    0  0.00000000000E+00  0.00000000000E+00  0.43323695629E+03  0.23430816932E+04  0.23026805165E+04 0.  0.
        5    1    3    3  502    0  0.75402727265E+03  0.87000770717E+03  0.20687117056E+03  0.11697385647E+04  0.46999998093E+01 0.  1.
       -5    1    3    3    0  502 -0.75402727265E+03 -0.87000770717E+03  0.22636578573E+03  0.11733431286E+04  0.46999998093E+01 0. -1.
</event>
<event>
 5   0  0.7348107E-06  0.2301812E+04  0.7818609E-02  0.8477207E-01
        2   -1    0    0  501    0  0.00000000000E+00  0.00000000000E+00  0.12880255514E+04  0.12880255514E+04  0.25500000920E-02 0. -1.
       -2   -1    0    0    0  501  0.00000000000E+00  0.00000000000E+00 -0.10283834766E+04  0.10283834766E+04  0.25500000920E-02 0.  1.
    10030    2    1    2    0    0  0.00000000000E+00  0.00000000000E+00  0.25964207489E+03  0.23164090280E+04  0.23018116296E+04 0.  0.
        3    1    3    3  502    0 -0.38740173691E+03  0.83925218805E+03 -0.56020938005E+03  0.10808602595E+04  0.10100000352E+00 0.  1.
       -3    1    3    3    0  502  0.38740173691E+03 -0.83925218805E+03  0.81985145494E+03  0.12355487685E+04  0.10100000352E+00 0. -1.
</event>
<event>
 5   0  0.7003852E-06  0.2286942E+04  0.7818609E-02  0.8483087E-01
       -2   -1    0    0    0  501  0.00000000000E+00  0.00000000000E+00  0.80810529861E+03  0.80810529861E+03  0.25500000920E-02 0.  1.
        2   -1    0    0  501    0  0.00000000000E+00  0.00000000000E+00 -0.16180149072E+04  0.16180149072E+04  0.25500000920E-02 0. -1.
    10030    2    1    2    0    0  0.00000000000E+00  0.00000000000E+00 -0.80990960863E+03  0.24261202059E+04  0.22869424302E+04 0.  0.
        2    1    3    3  502    0  0.53049523053E+03 -0.97796780855E+03 -0.12492015994E+03  0.11195763800E+04  0.25500000920E-02 0. -1.
       -2    1    3    3    0  502 -0.53049523053E+03  0.97796780855E+03 -0.68498944869E+03  0.13065438259E+04  0.25500000920E-02 0.  1.
</event>
<event>
 5   0  0.7003852E-06  0.2299700E+04  0.7818609E-02  0.8478040E-01
        2   -1    0    0  501    0  0.00000000000E+00  0.00000000000E+00  0.11449773520E+04  0.11449773520E+04  0.25500000920E-02 0.  1.
       -2   -1    0    0    0  501  0.00000000000E+00  0.00000000000E+00 -0.11547428955E+04  0.11547428955E+04  0.25500000920E-02 0. -1.
    10030    2    1    2    0    0  0.00000000000E+00  0.00000000000E+00 -0.97655435093E+01  0.22997202475E+04  0.22996995132E+04 0.  0.
        2    1    3    3  502    0  0.42034173610E+03  0.14853400021E+03  0.10550347703E+04  0.11453592846E+04  0.25500000920E-02 0.  1.
       -2    1    3    3    0  502 -0.42034173610E+03 -0.14853400021E+03 -0.10648003138E+04  0.11543609629E+04  0.25500000920E-02 0. -1.
</event>
<event>
 5   0  0.7003852E-06  0.2279258E+04  0.7818609E-02  0.8486145E-01
       -2   -1    0    0    0  501  0.00000000000E+00  0.00000000000E+00  0.13378354310E+04  0.13378354310E+04  0.25500000920E-02 0. -1.
        2   -1    0    0  501    0  0.00000000000E+00  0.00000000000E+00 -0.97078782387E+03  0.97078782387E+03  0.25500000920E-02 0.  1.
    10030    2    1    2    0    0  0.00000000000E+00  0.00000000000E+00  0.36704760710E+03  0.23086232548E+04  0.22792580782E+04 0.  0.
        2    1    3    3  502    0 -0.27450314223E+03  0.10867815906E+04 -0.24815668967E+02  0.11211877712E+04  0.25500000920E-02 0. -1.
       -2    1    3    3    0  502  0.27450314223E+03 -0.10867815906E+04  0.39186327607E+03  0.11874354837E+04  0.25500000920E-02 0.  1.
</event>
<event>
 5   0  0.7003852E-06  0.2295153E+04  0.7818609E-02  0.8479835E-01
        2   -1    0    0  501    0  0.00000000000E+00  0.00000000000E+00  0.13886913126E+04  0.13886913126E+04  0.25500000920E-02 0.  1.
       -2   -1    0    0    0  501  0.00000000000E+00  0.00000000000E+00 -0.94832575670E+03  0.94832575670E+03  0.25500000920E-02 0. -1.
    10030    2    1    2    0    0  0.00000000000E+00  0.00000000000E+00  0.44036555593E+03  0.23370170693E+04  0.22951529273E+04 0.  0.
        2    1    3    3  502    0  0.54266169375E+03  0.83958676148E+03  0.79397185633E+03  0.12766279617E+04  0.25500000920E-02 0. -1.
       -2    1    3    3    0  502 -0.54266169375E+03 -0.83958676148E+03 -0.35360630041E+03  0.10603891076E+04  0.25500000920E-02 0.  1.
</event>
<event>
 5   0  0.7348107E-06  0.2297488E+04  0.7818609E-02  0.8478912E-01
       -2   -1    0    0    0  501  0.00000000000E+00  0.00000000000E+00  0.23836602733E+04  0.23836602733E+04  0.25500000920E-02 0.  1.
        2   -1    0    0  501    0  0.00000000000E+00  0.00000000000E+00 -0.55360778701E+03  0.55360778701E+03  0.25500000920E-02 0. -1.
    10030    2    1    2    0    0  0.00000000000E+00  0.00000000000E+00  0.18300524863E+04  0.29372680603E+04  0.22974880969E+04 0.  0.
        3    1    3    3  502    0 -0.31890311117E+02 -0.60058297296E+03  0.21662917940E+04  0.22482297583E+04  0.10100000352E+00 0.  1.
       -3    1    3    3    0  502  0.31890311117E+02  0.60058297296E+03 -0.33623930770E+03  0.68903830198E+03  0.10100000352E+00 0. -1.
</event>
<event>
 5   0  0.7044981E-06  0.2306129E+04  0.7818609E-02  0.8475508E-01
        2   -1    0    0  501    0  0.00000000000E+00  0.00000000000E+00  0.20378918206E+04  0.20378918206E+04  0.25500000920E-02 0. -1.
       -2   -1    0    0    0  501  0.00000000000E+00  0.00000000000E+00 -0.65241821259E+03  0.65241821260E+03  0.25500000920E-02 0.  1.
    10030    2    1    2    0    0  0.00000000000E+00  0.00000000000E+00  0.13854736081E+04  0.26903100332E+04  0.23061289982E+04 0.  0.
        4    1    3    3  502    0  0.68997349696E+03 -0.80204629091E+03  0.12276089895E+04  0.16206070231E+04  0.12699999809E+01 0. -1.
       -4    1    3    3    0  502 -0.68997349696E+03  0.80204629091E+03  0.15786461856E+03  0.10697030102E+04  0.12699999809E+01 0.  1.
</event>
<event>
 5   0  0.7242214E-06  0.2297912E+04  0.7818609E-02  0.8478745E-01
        2   -1    0    0  501    0  0.00000000000E+00  0.00000000000E+00  0.96384351502E+03  0.96384351503E+03  0.25500000920E-02 0. -1.
       -2   -1    0    0    0  501  0.00000000000E+00  0.00000000000E+00 -0.13696200635E+04  0.13696200635E+04  0.25500000920E-02 0.  1.
    10030    2    1    2    0    0  0.00000000000E+00  0.00000000000E+00 -0.40577654849E+03  0.23334635785E+04  0.22979115877E+04 0.  0.
        1    1    3    3  502    0  0.17826503940E+03  0.18026150224E+03  0.93508636087E+03  0.96884422678E+03  0.50400001928E-02 0. -1.
       -1    1    3    3    0  502 -0.17826503940E+03 -0.18026150224E+03 -0.13408629094E+04  0.13646193518E+04  0.50400001928E-02 0.  1.
</event>
<event>
 5   0  0.3184492E-06  0.2299522E+04  0.7818609E-02  0.8478110E-01
       -1   -1    0    0    0  501  0.00000000000E+00  0.00000000000E+00  0.16653251212E+04  0.16653251212E+04  0.50400001928E-02 0. -1.
        1   -1    0    0  501    0  0.00000000000E+00  0.00000000000E+00 -0.79380907786E+03  0.79380907788E+03  0.50400001928E-02 0.  1.
    10030    2    1    2    0    0  0.00000000000E+00  0.00000000000E+00  0.87151604336E+03  0.24591341991E+04  0.22995218623E+04 0.  0.
        1    1    3    3  502    0  0.40490726978E+03  0.10274017703E+04  0.93469775395E+02  0.11082603005E+04  0.50400001928E-02 0.  1.
       -1    1    3    3    0  502 -0.40490726978E+03 -0.10274017703E+04  0.77804626796E+03  0.13508738986E+04  0.50400001928E-02 0. -1.
</event>
<event>
 5   0  0.3238713E-06  0.2302003E+04  0.7818609E-02  0.8477132E-01
        1   -1    0    0  501    0  0.00000000000E+00  0.00000000000E+00  0.11362960011E+04  0.11362960011E+04  0.50400001928E-02 0. -1.
       -1   -1    0    0    0  501  0.00000000000E+00  0.00000000000E+00 -0.11658974764E+04  0.11658974765E+04  0.50400001928E-02 0.  1.
    10030    2    1    2    0    0  0.00000000000E+00  0.00000000000E+00 -0.29601475369E+02  0.23021934776E+04  0.23020031626E+04 0.  0.
        3    1    3    3  502    0  0.56442087937E+03  0.93257766250E+03  0.35473299629E+03  0.11463452946E+04  0.10100000352E+00 0. -1.
       -3    1    3    3    0  502 -0.56442087937E+03 -0.93257766250E+03 -0.38433447166E+03  0.11558481829E+04  0.10100000352E+00 0.  1.
</event>
<event>
 5   0  0.3184492E-06  0.2299667E+04  0.7818609E-02  0.8478053E-01
        1   -1    0    0  501    0  0.00000000000E+00  0.00000000000E+00  0.14824425128E+04  0.14824425128E+04  0.50400001928E-02 0.  1.
       -1   -1    0    0    0  501  0.00000000000E+00  0.00000000000E+00 -0.89185017840E+03  0.89185017841E+03  0.50400001928E-02 0. -1.
    10030    2    1    2    0    0  0.00000000000E+00  0.00000000000E+00  0.59059233437E+03  0.23742926912E+04  0.22996666015E+04 0.  0.
        1    1    3    3  502    0  0.78333276733E+03  0.11765653002E+03  0.11558074450E+04  0.14011938243E+04  0.50400001928E-02 0.  1.
       -1    1    3    3    0  502 -0.78333276733E+03 -0.11765653002E+03 -0.56521511060E+03  0.97309886687E+03  0.50400001928E-02 0. -1.
</event>
<event>
 5   0  0.7044981E-06  0.2300058E+04  0.7818609E-02  0.8477898E-01
        2   -1    0    0  501    0  0.00000000000E+00  0.00000000000E+00  0.13933381810E+04  0.13933381810E+04  0.25500000920E-02 0. -1.
       -2   -1    0    0    0  501  0.00000000000E+00  0.00000000000E+00 -0.94920684366E+03  0.94920684367E+03  0.25500000920E-02 0.  1.
    10030    2    1    2    0    0  0.00000000000E+00  0.00000000000E+00  0.44413133738E+03  0.23425450247E+04  0.23000575097E+04 0.  0.
        4    1    3    3  502    0 -0.34430334593E+03 -0.55873292886E+03  0.11838817951E+04  0.13536266093E+04  0.12699999809E+01 0. -1.
       -4    1    3    3    0  502  0.34430334593E+03  0.55873292886E+03 -0.73975045768E+03  0.98891841542E+03  0.12699999809E+01 0.  1.
</event>
<event>
 5   0  0.7003852E-06  0.2305758E+04  0.7818609E-02  0.8475654E-01
        2   -1    0    0  501    0  0.00000000000E+00  0.00000000000E+00  0.14456801305E+04  0.14456801305E+04  0.25500000920E-02 0. -1.
       -2   -1    0    0    0  501  0.00000000000E+00  0.00000000000E+00 -0.91938049741E+03  0.91938049741E+03  0.25500000920E-02 0.  1.
    10030    2    1    2    0    0  0.00000000000E+00  0.00000000000E+00  0.52629963311E+03  0.23650606279E+04  0.23057581118E+04 0.  0.
        2    1    3    3  502    0 -0.12309141428E+03 -0.83563517417E+03 -0.54169185917E+03  0.10034279799E+04  0.25500000920E-02 0.  1.
       -2    1    3    3    0  502  0.12309141428E+03  0.83563517417E+03  0.10679914923E+04  0.13616326480E+04  0.25500000920E-02 0. -1.
</event>
<event>
 5   0  0.7003852E-06  0.2298633E+04  0.7818609E-02  0.8478460E-01
        2   -1    0    0  501    0  0.00000000000E+00  0.00000000000E+00  0.27267050580E+04  0.27267050580E+04  0.25500000920E-02 0. -1.
       -2   -1    0    0    0  501  0.00000000000E+00  0.00000000000E+00 -0.48444142048E+03  0.48444142049E+03  0.25500000920E-02 0.  1.
    10030    2    1    2    0    0  0.00000000000E+00  0.00000000000E+00  0.22422636375E+04  0.32111464785E+04  0.22986333953E+04 0.  0.
        2    1    3    3  502    0  0.27193970283E+03  0.62580247696E+03  0.24131304772E+04  0.25077437353E+04  0.25500000920E-02 0. -1.
       -2    1    3    3    0  502 -0.27193970283E+03 -0.62580247696E+03 -0.17086683969E+03  0.70340274314E+03  0.25500000920E-02 0.  1.
</event>
<event>
 5   0  0.7242214E-06  0.2281242E+04  0.7818609E-02  0.8485354E-01
        2   -1    0    0  501    0  0.00000000000E+00  0.00000000000E+00  0.12281245842E+04  0.12281245842E+04  0.25500000920E-02 0. -1.
       -2   -1    0    0    0  501  0.00000000000E+00  0.00000000000E+00 -0.10593515745E+04  0.10593515745E+04  0.25500000920E-02 0.  1.
    10030    2    1    2    0    0  0.00000000000E+00  0.00000000000E+00  0.16877300976E+03  0.22874761587E+04  0.22812415146E+04 0.  0.
        1    1    3    3  502    0  0.44482908434E+03 -0.81699460949E+03 -0.57746483485E+03  0.10949058141E+04  0.50400001928E-02 0.  1.
       -1    1    3    3    0  502 -0.44482908434E+03  0.81699460949E+03  0.74623784460E+03  0.11925703447E+04  0.50400001928E-02 0. -1.
</event>
<event>
 5   0  0.7497344E-06  0.2290897E+04  0.7818609E-02  0.8481519E-01
       -2   -1    0    0    0  501  0.00000000000E+00  0.00000000000E+00  0.22136591364E+04  0.22136591364E+04  0.25500000920E-02 0. -1.
        2   -1    0    0  501    0  0.00000000000E+00  0.00000000000E+00 -0.59270734338E+03  0.59270734339E+03  0.25500000920E-02 0.  1.
    10030    2    1    2    0    0  0.00000000000E+00  0.00000000000E+00  0.16209517931E+04  0.28063664798E+04  0.22908967903E+04 0.  0.
        5    1    3    3  502    0 -0.52964283102E+03 -0.35806709062E+03 -0.35379486782E+03  0.73070272226E+03  0.46999998093E+01 0.  1.
       -5    1    3    3    0  502  0.52964283102E+03  0.35806709062E+03  0.19747466609E+04  0.20756637576E+04  0.46999998093E+01 0. -1.
</event>
<event>
 5   0  0.3195296E-06  0.2299649E+04  0.7818609E-02  0.8478060E-01
       -1   -1    0    0    0  501  0.00000000000E+00  0.00000000000E+00  0.85750292511E+03  0.85750292513E+03  0.50400001928E-02 0.  1.
        1   -1    0    0  501    0  0.00000000000E+00  0.00000000000E+00 -0.15417974521E+04  0.15417974521E+04  0.50400001928E-02 0. -1.
    10030    2    1    2    0    0  0.00000000000E+00  0.00000000000E+00 -0.68429452696E+03  0.23993003772E+04  0.22996485167E+04 0.  0.
        2    1    3    3  502    0 -0.33538103940E+03 -0.35410789852E+03  0.74423449217E+03  0.88980774593E+03  0.25500000920E-02 0.  1.
       -2    1    3    3    0  502  0.33538103940E+03  0.35410789852E+03 -0.14285290191E+04  0.15094926313E+04  0.25500000920E-02 0. -1.
</event>
<event>
 5   0  0.3238713E-06  0.2298827E+04  0.7818609E-02  0.8478384E-01
        1   -1    0    0  501    0  0.00000000000E+00  0.00000000000E+00  0.16537222029E+04  0.16537222029E+04  0.50400001928E-02 0.  1.
       -1   -1    0    0    0  501  0.00000000000E+00  0.00000000000E+00 -0.79889578184E+03  0.79889578186E+03  0.50400001928E-02 0. -1.
    10030    2    1    2    0    0  0.00000000000E+00  0.00000000000E+00  0.85482642105E+03  0.24526179848E+04  0.22988272595E+04 0.  0.
        3    1    3    3  502    0  0.50618043393E+03  0.72650141264E+03  0.12093340153E+04  0.14988367840E+04  0.10100000352E+00 0.  1.
       -3    1    3    3    0  502 -0.50618043393E+03 -0.72650141264E+03 -0.35450759429E+03  0.95378120074E+03  0.10100000352E+00 0. -1.
</event>
<event>
 5   0  0.3184492E-06  0.2298469E+04  0.7818609E-02  0.8478525E-01
       -1   -1    0    0    0  501  0.00000000000E+00  0.00000000000E+00  0.57846767028E+03  0.57846767031E+03  0.50400001928E-02 0. -1.
        1   -1    0    0  501    0  0.00000000000E+00  0.00000000000E+00 -0.22831696476E+04  0.22831696476E+04  0.50400001928E-02 0.  1.
    10030    2    1    2    0    0  0.00000000000E+00  0.00000000000E+00 -0.17047019773E+04  0.28616373179E+04  0.22984689051E+04 0.  0.
        1    1    3    3  502    0 -0.82402624131E+03  0.47860229209E+03 -0.16521343583E+04  0.19072564951E+04  0.50400001928E-02 0.  1.
       -1    1    3    3    0  502  0.82402624131E+03 -0.47860229209E+03 -0.52567619074E+02  0.95438082282E+03  0.50400001928E-02 0. -1.
</event>
<event>
 5   0  0.3195296E-06  0.2297348E+04  0.7818609E-02  0.8478967E-01
        1   -1    0    0  501    0  0.00000000000E+00  0.00000000000E+00  0.64741675136E+03  0.64741675138E+03  0.50400001928E-02 0. -1.
       -1   -1    0    0    0  501  0.00000000000E+00  0.00000000000E+00 -0.20380261549E+04  0.20380261549E+04  0.50400001928E-02 0.  1.
    10030    2    1    2    0    0  0.00000000000E+00  0.00000000000E+00 -0.13906094035E+04  0.26854429063E+04  0.22973482735E+04 0.  0.
        2    1    3    3  502    0  0.60009262835E+03  0.78408132213E+03 -0.91532354863E+01  0.98740997769E+03  0.25500000920E-02 0. -1.
       -2    1    3    3    0  502 -0.60009262835E+03 -0.78408132213E+03 -0.13814561681E+04  0.16980329286E+04  0.25500000920E-02 0.  1.
</event>
<event>
 5   0  0.7348107E-06  0.2301579E+04  0.7818609E-02  0.8477299E-01
       -2   -1    0    0    0  501  0.00000000000E+00  0.00000000000E+00  0.88197071431E+03  0.88197071432E+03  0.25500000920E-02 0. -1.
        2   -1    0    0  501    0  0.00000000000E+00  0.00000000000E+00 -0.15015423301E+04  0.15015423301E+04  0.25500000920E-02 0.  1.
    10030    2    1    2    0    0  0.00000000000E+00  0.00000000000E+00 -0.61957161577E+03  0.23835130444E+04  0.23015789028E+04 0.  0.
        3    1    3    3  502    0 -0.55067676627E+03 -0.14305018845E+03 -0.13456997326E+04  0.14610325245E+04  0.10100000352E+00 0.  1.
       -3    1    3    3    0  502  0.55067676627E+03  0.14305018845E+03  0.72612811680E+03  0.92248051986E+03  0.10100000352E+00 0. -1.
</event>
<event>
 5   0  0.3195296E-06  0.2300694E+04  0.7818609E-02  0.8477647E-01
        1   -1    0    0  501    0  0.00000000000E+00  0.00000000000E+00  0.14905393415E+04  0.14905393415E+04  0.50400001928E-02 0. -1.
       -1   -1    0    0    0  501  0.00000000000E+00  0.00000000000E+00 -0.88779847215E+03  0.88779847216E+03  0.50400001928E-02 0.  1.
    10030    2    1    2    0    0  0.00000000000E+00  0.00000000000E+00  0.60274086937E+03  0.23783378137E+04  0.23006942866E+04 0.  0.
        2    1    3    3  502    0 -0.16254278863E+03 -0.98650639672E+03  0.88950258638E+03  0.13382189208E+04  0.25500000920E-02 0. -1.
       -2    1    3    3    0  502  0.16254278863E+03  0.98650639672E+03 -0.28676171702E+03  0.10401188928E+04  0.25500000920E-02 0.  1.
</event>
<event>
 5   0  0.7497344E-06  0.2304843E+04  0.7818609E-02  0.8476014E-01
        2   -1    0    0  501    0  0.00000000000E+00  0.00000000000E+00  0.20429772226E+04  0.20429772226E+04  0.25500000920E-02 0. -1.
       -2   -1    0    0    0  501  0.00000000000E+00  0.00000000000E+00 -0.65006880834E+03  0.65006880835E+03  0.25500000920E-02 0.  1.
    10030    2    1    2    0    0  0.00000000000E+00  0.00000000000E+00  0.13929084142E+04  0.26930460309E+04  0.23048433947E+04 0.  0.
        5    1    3    3  502    0 -0.33327531420E+03 -0.69724266246E+03  0.16953304878E+04  0.18631659396E+04  0.46999998093E+01 0. -1.
       -5    1    3    3    0  502  0.33327531420E+03  0.69724266246E+03 -0.30242207360E+03  0.82988009135E+03  0.46999998093E+01 0.  1.
</event>
<event>
 5   0  0.7044981E-06  0.2304324E+04  0.7818609E-02  0.8476218E-01
        2   -1    0    0  501    0  0.00000000000E+00  0.00000000000E+00  0.16541035793E+04  0.16541035793E+04  0.25500000920E-02 0.  1.
       -2   -1    0    0    0  501  0.00000000000E+00  0.00000000000E+00 -0.80253568897E+03  0.80253568897E+03  0.25500000920E-02 0. -1.
    10030    2    1    2    0    0  0.00000000000E+00  0.00000000000E+00  0.85156789031E+03  0.24566392683E+04  0.23043238970E+04 0.  0.
        4    1    3    3  502    0 -0.40939781833E+03  0.28599607932E+03 -0.68115175955E+03  0.84461213789E+03  0.12699999809E+01 0. -1.
       -4    1    3    3    0  502  0.40939781833E+03 -0.28599607932E+03  0.15327196499E+04  0.16120271304E+04  0.12699999809E+01 0.  1.
</event>
<event>
 5   0  0.3338758E-06  0.2300529E+04  0.7818609E-02  0.8477713E-01
        1   -1    0    0  501    0  0.00000000000E+00  0.00000000000E+00  0.17036094640E+04  0.17036094640E+04  0.50400001928E-02 0. -1.
       -1   -1    0    0    0  501  0.00000000000E+00  0.00000000000E+00 -0.77664994495E+03  0.77664994497E+03  0.50400001928E-02 0.  1.
    10030    2    1    2    0    0  0.00000000000E+00  0.00000000000E+00  0.92695951904E+03  0.24802594090E+04  0.23005288057E+04 0.  0.
        5    1    3    3  502    0  0.62222426124E+03 -0.25077745845E+03  0.14708403224E+04  0.16166155106E+04  0.46999998093E+01 0. -1.
       -5    1    3    3    0  502 -0.62222426124E+03  0.25077745845E+03 -0.54388080339E+03  0.86364389839E+03  0.46999998093E+01 0.  1.
</event>
<event>
 5   0  0.3238713E-06  0.2302116E+04  0.7818609E-02  0.8477087E-01
       -1   -1    0    0    0  501  0.00000000000E+00  0.00000000000E+00  0.66798017344E+03  0.66798017346E+03  0.50400001928E-02 0.  1.
        1   -1    0    0  501    0  0.00000000000E+00  0.00000000000E+00 -0.19834936681E+04  0.19834936681E+04  0.50400001928E-02 0. -1.
    10030    2    1    2    0    0  0.00000000000E+00  0.00000000000E+00 -0.13155134946E+04  0.26514738415E+04  0.23021159349E+04 0.  0.
        3    1    3    3  502    0 -0.22034192457E+03 -0.10650388854E+04 -0.10918875313E+04  0.15411284120E+04  0.10100000352E+00 0. -1.
       -3    1    3    3    0  502  0.22034192457E+03  0.10650388854E+04 -0.22362596336E+03  0.11103454295E+04  0.10100000352E+00 0.  1.
</event>
<event>
 5   0  0.3184492E-06  0.2302607E+04  0.7818609E-02  0.8476894E-01
       -1   -1    0    0    0  501  0.00000000000E+00  0.00000000000E+00  0.79390113230E+03  0.79390113232E+03  0.50400001928E-02 0. -1.
        1   -1    0    0  501    0  0.00000000000E+00  0.00000000000E+00 -0.16696033028E+04  0.16696033028E+04  0.50400001928E-02 0.  1.
    10030    2    1    2    0    0  0.00000000000E+00  0.00000000000E+00 -0.87570217045E+03  0.24635044351E+04  0.23026071767E+04 0.  0.
        1    1    3    3  502    0  0.63656794291E+03 -0.32672960956E+03  0.52713267735E+03  0.88872934195E+03  0.50400001928E-02 0. -1.
       -1    1    3    3    0  502 -0.63656794291E+03  0.32672960956E+03 -0.14028348478E+04  0.15747750931E+04  0.50400001928E-02 0.  1.
</event>
<event>
 5   0  0.3338758E-06  0.2298014E+04  0.7818609E-02  0.8478705E-01
       -1   -1    0    0    0  501  0.00000000000E+00  0.00000000000E+00  0.72712806485E+03  0.72712806487E+03  0.50400001928E-02 0.  1.
        1   -1    0    0  501    0  0.00000000000E+00  0.00000000000E+00 -0.18156597380E+04  0.18156597380E+04  0.50400001928E-02 0. -1.
    10030    2    1    2    0    0  0.00000000000E+00  0.00000000000E+00 -0.10885316732E+04  0.25427878029E+04  0.22980140572E+04 0.  0.
        5    1    3    3  502    0 -0.75201252274E+03  0.13497905409E+03 -0.14938422568E+04  0.16778942033E+04  0.46999998093E+01 0. -1.
       -5    1    3    3    0  502  0.75201252274E+03 -0.13497905409E+03  0.40531058361E+03  0.86489359957E+03  0.46999998093E+01 0.  1.
</event>
<event>
 5   0  0.7003852E-06  0.2305823E+04  0.7818609E-02  0.8475629E-01
        2   -1    0    0  501    0  0.00000000000E+00  0.00000000000E+00  0.12647184310E+04  0.12647184310E+04  0.25500000920E-02 0. -1.
       -2   -1    0    0    0  501  0.00000000000E+00  0.00000000000E+00 -0.10509886981E+04  0.10509886981E+04  0.25500000920E-02 0.  1.
    10030    2    1    2    0    0  0.00000000000E+00  0.00000000000E+00  0.21372973290E+03  0.23157071291E+04  0.23058228702E+04 0.  0.
        2    1    3    3  502    0  0.11752840394E+03 -0.31084828963E+03 -0.10018444871E+04  0.10555244958E+04  0.25500000920E-02 0.  1.
       -2    1    3    3    0  502 -0.11752840394E+03  0.31084828963E+03  0.12155742200E+04  0.12601826333E+04  0.25500000920E-02 0. -1.
</event>
<event>
 5   0  0.3195296E-06  0.2300990E+04  0.7818609E-02  0.8477531E-01
        1   -1    0    0  501    0  0.00000000000E+00  0.00000000000E+00  0.87789429841E+03  0.87789429843E+03  0.50400001928E-02 0.  1.
       -1   -1    0    0    0  501  0.00000000000E+00  0.00000000000E+00 -0.15077428210E+04  0.15077428210E+04  0.50400001928E-02 0. -1.
    10030    2    1    2    0    0  0.00000000000E+00  0.00000000000E+00 -0.62984852256E+03  0.23856371194E+04  0.23009900704E+04 0.  0.
        2    1    3    3  502    0  0.15663423853E+03  0.27694791714E+03 -0.14612210874E+04  0.14954602970E+04  0.25500000920E-02 0. -1.
       -2    1    3    3    0  502 -0.15663423853E+03 -0.27694791714E+03  0.83137256489E+03  0.89017682241E+03  0.25500000920E-02 0.  1.
</event>
<event>
 5   0  0.7497344E-06  0.2290977E+04  0.7818609E-02  0.8481487E-01
       -2   -1    0    0    0  501  0.00000000000E+00  0.00000000000E+00  0.80268810794E+03  0.80268810795E+03  0.25500000920E-02 0.  1.
        2   -1    0    0  501    0  0.00000000000E+00  0.00000000000E+00 -0.16346865751E+04  0.16346865751E+04  0.25500000920E-02 0. -1.
    10030    2    1    2    0    0  0.00000000000E+00  0.00000000000E+00 -0.83199846717E+03  0.24373746831E+04  0.22909766250E+04 0.  0.
        5    1    3    3  502    0 -0.89195164887E+03 -0.23565432537E+03 -0.11383649575E+04  0.14652670649E+04  0.46999998093E+01 0. -1.
       -5    1    3    3    0  502  0.89195164887E+03  0.23565432537E+03  0.30636649030E+03  0.97210761820E+03  0.46999998093E+01 0.  1.
</event>
<event>
 5   0  0.3184492E-06  0.2300472E+04  0.7818609E-02  0.8477735E-01
        1   -1    0    0  501    0  0.00000000000E+00  0.00000000000E+00  0.93126691492E+03  0.93126691493E+03  0.50400001928E-02 0. -1.
       -1   -1    0    0    0  501  0.00000000000E+00  0.00000000000E+00 -0.14206917154E+04  0.14206917154E+04  0.50400001928E-02 0.  1.
    10030    2    1    2    0    0  0.00000000000E+00  0.00000000000E+00 -0.48942480051E+03  0.23519586304E+04  0.23004722914E+04 0.  0.
        1    1    3    3  502    0  0.12460092603E+03  0.13947723471E+03 -0.14050420138E+04  0.14174351309E+04  0.50400001928E-02 0.  1.
       -1    1    3    3    0  502 -0.12460092603E+03 -0.13947723471E+03  0.91561721328E+03  0.93452349946E+03  0.50400001928E-02 0. -1.
</event>
<event>
 5   0  0.7348107E-06  0.2295177E+04  0.7818609E-02  0.8479825E-01
       -2   -1    0    0    0  501  0.00000000000E+00  0.00000000000E+00  0.97516498129E+03  0.97516498129E+03  0.25500000920E-02 0. -1.
        2   -1    0    0  501    0  0.00000000000E+00  0.00000000000E+00 -0.13504991881E+04  0.13504991881E+04  0.25500000920E-02 0.  1.
    10030    2    1    2    0    0  0.00000000000E+00  0.00000000000E+00 -0.37533420677E+03  0.23256641694E+04  0.22951771308E+04 0.  0.
        3    1    3    3  502    0  0.95832534894E+03 -0.40650943293E+03  0.30178335914E+03  0.10838406707E+04  0.10100000352E+00 0. -1.
       -3    1    3    3    0  502 -0.95832534894E+03  0.40650943293E+03 -0.67711756591E+03  0.12418234986E+04  0.10100000352E+00 0.  1.
</event>
<event>
 5   0  0.7497344E-06  0.2294217E+04  0.7818609E-02  0.8480205E-01
       -2   -1    0    0    0  501  0.00000000000E+00  0.00000000000E+00  0.92621433335E+03  0.92621433335E+03  0.25500000920E-02 0. -1.
        2   -1    0    0  501    0  0.00000000000E+00  0.00000000000E+00 -0.14206844560E+04  0.14206844560E+04  0.25500000920E-02 0.  1.
    10030    2    1    2    0    0  0.00000000000E+00  0.00000000000E+00 -0.49447012260E+03  0.23468987893E+04  0.22942173448E+04 0.  0.
        5    1    3    3  502    0 -0.11387964219E+04  0.11420382111E+03 -0.16841770695E+03  0.11568432985E+04  0.46999998093E+01 0. -1.
       -5    1    3    3    0  502  0.11387964219E+04 -0.11420382111E+03 -0.32605241565E+03  0.11900554908E+04  0.46999998093E+01 0.  1.
</event>
<event>
 5   0  0.7497344E-06  0.2310187E+04  0.7818609E-02  0.8473915E-01
       -2   -1    0    0    0  501  0.00000000000E+00  0.00000000000E+00  0.82756822216E+03  0.82756822216E+03  0.25500000920E-02 0.  1.
        2   -1    0    0  501    0  0.00000000000E+00  0.00000000000E+00 -0.16122430731E+04  0.16122430731E+04  0.25500000920E-02 0. -1.
    10030    2    1    2    0    0  0.00000000000E+00  0.00000000000E+00 -0.78467485097E+03  0.24398112953E+04  0.23101871212E+04 0.  0.
        5    1    3    3  502    0 -0.39853770506E+03  0.97922818624E+03  0.99064582596E+02  0.10618644097E+04  0.46999998093E+01 0. -1.
       -5    1    3    3    0  502  0.39853770506E+03 -0.97922818624E+03 -0.88373943357E+03  0.13779468856E+04  0.46999998093E+01 0.  1.
</event>
<event>
 5   0  0.7348107E-06  0.2299700E+04  0.7818609E-02  0.8478039E-01
       -2   -1    0    0    0  501  0.00000000000E+00  0.00000000000E+00  0.12264451354E+04  0.12264451354E+04  0.25500000920E-02 0.  1.
        2   -1    0    0  501    0  0.00000000000E+00  0.00000000000E+00 -0.10780385000E+04  0.10780385001E+04  0.25500000920E-02 0. -1.
    10030    2    1    2    0    0  0.00000000000E+00  0.00000000000E+00  0.14840663530E+03  0.23044836354E+04  0.22997000449E+04 0.  0.
        3    1    3    3  502    0 -0.51617569754E+03  0.10221744312E+04 -0.30307176543E+02  0.11455114376E+04  0.10100000352E+00 0. -1.
       -3    1    3    3    0  502  0.51617569754E+03 -0.10221744312E+04  0.17871381185E+03  0.11589721978E+04  0.10100000352E+00 0.  1.
</event>
<event>
 5   0  0.3184492E-06  0.2300682E+04  0.7818609E-02  0.8477652E-01
       -1   -1    0    0    0  501  0.00000000000E+00  0.00000000000E+00  0.16988625452E+04  0.16988625452E+04  0.50400001928E-02 0. -1.
        1   -1    0    0  501    0  0.00000000000E+00  0.00000000000E+00 -0.77892364870E+03  0.77892364871E+03  0.50400001928E-02 0.  1.
    10030    2    1    2    0    0  0.00000000000E+00  0.00000000000E+00  0.91993889648E+03  0.24777861939E+04  0.23006818227E+04 0.  0.
        1    1    3    3  502    0 -0.13637137713E+03  0.10994948717E+04  0.12663078775E+03  0.11151329435E+04  0.50400001928E-02 0.  1.
       -1    1    3    3    0  502  0.13637137713E+03 -0.10994948717E+04  0.79330810873E+03  0.13626532504E+04  0.50400001928E-02 0. -1.
</event>
<event>
 5   0  0.3226427E-06  0.2297287E+04  0.7818609E-02  0.8478992E-01
        1   -1    0    0  501    0  0.00000000000E+00  0.00000000000E+00  0.17093651116E+04  0.17093651116E+04  0.50400001928E-02 0. -1.
       -1   -1    0    0    0  501  0.00000000000E+00  0.00000000000E+00 -0.77185495174E+03  0.77185495176E+03  0.50400001928E-02 0.  1.
    10030    2    1    2    0    0  0.00000000000E+00  0.00000000000E+00  0.93751015985E+03  0.24812200634E+04  0.22972870310E+04 0.  0.
        4    1    3    3  502    0  0.10116241221E+04  0.40908576767E+03  0.85614454040E+03  0.13869821977E+04  0.12699999809E+01 0. -1.
       -4    1    3    3    0  502 -0.10116241221E+04 -0.40908576767E+03  0.81365619450E+02  0.10942378657E+04  0.12699999809E+01 0.  1.
</event>
<event>
 5   0  0.3338758E-06  0.2301475E+04  0.7818609E-02  0.8477340E-01
       -1   -1    0    0    0  501  0.00000000000E+00  0.00000000000E+00  0.10139152082E+04  0.10139152082E+04  0.50400001928E-02 0. -1.
        1   -1    0    0  501    0  0.00000000000E+00  0.00000000000E+00 -0.13060228929E+04  0.13060228929E+04  0.50400001928E-02 0.  1.
    10030    2    1    2    0    0  0.00000000000E+00  0.00000000000E+00 -0.29210768470E+03  0.23199381011E+04  0.23014747215E+04 0.  0.
        5    1    3    3  502    0 -0.10317685169E+04 -0.46797370699E+03  0.57128873513E+02  0.11343859401E+04  0.46999998093E+01 0. -1.
       -5    1    3    3    0  502  0.10317685169E+04  0.46797370699E+03 -0.34923655821E+03  0.11855521610E+04  0.46999998093E+01 0.  1.
</event>
<event>
 5   0  0.7003852E-06  0.2299932E+04  0.7818609E-02  0.8477948E-01
       -2   -1    0    0    0  501  0.00000000000E+00  0.00000000000E+00  0.71480875407E+03  0.71480875407E+03  0.25500000920E-02 0.  1.
        2   -1    0    0  501    0  0.00000000000E+00  0.00000000000E+00 -0.18500350355E+04  0.18500350355E+04  0.25500000920E-02 0. -1.
    10030    2    1    2    0    0  0.00000000000E+00  0.00000000000E+00 -0.11352262814E+04  0.25648437896E+04  0.22999315109E+04 0.  0.
        2    1    3    3  502    0 -0.79181635229E+03 -0.23188953694E+03  0.32569993906E+03  0.88703232376E+03  0.25500000920E-02 0.  1.
       -2    1    3    3    0  502  0.79181635229E+03  0.23188953694E+03 -0.14609262205E+04  0.16778114658E+04  0.25500000920E-02 0. -1.
</event>
<event>
 5   0  0.3238713E-06  0.2301797E+04  0.7818609E-02  0.8477213E-01
       -1   -1    0    0    0  501  0.00000000000E+00  0.00000000000E+00  0.98095107936E+03  0.98095107937E+03  0.50400001928E-02 0. -1.
        1   -1    0    0  501    0  0.00000000000E+00  0.00000000000E+00 -0.13502892580E+04  0.13502892580E+04  0.50400001928E-02 0.  1.
    10030    2    1    2    0    0  0.00000000000E+00  0.00000000000E+00 -0.36933817863E+03  0.23312403374E+04  0.23017973022E+04 0.  0.
        3    1    3    3  502    0  0.73766670241E+03 -0.28946845612E+03  0.66064682741E+03  0.10316968507E+04  0.10100000352E+00 0. -1.
       -3    1    3    3    0  502 -0.73766670241E+03  0.28946845612E+03 -0.10299850060E+04  0.12995434867E+04  0.10100000352E+00 0.  1.
</event>
<event>
 5   0  0.3226427E-06  0.2284164E+04  0.7818609E-02  0.8484191E-01
        1   -1    0    0  501    0  0.00000000000E+00  0.00000000000E+00  0.10221669410E+04  0.10221669411E+04  0.50400001928E-02 0. -1.
       -1   -1    0    0    0  501  0.00000000000E+00  0.00000000000E+00 -0.12760648722E+04  0.12760648722E+04  0.50400001928E-02 0.  1.
    10030    2    1    2    0    0  0.00000000000E+00  0.00000000000E+00 -0.25389793114E+03  0.22982318132E+04  0.22841640283E+04 0.  0.
        4    1    3    3  502    0 -0.20750824097E+03  0.24110353193E+03  0.97669267950E+03  0.10271907254E+04  0.12699999809E+01 0. -1.
       -4    1    3    3    0  502  0.20750824097E+03 -0.24110353193E+03 -0.12305906106E+04  0.12710410879E+04  0.12699999809E+01 0.  1.
</event>
<event>
 5   0  0.7044981E-06  0.2303263E+04  0.7818609E-02  0.8476636E-01
       -2   -1    0    0    0  501  0.00000000000E+00  0.00000000000E+00  0.18891043381E+04  0.18891043381E+04  0.25500000920E-02 0.  1.
        2   -1    0    0  501    0  0.00000000000E+00  0.00000000000E+00 -0.70205485377E+03  0.70205485377E+03  0.25500000920E-02 0. -1.
    10030    2    1    2    0    0  0.00000000000E+00  0.00000000000E+00  0.11870494843E+04  0.25911591918E+04  0.23032627899E+04 0.  0.
        4    1    3    3  502    0  0.92112681217E+03 -0.77957409330E+02 -0.17912762283E+03  0.94161578147E+03  0.12699999809E+01 0.  1.
       -4    1    3    3    0  502 -0.92112681217E+03  0.77957409330E+02  0.13661771071E+04  0.16495434104E+04  0.12699999809E+01 0. -1.
</event>
<event>
 5   0  0.3226427E-06  0.2298121E+04  0.7818609E-02  0.8478662E-01
        1   -1    0    0  501    0  0.00000000000E+00  0.00000000000E+00  0.23691978365E+04  0.23691978365E+04  0.50400001928E-02 0.  1.
       -1   -1    0    0    0  501  0.00000000000E+00  0.00000000000E+00 -0.55729428433E+03  0.55729428436E+03  0.50400001928E-02 0. -1.
    10030    2    1    2    0    0  0.00000000000E+00  0.00000000000E+00  0.18119035522E+04  0.29264921209E+04  0.22981213308E+04 0.  0.
        4    1    3    3  502    0 -0.69924063493E+03 -0.46090889775E+02 -0.25369094462E+03  0.74526676026E+03  0.12699999809E+01 0. -1.
       -4    1    3    3    0  502  0.69924063493E+03  0.46090889775E+02  0.20655944968E+04  0.21812253606E+04  0.12699999809E+01 0.  1.
</event>
<event>
 5   0  0.3226427E-06  0.2295789E+04  0.7818609E-02  0.8479583E-01
        1   -1    0    0  501    0  0.00000000000E+00  0.00000000000E+00  0.94271029358E+03  0.94271029360E+03  0.50400001928E-02 0. -1.
       -1   -1    0    0    0  501  0.00000000000E+00  0.00000000000E+00 -0.13977381021E+04  0.13977381021E+04  0.50400001928E-02 0.  1.
    10030    2    1    2    0    0  0.00000000000E+00  0.00000000000E+00 -0.45502780851E+03  0.23404483957E+04  0.22957892731E+04 0.  0.
        4    1    3    3  502    0  0.21219485008E+03  0.42580810883E+03  0.83747077503E+03  0.96317086328E+03  0.12699999809E+01 0. -1.
       -4    1    3    3    0  502 -0.21219485008E+03 -0.42580810883E+03 -0.12924985835E+04  0.13772775324E+04  0.12699999809E+01 0.  1.
</event>
<event>
 5   0  0.3184492E-06  0.2297780E+04  0.7818609E-02  0.8478797E-01
        1   -1    0    0  501    0  0.00000000000E+00  0.00000000000E+00  0.11777005237E+04  0.11777005237E+04  0.50400001928E-02 0.  1.
       -1   -1    0    0    0  501  0.00000000000E+00  0.00000000000E+00 -0.11207846497E+04  0.11207846497E+04  0.50400001928E-02 0. -1.
    10030    2    1    2    0    0  0.00000000000E+00  0.00000000000E+00  0.56915873996E+02  0.22984851735E+04  0.22977803803E+04 0.  0.
        1    1    3    3  502    0 -0.81554520969E+03  0.20745314315E+03 -0.75395706907E+03  0.11298681594E+04  0.50400001928E-02 0. -1.
       -1    1    3    3    0  502  0.81554520969E+03 -0.20745314315E+03  0.81087294306E+03  0.11686170140E+04  0.50400001928E-02 0.  1.
</event>
<event>
 5   0  0.7242214E-06  0.2295667E+04  0.7818609E-02  0.8479632E-01
       -2   -1    0    0    0  501  0.00000000000E+00  0.00000000000E+00  0.10138776523E+04  0.10138776523E+04  0.25500000920E-02 0.  1.
        2   -1    0    0  501    0  0.00000000000E+00  0.00000000000E+00 -0.12994878350E+04  0.12994878350E+04  0.25500000920E-02 0. -1.
    10030    2    1    2    0    0  0.00000000000E+00  0.00000000000E+00 -0.28561018271E+03  0.23133654873E+04  0.22956669404E+04 0.  0.
        1    1    3    3  502    0 -0.68055486896E+03 -0.17828083869E+03  0.77115062755E+03  0.10438449490E+04  0.50400001928E-02 0.  1.
       -1    1    3    3    0  502  0.68055486896E+03  0.17828083869E+03 -0.10567608103E+04  0.12695205383E+04  0.50400001928E-02 0. -1.
</event>
<event>
 5   0  0.3238713E-06  0.2299044E+04  0.7818609E-02  0.8478298E-01
        1   -1    0    0  501    0  0.00000000000E+00  0.00000000000E+00  0.12053144056E+04  0.12053144056E+04  0.50400001928E-02 0. -1.
       -1   -1    0    0    0  501  0.00000000000E+00  0.00000000000E+00 -0.10963124460E+04  0.10963124460E+04  0.50400001928E-02 0.  1.
    10030    2    1    2    0    0  0.00000000000E+00  0.00000000000E+00  0.10900195955E+03  0.23016268516E+04  0.22990443095E+04 0.  0.
        3    1    3    3  502    0 -0.49237034966E+03 -0.29915179659E+03  0.10503448700E+04  0.11979752563E+04  0.10100000352E+00 0. -1.
       -3    1    3    3    0  502  0.49237034966E+03  0.29915179659E+03 -0.94134291042E+03  0.11036515953E+04  0.10100000352E+00 0.  1.
</event>
<event>
 5   0  0.7003852E-06  0.2302705E+04  0.7818609E-02  0.8476855E-01
       -2   -1    0    0    0  501  0.00000000000E+00  0.00000000000E+00  0.21577430744E+04  0.21577430744E+04  0.25500000920E-02 0.  1.
        2   -1    0    0  501    0  0.00000000000E+00  0.00000000000E+00 -0.61435153846E+03  0.61435153846E+03  0.25500000920E-02 0. -1.
    10030    2    1    2    0    0  0.00000000000E+00  0.00000000000E+00  0.15433915359E+04  0.27720946128E+04  0.23027051720E+04 0.  0.
        2    1    3    3  502    0  0.68341158843E+03 -0.92474934964E+03  0.70150009346E+03  0.13469651592E+04  0.25500000920E-02 0.  1.
       -2    1    3    3    0  502 -0.68341158843E+03  0.92474934964E+03  0.84189144245E+03  0.14251294537E+04  0.25500000920E-02 0. -1.
</event>
<event>
 5   0  0.7348107E-06  0.2298516E+04  0.7818609E-02  0.8478506E-01
        2   -1    0    0  501    0  0.00000000000E+00  0.00000000000E+00  0.21625485688E+04  0.21625485688E+04  0.25500000920E-02 0.  1.
       -2   -1    0    0    0  501  0.00000000000E+00  0.00000000000E+00 -0.61075813066E+03  0.61075813066E+03  0.25500000920E-02 0. -1.
    10030    2    1    2    0    0  0.00000000000E+00  0.00000000000E+00  0.15517904382E+04  0.27733066995E+04  0.22985161486E+04 0.  0.
        3    1    3    3  502    0  0.10508224342E+04 -0.17180775169E+03  0.25406723802E+03  0.10946670103E+04  0.10100000352E+00 0. -1.
       -3    1    3    3    0  502 -0.10508224342E+04  0.17180775169E+03  0.12977232001E+04  0.16786396892E+04  0.10100000352E+00 0.  1.
</event>
<event>
 5   0  0.3338758E-06  0.2301301E+04  0.7818609E-02  0.8477408E-01
       -1   -1    0    0    0  501  0.00000000000E+00  0.00000000000E+00  0.12411063763E+04  0.12411063763E+04  0.50400001928E-02 0.  1.
        1   -1    0    0  501    0  0.00000000000E+00  0.00000000000E+00 -0.10667871175E+04  0.10667871175E+04  0.50400001928E-02 0. -1.
    10030    2    1    2    0    0  0.00000000000E+00  0.00000000000E+00  0.17431925884E+03  0.23078934938E+04  0.23013007571E+04 0.  0.
        5    1    3    3  502    0 -0.10410605524E+04 -0.45801261142E+03 -0.87671597768E+02  0.11407414365E+04  0.46999998093E+01 0. -1.
       -5    1    3    3    0  502  0.10410605524E+04  0.45801261142E+03  0.26199085661E+03  0.11671520573E+04  0.46999998093E+01 0.  1.
</event>
<event>
 5   0  0.7044981E-06  0.2299994E+04  0.7818609E-02  0.8477924E-01
       -2   -1    0    0    0  501  0.00000000000E+00  0.00000000000E+00  0.88089302527E+03  0.88089302528E+03  0.25500000920E-02 0. -1.
        2   -1    0    0  501    0  0.00000000000E+00  0.00000000000E+00 -0.15013092246E+04  0.15013092246E+04  0.25500000920E-02 0.  1.
    10030    2    1    2    0    0  0.00000000000E+00  0.00000000000E+00 -0.62041619933E+03  0.23822022499E+04  0.22999937606E+04 0.  0.
        4    1    3    3  502    0  0.47271925067E+03 -0.86968831223E+03  0.29609528191E+03  0.10331966315E+04  0.12699999809E+01 0. -1.
       -4    1    3    3    0  502 -0.47271925067E+03  0.86968831223E+03 -0.91651148125E+03  0.13490056184E+04  0.12699999809E+01 0.  1.
</event>
<event>
 5   0  0.7044981E-06  0.2300918E+04  0.7818609E-02  0.8477559E-01
       -2   -1    0    0    0  501  0.00000000000E+00  0.00000000000E+00  0.57387499235E+03  0.57387499235E+03  0.25500000920E-02 0. -1.
        2   -1    0    0  501    0  0.00000000000E+00  0.00000000000E+00 -0.23063486275E+04  0.23063486275E+04  0.25500000920E-02 0.  1.
    10030    2    1    2    0    0  0.00000000000E+00  0.00000000000E+00 -0.17324736352E+04  0.28802236199E+04  0.23009179046E+04 0.  0.
        4    1    3    3  502    0 -0.72946588304E+03  0.70852321603E+03 -0.15396719671E+04  0.18451875247E+04  0.12699999809E+01 0.  1.
       -4    1    3    3    0  502  0.72946588304E+03 -0.70852321603E+03 -0.19280166809E+03  0.10350360952E+04  0.12699999809E+01 0. -1.
</event>
<event>
 5   0  0.7003852E-06  0.2299160E+04  0.7818609E-02  0.8478252E-01
       -2   -1    0    0    0  501  0.00000000000E+00  0.00000000000E+00  0.74663028669E+03  0.74663028669E+03  0.25500000920E-02 0. -1.
        2   -1    0    0  501    0  0.00000000000E+00  0.00000000000E+00 -0.17699978066E+04  0.17699978067E+04  0.25500000920E-02 0.  1.
    10030    2    1    2    0    0  0.00000000000E+00  0.00000000000E+00 -0.10233675200E+04  0.25166280933E+04  0.22991598203E+04 0.  0.
        2    1    3    3  502    0 -0.57680895792E+03 -0.90151316269E+03 -0.52349505500E+02  0.10715292937E+04  0.25500000920E-02 0. -1.
       -2    1    3    3    0  502  0.57680895792E+03  0.90151316269E+03 -0.97101801446E+03  0.14450987997E+04  0.25500000920E-02 0.  1.
</event>
<event>
 5   0  0.3338758E-06  0.2322641E+04  0.7818609E-02  0.8469047E-01
       -1   -1    0    0    0  501  0.00000000000E+00  0.00000000000E+00  0.13407802598E+04  0.13407802599E+04  0.50400001928E-02 0. -1.
        1   -1    0    0  501    0  0.00000000000E+00  0.00000000000E+00 -0.10058806055E+04  0.10058806055E+04  0.50400001928E-02 0.  1.
    10030    2    1    2    0    0  0.00000000000E+00  0.00000000000E+00  0.33489965439E+03  0.23466608653E+04  0.23226406176E+04 0.  0.
        5    1    3    3  502    0 -0.35904807663E+03  0.27318058145E+03 -0.91371012186E+03  0.10190345569E+04  0.46999998093E+01 0.  1.
       -5    1    3    3    0  502  0.35904807663E+03 -0.27318058145E+03  0.12486097762E+04  0.13276263084E+04  0.46999998093E+01 0. -1.
</event>
<event>
 5   0  0.7348107E-06  0.2295512E+04  0.7818609E-02  0.8479693E-01
        2   -1    0    0  501    0  0.00000000000E+00  0.00000000000E+00  0.10530472837E+04  0.10530472837E+04  0.25500000920E-02 0. -1.
       -2   -1    0    0    0  501  0.00000000000E+00  0.00000000000E+00 -0.12509824553E+04  0.12509824553E+04  0.25500000920E-02 0.  1.
    10030    2    1    2    0    0  0.00000000000E+00  0.00000000000E+00 -0.19793517164E+03  0.23040297390E+04  0.22955118614E+04 0.  0.
        3    1    3    3  502    0 -0.77033350839E+03  0.80979005066E+03 -0.36103032067E+03  0.11745282214E+04  0.10100000352E+00 0.  1.
       -3    1    3    3    0  502  0.77033350839E+03 -0.80979005066E+03  0.16309514903E+03  0.11295015175E+04  0.10100000352E+00 0. -1.
</event>
<event>
 5   0  0.2519625E-06  0.2319721E+04  0.7818609E-02  0.8470186E-01
       -3   -1    0    0    0  501  0.00000000000E+00  0.00000000000E+00  0.11655047432E+04  0.11655047475E+04  0.10100000352E+00 0.  1.
        3   -1    0    0  501    0  0.00000000000E+00  0.00000000000E+00 -0.11542435032E+04  0.11542435076E+04  0.10100000352E+00 0. -1.
    10030    2    1    2    0    0  0.00000000000E+00  0.00000000000E+00  0.11261239926E+02  0.23197482552E+04  0.23197209211E+04 0.  0.
        3    1    3    3  502    0 -0.45392548798E+03 -0.76322086244E+03 -0.74051612461E+03  0.11562519511E+04  0.10100000352E+00 0. -1.
       -3    1    3    3    0  502  0.45392548798E+03  0.76322086244E+03  0.75177736453E+03  0.11634963040E+04  0.10100000352E+00 0.  1.
</event>
<event>
 5   0  0.3238713E-06  0.2302118E+04  0.7818609E-02  0.8477087E-01
       -1   -1    0    0    0  501  0.00000000000E+00  0.00000000000E+00  0.11427861944E+04  0.11427861945E+04  0.50400001928E-02 0. -1.
        1   -1    0    0  501    0  0.00000000000E+00  0.00000000000E+00 -0.11593915281E+04  0.11593915281E+04  0.50400001928E-02 0.  1.
    10030    2    1    2    0    0  0.00000000000E+00  0.00000000000E+00 -0.16605333674E+02  0.23021777226E+04  0.23021178357E+04 0.  0.
        3    1    3    3  502    0 -0.64949878417E+03 -0.17785577115E+03 -0.94184464047E+03  0.11578223883E+04  0.10100000352E+00 0.  1.
       -3    1    3    3    0  502  0.64949878417E+03  0.17785577115E+03  0.92523930680E+03  0.11443553342E+04  0.10100000352E+00 0. -1.
</event>
<event>
 5   0  0.2519625E-06  0.2305911E+04  0.7818609E-02  0.8475594E-01
        3   -1    0    0  501    0  0.00000000000E+00  0.00000000000E+00  0.14182871408E+04  0.14182871444E+04  0.10100000352E+00 0.  1.
       -3   -1    0    0    0  501  0.00000000000E+00  0.00000000000E+00 -0.93726150657E+03  0.93726151201E+03  0.10100000352E+00 0. -1.
    10030    2    1    2    0    0  0.00000000000E+00  0.00000000000E+00  0.48102563426E+03  0.23555486564E+04  0.23059106253E+04 0.  0.
        5    1    3    3  502    0 -0.32951981669E+03  0.35585394314E+03 -0.82798064945E+03  0.95957771145E+03  0.46999998093E+01 0. -1.
       -5    1    3    3    0  502  0.32951981669E+03 -0.35585394314E+03  0.13090062837E+04  0.13959709450E+04  0.46999998093E+01 0.  1.
</event>
<event>
 5   0  0.7044981E-06  0.2306933E+04  0.7818609E-02  0.8475193E-01
       -2   -1    0    0    0  501  0.00000000000E+00  0.00000000000E+00  0.10739278339E+04  0.10739278339E+04  0.25500000920E-02 0. -1.
        2   -1    0    0  501    0  0.00000000000E+00  0.00000000000E+00 -0.12388959959E+04  0.12388959959E+04  0.25500000920E-02 0.  1.
    10030    2    1    2    0    0  0.00000000000E+00  0.00000000000E+00 -0.16496816199E+03  0.23128238297E+04  0.23069329364E+04 0.  0.
        4    1    3    3  502    0 -0.17467359224E+03  0.73236135408E+03  0.79360046926E+03  0.10939229107E+04  0.12699999809E+01 0. -1.
       -4    1    3    3    0  502  0.17467359224E+03 -0.73236135408E+03 -0.95856863125E+03  0.12189009191E+04  0.12699999809E+01 0.  1.
</event>
<event>
 5   0  0.3226427E-06  0.2293568E+04  0.7818609E-02  0.8480462E-01
       -1   -1    0    0    0  501  0.00000000000E+00  0.00000000000E+00  0.16210057007E+04  0.16210057007E+04  0.50400001928E-02 0. -1.
        1   -1    0    0  501    0  0.00000000000E+00  0.00000000000E+00 -0.81129467116E+03  0.81129467117E+03  0.50400001928E-02 0.  1.
    10030    2    1    2    0    0  0.00000000000E+00  0.00000000000E+00  0.80971102950E+03  0.24323003718E+04  0.22935677770E+04 0.  0.
        4    1    3    3  502    0 -0.50598458929E+03  0.89325989638E+03  0.94682389074E+03  0.13965710652E+04  0.12699999809E+01 0. -1.
       -4    1    3    3    0  502  0.50598458929E+03 -0.89325989638E+03 -0.13711286124E+03  0.10357293067E+04  0.12699999809E+01 0.  1.
</event>
<event>
 5   0  0.3238713E-06  0.2279118E+04  0.7818609E-02  0.8486200E-01
       -1   -1    0    0    0  501  0.00000000000E+00  0.00000000000E+00  0.73618941894E+03  0.73618941896E+03  0.50400001928E-02 0.  1.
        1   -1    0    0  501    0  0.00000000000E+00  0.00000000000E+00 -0.17639413184E+04  0.17639413184E+04  0.50400001928E-02 0. -1.
    10030    2    1    2    0    0  0.00000000000E+00  0.00000000000E+00 -0.10277518994E+04  0.25001307373E+04  0.22791181929E+04 0.  0.
        3    1    3    3  502    0  0.79750486121E+03 -0.45248835639E+03  0.22837449274E+03  0.94494160426E+03  0.10100000352E+00 0.  1.
       -3    1    3    3    0  502 -0.79750486121E+03  0.45248835639E+03 -0.12561263922E+04  0.15551891331E+04  0.10100000352E+00 0. -1.
</event>
<event>
 5   0  0.7003852E-06  0.2303644E+04  0.7818609E-02  0.8476486E-01
       -2   -1    0    0    0  501  0.00000000000E+00  0.00000000000E+00  0.67858617122E+03  0.67858617123E+03  0.25500000920E-02 0.  1.
        2   -1    0    0  501    0  0.00000000000E+00  0.00000000000E+00 -0.19550847009E+04  0.19550847009E+04  0.25500000920E-02 0. -1.
    10030    2    1    2    0    0  0.00000000000E+00  0.00000000000E+00 -0.12764985297E+04  0.26336708721E+04  0.23036435849E+04 0.  0.
        2    1    3    3  502    0  0.23260672119E+03 -0.14499633583E+03  0.64075702048E+03  0.69692136102E+03  0.25500000920E-02 0.  1.
       -2    1    3    3    0  502 -0.23260672119E+03  0.14499633583E+03 -0.19172555502E+04  0.19367495111E+04  0.25500000920E-02 0. -1.
</event>
<event>
 5   0  0.3238713E-06  0.2299057E+04  0.7818609E-02  0.8478293E-01
       -1   -1    0    0    0  501  0.00000000000E+00  0.00000000000E+00  0.80054665952E+03  0.80054665954E+03  0.50400001928E-02 0. -1.
        1   -1    0    0  501    0  0.00000000000E+00  0.00000000000E+00 -0.16506414060E+04  0.16506414060E+04  0.50400001928E-02 0.  1.
    10030    2    1    2    0    0  0.00000000000E+00  0.00000000000E+00 -0.85009474648E+03  0.24511880655E+04  0.22990567315E+04 0.  0.
        3    1    3    3  502    0  0.54002941553E+03  0.18674681245E+03 -0.14885013344E+04  0.15944097259E+04  0.10100000352E+00 0.  1.
       -3    1    3    3    0  502 -0.54002941553E+03 -0.18674681245E+03  0.63840658787E+03  0.85677833961E+03  0.10100000352E+00 0. -1.
</event>
<event>
 5   0  0.7044981E-06  0.2300253E+04  0.7818609E-02  0.8477821E-01
       -2   -1    0    0    0  501  0.00000000000E+00  0.00000000000E+00  0.92557401505E+03  0.92557401505E+03  0.25500000920E-02 0.  1.
        2   -1    0    0  501    0  0.00000000000E+00  0.00000000000E+00 -0.14291570763E+04  0.14291570763E+04  0.25500000920E-02 0. -1.
    10030    2    1    2    0    0  0.00000000000E+00  0.00000000000E+00 -0.50358306128E+03  0.23547310914E+04  0.23002527281E+04 0.  0.
        4    1    3    3  502    0  0.16564631822E+03  0.11036329829E+04  0.32904031208E+02  0.11164805202E+04  0.12699999809E+01 0.  1.
       -4    1    3    3    0  502 -0.16564631822E+03 -0.11036329829E+04 -0.53648709249E+03  0.12382505712E+04  0.12699999809E+01 0. -1.
</event>
<event>
 5   0  0.7242214E-06  0.2300210E+04  0.7818609E-02  0.8477838E-01
       -2   -1    0    0    0  501  0.00000000000E+00  0.00000000000E+00  0.87589356688E+03  0.87589356688E+03  0.25500000920E-02 0.  1.
        2   -1    0    0  501    0  0.00000000000E+00  0.00000000000E+00 -0.15101622910E+04  0.15101622910E+04  0.25500000920E-02 0. -1.
    10030    2    1    2    0    0  0.00000000000E+00  0.00000000000E+00 -0.63426872412E+03  0.23860558579E+04  0.23002099345E+04 0.  0.
        1    1    3    3  502    0 -0.10830960816E+04 -0.12872048279E+03 -0.69554378437E+03  0.12936178882E+04  0.50400001928E-02 0. -1.
       -1    1    3    3    0  502  0.10830960816E+04  0.12872048279E+03  0.61275060250E+02  0.10924379697E+04  0.50400001928E-02 0.  1.
</event>
<event>
 5   0  0.7242214E-06  0.2297960E+04  0.7818609E-02  0.8478726E-01
       -2   -1    0    0    0  501  0.00000000000E+00  0.00000000000E+00  0.15096901047E+04  0.15096901047E+04  0.25500000920E-02 0. -1.
        2   -1    0    0  501    0  0.00000000000E+00  0.00000000000E+00 -0.87445450903E+03  0.87445450904E+03  0.25500000920E-02 0.  1.
    10030    2    1    2    0    0  0.00000000000E+00  0.00000000000E+00  0.63523559564E+03  0.23841446137E+04  0.22979602427E+04 0.  0.
        1    1    3    3  502    0 -0.11072256686E+04 -0.13953062045E+02  0.63573094246E+03  0.12768309208E+04  0.50400001928E-02 0. -1.
       -1    1    3    3    0  502  0.11072256686E+04  0.13953062045E+02 -0.49534681526E+00  0.11073136929E+04  0.50400001928E-02 0.  1.
</event>
<event>
 5   0  0.7348107E-06  0.2273086E+04  0.7818609E-02  0.8488609E-01
       -2   -1    0    0    0  501  0.00000000000E+00  0.00000000000E+00  0.91379790020E+03  0.91379790020E+03  0.25500000920E-02 0. -1.
        2   -1    0    0  501    0  0.00000000000E+00  0.00000000000E+00 -0.14135838413E+04  0.14135838413E+04  0.25500000920E-02 0.  1.
    10030    2    1    2    0    0  0.00000000000E+00  0.00000000000E+00 -0.49978594114E+03  0.23273817416E+04  0.22730859605E+04 0.  0.
        3    1    3    3  502    0 -0.82865706928E+03 -0.77260551761E+03 -0.15752666347E+03  0.11438559718E+04  0.10100000352E+00 0.  1.
       -3    1    3    3    0  502  0.82865706928E+03  0.77260551761E+03 -0.34225927768E+03  0.11835257698E+04  0.10100000352E+00 0. -1.
</event>
<event>
 5   0  0.7497344E-06  0.2232593E+04  0.7818609E-02  0.8504983E-01
        2   -1    0    0  501    0  0.00000000000E+00  0.00000000000E+00  0.13470234583E+04  0.13470234583E+04  0.25500000920E-02 0. -1.
       -2   -1    0    0    0  501  0.00000000000E+00  0.00000000000E+00 -0.92509025755E+03  0.92509025756E+03  0.25500000920E-02 0.  1.
    10030    2    1    2    0    0  0.00000000000E+00  0.00000000000E+00  0.42193320079E+03  0.22721137159E+04  0.22325933602E+04 0.  0.
        5    1    3    3  502    0 -0.64965203706E+03 -0.59372191947E+03 -0.48787853756E+03  0.10062807980E+04  0.46999998093E+01 0.  1.
       -5    1    3    3    0  502  0.64965203706E+03  0.59372191947E+03  0.90981173835E+03  0.12658329179E+04  0.46999998093E+01 0. -1.
</event>
<event>
 5   0  0.3238713E-06  0.2297698E+04  0.7818609E-02  0.8478829E-01
       -1   -1    0    0    0  501  0.00000000000E+00  0.00000000000E+00  0.48980222905E+03  0.48980222908E+03  0.50400001928E-02 0.  1.
        1   -1    0    0  501    0  0.00000000000E+00  0.00000000000E+00 -0.26946682467E+04  0.26946682467E+04  0.50400001928E-02 0. -1.
    10030    2    1    2    0    0  0.00000000000E+00  0.00000000000E+00 -0.22048660176E+04  0.31844704758E+04  0.22976984257E+04 0.  0.
        3    1    3    3  502    0  0.35786114480E+03 -0.32455763154E+02 -0.26147820607E+04  0.26393565903E+04  0.10100000352E+00 0. -1.
       -3    1    3    3    0  502 -0.35786114480E+03  0.32455763154E+02  0.40991604309E+03  0.54511388545E+03  0.10100000352E+00 0.  1.
</event>
<event>
 5   0  0.3226427E-06  0.2301609E+04  0.7818609E-02  0.8477287E-01
       -1   -1    0    0    0  501  0.00000000000E+00  0.00000000000E+00  0.11078570101E+04  0.11078570101E+04  0.50400001928E-02 0.  1.
        1   -1    0    0  501    0  0.00000000000E+00  0.00000000000E+00 -0.11954172929E+04  0.11954172929E+04  0.50400001928E-02 0. -1.
    10030    2    1    2    0    0  0.00000000000E+00  0.00000000000E+00 -0.87560282823E+02  0.23032743030E+04  0.23016093743E+04 0.  0.
        4    1    3    3  502    0 -0.18975583281E+03  0.98036927693E+03  0.52866391272E+03  0.11298753651E+04  0.12699999809E+01 0.  1.
       -4    1    3    3    0  502  0.18975583281E+03 -0.98036927693E+03 -0.61622419555E+03  0.11733989378E+04  0.12699999809E+01 0. -1.
</event>
<event>
 5   0  0.7044981E-06  0.2301645E+04  0.7818609E-02  0.8477273E-01
        2   -1    0    0  501    0  0.00000000000E+00  0.00000000000E+00  0.20325214559E+04  0.20325214559E+04  0.25500000920E-02 0. -1.
       -2   -1    0    0    0  501  0.00000000000E+00  0.00000000000E+00 -0.65160065593E+03  0.65160065594E+03  0.25500000920E-02 0.  1.
    10030    2    1    2    0    0  0.00000000000E+00  0.00000000000E+00  0.13809208000E+04  0.26841221118E+04  0.23016449021E+04 0.  0.
        4    1    3    3  502    0  0.10257841018E+04 -0.35441283413E+03  0.24402800169E+03  0.11123815708E+04  0.12699999809E+01 0.  1.
       -4    1    3    3    0  502 -0.10257841018E+04  0.35441283413E+03  0.11368927983E+04  0.15717405410E+04  0.12699999809E+01 0. -1.
</event>
<event>
 5   0  0.3238713E-06  0.2304011E+04  0.7818609E-02  0.8476341E-01
       -1   -1    0    0    0  501  0.00000000000E+00  0.00000000000E+00  0.93881496811E+03  0.93881496812E+03  0.50400001928E-02 0.  1.
        1   -1    0    0  501    0  0.00000000000E+00  0.00000000000E+00 -0.14136078851E+04  0.14136078851E+04  0.50400001928E-02 0. -1.
    10030    2    1    2    0    0  0.00000000000E+00  0.00000000000E+00 -0.47479291697E+03  0.23524228532E+04  0.23040106263E+04 0.  0.
        3    1    3    3  502    0 -0.88751413154E+03 -0.13693367025E+03 -0.97414291635E+03  0.13249100329E+04  0.10100000352E+00 0. -1.
       -3    1    3    3    0  502  0.88751413154E+03  0.13693367025E+03  0.49934999938E+03  0.10275128203E+04  0.10100000352E+00 0.  1.
</event>
<event>
 5   0  0.3195296E-06  0.2299387E+04  0.7818609E-02  0.8478163E-01
        1   -1    0    0  501    0  0.00000000000E+00  0.00000000000E+00  0.66644127507E+03  0.66644127509E+03  0.50400001928E-02 0.  1.
       -1   -1    0    0    0  501  0.00000000000E+00  0.00000000000E+00 -0.19833636776E+04  0.19833636776E+04  0.50400001928E-02 0. -1.
    10030    2    1    2    0    0  0.00000000000E+00  0.00000000000E+00 -0.13169224025E+04  0.26498049527E+04  0.22993872386E+04 0.  0.
        2    1    3    3  502    0 -0.59859734353E+03  0.26405763428E+03 -0.17479176347E+04  0.18663497184E+04  0.25500000920E-02 0. -1.
       -2    1    3    3    0  502  0.59859734353E+03 -0.26405763428E+03  0.43099523216E+03  0.78345523424E+03  0.25500000920E-02 0.  1.
</event>
<event>
 5   0  0.3238713E-06  0.2307088E+04  0.7818609E-02  0.8475132E-01
        1   -1    0    0  501    0  0.00000000000E+00  0.00000000000E+00  0.13606432884E+04  0.13606432884E+04  0.50400001928E-02 0. -1.
       -1   -1    0    0    0  501  0.00000000000E+00  0.00000000000E+00 -0.97796660449E+03  0.97796660451E+03  0.50400001928E-02 0.  1.
    10030    2    1    2    0    0  0.00000000000E+00  0.00000000000E+00  0.38267668387E+03  0.23386098929E+04  0.23070879452E+04 0.  0.
        3    1    3    3  502    0 -0.43265521978E+03 -0.68111543736E+03  0.10269527302E+04  0.13060400830E+04  0.10100000352E+00 0. -1.
       -3    1    3    3    0  502  0.43265521978E+03  0.68111543736E+03 -0.64427604630E+03  0.10325698099E+04  0.10100000352E+00 0.  1.
</event>
<event>
 5   0  0.3238713E-06  0.2305447E+04  0.7818609E-02  0.8475777E-01
       -1   -1    0    0    0  501  0.00000000000E+00  0.00000000000E+00  0.88170736442E+03  0.88170736444E+03  0.50400001928E-02 0.  1.
        1   -1    0    0  501    0  0.00000000000E+00  0.00000000000E+00 -0.15070431849E+04  0.15070431849E+04  0.50400001928E-02 0. -1.
    10030    2    1    2    0    0  0.00000000000E+00  0.00000000000E+00 -0.62533582050E+03  0.23887505494E+04  0.23054466593E+04 0.  0.
        3    1    3    3  502    0 -0.32011116842E+03  0.67562831861E+03  0.59643298971E+03  0.95638752944E+03  0.10100000352E+00 0.  1.
       -3    1    3    3    0  502  0.32011116842E+03 -0.67562831861E+03 -0.12217688102E+04  0.14323630199E+04  0.10100000352E+00 0. -1.
</event>
<event>
 5   0  0.3338758E-06  0.2298917E+04  0.7818609E-02  0.8478348E-01
        1   -1    0    0  501    0  0.00000000000E+00  0.00000000000E+00  0.13555328892E+04  0.13555328892E+04  0.50400001928E-02 0.  1.
       -1   -1    0    0    0  501  0.00000000000E+00  0.00000000000E+00 -0.97471281366E+03  0.97471281367E+03  0.50400001928E-02 0. -1.
    10030    2    1    2    0    0  0.00000000000E+00  0.00000000000E+00  0.38082007556E+03  0.23302457029E+04  0.22989173769E+04 0.  0.
        5    1    3    3  502    0 -0.92787858620E+03 -0.63937062597E+03 -0.39573332516E+02  0.11275378516E+04  0.46999998093E+01 0. -1.
       -5    1    3    3    0  502  0.92787858620E+03  0.63937062597E+03  0.42039340808E+03  0.12027078513E+04  0.46999998093E+01 0.  1.
</event>
<event>
 5   0  0.3195296E-06  0.2275297E+04  0.7818609E-02  0.8487725E-01
       -1   -1    0    0    0  501  0.00000000000E+00  0.00000000000E+00  0.87929725947E+03  0.87929725949E+03  0.50400001928E-02 0. -1.
        1   -1    0    0  501    0  0.00000000000E+00  0.00000000000E+00 -0.14719075081E+04  0.14719075081E+04  0.50400001928E-02 0.  1.
    10030    2    1    2    0    0  0.00000000000E+00  0.00000000000E+00 -0.59261024864E+03  0.23512047676E+04  0.22752971130E+04 0.  0.
        2    1    3    3  502    0  0.30651136709E+03 -0.57805545599E+03 -0.12580239513E+04  0.14179991504E+04  0.25500000920E-02 0.  1.
       -2    1    3    3    0  502 -0.30651136709E+03  0.57805545599E+03  0.66541370267E+03  0.93320561725E+03  0.25500000920E-02 0. -1.
</event>
<event>
 5   0  0.3195296E-06  0.2301936E+04  0.7818609E-02  0.8477158E-01
        1   -1    0    0  501    0  0.00000000000E+00  0.00000000000E+00  0.20086480976E+04  0.20086480976E+04  0.50400001928E-02 0. -1.
       -1   -1    0    0    0  501  0.00000000000E+00  0.00000000000E+00 -0.65951213468E+03  0.65951213470E+03  0.50400001928E-02 0.  1.
    10030    2    1    2    0    0  0.00000000000E+00  0.00000000000E+00  0.13491359629E+04  0.26681602323E+04  0.23019363976E+04 0.  0.
        2    1    3    3  502    0  0.77406838747E+03 -0.17528197693E+03 -0.29160617320E+03  0.84554112861E+03  0.25500000920E-02 0.  1.
       -2    1    3    3    0  502 -0.77406838747E+03  0.17528197693E+03  0.16407421361E+04  0.18226191037E+04  0.25500000920E-02 0. -1.
</event>
<event>
 5   0  0.7497344E-06  0.2301391E+04  0.7818609E-02  0.8477373E-01
       -2   -1    0    0    0  501  0.00000000000E+00  0.00000000000E+00  0.13250851000E+04  0.13250851000E+04  0.25500000920E-02 0. -1.
        2   -1    0    0  501    0  0.00000000000E+00  0.00000000000E+00 -0.99925635019E+03  0.99925635019E+03  0.25500000920E-02 0.  1.
    10030    2    1    2    0    0  0.00000000000E+00  0.00000000000E+00  0.32582874978E+03  0.23243414502E+04  0.23013906237E+04 0.  0.
        5    1    3    3  502    0  0.94999784054E+02 -0.44777344681E+03  0.12291659261E+04  0.13116390443E+04  0.46999998093E+01 0. -1.
       -5    1    3    3    0  502 -0.94999784054E+02  0.44777344681E+03 -0.90333717634E+03  0.10127024058E+04  0.46999998093E+01 0.  1.
</event>
<event>
 5   0  0.3238713E-06  0.2299826E+04  0.7818609E-02  0.8477990E-01
       -1   -1    0    0    0  501  0.00000000000E+00  0.00000000000E+00  0.55002034544E+03  0.55002034547E+03  0.50400001928E-02 0. -1.
        1   -1    0    0  501    0  0.00000000000E+00  0.00000000000E+00 -0.24040918315E+04  0.24040918315E+04  0.50400001928E-02 0.  1.
    10030    2    1    2    0    0  0.00000000000E+00  0.00000000000E+00 -0.18540714861E+04  0.29541121770E+04  0.22998255757E+04 0.  0.
        3    1    3    3  502    0  0.29639170859E+03 -0.43244357545E+03 -0.22416473829E+04  0.23021378087E+04  0.10100000352E+00 0.  1.
       -3    1    3    3    0  502 -0.29639170859E+03  0.43244357545E+03  0.38757589683E+03  0.65197436827E+03  0.10100000352E+00 0. -1.
</event>
<event>
 5   0  0.7497344E-06  0.2299897E+04  0.7818609E-02  0.8477962E-01
       -2   -1    0    0    0  501  0.00000000000E+00  0.00000000000E+00  0.85504227945E+03  0.85504227945E+03  0.25500000920E-02 0.  1.
        2   -1    0    0  501    0  0.00000000000E+00  0.00000000000E+00 -0.15465690050E+04  0.15465690050E+04  0.25500000920E-02 0. -1.
    10030    2    1    2    0    0  0.00000000000E+00  0.00000000000E+00 -0.69152672558E+03  0.24016112845E+04  0.22998972911E+04 0.  0.
        5    1    3    3  502    0  0.42743143004E+03 -0.95428345003E+03 -0.84547217634E+03  0.13446932072E+04  0.46999998093E+01 0. -1.
       -5    1    3    3    0  502 -0.42743143004E+03  0.95428345003E+03  0.15394545076E+03  0.10569180773E+04  0.46999998093E+01 0.  1.
</event>
<event>
 5   0  0.3238713E-06  0.2297974E+04  0.7818609E-02  0.8478721E-01
       -1   -1    0    0    0  501  0.00000000000E+00  0.00000000000E+00  0.74807259734E+03  0.74807259736E+03  0.50400001928E-02 0.  1.
        1   -1    0    0  501    0  0.00000000000E+00  0.00000000000E+00 -0.17647627756E+04  0.17647627756E+04  0.50400001928E-02 0. -1.
    10030    2    1    2    0    0  0.00000000000E+00  0.00000000000E+00 -0.10166901783E+04  0.25128353730E+04  0.22979736058E+04 0.  0.
        3    1    3    3  502    0 -0.81002075944E+03 -0.17988199907E+03  0.36075019194E+03  0.90478277807E+03  0.10100000352E+00 0.  1.
       -3    1    3    3    0  502  0.81002075944E+03  0.17988199907E+03 -0.13774403702E+04  0.16080525949E+04  0.10100000352E+00 0. -1.
</event>
<event>
 5   0  0.7044981E-06  0.2297557E+04  0.7818609E-02  0.8478885E-01
        2   -1    0    0  501    0  0.00000000000E+00  0.00000000000E+00  0.90559312620E+03  0.90559312620E+03  0.25500000920E-02 0. -1.
       -2   -1    0    0    0  501  0.00000000000E+00  0.00000000000E+00 -0.14572686541E+04  0.14572686541E+04  0.25500000920E-02 0.  1.
    10030    2    1    2    0    0  0.00000000000E+00  0.00000000000E+00 -0.55167552793E+03  0.23628617803E+04  0.22975573779E+04 0.  0.
        4    1    3    3  502    0 -0.19398511514E+03  0.11199789756E+04 -0.44702541978E+03  0.12213993899E+04  0.12699999809E+01 0. -1.
       -4    1    3    3    0  502  0.19398511514E+03 -0.11199789756E+04 -0.10465010815E+03  0.11414623905E+04  0.12699999809E+01 0.  1.
</event>
<event>
 5   0  0.3226427E-06  0.2299690E+04  0.7818609E-02  0.8478043E-01
       -1   -1    0    0    0  501  0.00000000000E+00  0.00000000000E+00  0.63721236778E+03  0.63721236780E+03  0.50400001928E-02 0. -1.
        1   -1    0    0  501    0  0.00000000000E+00  0.00000000000E+00 -0.20748874981E+04  0.20748874981E+04  0.50400001928E-02 0.  1.
    10030    2    1    2    0    0  0.00000000000E+00  0.00000000000E+00 -0.14376751303E+04  0.27120998659E+04  0.22996903927E+04 0.  0.
        4    1    3    3  502    0 -0.46526406041E+03 -0.90433371724E+03 -0.86103645870E+02  0.10206397840E+04  0.12699999809E+01 0. -1.
       -4    1    3    3    0  502  0.46526406041E+03  0.90433371724E+03 -0.13515714845E+04  0.16914600819E+04  0.12699999809E+01 0.  1.
</event>
<event>
 5   0  0.7044981E-06  0.2298178E+04  0.7818609E-02  0.8478640E-01
       -2   -1    0    0    0  501  0.00000000000E+00  0.00000000000E+00  0.84175183916E+03  0.84175183916E+03  0.25500000920E-02 0.  1.
        2   -1    0    0  501    0  0.00000000000E+00  0.00000000000E+00 -0.15686402789E+04  0.15686402789E+04  0.25500000920E-02 0. -1.
    10030    2    1    2    0    0  0.00000000000E+00  0.00000000000E+00 -0.72688843971E+03  0.24103921180E+04  0.22981782696E+04 0.  0.
        4    1    3    3  502    0  0.59832060198E+03  0.86105495275E+03  0.12961735163E+03  0.10565062447E+04  0.12699999809E+01 0.  1.
       -4    1    3    3    0  502 -0.59832060198E+03 -0.86105495275E+03 -0.85650579134E+03  0.13538858733E+04  0.12699999809E+01 0. -1.
</event>
<event>
 5   0  0.7003852E-06  0.2314263E+04  0.7818609E-02  0.8472319E-01
        2   -1    0    0  501    0  0.00000000000E+00  0.00000000000E+00  0.19705179835E+04  0.19705179835E+04  0.25500000920E-02 0. -1.
       -2   -1    0    0    0  501  0.00000000000E+00  0.00000000000E+00 -0.67949290188E+03  0.67949290188E+03  0.25500000920E-02 0.  1.
    10030    2    1    2    0    0  0.00000000000E+00  0.00000000000E+00  0.12910250816E+04  0.26500108853E+04  0.23142627187E+04 0.  0.
        2    1    3    3  502    0  0.20060714370E+03 -0.80923095789E+03  0.15643295780E+04  0.17726322230E+04  0.25500000920E-02 0.  1.
       -2    1    3    3    0  502 -0.20060714370E+03  0.80923095789E+03 -0.27330449646E+03  0.87737866233E+03  0.25500000920E-02 0. -1.
</event>
<event>
 5   0  0.3184492E-06  0.2299369E+04  0.7818609E-02  0.8478170E-01
       -1   -1    0    0    0  501  0.00000000000E+00  0.00000000000E+00  0.13074838763E+04  0.13074838763E+04  0.50400001928E-02 0. -1.
        1   -1    0    0  501    0  0.00000000000E+00  0.00000000000E+00 -0.10109299552E+04  0.10109299552E+04  0.50400001928E-02 0.  1.
    10030    2    1    2    0    0  0.00000000000E+00  0.00000000000E+00  0.29655392103E+03  0.23184138315E+04  0.22993691452E+04 0.  0.
        1    1    3    3  502    0  0.51583301167E+03  0.62592260785E+03  0.96983349955E+03  0.12642941999E+04  0.50400001928E-02 0. -1.
       -1    1    3    3    0  502 -0.51583301167E+03 -0.62592260785E+03 -0.67327957852E+03  0.10541196317E+04  0.50400001928E-02 0.  1.
</event>
<event>
 5   0  0.3184492E-06  0.2298589E+04  0.7818609E-02  0.8478478E-01
        1   -1    0    0  501    0  0.00000000000E+00  0.00000000000E+00  0.13795637805E+04  0.13795637805E+04  0.50400001928E-02 0. -1.
       -1   -1    0    0    0  501  0.00000000000E+00  0.00000000000E+00 -0.95746072149E+03  0.95746072151E+03  0.50400001928E-02 0.  1.
    10030    2    1    2    0    0  0.00000000000E+00  0.00000000000E+00  0.42210305901E+03  0.23370245020E+04  0.22985892479E+04 0.  0.
        1    1    3    3  502    0  0.79408898208E+03 -0.75583059562E+03  0.56181436160E+03  0.12318654868E+04  0.50400001928E-02 0.  1.
       -1    1    3    3    0  502 -0.79408898208E+03  0.75583059562E+03 -0.13971130259E+03  0.11051590152E+04  0.50400001928E-02 0. -1.
</event>
<event>
 5   0  0.7497344E-06  0.2289960E+04  0.7818609E-02  0.8481890E-01
       -2   -1    0    0    0  501  0.00000000000E+00  0.00000000000E+00  0.77236196892E+03  0.77236196893E+03  0.25500000920E-02 0.  1.
        2   -1    0    0  501    0  0.00000000000E+00  0.00000000000E+00 -0.16973641976E+04  0.16973641977E+04  0.25500000920E-02 0. -1.
    10030    2    1    2    0    0  0.00000000000E+00  0.00000000000E+00 -0.92500222873E+03  0.24697261666E+04  0.22899603086E+04 0.  0.
        5    1    3    3  502    0  0.40202882054E+03  0.90772370089E+03 -0.10776896729E+04  0.14652735618E+04  0.46999998093E+01 0. -1.
       -5    1    3    3    0  502 -0.40202882054E+03 -0.90772370089E+03  0.15268744419E+03  0.10044526048E+04  0.46999998093E+01 0.  1.
</event>
<event>
 5   0  0.7348107E-06  0.2303804E+04  0.7818609E-02  0.8476423E-01
       -2   -1    0    0    0  501  0.00000000000E+00  0.00000000000E+00  0.10339027709E+04  0.10339027709E+04  0.25500000920E-02 0. -1.
        2   -1    0    0  501    0  0.00000000000E+00  0.00000000000E+00 -0.12833685763E+04  0.12833685763E+04  0.25500000920E-02 0.  1.
    10030    2    1    2    0    0  0.00000000000E+00  0.00000000000E+00 -0.24946580533E+03  0.23172713472E+04  0.23038040951E+04 0.  0.
        3    1    3    3  502    0 -0.27085570259E+03 -0.57262919801E+03  0.84297808309E+03  0.10544567648E+04  0.10100000352E+00 0. -1.
       -3    1    3    3    0  502  0.27085570259E+03  0.57262919801E+03 -0.10924438884E+04  0.12628145824E+04  0.10100000352E+00 0.  1.
</event>
<event>
 5   0  0.7348107E-06  0.2305228E+04  0.7818609E-02  0.8475863E-01
        2   -1    0    0  501    0  0.00000000000E+00  0.00000000000E+00  0.20786234331E+04  0.20786234331E+04  0.25500000920E-02 0. -1.
       -2   -1    0    0    0  501  0.00000000000E+00  0.00000000000E+00 -0.63913396487E+03  0.63913396488E+03  0.25500000920E-02 0.  1.
    10030    2    1    2    0    0  0.00000000000E+00  0.00000000000E+00  0.14394894682E+04  0.27177573980E+04  0.23052278293E+04 0.  0.
        3    1    3    3  502    0  0.11238045173E+03  0.62111339466E+02  0.20701651254E+04  0.20741433994E+04  0.10100000352E+00 0. -1.
       -3    1    3    3    0  502 -0.11238045173E+03 -0.62111339466E+02 -0.63067565720E+03  0.64361399861E+03  0.10100000352E+00 0.  1.
</event>
<event>
 5   0  0.3195296E-06  0.2307664E+04  0.7818609E-02  0.8474905E-01
       -1   -1    0    0    0  501  0.00000000000E+00  0.00000000000E+00  0.68895813590E+03  0.68895813592E+03  0.50400001928E-02 0.  1.
        1   -1    0    0  501    0  0.00000000000E+00  0.00000000000E+00 -0.19323796273E+04  0.19323796273E+04  0.50400001928E-02 0. -1.
    10030    2    1    2    0    0  0.00000000000E+00  0.00000000000E+00 -0.12434214914E+04  0.26213377632E+04  0.23076643308E+04 0.  0.
        2    1    3    3  502    0  0.48241004832E+03 -0.42785331041E+03  0.46519418651E+03  0.79509970515E+03  0.25500000920E-02 0.  1.
       -2    1    3    3    0  502 -0.48241004832E+03  0.42785331041E+03 -0.17086156779E+04  0.18262380581E+04  0.25500000920E-02 0. -1.
</event>
<event>
 5   0  0.7044981E-06  0.2315982E+04  0.7818609E-02  0.8471646E-01
        2   -1    0    0  501    0  0.00000000000E+00  0.00000000000E+00  0.11388640945E+04  0.11388640945E+04  0.25500000920E-02 0. -1.
       -2   -1    0    0    0  501  0.00000000000E+00  0.00000000000E+00 -0.11774395944E+04  0.11774395944E+04  0.25500000920E-02 0.  1.
    10030    2    1    2    0    0  0.00000000000E+00  0.00000000000E+00 -0.38575499932E+02  0.23163036888E+04  0.23159824502E+04 0.  0.
        4    1    3    3  502    0  0.46109639256E+03  0.15566195623E+03  0.10316203559E+04  0.11406501214E+04  0.12699999809E+01 0. -1.
       -4    1    3    3    0  502 -0.46109639256E+03 -0.15566195623E+03 -0.10701958558E+04  0.11756535674E+04  0.12699999809E+01 0.  1.
</event>
<event>
 5   0  0.3184492E-06  0.2291865E+04  0.7818609E-02  0.8481136E-01
        1   -1    0    0  501    0  0.00000000000E+00  0.00000000000E+00  0.13985878646E+04  0.13985878646E+04  0.50400001928E-02 0. -1.
       -1   -1    0    0    0  501  0.00000000000E+00  0.00000000000E+00 -0.93891935382E+03  0.93891935383E+03  0.50400001928E-02 0.  1.
    10030    2    1    2    0    0  0.00000000000E+00  0.00000000000E+00  0.45966851074E+03  0.23375072184E+04  0.22918649298E+04 0.  0.
        1    1    3    3  502    0 -0.97647484850E+03  0.46794981789E+03  0.61237856450E+03  0.12439805738E+04  0.50400001928E-02 0. -1.
       -1    1    3    3    0  502  0.97647484850E+03 -0.46794981789E+03 -0.15271005376E+03  0.10935266446E+04  0.50400001928E-02 0.  1.
</event>
<event>
 5   0  0.7348107E-06  0.2300432E+04  0.7818609E-02  0.8477751E-01
        2   -1    0    0  501    0  0.00000000000E+00  0.00000000000E+00  0.51851813461E+03  0.51851813462E+03  0.25500000920E-02 0. -1.
       -2   -1    0    0    0  501  0.00000000000E+00  0.00000000000E+00 -0.25514965705E+04  0.25514965705E+04  0.25500000920E-02 0.  1.
    10030    2    1    2    0    0  0.00000000000E+00  0.00000000000E+00 -0.20329784359E+04  0.30700147051E+04  0.23004323439E+04 0.  0.
        3    1    3    3  502    0  0.87489791273E+02  0.12493866482E+03 -0.25379406031E+04  0.25425197440E+04  0.10100000352E+00 0.  1.
       -3    1    3    3    0  502 -0.87489791273E+02 -0.12493866482E+03  0.50496216718E+03  0.52749496114E+03  0.10100000352E+00 0. -1.
</event>
<event>
 5   0  0.3184492E-06  0.2300292E+04  0.7818609E-02  0.8477806E-01
        1   -1    0    0  501    0  0.00000000000E+00  0.00000000000E+00  0.19532482119E+04  0.19532482119E+04  0.50400001928E-02 0.  1.
       -1   -1    0    0    0  501  0.00000000000E+00  0.00000000000E+00 -0.67724937461E+03  0.67724937463E+03  0.50400001928E-02 0. -1.
    10030    2    1    2    0    0  0.00000000000E+00  0.00000000000E+00  0.12759988373E+04  0.26304975866E+04  0.23002922684E+04 0.  0.
        1    1    3    3  502    0  0.39622252577E+02  0.29951572493E+03 -0.63106031639E+03  0.69965471151E+03  0.50400001928E-02 0. -1.
       -1    1    3    3    0  502 -0.39622252577E+02 -0.29951572493E+03  0.19070591537E+04  0.19308428750E+04  0.50400001928E-02 0.  1.
</event>
<event>
 5   0  0.7497344E-06  0.2291619E+04  0.7818609E-02  0.8481233E-01
       -2   -1    0    0    0  501  0.00000000000E+00  0.00000000000E+00  0.75542875819E+03  0.75542875819E+03  0.25500000920E-02 0.  1.
        2   -1    0    0  501    0  0.00000000000E+00  0.00000000000E+00 -0.17379266918E+04  0.17379266918E+04  0.25500000920E-02 0. -1.
    10030    2    1    2    0    0  0.00000000000E+00  0.00000000000E+00 -0.98249793360E+03  0.24933554500E+04  0.22916193424E+04 0.  0.
        5    1    3    3  502    0  0.48799760686E+03  0.11161958676E+02  0.63663236486E+03  0.80224005859E+03  0.46999998093E+01 0.  1.
       -5    1    3    3    0  502 -0.48799760686E+03 -0.11161958676E+02 -0.16191302985E+04  0.16911153914E+04  0.46999998093E+01 0. -1.
</event>
<event>
 5   0  0.3226427E-06  0.2305441E+04  0.7818609E-02  0.8475779E-01
        1   -1    0    0  501    0  0.00000000000E+00  0.00000000000E+00  0.12019173171E+04  0.12019173171E+04  0.50400001928E-02 0.  1.
       -1   -1    0    0    0  501  0.00000000000E+00  0.00000000000E+00 -0.11055376507E+04  0.11055376507E+04  0.50400001928E-02 0. -1.
    10030    2    1    2    0    0  0.00000000000E+00  0.00000000000E+00  0.96379666402E+02  0.23074549679E+04  0.23054412568E+04 0.  0.
        4    1    3    3  502    0 -0.11023383101E+04 -0.23888091266E+03 -0.18981904136E+03  0.11437861346E+04  0.12699999809E+01 0. -1.
       -4    1    3    3    0  502  0.11023383101E+04  0.23888091266E+03  0.28619870776E+03  0.11636688333E+04  0.12699999809E+01 0.  1.
</event>
<event>
 5   0  0.7003852E-06  0.2299280E+04  0.7818609E-02  0.8478205E-01
        2   -1    0    0  501    0  0.00000000000E+00  0.00000000000E+00  0.88102500451E+03  0.88102500452E+03  0.25500000920E-02 0. -1.
       -2   -1    0    0    0  501  0.00000000000E+00  0.00000000000E+00 -0.15001529318E+04  0.15001529318E+04  0.25500000920E-02 0.  1.
    10030    2    1    2    0    0  0.00000000000E+00  0.00000000000E+00 -0.61912792732E+03  0.23811779364E+04  0.22992800991E+04 0.  0.
        2    1    3    3  502    0  0.91284095534E+03 -0.54243016875E+03 -0.76589853253E+03  0.13092401078E+04  0.25500000920E-02 0.  1.
       -2    1    3    3    0  502 -0.91284095534E+03  0.54243016875E+03  0.14677060521E+03  0.10719378286E+04  0.25500000920E-02 0. -1.
</event>
<event>
 5   0  0.7348107E-06  0.2298300E+04  0.7818609E-02  0.8478592E-01
       -2   -1    0    0    0  501  0.00000000000E+00  0.00000000000E+00  0.28884708768E+04  0.28884708768E+04  0.25500000920E-02 0. -1.
        2   -1    0    0  501    0  0.00000000000E+00  0.00000000000E+00 -0.45717829583E+03  0.45717829584E+03  0.25500000920E-02 0.  1.
    10030    2    1    2    0    0  0.00000000000E+00  0.00000000000E+00  0.24312925810E+04  0.33456491726E+04  0.22983004095E+04 0.  0.
        3    1    3    3  502    0 -0.47208968219E+03 -0.60557195136E+03  0.24602194985E+04  0.25772594063E+04  0.10100000352E+00 0. -1.
       -3    1    3    3    0  502  0.47208968219E+03  0.60557195136E+03 -0.28926917515E+02  0.76838976637E+03  0.10100000352E+00 0.  1.
</event>
<event>
 5   0  0.3338758E-06  0.2300460E+04  0.7818609E-02  0.8477740E-01
       -1   -1    0    0    0  501  0.00000000000E+00  0.00000000000E+00  0.10312014228E+04  0.10312014228E+04  0.50400001928E-02 0. -1.
        1   -1    0    0  501    0  0.00000000000E+00  0.00000000000E+00 -0.12829974698E+04  0.12829974699E+04  0.50400001928E-02 0.  1.
    10030    2    1    2    0    0  0.00000000000E+00  0.00000000000E+00 -0.25179604706E+03  0.23141988927E+04  0.23004597944E+04 0.  0.
        5    1    3    3  502    0  0.26164570584E+03  0.38779467656E+03  0.93116951237E+03  0.10420853791E+04  0.46999998093E+01 0. -1.
       -5    1    3    3    0  502 -0.26164570584E+03 -0.38779467656E+03 -0.11829655594E+04  0.12721135136E+04  0.46999998093E+01 0.  1.
</event>
<event>
 5   0  0.2519625E-06  0.2273463E+04  0.7818609E-02  0.8488459E-01
        4   -1    0    0  501    0  0.00000000000E+00  0.00000000000E+00  0.84902529449E+03  0.84902624434E+03  0.12699999809E+01 0. -1.
       -4   -1    0    0    0  501  0.00000000000E+00  0.00000000000E+00 -0.15219290261E+04  0.15219295560E+04  0.12699999809E+01 0.  1.
    10030    2    1    2    0    0  0.00000000000E+00  0.00000000000E+00 -0.67290373164E+03  0.23709558004E+04  0.22734625520E+04 0.  0.
        4    1    3    3  502    0  0.31467804014E+03  0.18636221475E+03  0.78599433443E+03  0.86691513465E+03  0.12699999809E+01 0. -1.
       -4    1    3    3    0  502 -0.31467804014E+03 -0.18636221475E+03 -0.14588980661E+04  0.15040406657E+04  0.12699999809E+01 0.  1.
</event>
<event>
 5   0  0.7044981E-06  0.2305063E+04  0.7818609E-02  0.8475928E-01
       -2   -1    0    0    0  501  0.00000000000E+00  0.00000000000E+00  0.74482182711E+03  0.74482182711E+03  0.25500000920E-02 0. -1.
        2   -1    0    0  501    0  0.00000000000E+00  0.00000000000E+00 -0.17834175469E+04  0.17834175469E+04  0.25500000920E-02 0.  1.
    10030    2    1    2    0    0  0.00000000000E+00  0.00000000000E+00 -0.10385957198E+04  0.25282393740E+04  0.23050625291E+04 0.  0.
        4    1    3    3  502    0 -0.94922312913E+03 -0.60922371245E+03 -0.77919711301E+03  0.13708857846E+04  0.12699999809E+01 0. -1.
       -4    1    3    3    0  502  0.94922312913E+03  0.60922371245E+03 -0.25939860675E+03  0.11573535893E+04  0.12699999809E+01 0.  1.
</event>
<event>
 5   0  0.7003852E-06  0.2324469E+04  0.7818609E-02  0.8468335E-01
       -2   -1    0    0    0  501  0.00000000000E+00  0.00000000000E+00  0.66784957749E+03  0.66784957749E+03  0.25500000920E-02 0. -1.
        2   -1    0    0  501    0  0.00000000000E+00  0.00000000000E+00 -0.20225944934E+04  0.20225944934E+04  0.25500000920E-02 0.  1.
    10030    2    1    2    0    0  0.00000000000E+00  0.00000000000E+00 -0.13547449159E+04  0.26904440709E+04  0.23244688665E+04 0.  0.
        2    1    3    3  502    0  0.72550789737E+03  0.33087715182E+03  0.30129985973E+03  0.85242184641E+03  0.25500000920E-02 0. -1.
       -2    1    3    3    0  502 -0.72550789737E+03 -0.33087715182E+03 -0.16560447757E+04  0.18380222245E+04  0.25500000920E-02 0.  1.
</event>
<event>
 5   0  0.3195296E-06  0.2266118E+04  0.7818609E-02  0.8491401E-01
        1   -1    0    0  501    0  0.00000000000E+00  0.00000000000E+00  0.18257327692E+04  0.18257327692E+04  0.50400001928E-02 0.  1.
       -1   -1    0    0    0  501  0.00000000000E+00  0.00000000000E+00 -0.70318208497E+03  0.70318208499E+03  0.50400001928E-02 0. -1.
    10030    2    1    2    0    0  0.00000000000E+00  0.00000000000E+00  0.11225506842E+04  0.25289148542E+04  0.22661178922E+04 0.  0.
        2    1    3    3  502    0 -0.56222684189E+03 -0.52198579361E+03  0.14917907652E+04  0.16775004851E+04  0.25500000920E-02 0.  1.
       -2    1    3    3    0  502  0.56222684189E+03  0.52198579361E+03 -0.36924008096E+03  0.85141436908E+03  0.25500000920E-02 0. -1.
</event>
<event>
 5   0  0.7003852E-06  0.2291309E+04  0.7818609E-02  0.8481356E-01
       -2   -1    0    0    0  501  0.00000000000E+00  0.00000000000E+00  0.14540796438E+04  0.14540796438E+04  0.25500000920E-02 0. -1.
        2   -1    0    0  501    0  0.00000000000E+00  0.00000000000E+00 -0.90264920130E+03  0.90264920130E+03  0.25500000920E-02 0.  1.
    10030    2    1    2    0    0  0.00000000000E+00  0.00000000000E+00  0.55143044247E+03  0.23567288451E+04  0.22913086471E+04 0.  0.
        2    1    3    3  502    0  0.79606990194E+03  0.47661297014E+03  0.96694206580E+03  0.13400985675E+04  0.25500000920E-02 0. -1.
       -2    1    3    3    0  502 -0.79606990194E+03 -0.47661297014E+03 -0.41551162334E+03  0.10166302775E+04  0.25500000920E-02 0.  1.
</event>
<event>
 5   0  0.7497344E-06  0.2294249E+04  0.7818609E-02  0.8480192E-01
       -2   -1    0    0    0  501  0.00000000000E+00  0.00000000000E+00  0.15788960045E+04  0.15788960045E+04  0.25500000920E-02 0.  1.
        2   -1    0    0  501    0  0.00000000000E+00  0.00000000000E+00 -0.83342724286E+03  0.83342724286E+03  0.25500000920E-02 0. -1.
    10030    2    1    2    0    0  0.00000000000E+00  0.00000000000E+00  0.74546876167E+03  0.24123232474E+04  0.22942492836E+04 0.  0.
        5    1    3    3  502    0  0.73079327493E+03 -0.41970357364E+03  0.11910303320E+04  0.14590357234E+04  0.46999998093E+01 0.  1.
       -5    1    3    3    0  502 -0.73079327493E+03  0.41970357364E+03 -0.44556157034E+03  0.95328752398E+03  0.46999998093E+01 0. -1.
</event>
<event>
 5   0  0.7044981E-06  0.2311655E+04  0.7818609E-02  0.8473340E-01
        2   -1    0    0  501    0  0.00000000000E+00  0.00000000000E+00  0.10305003900E+04  0.10305003900E+04  0.25500000920E-02 0.  1.
       -2   -1    0    0    0  501  0.00000000000E+00  0.00000000000E+00 -0.12963962465E+04  0.12963962465E+04  0.25500000920E-02 0. -1.
    10030    2    1    2    0    0  0.00000000000E+00  0.00000000000E+00 -0.26589585650E+03  0.23268966365E+04  0.23116546781E+04 0.  0.
        4    1    3    3  502    0 -0.14252221830E+03 -0.76986896467E+02  0.10190171870E+04  0.10318125824E+04  0.12699999809E+01 0.  1.
       -4    1    3    3    0  502  0.14252221830E+03  0.76986896467E+02 -0.12849130435E+04  0.12950840541E+04  0.12699999809E+01 0. -1.
</event>
<event>
 5   0  0.7003852E-06  0.2301837E+04  0.7818609E-02  0.8477197E-01
        2   -1    0    0  501    0  0.00000000000E+00  0.00000000000E+00  0.10462386749E+04  0.10462386749E+04  0.25500000920E-02 0. -1.
       -2   -1    0    0    0  501  0.00000000000E+00  0.00000000000E+00 -0.12660721859E+04  0.12660721859E+04  0.25500000920E-02 0.  1.
    10030    2    1    2    0    0  0.00000000000E+00  0.00000000000E+00 -0.21983351103E+03  0.23123108608E+04  0.23018372541E+04 0.  0.
        2    1    3    3  502    0  0.11285501872E+04  0.17844406286E+03  0.29081465849E+02  0.11429407422E+04  0.25500000920E-02 0. -1.
       -2    1    3    3    0  502 -0.11285501872E+04 -0.17844406286E+03 -0.24891497688E+03  0.11693701186E+04  0.25500000920E-02 0.  1.
</event>
<event>
 5   0  0.7497344E-06  0.2289175E+04  0.7818609E-02  0.8482201E-01
       -2   -1    0    0    0  501  0.00000000000E+00  0.00000000000E+00  0.97738128477E+03  0.97738128477E+03  0.25500000920E-02 0.  1.
        2   -1    0    0  501    0  0.00000000000E+00  0.00000000000E+00 -0.13403992154E+04  0.13403992154E+04  0.25500000920E-02 0. -1.
    10030    2    1    2    0    0  0.00000000000E+00  0.00000000000E+00 -0.36301793061E+03  0.23177805001E+04  0.22891754911E+04 0.  0.
        5    1    3    3  502    0  0.41192284188E+03 -0.58730704591E+03  0.72151524441E+03  0.10174558132E+04  0.46999998093E+01 0.  1.
       -5    1    3    3    0  502 -0.41192284188E+03  0.58730704591E+03 -0.10845331750E+04  0.13003246870E+04  0.46999998093E+01 0. -1.
</event>
<event>
 5   0  0.3184492E-06  0.2301330E+04  0.7818609E-02  0.8477397E-01
       -1   -1    0    0    0  501  0.00000000000E+00  0.00000000000E+00  0.87794076490E+03  0.87794076492E+03  0.50400001928E-02 0.  1.
        1   -1    0    0  501    0  0.00000000000E+00  0.00000000000E+00 -0.15081087934E+04  0.15081087934E+04  0.50400001928E-02 0. -1.
    10030    2    1    2    0    0  0.00000000000E+00  0.00000000000E+00 -0.63016802848E+03  0.23860495583E+04  0.23013302133E+04 0.  0.
        1    1    3    3  502    0  0.74654056785E+03  0.71446650118E+03  0.20975753573E+03  0.10544114114E+04  0.50400001928E-02 0.  1.
       -1    1    3    3    0  502 -0.74654056785E+03 -0.71446650118E+03 -0.83992556421E+03  0.13316381469E+04  0.50400001928E-02 0. -1.
</event>
<event>
 5   0  0.7348107E-06  0.2299191E+04  0.7818609E-02  0.8478240E-01
        2   -1    0    0  501    0  0.00000000000E+00  0.00000000000E+00  0.11279015749E+04  0.11279015749E+04  0.25500000920E-02 0. -1.
       -2   -1    0    0    0  501  0.00000000000E+00  0.00000000000E+00 -0.11717065685E+04  0.11717065685E+04  0.25500000920E-02 0.  1.
    10030    2    1    2    0    0  0.00000000000E+00  0.00000000000E+00 -0.43804993575E+02  0.22996081434E+04  0.22991908871E+04 0.  0.
        3    1    3    3  502    0  0.24521643476E+03 -0.27013604539E+03 -0.11122677999E+04  0.11705743256E+04  0.10100000352E+00 0.  1.
       -3    1    3    3    0  502 -0.24521643476E+03  0.27013604539E+03  0.10684628063E+04  0.11290338177E+04  0.10100000352E+00 0. -1.
</event>
<event>
 5   0  0.3184492E-06  0.2311986E+04  0.7818609E-02  0.8473210E-01
        1   -1    0    0  501    0  0.00000000000E+00  0.00000000000E+00  0.14590603764E+04  0.14590603764E+04  0.50400001928E-02 0. -1.
       -1   -1    0    0    0  501  0.00000000000E+00  0.00000000000E+00 -0.91587682640E+03  0.91587682642E+03  0.50400001928E-02 0.  1.
    10030    2    1    2    0    0  0.00000000000E+00  0.00000000000E+00  0.54318354997E+03  0.23749372028E+04  0.23119858019E+04 0.  0.
        1    1    3    3  502    0  0.93652239280E+03  0.67274746807E+03  0.18778455727E+03  0.11683006411E+04  0.50400001928E-02 0. -1.
       -1    1    3    3    0  502 -0.93652239280E+03 -0.67274746807E+03  0.35539899270E+03  0.12066365617E+04  0.50400001928E-02 0.  1.
</event>
<event>
 5   0  0.7003852E-06  0.2295222E+04  0.7818609E-02  0.8479808E-01
       -2   -1    0    0    0  501  0.00000000000E+00  0.00000000000E+00  0.50097792357E+03  0.50097792358E+03  0.25500000920E-02 0. -1.
        2   -1    0    0  501    0  0.00000000000E+00  0.00000000000E+00 -0.26288794364E+04  0.26288794364E+04  0.25500000920E-02 0.  1.
    10030    2    1    2    0    0  0.00000000000E+00  0.00000000000E+00 -0.21279015128E+04  0.31298573599E+04  0.22952216114E+04 0.  0.
        2    1    3    3  502    0  0.47992231942E+03  0.17268871202E+03  0.33792465831E+03  0.61183322780E+03  0.25500000920E-02 0. -1.
       -2    1    3    3    0  502 -0.47992231942E+03 -0.17268871202E+03 -0.24658261711E+04  0.25180241321E+04  0.25500000920E-02 0.  1.
</event>
<event>
 5   0  0.7497344E-06  0.2362821E+04  0.7818609E-02  0.8453556E-01
       -2   -1    0    0    0  501  0.00000000000E+00  0.00000000000E+00  0.75166935653E+03  0.75166935653E+03  0.25500000920E-02 0.  1.
        2   -1    0    0  501    0  0.00000000000E+00  0.00000000000E+00 -0.18568408044E+04  0.18568408045E+04  0.25500000920E-02 0. -1.
    10030    2    1    2    0    0  0.00000000000E+00  0.00000000000E+00 -0.11051714479E+04  0.26085101610E+04  0.23628206302E+04 0.  0.
        5    1    3    3  502    0 -0.17579866195E+03 -0.11656215802E+04 -0.63901700212E+03  0.13408742136E+04  0.46999998093E+01 0. -1.
       -5    1    3    3    0  502  0.17579866195E+03  0.11656215802E+04 -0.46615444580E+03  0.12676359474E+04  0.46999998093E+01 0.  1.
</event>
<event>
 5   0  0.3238713E-06  0.2298820E+04  0.7818609E-02  0.8478387E-01
        1   -1    0    0  501    0  0.00000000000E+00  0.00000000000E+00  0.13132392309E+04  0.13132392309E+04  0.50400001928E-02 0. -1.
       -1   -1    0    0    0  501  0.00000000000E+00  0.00000000000E+00 -0.10060184250E+04  0.10060184250E+04  0.50400001928E-02 0.  1.
    10030    2    1    2    0    0  0.00000000000E+00  0.00000000000E+00  0.30722080583E+03  0.23192576559E+04  0.22988195777E+04 0.  0.
        3    1    3    3  502    0 -0.12692244391E+02  0.11104761216E+04 -0.14537642862E+03  0.11200234934E+04  0.10100000352E+00 0.  1.
       -3    1    3    3    0  502  0.12692244391E+02 -0.11104761216E+04  0.45259723445E+03  0.11992341625E+04  0.10100000352E+00 0. -1.
</event>
<event>
 5   0  0.3184492E-06  0.2299700E+04  0.7818609E-02  0.8478039E-01
        1   -1    0    0  501    0  0.00000000000E+00  0.00000000000E+00  0.18246534600E+04  0.18246534601E+04  0.50400001928E-02 0. -1.
       -1   -1    0    0    0  501  0.00000000000E+00  0.00000000000E+00 -0.72460608234E+03  0.72460608235E+03  0.50400001928E-02 0.  1.
    10030    2    1    2    0    0  0.00000000000E+00  0.00000000000E+00  0.11000473777E+04  0.25492595424E+04  0.22996999764E+04 0.  0.
        1    1    3    3  502    0  0.13622826200E+03  0.24291275673E+03  0.17867000797E+04  0.18082759529E+04  0.50400001928E-02 0. -1.
       -1    1    3    3    0  502 -0.13622826200E+03 -0.24291275673E+03 -0.68665270203E+03  0.74098358954E+03  0.50400001928E-02 0.  1.
</event>
<event>
 5   0  0.3338758E-06  0.2285690E+04  0.7818609E-02  0.8483585E-01
       -1   -1    0    0    0  501  0.00000000000E+00  0.00000000000E+00  0.73532433014E+03  0.73532433016E+03  0.50400001928E-02 0.  1.
        1   -1    0    0  501    0  0.00000000000E+00  0.00000000000E+00 -0.17762160731E+04  0.17762160731E+04  0.50400001928E-02 0. -1.
    10030    2    1    2    0    0  0.00000000000E+00  0.00000000000E+00 -0.10408917429E+04  0.25115404032E+04  0.22856901751E+04 0.  0.
        5    1    3    3  502    0  0.67871495075E+03  0.84831066213E+02 -0.15264562641E+04  0.16727047290E+04  0.46999998093E+01 0. -1.
       -5    1    3    3    0  502 -0.67871495075E+03 -0.84831066213E+02  0.48556452117E+03  0.83883567425E+03  0.46999998093E+01 0.  1.
</event>
<event>
 5   0  0.2519625E-06  0.2296388E+04  0.7818609E-02  0.8479347E-01
       -3   -1    0    0    0  501  0.00000000000E+00  0.00000000000E+00  0.12300581441E+04  0.12300581482E+04  0.10100000352E+00 0. -1.
        3   -1    0    0  501    0  0.00000000000E+00  0.00000000000E+00 -0.10717778756E+04  0.10717778804E+04  0.10100000352E+00 0.  1.
    10030    2    1    2    0    0  0.00000000000E+00  0.00000000000E+00  0.15828026844E+03  0.23018360286E+04  0.22963876980E+04 0.  0.
        3    1    3    3  502    0  0.52003530954E+03  0.96744139221E+03 -0.25627226049E+03  0.11278541804E+04  0.10100000352E+00 0.  1.
       -3    1    3    3    0  502 -0.52003530954E+03 -0.96744139221E+03  0.41455252893E+03  0.11739818482E+04  0.10100000352E+00 0. -1.
</event>
<event>
 5   0  0.3238713E-06  0.2301059E+04  0.7818609E-02  0.8477504E-01
       -1   -1    0    0    0  501  0.00000000000E+00  0.00000000000E+00  0.99783481873E+03  0.99783481874E+03  0.50400001928E-02 0. -1.
        1   -1    0    0  501    0  0.00000000000E+00  0.00000000000E+00 -0.13265900070E+04  0.13265900070E+04  0.50400001928E-02 0.  1.
    10030    2    1    2    0    0  0.00000000000E+00  0.00000000000E+00 -0.32875518828E+03  0.23244248258E+04  0.23010586252E+04 0.  0.
        3    1    3    3  502    0 -0.72110960086E+03  0.78153050504E+03 -0.60807433960E+03  0.12249666932E+04  0.10100000352E+00 0.  1.
       -3    1    3    3    0  502  0.72110960086E+03 -0.78153050504E+03  0.27931915132E+03  0.10994581326E+04  0.10100000352E+00 0. -1.
</event>
<event>
 5   0  0.7497344E-06  0.2263063E+04  0.7818609E-02  0.8492629E-01
       -2   -1    0    0    0  501  0.00000000000E+00  0.00000000000E+00  0.15913917682E+04  0.15913917682E+04  0.25500000920E-02 0.  1.
        2   -1    0    0  501    0  0.00000000000E+00  0.00000000000E+00 -0.80455609725E+03  0.80455609725E+03  0.25500000920E-02 0. -1.
    10030    2    1    2    0    0  0.00000000000E+00  0.00000000000E+00  0.78683567091E+03  0.23959478654E+04  0.22630633665E+04 0.  0.
        5    1    3    3  502    0  0.28494914553E+03 -0.14170151658E+02 -0.76584066482E+03  0.81727034855E+03  0.46999998093E+01 0. -1.
       -5    1    3    3    0  502 -0.28494914553E+03  0.14170151658E+02  0.15526763357E+04  0.15786775169E+04  0.46999998093E+01 0.  1.
</event>
<event>
 5   0  0.2519625E-06  0.2301318E+04  0.7818609E-02  0.8477401E-01
       -3   -1    0    0    0  501  0.00000000000E+00  0.00000000000E+00  0.78774561686E+03  0.78774562334E+03  0.10100000352E+00 0. -1.
        3   -1    0    0  501    0  0.00000000000E+00  0.00000000000E+00 -0.16807666249E+04  0.16807666279E+04  0.10100000352E+00 0.  1.
    10030    2    1    2    0    0  0.00000000000E+00  0.00000000000E+00 -0.89302100803E+03  0.24685122513E+04  0.23013183643E+04 0.  0.
        3    1    3    3  502    0 -0.17846807082E+03 -0.50234924729E+03 -0.15403050962E+04  0.16299525816E+04  0.10100000352E+00 0.  1.
       -3    1    3    3    0  502  0.17846807082E+03  0.50234924729E+03  0.64728408821E+03  0.83855966967E+03  0.10100000352E+00 0. -1.
</event>
<event>
 5   0  0.7497344E-06  0.2289353E+04  0.7818609E-02  0.8482131E-01
        2   -1    0    0  501    0  0.00000000000E+00  0.00000000000E+00  0.26056969217E+04  0.26056969217E+04  0.25500000920E-02 0.  1.
       -2   -1    0    0    0  501  0.00000000000E+00  0.00000000000E+00 -0.50285381777E+03  0.50285381778E+03  0.25500000920E-02 0. -1.
    10030    2    1    2    0    0  0.00000000000E+00  0.00000000000E+00  0.21028431040E+04  0.31085507395E+04  0.22893533105E+04 0.  0.
        5    1    3    3  502    0  0.11071914953E+04  0.25420171218E+03  0.86049784107E+03  0.14251210974E+04  0.46999998093E+01 0. -1.
       -5    1    3    3    0  502 -0.11071914953E+04 -0.25420171218E+03  0.12423452629E+04  0.16834296421E+04  0.46999998093E+01 0.  1.
</event>
<event>
 5   0  0.3184492E-06  0.2257173E+04  0.7818609E-02  0.8495001E-01
       -1   -1    0    0    0  501  0.00000000000E+00  0.00000000000E+00  0.79448304922E+03  0.79448304924E+03  0.50400001928E-02 0.  1.
        1   -1    0    0  501    0  0.00000000000E+00  0.00000000000E+00 -0.16031897904E+04  0.16031897904E+04  0.50400001928E-02 0. -1.
    10030    2    1    2    0    0  0.00000000000E+00  0.00000000000E+00 -0.80870674116E+03  0.23976728396E+04  0.22571726679E+04 0.  0.
        1    1    3    3  502    0  0.27689930062E+03  0.42380140352E+03 -0.14758149741E+04  0.15602277687E+04  0.50400001928E-02 0. -1.
       -1    1    3    3    0  502 -0.27689930062E+03 -0.42380140352E+03  0.66710823297E+03  0.83744507094E+03  0.50400001928E-02 0.  1.
</event>
<event>
 5   0  0.3338758E-06  0.2302622E+04  0.7818609E-02  0.8476888E-01
        1   -1    0    0  501    0  0.00000000000E+00  0.00000000000E+00  0.10726050389E+04  0.10726050390E+04  0.50400001928E-02 0. -1.
       -1   -1    0    0    0  501  0.00000000000E+00  0.00000000000E+00 -0.12357919381E+04  0.12357919381E+04  0.50400001928E-02 0.  1.
    10030    2    1    2    0    0  0.00000000000E+00  0.00000000000E+00 -0.16318689918E+03  0.23083969771E+04  0.23026216884E+04 0.  0.
        5    1    3    3  502    0  0.45245965755E+02  0.83420828320E+03  0.71257013031E+03  0.10980568919E+04  0.46999998093E+01 0. -1.
       -5    1    3    3    0  502 -0.45245965755E+02 -0.83420828320E+03 -0.87575702949E+03  0.12103400852E+04  0.46999998093E+01 0.  1.
</event>
<event>
 5   0  0.7348107E-06  0.2301202E+04  0.7818609E-02  0.8477447E-01
        2   -1    0    0  501    0  0.00000000000E+00  0.00000000000E+00  0.13153434559E+04  0.13153434559E+04  0.25500000920E-02 0. -1.
       -2   -1    0    0    0  501  0.00000000000E+00  0.00000000000E+00 -0.10064923781E+04  0.10064923781E+04  0.25500000920E-02 0.  1.
    10030    2    1    2    0    0  0.00000000000E+00  0.00000000000E+00  0.30885107781E+03  0.23218358340E+04  0.23012024361E+04 0.  0.
        3    1    3    3  502    0  0.11459969073E+04  0.29739674872E+02  0.55106174218E+02  0.11477064348E+04  0.10100000352E+00 0. -1.
       -3    1    3    3    0  502 -0.11459969073E+04 -0.29739674872E+02  0.25374490359E+03  0.11741293992E+04  0.10100000352E+00 0.  1.
</event>
<event>
 5   0  0.7497344E-06  0.2303750E+04  0.7818609E-02  0.8476444E-01
       -2   -1    0    0    0  501  0.00000000000E+00  0.00000000000E+00  0.11619533685E+04  0.11619533685E+04  0.25500000920E-02 0.  1.
        2   -1    0    0  501    0  0.00000000000E+00  0.00000000000E+00 -0.11418844216E+04  0.11418844216E+04  0.25500000920E-02 0. -1.
    10030    2    1    2    0    0  0.00000000000E+00  0.00000000000E+00  0.20068946947E+02  0.23038377901E+04  0.23037503772E+04 0.  0.
        5    1    3    3  502    0  0.93307527339E+02 -0.79231348146E+03  0.84092544148E+03  0.11591568641E+04  0.46999998093E+01 0.  1.
       -5    1    3    3    0  502 -0.93307527339E+02  0.79231348146E+03 -0.82085649453E+03  0.11446809259E+04  0.46999998093E+01 0. -1.
</event>
<event>
 5   0  0.2519625E-06  0.2291755E+04  0.7818609E-02  0.8481179E-01
        3   -1    0    0  501    0  0.00000000000E+00  0.00000000000E+00  0.94259842330E+03  0.94259842871E+03  0.10100000352E+00 0.  1.
       -3   -1    0    0    0  501  0.00000000000E+00  0.00000000000E+00 -0.13929950872E+04  0.13929950909E+04  0.10100000352E+00 0. -1.
    10030    2    1    2    0    0  0.00000000000E+00  0.00000000000E+00 -0.45039666395E+03  0.23355935196E+04  0.22917547718E+04 0.  0.
        5    1    3    3  502    0  0.21509019751E+03 -0.97398136073E+03 -0.79999914659E+03  0.12786415482E+04  0.46999998093E+01 0.  1.
       -5    1    3    3    0  502 -0.21509019751E+03  0.97398136073E+03  0.34960248264E+03  0.10569519715E+04  0.46999998093E+01 0. -1.
</event>
<event>
 5   0  0.7044981E-06  0.2304800E+04  0.7818609E-02  0.8476031E-01
       -2   -1    0    0    0  501  0.00000000000E+00  0.00000000000E+00  0.12074822045E+04  0.12074822045E+04  0.25500000920E-02 0.  1.
        2   -1    0    0  501    0  0.00000000000E+00  0.00000000000E+00 -0.10998300592E+04  0.10998300592E+04  0.25500000920E-02 0. -1.
    10030    2    1    2    0    0  0.00000000000E+00  0.00000000000E+00  0.10765214528E+03  0.23073122637E+04  0.23047995352E+04 0.  0.
        4    1    3    3  502    0  0.22432391965E+03 -0.79687510014E+03 -0.74872895722E+03  0.11162113646E+04  0.12699999809E+01 0. -1.
       -4    1    3    3    0  502 -0.22432391965E+03  0.79687510014E+03  0.85638110250E+03  0.11911008991E+04  0.12699999809E+01 0.  1.
</event>
<event>
 5   0  0.3238713E-06  0.2302995E+04  0.7818609E-02  0.8476741E-01
        1   -1    0    0  501    0  0.00000000000E+00  0.00000000000E+00  0.16086235605E+04  0.16086235605E+04  0.50400001928E-02 0.  1.
       -1   -1    0    0    0  501  0.00000000000E+00  0.00000000000E+00 -0.82427388980E+03  0.82427388981E+03  0.50400001928E-02 0. -1.
    10030    2    1    2    0    0  0.00000000000E+00  0.00000000000E+00  0.78434967073E+03  0.24328974504E+04  0.23029949192E+04 0.  0.
        3    1    3    3  502    0  0.85053560093E+03  0.36084578066E+03 -0.33385038179E+03  0.98238310932E+03  0.10100000352E+00 0. -1.
       -3    1    3    3    0  502 -0.85053560093E+03 -0.36084578066E+03  0.11182000525E+04  0.14505143410E+04  0.10100000352E+00 0.  1.
</event>
<event>
 5   0  0.3226427E-06  0.2302524E+04  0.7818609E-02  0.8476927E-01
        1   -1    0    0  501    0  0.00000000000E+00  0.00000000000E+00  0.14324378282E+04  0.14324378282E+04  0.50400001928E-02 0. -1.
       -1   -1    0    0    0  501  0.00000000000E+00  0.00000000000E+00 -0.92527846130E+03  0.92527846131E+03  0.50400001928E-02 0.  1.
    10030    2    1    2    0    0  0.00000000000E+00  0.00000000000E+00  0.50715936693E+03  0.23577162895E+04  0.23025237194E+04 0.  0.
        4    1    3    3  502    0 -0.35763132303E+03  0.67645361540E+03 -0.62722099949E+03  0.98939246617E+03  0.12699999809E+01 0.  1.
       -4    1    3    3    0  502  0.35763132303E+03 -0.67645361540E+03  0.11343803664E+04  0.13683238234E+04  0.12699999809E+01 0. -1.
</event>
<event>
 5   0  0.3226427E-06  0.2303367E+04  0.7818609E-02  0.8476595E-01
        1   -1    0    0  501    0  0.00000000000E+00  0.00000000000E+00  0.14495813833E+04  0.14495813833E+04  0.50400001928E-02 0. -1.
       -1   -1    0    0    0  501  0.00000000000E+00  0.00000000000E+00 -0.91500576172E+03  0.91500576173E+03  0.50400001928E-02 0.  1.
    10030    2    1    2    0    0  0.00000000000E+00  0.00000000000E+00  0.53457562156E+03  0.23645871450E+04  0.23033673765E+04 0.  0.
        4    1    3    3  502    0  0.32312319229E+03  0.93834235139E+03 -0.33260540060E+03  0.10466723132E+04  0.12699999809E+01 0.  1.
       -4    1    3    3    0  502 -0.32312319229E+03 -0.93834235139E+03  0.86718102216E+03  0.13179148318E+04  0.12699999809E+01 0. -1.
</event>
<event>
 5   0  0.3226427E-06  0.2300668E+04  0.7818609E-02  0.8477658E-01
       -1   -1    0    0    0  501  0.00000000000E+00  0.00000000000E+00  0.75650188922E+03  0.75650188924E+03  0.50400001928E-02 0. -1.
        1   -1    0    0  501    0  0.00000000000E+00  0.00000000000E+00 -0.17491936936E+04  0.17491936937E+04  0.50400001928E-02 0.  1.
    10030    2    1    2    0    0  0.00000000000E+00  0.00000000000E+00 -0.99269180443E+03  0.25056955829E+04  0.23006680194E+04 0.  0.
        4    1    3    3  502    0 -0.10723810280E+03 -0.40383386724E+03  0.67093347101E+03  0.79040188414E+03  0.12699999809E+01 0. -1.
       -4    1    3    3    0  502  0.10723810280E+03  0.40383386724E+03 -0.16636252754E+04  0.17152936988E+04  0.12699999809E+01 0.  1.
</event>
<event>
 5   0  0.3184492E-06  0.2299356E+04  0.7818609E-02  0.8478175E-01
       -1   -1    0    0    0  501  0.00000000000E+00  0.00000000000E+00  0.11306769755E+04  0.11306769755E+04  0.50400001928E-02 0. -1.
        1   -1    0    0  501    0  0.00000000000E+00  0.00000000000E+00 -0.11689982926E+04  0.11689982926E+04  0.50400001928E-02 0.  1.
    10030    2    1    2    0    0  0.00000000000E+00  0.00000000000E+00 -0.38321317083E+02  0.22996752681E+04  0.22993559567E+04 0.  0.
        1    1    3    3  502    0  0.17598049202E+02  0.45424386667E+03 -0.10752960688E+04  0.11674368580E+04  0.50400001928E-02 0.  1.
       -1    1    3    3    0  502 -0.17598049202E+02 -0.45424386667E+03  0.10369747517E+04  0.11322384102E+04  0.50400001928E-02 0. -1.
</event>
<event>
 5   0  0.3338758E-06  0.2264222E+04  0.7818609E-02  0.8492163E-01
       -1   -1    0    0    0  501  0.00000000000E+00  0.00000000000E+00  0.11309269610E+04  0.11309269610E+04  0.50400001928E-02 0. -1.
        1   -1    0    0  501    0  0.00000000000E+00  0.00000000000E+00 -0.11332962741E+04  0.11332962741E+04  0.50400001928E-02 0.  1.
    10030    2    1    2    0    0  0.00000000000E+00  0.00000000000E+00 -0.23693131120E+01  0.22642232350E+04  0.22642219954E+04 0.  0.
        5    1    3    3  502    0 -0.43439413188E+03 -0.34957041548E+03 -0.98645444037E+03  0.11331426168E+04  0.46999998093E+01 0.  1.
       -5    1    3    3    0  502  0.43439413188E+03  0.34957041548E+03  0.98408512725E+03  0.11310806182E+04  0.46999998093E+01 0. -1.
</event>
<event>
 5   0  0.7044981E-06  0.2298528E+04  0.7818609E-02  0.8478502E-01
       -2   -1    0    0    0  501  0.00000000000E+00  0.00000000000E+00  0.12648723562E+04  0.12648723562E+04  0.25500000920E-02 0.  1.
        2   -1    0    0  501    0  0.00000000000E+00  0.00000000000E+00 -0.10442224825E+04  0.10442224825E+04  0.25500000920E-02 0. -1.
    10030    2    1    2    0    0  0.00000000000E+00  0.00000000000E+00  0.22064987373E+03  0.23090948386E+04  0.22985283568E+04 0.  0.
        4    1    3    3  502    0  0.45933047492E+03  0.10138311956E+04  0.39794225280E+03  0.11820312296E+04  0.12699999809E+01 0.  1.
       -4    1    3    3    0  502 -0.45933047492E+03 -0.10138311956E+04 -0.17729237908E+03  0.11270636091E+04  0.12699999809E+01 0. -1.
</event>
<event>
 5   0  0.3338758E-06  0.2305788E+04  0.7818609E-02  0.8475642E-01
       -1   -1    0    0    0  501  0.00000000000E+00  0.00000000000E+00  0.55263516057E+03  0.55263516059E+03  0.50400001928E-02 0. -1.
        1   -1    0    0  501    0  0.00000000000E+00  0.00000000000E+00 -0.24051402065E+04  0.24051402065E+04  0.50400001928E-02 0.  1.
    10030    2    1    2    0    0  0.00000000000E+00  0.00000000000E+00 -0.18525050459E+04  0.29577753671E+04  0.23057884068E+04 0.  0.
        5    1    3    3  502    0  0.49757478555E+03 -0.99289508602E+03 -0.52938022036E+03  0.12303198067E+04  0.46999998093E+01 0.  1.
       -5    1    3    3    0  502 -0.49757478555E+03  0.99289508602E+03 -0.13231248255E+04  0.17274555603E+04  0.46999998093E+01 0. -1.
</event>
<event>
 5   0  0.7044981E-06  0.2308479E+04  0.7818609E-02  0.8474586E-01
       -2   -1    0    0    0  501  0.00000000000E+00  0.00000000000E+00  0.15393570250E+04  0.15393570250E+04  0.25500000920E-02 0. -1.
        2   -1    0    0  501    0  0.00000000000E+00  0.00000000000E+00 -0.86547085787E+03  0.86547085787E+03  0.25500000920E-02 0.  1.
    10030    2    1    2    0    0  0.00000000000E+00  0.00000000000E+00  0.67388616714E+03  0.24048278829E+04  0.23084788455E+04 0.  0.
        4    1    3    3  502    0 -0.43751040299E+03 -0.30889637028E+03 -0.72819658099E+03  0.90393815815E+03  0.12699999809E+01 0.  1.
       -4    1    3    3    0  502  0.43751040299E+03  0.30889637028E+03  0.14020827481E+04  0.15008897247E+04  0.12699999809E+01 0. -1.
</event>
<event>
 5   0  0.3184492E-06  0.2301069E+04  0.7818609E-02  0.8477500E-01
        1   -1    0    0  501    0  0.00000000000E+00  0.00000000000E+00  0.14616925576E+04  0.14616925576E+04  0.50400001928E-02 0. -1.
       -1   -1    0    0    0  501  0.00000000000E+00  0.00000000000E+00 -0.90561428115E+03  0.90561428117E+03  0.50400001928E-02 0.  1.
    10030    2    1    2    0    0  0.00000000000E+00  0.00000000000E+00  0.55607827642E+03  0.23673068387E+04  0.23010690166E+04 0.  0.
        1    1    3    3  502    0 -0.76423598044E+03  0.48831051212E+03  0.10063916878E+04  0.13547427872E+04  0.50400001928E-02 0. -1.
       -1    1    3    3    0  502  0.76423598044E+03 -0.48831051212E+03 -0.45031341139E+03  0.10125640516E+04  0.50400001928E-02 0.  1.
</event>
<event>
 5   0  0.7242214E-06  0.2303581E+04  0.7818609E-02  0.8476510E-01
        2   -1    0    0  501    0  0.00000000000E+00  0.00000000000E+00  0.17282294009E+04  0.17282294009E+04  0.25500000920E-02 0. -1.
       -2   -1    0    0    0  501  0.00000000000E+00  0.00000000000E+00 -0.76761905695E+03  0.76761905696E+03  0.25500000920E-02 0.  1.
    10030    2    1    2    0    0  0.00000000000E+00  0.00000000000E+00  0.96061034395E+03  0.24958484579E+04  0.23035814055E+04 0.  0.
        1    1    3    3  502    0 -0.34262795337E+03  0.69683433762E+03  0.14019824388E+04  0.16026623996E+04  0.50400001928E-02 0. -1.
       -1    1    3    3    0  502  0.34262795337E+03 -0.69683433762E+03 -0.44137209482E+03  0.89318605824E+03  0.50400001928E-02 0.  1.
</event>
<event>
 5   0  0.3238713E-06  0.2295432E+04  0.7818609E-02  0.8479724E-01
       -1   -1    0    0    0  501  0.00000000000E+00  0.00000000000E+00  0.66174305651E+03  0.66174305652E+03  0.50400001928E-02 0.  1.
        1   -1    0    0  501    0  0.00000000000E+00  0.00000000000E+00 -0.19905798366E+04  0.19905798366E+04  0.50400001928E-02 0. -1.
    10030    2    1    2    0    0  0.00000000000E+00  0.00000000000E+00 -0.13288367801E+04  0.26523228931E+04  0.22954323212E+04 0.  0.
        3    1    3    3  502    0 -0.11232306162E+04 -0.10019548486E+03 -0.41776708614E+03  0.12025870034E+04  0.10100000352E+00 0.  1.
       -3    1    3    3    0  502  0.11232306162E+04  0.10019548486E+03 -0.91106969394E+03  0.14497358897E+04  0.10100000352E+00 0. -1.
</event>
<event>
 5   0  0.7003852E-06  0.2299782E+04  0.7818609E-02  0.8478007E-01
        2   -1    0    0  501    0  0.00000000000E+00  0.00000000000E+00  0.13371053893E+04  0.13371053893E+04  0.25500000920E-02 0. -1.
       -2   -1    0    0    0  501  0.00000000000E+00  0.00000000000E+00 -0.98888949940E+03  0.98888949940E+03  0.25500000920E-02 0.  1.
    10030    2    1    2    0    0  0.00000000000E+00  0.00000000000E+00  0.34821588991E+03  0.23259948887E+04  0.22997821454E+04 0.  0.
        2    1    3    3  502    0  0.51211990417E+03  0.32651148011E+03  0.11616451528E+04  0.13108379015E+04  0.25500000920E-02 0. -1.
       -2    1    3    3    0  502 -0.51211990417E+03 -0.32651148011E+03 -0.81342926293E+03  0.10151569872E+04  0.25500000920E-02 0.  1.
</event>
<event>
 5   0  0.3184492E-06  0.2286383E+04  0.7818609E-02  0.8483309E-01
       -1   -1    0    0    0  501  0.00000000000E+00  0.00000000000E+00  0.10244533821E+04  0.10244533821E+04  0.50400001928E-02 0.  1.
        1   -1    0    0  501    0  0.00000000000E+00  0.00000000000E+00 -0.12756922986E+04  0.12756922986E+04  0.50400001928E-02 0. -1.
    10030    2    1    2    0    0  0.00000000000E+00  0.00000000000E+00 -0.25123891648E+03  0.23001456807E+04  0.22863834235E+04 0.  0.
        1    1    3    3  502    0 -0.26522182456E+03  0.66480526957E+02  0.99107321689E+03  0.10280994105E+04  0.50400001928E-02 0.  1.
       -1    1    3    3    0  502  0.26522182456E+03 -0.66480526957E+02 -0.12423121334E+04  0.12720462702E+04  0.50400001928E-02 0. -1.
</event>
<event>
 5   0  0.3238713E-06  0.2293604E+04  0.7818609E-02  0.8480447E-01
        1   -1    0    0  501    0  0.00000000000E+00  0.00000000000E+00  0.11039939701E+04  0.11039939701E+04  0.50400001928E-02 0. -1.
       -1   -1    0    0    0  501  0.00000000000E+00  0.00000000000E+00 -0.11912696476E+04  0.11912696476E+04  0.50400001928E-02 0.  1.
    10030    2    1    2    0    0  0.00000000000E+00  0.00000000000E+00 -0.87275677514E+02  0.22952636177E+04  0.22936037214E+04 0.  0.
        3    1    3    3  502    0  0.11092022241E+04 -0.28811143485E+03 -0.98393854515E+00  0.11460099263E+04  0.10100000352E+00 0.  1.
       -3    1    3    3    0  502 -0.11092022241E+04  0.28811143485E+03 -0.86291738969E+02  0.11492536914E+04  0.10100000352E+00 0. -1.
</event>
<event>
 5   0  0.3184492E-06  0.2303378E+04  0.7818609E-02  0.8476590E-01
       -1   -1    0    0    0  501  0.00000000000E+00  0.00000000000E+00  0.15780587750E+04  0.15780587750E+04  0.50400001928E-02 0.  1.
        1   -1    0    0  501    0  0.00000000000E+00  0.00000000000E+00 -0.84051830894E+03  0.84051830895E+03  0.50400001928E-02 0. -1.
    10030    2    1    2    0    0  0.00000000000E+00  0.00000000000E+00  0.73754046603E+03  0.24185770839E+04  0.23033777745E+04 0.  0.
        1    1    3    3  502    0  0.28741875870E+02  0.38781892010E+03 -0.76949332965E+03  0.86217724084E+03  0.50400001928E-02 0. -1.
       -1    1    3    3    0  502 -0.28741875870E+02 -0.38781892010E+03  0.15070337957E+04  0.15563998431E+04  0.50400001928E-02 0.  1.
</event>
<event>
 5   0  0.7497344E-06  0.2307856E+04  0.7818609E-02  0.8474830E-01
        2   -1    0    0  501    0  0.00000000000E+00  0.00000000000E+00  0.17165617826E+04  0.17165617826E+04  0.25500000920E-02 0. -1.
       -2   -1    0    0    0  501  0.00000000000E+00  0.00000000000E+00 -0.77570756501E+03  0.77570756502E+03  0.25500000920E-02 0.  1.
    10030    2    1    2    0    0  0.00000000000E+00  0.00000000000E+00  0.94085421763E+03  0.24922693477E+04  0.23078561139E+04 0.  0.
        5    1    3    3  502    0 -0.52935143976E+02  0.10979928606E+03  0.17095794284E+04  0.17139258808E+04  0.46999998093E+01 0. -1.
       -5    1    3    3    0  502  0.52935143976E+02 -0.10979928606E+03 -0.76872521081E+03  0.77834346687E+03  0.46999998093E+01 0.  1.
</event>
<event>
 5   0  0.7348107E-06  0.2300314E+04  0.7818609E-02  0.8477797E-01
       -2   -1    0    0    0  501  0.00000000000E+00  0.00000000000E+00  0.14432497048E+04  0.14432497048E+04  0.25500000920E-02 0. -1.
        2   -1    0    0  501    0  0.00000000000E+00  0.00000000000E+00 -0.91658505211E+03  0.91658505211E+03  0.25500000920E-02 0.  1.
    10030    2    1    2    0    0  0.00000000000E+00  0.00000000000E+00  0.52666465271E+03  0.23598347569E+04  0.23003139837E+04 0.  0.
        3    1    3    3  502    0 -0.27320815039E+03  0.90708350139E+03  0.93244979121E+03  0.13292500876E+04  0.10100000352E+00 0. -1.
       -3    1    3    3    0  502  0.27320815039E+03 -0.90708350139E+03 -0.40578513850E+03  0.10305846694E+04  0.10100000352E+00 0.  1.
</event>
<event>
 5   0  0.7242214E-06  0.2298065E+04  0.7818609E-02  0.8478684E-01
       -2   -1    0    0    0  501  0.00000000000E+00  0.00000000000E+00  0.18339784656E+04  0.18339784656E+04  0.25500000920E-02 0. -1.
        2   -1    0    0  501    0  0.00000000000E+00  0.00000000000E+00 -0.71989721573E+03  0.71989721574E+03  0.25500000920E-02 0.  1.
    10030    2    1    2    0    0  0.00000000000E+00  0.00000000000E+00  0.11140812499E+04  0.25538756814E+04  0.22980652655E+04 0.  0.
        1    1    3    3  502    0 -0.43088799128E+03 -0.76242614178E+03  0.13836965015E+04  0.16375512483E+04  0.50400001928E-02 0. -1.
       -1    1    3    3    0  502  0.43088799128E+03  0.76242614178E+03 -0.26961525157E+03  0.91632443305E+03  0.50400001928E-02 0.  1.
</event>
<event>
 5   0  0.3195296E-06  0.2314559E+04  0.7818609E-02  0.8472203E-01
        1   -1    0    0  501    0  0.00000000000E+00  0.00000000000E+00  0.16271850045E+04  0.16271850045E+04  0.50400001928E-02 0.  1.
       -1   -1    0    0    0  501  0.00000000000E+00  0.00000000000E+00 -0.82307529647E+03  0.82307529649E+03  0.50400001928E-02 0. -1.
    10030    2    1    2    0    0  0.00000000000E+00  0.00000000000E+00  0.80410970799E+03  0.24502603010E+04  0.23145589472E+04 0.  0.
        2    1    3    3  502    0  0.17007036274E+03  0.10745080161E+04 -0.15808034706E+02  0.10879987586E+04  0.25500000920E-02 0.  1.
       -2    1    3    3    0  502 -0.17007036274E+03 -0.10745080161E+04  0.81991774269E+03  0.13622615423E+04  0.25500000920E-02 0. -1.
</event>
<event>
 5   0  0.3184492E-06  0.2301246E+04  0.7818609E-02  0.8477430E-01
        1   -1    0    0  501    0  0.00000000000E+00  0.00000000000E+00  0.59569923423E+03  0.59569923425E+03  0.50400001928E-02 0.  1.
       -1   -1    0    0    0  501  0.00000000000E+00  0.00000000000E+00 -0.22224862655E+04  0.22224862655E+04  0.50400001928E-02 0. -1.
    10030    2    1    2    0    0  0.00000000000E+00  0.00000000000E+00 -0.16267870313E+04  0.28181854998E+04  0.23012460681E+04 0.  0.
        1    1    3    3  502    0  0.58459397980E+03 -0.83123657783E+03 -0.14742753639E+04  0.17905843231E+04  0.50400001928E-02 0. -1.
       -1    1    3    3    0  502 -0.58459397980E+03  0.83123657783E+03 -0.15251166738E+03  0.10276011767E+04  0.50400001928E-02 0.  1.
</event>
<event>
 5   0  0.7497344E-06  0.2296017E+04  0.7818609E-02  0.8479493E-01
        2   -1    0    0  501    0  0.00000000000E+00  0.00000000000E+00  0.16083358192E+04  0.16083358192E+04  0.25500000920E-02 0. -1.
       -2   -1    0    0    0  501  0.00000000000E+00  0.00000000000E+00 -0.81943299388E+03  0.81943299388E+03  0.25500000920E-02 0.  1.
    10030    2    1    2    0    0  0.00000000000E+00  0.00000000000E+00  0.78890282530E+03  0.24277688131E+04  0.22960169298E+04 0.  0.
        5    1    3    3  502    0 -0.10953206632E+04 -0.33825782231E+03  0.45925126083E+03  0.12349410998E+04  0.46999998093E+01 0. -1.
       -5    1    3    3    0  502  0.10953206632E+04  0.33825782231E+03  0.32965156448E+03  0.11928277132E+04  0.46999998093E+01 0.  1.
</event>
<event>
 5   0  0.3338758E-06  0.2299869E+04  0.7818609E-02  0.8477973E-01
       -1   -1    0    0    0  501  0.00000000000E+00  0.00000000000E+00  0.14271508965E+04  0.14271508965E+04  0.50400001928E-02 0. -1.
        1   -1    0    0  501    0  0.00000000000E+00  0.00000000000E+00 -0.92656559625E+03  0.92656559627E+03  0.50400001928E-02 0.  1.
    10030    2    1    2    0    0  0.00000000000E+00  0.00000000000E+00  0.50058530021E+03  0.23537164927E+04  0.22998686235E+04 0.  0.
        5    1    3    3  502    0 -0.90485700866E+03  0.70311495846E+02 -0.47236836624E+03  0.10231636604E+04  0.46999998093E+01 0.  1.
       -5    1    3    3    0  502  0.90485700866E+03 -0.70311495846E+02  0.97295366645E+03  0.13305528323E+04  0.46999998093E+01 0. -1.
</event>
<event>
 5   0  0.3226427E-06  0.2296277E+04  0.7818609E-02  0.8479390E-01
        1   -1    0    0  501    0  0.00000000000E+00  0.00000000000E+00  0.24235093928E+04  0.24235093928E+04  0.50400001928E-02 0.  1.
       -1   -1    0    0    0  501  0.00000000000E+00  0.00000000000E+00 -0.54393114588E+03  0.54393114590E+03  0.50400001928E-02 0. -1.
    10030    2    1    2    0    0  0.00000000000E+00  0.00000000000E+00  0.18795782470E+04  0.29674405387E+04  0.22962771968E+04 0.  0.
        4    1    3    3  502    0 -0.48020840119E+03 -0.82754841273E+03  0.17599402681E+04  0.20032043940E+04  0.12699999809E+01 0.  1.
       -4    1    3    3    0  502  0.48020840119E+03  0.82754841273E+03  0.11963797890E+03  0.96423614477E+03  0.12699999809E+01 0. -1.
</event>
<event>
 5   0  0.7348107E-06  0.2292084E+04  0.7818609E-02  0.8481049E-01
        2   -1    0    0  501    0  0.00000000000E+00  0.00000000000E+00  0.23492696250E+04  0.23492696250E+04  0.25500000920E-02 0. -1.
       -2   -1    0    0    0  501  0.00000000000E+00  0.00000000000E+00 -0.55907266912E+03  0.55907266913E+03  0.25500000920E-02 0.  1.
    10030    2    1    2    0    0  0.00000000000E+00  0.00000000000E+00  0.17901969559E+04  0.29083422941E+04  0.22920841518E+04 0.  0.
        3    1    3    3  502    0 -0.89335805280E+03 -0.16201857248E+03  0.77337533333E+01  0.90796390318E+03  0.10100000352E+00 0.  1.
       -3    1    3    3    0  502  0.89335805280E+03  0.16201857248E+03  0.17824632025E+04  0.20003783909E+04  0.10100000352E+00 0. -1.
</event>
<event>
 5   0  0.2519625E-06  0.2297773E+04  0.7818609E-02  0.8478800E-01
        3   -1    0    0  501    0  0.00000000000E+00  0.00000000000E+00  0.11501963692E+04  0.11501963736E+04  0.10100000352E+00 0.  1.
       -3   -1    0    0    0  501  0.00000000000E+00  0.00000000000E+00 -0.11475780087E+04  0.11475780132E+04  0.10100000352E+00 0. -1.
    10030    2    1    2    0    0  0.00000000000E+00  0.00000000000E+00  0.26183604518E+01  0.22977743868E+04  0.22977728950E+04 0.  0.
        4    1    3    3  502    0  0.33524358474E+03  0.10585180912E+04  0.29641892079E+03  0.11492234769E+04  0.12699999809E+01 0.  1.
       -4    1    3    3    0  502 -0.33524358474E+03 -0.10585180912E+04 -0.29380056034E+03  0.11485509099E+04  0.12699999809E+01 0. -1.
</event>
<event>
 5   0  0.7497344E-06  0.2302786E+04  0.7818609E-02  0.8476823E-01
       -2   -1    0    0    0  501  0.00000000000E+00  0.00000000000E+00  0.10115755147E+04  0.10115755147E+04  0.25500000920E-02 0. -1.
        2   -1    0    0  501    0  0.00000000000E+00  0.00000000000E+00 -0.13105358935E+04  0.13105358935E+04  0.25500000920E-02 0.  1.
    10030    2    1    2    0    0  0.00000000000E+00  0.00000000000E+00 -0.29896037876E+03  0.23221114082E+04  0.23027861569E+04 0.  0.
        5    1    3    3  502    0  0.95801287748E+03 -0.59677758728E+03  0.79919085975E+02  0.11315216800E+04  0.46999998093E+01 0. -1.
       -5    1    3    3    0  502 -0.95801287748E+03  0.59677758728E+03 -0.37887946473E+03  0.11905897282E+04  0.46999998093E+01 0.  1.
</event>
<event>
 5   0  0.7044981E-06  0.2300593E+04  0.7818609E-02  0.8477687E-01
        2   -1    0    0  501    0  0.00000000000E+00  0.00000000000E+00  0.82618699043E+03  0.82618699043E+03  0.25500000920E-02 0.  1.
       -2   -1    0    0    0  501  0.00000000000E+00  0.00000000000E+00 -0.16015529411E+04  0.16015529411E+04  0.25500000920E-02 0. -1.
    10030    2    1    2    0    0  0.00000000000E+00  0.00000000000E+00 -0.77536595071E+03  0.24277399316E+04  0.23005931448E+04 0.  0.
        4    1    3    3  502    0 -0.52105178554E+03 -0.58765455654E+03 -0.12745767848E+04  0.14971240544E+04  0.12699999809E+01 0. -1.
       -4    1    3    3    0  502  0.52105178554E+03  0.58765455654E+03  0.49921083410E+03  0.93061587716E+03  0.12699999809E+01 0.  1.
</event>
<event>
 5   0  0.7242214E-06  0.2300897E+04  0.7818609E-02  0.8477567E-01
       -2   -1    0    0    0  501  0.00000000000E+00  0.00000000000E+00  0.60377519253E+03  0.60377519254E+03  0.25500000920E-02 0. -1.
        2   -1    0    0  501    0  0.00000000000E+00  0.00000000000E+00 -0.21920942873E+04  0.21920942873E+04  0.25500000920E-02 0.  1.
    10030    2    1    2    0    0  0.00000000000E+00  0.00000000000E+00 -0.15883190948E+04  0.27958694798E+04  0.23008973470E+04 0.  0.
        1    1    3    3  502    0  0.70508872309E+02 -0.81128781651E+03  0.19328840760E+03  0.83697062722E+03  0.50400001928E-02 0. -1.
       -1    1    3    3    0  502 -0.70508872309E+02  0.81128781651E+03 -0.17816075024E+04  0.19588988526E+04  0.50400001928E-02 0.  1.
</event>
<event>
 5   0  0.7242214E-06  0.2299597E+04  0.7818609E-02  0.8478080E-01
        2   -1    0    0  501    0  0.00000000000E+00  0.00000000000E+00  0.44077330258E+03  0.44077330258E+03  0.25500000920E-02 0.  1.
       -2   -1    0    0    0  501  0.00000000000E+00  0.00000000000E+00 -0.29993574944E+04  0.29993574944E+04  0.25500000920E-02 0. -1.
    10030    2    1    2    0    0  0.00000000000E+00  0.00000000000E+00 -0.25585841919E+04  0.34401307970E+04  0.22995971025E+04 0.  0.
        1    1    3    3  502    0  0.38224076912E+03  0.44418381197E+03  0.20060780644E+03  0.61939547659E+03  0.50400001928E-02 0.  1.
       -1    1    3    3    0  502 -0.38224076912E+03 -0.44418381197E+03 -0.27591919983E+04  0.28207353204E+04  0.50400001928E-02 0. -1.
</event>
<event>
 5   0  0.3195296E-06  0.2302797E+04  0.7818609E-02  0.8476819E-01
        1   -1    0    0  501    0  0.00000000000E+00  0.00000000000E+00  0.12899055250E+04  0.12899055251E+04  0.50400001928E-02 0. -1.
       -1   -1    0    0    0  501  0.00000000000E+00  0.00000000000E+00 -0.10277639191E+04  0.10277639191E+04  0.50400001928E-02 0.  1.
    10030    2    1    2    0    0  0.00000000000E+00  0.00000000000E+00  0.26214160594E+03  0.23176694442E+04  0.23027968714E+04 0.  0.
        2    1    3    3  502    0  0.10896109375E+02  0.24266406640E+03  0.12638235198E+04  0.12869555018E+04  0.25500000920E-02 0. -1.
       -2    1    3    3    0  502 -0.10896109375E+02 -0.24266406640E+03 -0.10016819139E+04  0.10307139424E+04  0.25500000920E-02 0.  1.
</event>
<event>
 5   0  0.7044981E-06  0.2294860E+04  0.7818609E-02  0.8479950E-01
       -2   -1    0    0    0  501  0.00000000000E+00  0.00000000000E+00  0.71125767589E+03  0.71125767590E+03  0.25500000920E-02 0. -1.
        2   -1    0    0  501    0  0.00000000000E+00  0.00000000000E+00 -0.18510815306E+04  0.18510815306E+04  0.25500000920E-02 0.  1.
    10030    2    1    2    0    0  0.00000000000E+00  0.00000000000E+00 -0.11398238547E+04  0.25623392065E+04  0.22948602984E+04 0.  0.
        4    1    3    3  502    0  0.54525628274E+03  0.96645923647E+03 -0.89591264644E+03  0.14261868575E+04  0.12699999809E+01 0.  1.
       -4    1    3    3    0  502 -0.54525628274E+03 -0.96645923647E+03 -0.24391120823E+03  0.11361523489E+04  0.12699999809E+01 0. -1.
</event>
<event>
 5   0  0.3338758E-06  0.2295788E+04  0.7818609E-02  0.8479584E-01
        1   -1    0    0  501    0  0.00000000000E+00  0.00000000000E+00  0.16483306862E+04  0.16483306862E+04  0.50400001928E-02 0. -1.
       -1   -1    0    0    0  501  0.00000000000E+00  0.00000000000E+00 -0.79939111720E+03  0.79939111721E+03  0.50400001928E-02 0.  1.
    10030    2    1    2    0    0  0.00000000000E+00  0.00000000000E+00  0.84893956898E+03  0.24477218034E+04  0.22957882383E+04 0.  0.
        5    1    3    3  502    0  0.79679925401E+03 -0.82251883246E+03  0.34043390438E+03  0.11947148673E+04  0.46999998093E+01 0. -1.
       -5    1    3    3    0  502 -0.79679925401E+03  0.82251883246E+03  0.50850566460E+03  0.12530069361E+04  0.46999998093E+01 0.  1.
</event>
<event>
 5   0  0.3238713E-06  0.2298171E+04  0.7818609E-02  0.8478643E-01
       -1   -1    0    0    0  501  0.00000000000E+00  0.00000000000E+00  0.11988219527E+04  0.11988219527E+04  0.50400001928E-02 0.  1.
        1   -1    0    0  501    0  0.00000000000E+00  0.00000000000E+00 -0.11014126105E+04  0.11014126105E+04  0.50400001928E-02 0. -1.
    10030    2    1    2    0    0  0.00000000000E+00  0.00000000000E+00  0.97409342184E+02  0.23002345632E+04  0.22981711133E+04 0.  0.
        3    1    3    3  502    0  0.64393692502E+03 -0.46075677312E+03  0.88218642933E+03  0.11854132080E+04  0.10100000352E+00 0.  1.
       -3    1    3    3    0  502 -0.64393692502E+03  0.46075677312E+03 -0.78477708715E+03  0.11148213552E+04  0.10100000352E+00 0. -1.
</event>
<event>
 5   0  0.7044981E-06  0.2300562E+04  0.7818609E-02  0.8477699E-01
       -2   -1    0    0    0  501  0.00000000000E+00  0.00000000000E+00  0.23907947043E+04  0.23907947043E+04  0.25500000920E-02 0.  1.
        2   -1    0    0  501    0  0.00000000000E+00  0.00000000000E+00 -0.55343380546E+03  0.55343380546E+03  0.25500000920E-02 0. -1.
    10030    2    1    2    0    0  0.00000000000E+00  0.00000000000E+00  0.18373608988E+04  0.29442285097E+04  0.23005622020E+04 0.  0.
        4    1    3    3  502    0  0.59379691363E+03  0.27174790297E+03 -0.29320596777E+03  0.71583032196E+03  0.12699999809E+01 0. -1.
       -4    1    3    3    0  502 -0.59379691363E+03 -0.27174790297E+03  0.21305668666E+04  0.22283981878E+04  0.12699999809E+01 0.  1.
</event>
<event>
 5   0  0.3226427E-06  0.2304584E+04  0.7818609E-02  0.8476116E-01
       -1   -1    0    0    0  501  0.00000000000E+00  0.00000000000E+00  0.12060345195E+04  0.12060345195E+04  0.50400001928E-02 0.  1.
        1   -1    0    0  501    0  0.00000000000E+00  0.00000000000E+00 -0.11009441279E+04  0.11009441279E+04  0.50400001928E-02 0. -1.
    10030    2    1    2    0    0  0.00000000000E+00  0.00000000000E+00  0.10509039159E+03  0.23069786474E+04  0.23045837996E+04 0.  0.
        4    1    3    3  502    0 -0.52993808504E+03 -0.46137320347E+03 -0.86168113879E+03  0.11118433364E+04  0.12699999809E+01 0. -1.
       -4    1    3    3    0  502  0.52993808504E+03  0.46137320347E+03  0.96677153038E+03  0.11951353110E+04  0.12699999809E+01 0.  1.
</event>
<event>
 5   0  0.7242214E-06  0.2303540E+04  0.7818609E-02  0.8476527E-01
        2   -1    0    0  501    0  0.00000000000E+00  0.00000000000E+00  0.19244316405E+04  0.19244316405E+04  0.25500000920E-02 0.  1.
       -2   -1    0    0    0  501  0.00000000000E+00  0.00000000000E+00 -0.68933292039E+03  0.68933292040E+03  0.25500000920E-02 0. -1.
    10030    2    1    2    0    0  0.00000000000E+00  0.00000000000E+00  0.12350987202E+04  0.26137645609E+04  0.23035399566E+04 0.  0.
        1    1    3    3  502    0  0.64828253691E+03  0.40546350060E+03 -0.35978762317E+03  0.84505504660E+03  0.50400001928E-02 0. -1.
       -1    1    3    3    0  502 -0.64828253691E+03 -0.40546350060E+03  0.15948863433E+04  0.17687095143E+04  0.50400001928E-02 0.  1.
</event>
<event>
 5   0  0.7348107E-06  0.2297561E+04  0.7818609E-02  0.8478883E-01
        2   -1    0    0  501    0  0.00000000000E+00  0.00000000000E+00  0.21853090925E+04  0.21853090925E+04  0.25500000920E-02 0. -1.
       -2   -1    0    0    0  501  0.00000000000E+00  0.00000000000E+00 -0.60389471658E+03  0.60389471659E+03  0.25500000920E-02 0.  1.
    10030    2    1    2    0    0  0.00000000000E+00  0.00000000000E+00  0.15814143759E+04  0.27892038091E+04  0.22975609807E+04 0.  0.
        3    1    3    3  502    0 -0.72599769546E+03  0.84319384855E+03  0.11375927336E+04  0.15912780266E+04  0.10100000352E+00 0. -1.
       -3    1    3    3    0  502  0.72599769546E+03 -0.84319384855E+03  0.44382164229E+03  0.11979257825E+04  0.10100000352E+00 0.  1.
</event>
<event>
 5   0  0.7348107E-06  0.2352061E+04  0.7818609E-02  0.8457673E-01
       -2   -1    0    0    0  501  0.00000000000E+00  0.00000000000E+00  0.81773618142E+03  0.81773618142E+03  0.25500000920E-02 0.  1.
        2   -1    0    0  501    0  0.00000000000E+00  0.00000000000E+00 -0.16913123251E+04  0.16913123251E+04  0.25500000920E-02 0. -1.
    10030    2    1    2    0    0  0.00000000000E+00  0.00000000000E+00 -0.87357614369E+03  0.25090485065E+04  0.23520606134E+04 0.  0.
        3    1    3    3  502    0 -0.99197256646E+03  0.25073672014E+02  0.23653752380E+03  0.10200922860E+04  0.10100000352E+00 0.  1.
       -3    1    3    3    0  502  0.99197256646E+03 -0.25073672014E+02 -0.11101136675E+04  0.14889562205E+04  0.10100000352E+00 0. -1.
</event>
<event>
 5   0  0.3195296E-06  0.2302623E+04  0.7818609E-02  0.8476887E-01
       -1   -1    0    0    0  501  0.00000000000E+00  0.00000000000E+00  0.95444998431E+03  0.95444998432E+03  0.50400001928E-02 0. -1.
        1   -1    0    0  501    0  0.00000000000E+00  0.00000000000E+00 -0.13887773589E+04  0.13887773589E+04  0.50400001928E-02 0.  1.
    10030    2    1    2    0    0  0.00000000000E+00  0.00000000000E+00 -0.43432737457E+03  0.23432273432E+04  0.23026233113E+04 0.  0.
        2    1    3    3  502    0 -0.43001033132E+03 -0.97849596034E+03 -0.65267683798E+03  0.12523379274E+04  0.25500000920E-02 0. -1.
       -2    1    3    3    0  502  0.43001033132E+03  0.97849596034E+03  0.21834946341E+03  0.10908894159E+04  0.25500000920E-02 0.  1.
</event>
<event>
 5   0  0.7497344E-06  0.2296745E+04  0.7818609E-02  0.8479206E-01
       -2   -1    0    0    0  501  0.00000000000E+00  0.00000000000E+00  0.53239708863E+03  0.53239708864E+03  0.25500000920E-02 0.  1.
        2   -1    0    0  501    0  0.00000000000E+00  0.00000000000E+00 -0.24770214301E+04  0.24770214301E+04  0.25500000920E-02 0. -1.
    10030    2    1    2    0    0  0.00000000000E+00  0.00000000000E+00 -0.19446243415E+04  0.30094185187E+04  0.22967446509E+04 0.  0.
        5    1    3    3  502    0 -0.10632767912E+04  0.25923720162E+03 -0.14280535817E+04  0.17991999843E+04  0.46999998093E+01 0. -1.
       -5    1    3    3    0  502  0.10632767912E+04 -0.25923720162E+03 -0.51657075981E+03  0.12102185345E+04  0.46999998093E+01 0.  1.
</event>
<event>
 5   0  0.7497344E-06  0.2317842E+04  0.7818609E-02  0.8470919E-01
        2   -1    0    0  501    0  0.00000000000E+00  0.00000000000E+00  0.26786897443E+04  0.26786897443E+04  0.25500000920E-02 0. -1.
       -2   -1    0    0    0  501  0.00000000000E+00  0.00000000000E+00 -0.50140111483E+03  0.50140111483E+03  0.25500000920E-02 0.  1.
    10030    2    1    2    0    0  0.00000000000E+00  0.00000000000E+00  0.21772886295E+04  0.31800908591E+04  0.23178421207E+04 0.  0.
        5    1    3    3  502    0  0.37030151388E+02  0.73266850169E+03  0.23195564820E+04  0.24328047042E+04  0.46999998093E+01 0. -1.
       -5    1    3    3    0  502 -0.37030151388E+02 -0.73266850169E+03 -0.14226785256E+03  0.74728615493E+03  0.46999998093E+01 0.  1.
</event>
<event>
 5   0  0.7044981E-06  0.2327279E+04  0.7818609E-02  0.8467242E-01
       -2   -1    0    0    0  501  0.00000000000E+00  0.00000000000E+00  0.57627491704E+03  0.57627491704E+03  0.25500000920E-02 0. -1.
        2   -1    0    0  501    0  0.00000000000E+00  0.00000000000E+00 -0.23496725828E+04  0.23496725828E+04  0.25500000920E-02 0.  1.
    10030    2    1    2    0    0  0.00000000000E+00  0.00000000000E+00 -0.17733976658E+04  0.29259474998E+04  0.23272794183E+04 0.  0.
        4    1    3    3  502    0  0.93772680160E+03  0.15266185211E+03 -0.41988691682E+02  0.95100045145E+03  0.12699999809E+01 0. -1.
       -4    1    3    3    0  502 -0.93772680160E+03 -0.15266185211E+03 -0.17314089741E+04  0.19749470484E+04  0.12699999809E+01 0.  1.
</event>
<event>
 5   0  0.7044981E-06  0.2289366E+04  0.7818609E-02  0.8482126E-01
       -2   -1    0    0    0  501  0.00000000000E+00  0.00000000000E+00  0.16249981163E+04  0.16249981163E+04  0.25500000920E-02 0.  1.
        2   -1    0    0  501    0  0.00000000000E+00  0.00000000000E+00 -0.80633854770E+03  0.80633854771E+03  0.25500000920E-02 0. -1.
    10030    2    1    2    0    0  0.00000000000E+00  0.00000000000E+00  0.81865956862E+03  0.24313366640E+04  0.22893655201E+04 0.  0.
        4    1    3    3  502    0  0.11520067466E+03 -0.58825825458E+03  0.14449850208E+04  0.15643855959E+04  0.12699999809E+01 0.  1.
       -4    1    3    3    0  502 -0.11520067466E+03  0.58825825458E+03 -0.62632545218E+03  0.86695106810E+03  0.12699999809E+01 0. -1.
</event>
<event>
 5   0  0.3195296E-06  0.2300064E+04  0.7818609E-02  0.8477896E-01
        1   -1    0    0  501    0  0.00000000000E+00  0.00000000000E+00  0.14210520562E+04  0.14210520562E+04  0.50400001928E-02 0.  1.
       -1   -1    0    0    0  501  0.00000000000E+00  0.00000000000E+00 -0.93070020137E+03  0.93070020138E+03  0.50400001928E-02 0. -1.
    10030    2    1    2    0    0  0.00000000000E+00  0.00000000000E+00  0.49035185485E+03  0.23517522576E+04  0.23000638556E+04 0.  0.
        2    1    3    3  502    0 -0.44334862527E+03 -0.63089469585E+03  0.11175717594E+04  0.13577749292E+04  0.25500000920E-02 0.  1.
       -2    1    3    3    0  502  0.44334862527E+03  0.63089469585E+03 -0.62721990458E+03  0.99397732846E+03  0.25500000920E-02 0. -1.
</event>
<event>
 5   0  0.7348107E-06  0.2284849E+04  0.7818609E-02  0.8483919E-01
       -2   -1    0    0    0  501  0.00000000000E+00  0.00000000000E+00  0.91160108464E+03  0.91160108464E+03  0.25500000920E-02 0. -1.
        2   -1    0    0  501    0  0.00000000000E+00  0.00000000000E+00 -0.14316943343E+04  0.14316943343E+04  0.25500000920E-02 0.  1.
    10030    2    1    2    0    0  0.00000000000E+00  0.00000000000E+00 -0.52009324966E+03  0.23432954189E+04  0.22848493237E+04 0.  0.
        3    1    3    3  502    0  0.86864396455E+03  0.66767295199E+03  0.71969846394E+02  0.10979568193E+04  0.10100000352E+00 0. -1.
       -3    1    3    3    0  502 -0.86864396455E+03 -0.66767295199E+03 -0.59206309605E+03  0.12453385997E+04  0.10100000352E+00 0.  1.
</event>
<event>
 5   0  0.3226427E-06  0.2296647E+04  0.7818609E-02  0.8479244E-01
       -1   -1    0    0    0  501  0.00000000000E+00  0.00000000000E+00  0.83605259420E+03  0.83605259421E+03  0.50400001928E-02 0. -1.
        1   -1    0    0  501    0  0.00000000000E+00  0.00000000000E+00 -0.15772300228E+04  0.15772300228E+04  0.50400001928E-02 0.  1.
    10030    2    1    2    0    0  0.00000000000E+00  0.00000000000E+00 -0.74117742863E+03  0.24132826170E+04  0.22966473410E+04 0.  0.
        4    1    3    3  502    0  0.81655868825E+03 -0.54168727502E+03 -0.99970314170E+03  0.13998575569E+04  0.12699999809E+01 0.  1.
       -4    1    3    3    0  502 -0.81655868825E+03  0.54168727502E+03  0.25852571307E+03  0.10134250601E+04  0.12699999809E+01 0. -1.
</event>
<event>
 5   0  0.7242214E-06  0.2300996E+04  0.7818609E-02  0.8477528E-01
        2   -1    0    0  501    0  0.00000000000E+00  0.00000000000E+00  0.13620927741E+04  0.13620927741E+04  0.25500000920E-02 0.  1.
       -2   -1    0    0    0  501  0.00000000000E+00  0.00000000000E+00 -0.97177380336E+03  0.97177380337E+03  0.25500000920E-02 0. -1.
    10030    2    1    2    0    0  0.00000000000E+00  0.00000000000E+00  0.39031897072E+03  0.23338665775E+04  0.23009963717E+04 0.  0.
        1    1    3    3  502    0 -0.81997263241E+03 -0.44701876471E+03  0.87666946809E+03  0.12809099306E+04  0.50400001928E-02 0.  1.
       -1    1    3    3    0  502  0.81997263241E+03  0.44701876471E+03 -0.48635049737E+03  0.10529566469E+04  0.50400001928E-02 0. -1.
</event>
<event>
 5   0  0.7003852E-06  0.2243101E+04  0.7818609E-02  0.8500700E-01
        2   -1    0    0  501    0  0.00000000000E+00  0.00000000000E+00  0.24541101677E+04  0.24541101677E+04  0.25500000920E-02 0. -1.
       -2   -1    0    0    0  501  0.00000000000E+00  0.00000000000E+00 -0.51255876125E+03  0.51255876125E+03  0.25500000920E-02 0.  1.
    10030    2    1    2    0    0  0.00000000000E+00  0.00000000000E+00  0.19415514065E+04  0.29666689290E+04  0.22431011279E+04 0.  0.
        2    1    3    3  502    0 -0.12268209258E+03  0.32255373948E+03 -0.44059429197E+03  0.55965627024E+03  0.25500000920E-02 0.  1.
       -2    1    3    3    0  502  0.12268209258E+03 -0.32255373948E+03  0.23821456984E+04  0.24070126587E+04  0.25500000920E-02 0. -1.
</event>
<event>
 5   0  0.3226427E-06  0.2297969E+04  0.7818609E-02  0.8478722E-01
        1   -1    0    0  501    0  0.00000000000E+00  0.00000000000E+00  0.27557376912E+04  0.27557376912E+04  0.50400001928E-02 0. -1.
       -1   -1    0    0    0  501  0.00000000000E+00  0.00000000000E+00 -0.47906064409E+03  0.47906064412E+03  0.50400001928E-02 0.  1.
    10030    2    1    2    0    0  0.00000000000E+00  0.00000000000E+00  0.22766770471E+04  0.32347983353E+04  0.22979690802E+04 0.  0.
        4    1    3    3  502    0  0.20629285330E+03 -0.89547270553E+03  0.21092640643E+04  0.23007443607E+04  0.12699999809E+01 0. -1.
       -4    1    3    3    0  502 -0.20629285330E+03  0.89547270553E+03  0.16741298279E+03  0.93405397456E+03  0.12699999809E+01 0.  1.
</event>
<event>
 5   0  0.3195296E-06  0.2301927E+04  0.7818609E-02  0.8477162E-01
        1   -1    0    0  501    0  0.00000000000E+00  0.00000000000E+00  0.14073934372E+04  0.14073934373E+04  0.50400001928E-02 0.  1.
       -1   -1    0    0    0  501  0.00000000000E+00  0.00000000000E+00 -0.94125570386E+03  0.94125570387E+03  0.50400001928E-02 0. -1.
    10030    2    1    2    0    0  0.00000000000E+00  0.00000000000E+00  0.46613773339E+03  0.23486491411E+04  0.23019271061E+04 0.  0.
        2    1    3    3  502    0 -0.69507277400E+03 -0.80666007490E+02 -0.69930832465E+03  0.98927513809E+03  0.25500000920E-02 0. -1.
       -2    1    3    3    0  502  0.69507277400E+03  0.80666007490E+02  0.11654460580E+04  0.13593740030E+04  0.25500000920E-02 0.  1.
</event>
<event>
 5   0  0.7044981E-06  0.2303238E+04  0.7818609E-02  0.8476646E-01
       -2   -1    0    0    0  501  0.00000000000E+00  0.00000000000E+00  0.98704121592E+03  0.98704121592E+03  0.25500000920E-02 0. -1.
        2   -1    0    0  501    0  0.00000000000E+00  0.00000000000E+00 -0.13436377413E+04  0.13436377413E+04  0.25500000920E-02 0.  1.
    10030    2    1    2    0    0  0.00000000000E+00  0.00000000000E+00 -0.35659652535E+03  0.23306789572E+04  0.23032375734E+04 0.  0.
        4    1    3    3  502    0 -0.15267326455E+03  0.68325996675E+02 -0.13312797220E+04  0.13417469503E+04  0.12699999809E+01 0.  1.
       -4    1    3    3    0  502  0.15267326455E+03 -0.68325996675E+02  0.97468319665E+03  0.98893200689E+03  0.12699999809E+01 0. -1.
</event>
<event>
 5   0  0.7044981E-06  0.2301309E+04  0.7818609E-02  0.8477405E-01
       -2   -1    0    0    0  501  0.00000000000E+00  0.00000000000E+00  0.17207968103E+04  0.17207968103E+04  0.25500000920E-02 0. -1.
        2   -1    0    0  501    0  0.00000000000E+00  0.00000000000E+00 -0.76941449515E+03  0.76941449515E+03  0.25500000920E-02 0.  1.
    10030    2    1    2    0    0  0.00000000000E+00  0.00000000000E+00  0.95138231515E+03  0.24902113055E+04  0.23013092005E+04 0.  0.
        4    1    3    3  502    0  0.40528439773E+03  0.77695527759E+03  0.12826168704E+04  0.15533906770E+04  0.12699999809E+01 0. -1.
       -4    1    3    3    0  502 -0.40528439773E+03 -0.77695527759E+03 -0.33123455520E+03  0.93682062844E+03  0.12699999809E+01 0.  1.
</event>
<event>
 5   0  0.3226427E-06  0.2296164E+04  0.7818609E-02  0.8479435E-01
        1   -1    0    0  501    0  0.00000000000E+00  0.00000000000E+00  0.21357741676E+04  0.21357741676E+04  0.50400001928E-02 0.  1.
       -1   -1    0    0    0  501  0.00000000000E+00  0.00000000000E+00 -0.61714947434E+03  0.61714947437E+03  0.50400001928E-02 0. -1.
    10030    2    1    2    0    0  0.00000000000E+00  0.00000000000E+00  0.15186246933E+04  0.27529236420E+04  0.22961636744E+04 0.  0.
        4    1    3    3  502    0 -0.48007369316E+03 -0.86041550095E+03  0.14658684594E+04  0.17662269215E+04  0.12699999809E+01 0.  1.
       -4    1    3    3    0  502  0.48007369316E+03  0.86041550095E+03  0.52756233917E+02  0.98669672051E+03  0.12699999809E+01 0. -1.
</event>
<event>
 5   0  0.3195296E-06  0.2301063E+04  0.7818609E-02  0.8477502E-01
       -1   -1    0    0    0  501  0.00000000000E+00  0.00000000000E+00  0.11697921317E+04  0.11697921317E+04  0.50400001928E-02 0.  1.
        1   -1    0    0  501    0  0.00000000000E+00  0.00000000000E+00 -0.11315877058E+04  0.11315877058E+04  0.50400001928E-02 0. -1.
    10030    2    1    2    0    0  0.00000000000E+00  0.00000000000E+00  0.38204425871E+02  0.23013798375E+04  0.23010627063E+04 0.  0.
        2    1    3    3  502    0  0.10167140356E+04  0.42768595032E+03  0.34640820927E+03  0.11561234145E+04  0.25500000920E-02 0.  1.
       -2    1    3    3    0  502 -0.10167140356E+04 -0.42768595032E+03 -0.30820378340E+03  0.11452564230E+04  0.25500000920E-02 0. -1.
</event>
<event>
 5   0  0.7497344E-06  0.2292141E+04  0.7818609E-02  0.8481026E-01
        2   -1    0    0  501    0  0.00000000000E+00  0.00000000000E+00  0.10736808724E+04  0.10736808724E+04  0.25500000920E-02 0. -1.
       -2   -1    0    0    0  501  0.00000000000E+00  0.00000000000E+00 -0.12233403973E+04  0.12233403973E+04  0.25500000920E-02 0.  1.
    10030    2    1    2    0    0  0.00000000000E+00  0.00000000000E+00 -0.14965952491E+03  0.22970212698E+04  0.22921406459E+04 0.  0.
        5    1    3    3  502    0  0.34887507645E+02  0.75499340629E+03  0.78852826805E+03  0.10922596309E+04  0.46999998093E+01 0. -1.
       -5    1    3    3    0  502 -0.34887507645E+02 -0.75499340629E+03 -0.93818779296E+03  0.12047616389E+04  0.46999998093E+01 0.  1.
</event>
<event>
 5   0  0.7497344E-06  0.2304536E+04  0.7818609E-02  0.8476135E-01
        2   -1    0    0  501    0  0.00000000000E+00  0.00000000000E+00  0.20833103722E+04  0.20833103722E+04  0.25500000920E-02 0. -1.
       -2   -1    0    0    0  501  0.00000000000E+00  0.00000000000E+00 -0.63731340975E+03  0.63731340976E+03  0.25500000920E-02 0.  1.
    10030    2    1    2    0    0  0.00000000000E+00  0.00000000000E+00  0.14459969625E+04  0.27206237820E+04  0.23045360808E+04 0.  0.
        5    1    3    3  502    0 -0.65953043827E+03 -0.32602860284E+03  0.17699184775E+04  0.19167442594E+04  0.46999998093E+01 0. -1.
       -5    1    3    3    0  502  0.65953043827E+03  0.32602860284E+03 -0.32392151507E+03  0.80387952256E+03  0.46999998093E+01 0.  1.
</event>
<event>
 5   0  0.3338758E-06  0.2294497E+04  0.7818609E-02  0.8480094E-01
       -1   -1    0    0    0  501  0.00000000000E+00  0.00000000000E+00  0.23919647855E+04  0.23919647855E+04  0.50400001928E-02 0. -1.
        1   -1    0    0  501    0  0.00000000000E+00  0.00000000000E+00 -0.55025006800E+03  0.55025006802E+03  0.50400001928E-02 0.  1.
    10030    2    1    2    0    0  0.00000000000E+00  0.00000000000E+00  0.18417147175E+04  0.29422148536E+04  0.22944967082E+04 0.  0.
        5    1    3    3  502    0  0.63478446375E+03  0.55674945701E+03  0.19167909086E+04  0.20945239914E+04  0.46999998093E+01 0. -1.
       -5    1    3    3    0  502 -0.63478446375E+03 -0.55674945701E+03 -0.75076191065E+02  0.84769086215E+03  0.46999998093E+01 0.  1.
</event>
<event>
 5   0  0.7003852E-06  0.2297713E+04  0.7818609E-02  0.8478823E-01
       -2   -1    0    0    0  501  0.00000000000E+00  0.00000000000E+00  0.93327424542E+03  0.93327424542E+03  0.25500000920E-02 0. -1.
        2   -1    0    0  501    0  0.00000000000E+00  0.00000000000E+00 -0.14142374657E+04  0.14142374657E+04  0.25500000920E-02 0.  1.
    10030    2    1    2    0    0  0.00000000000E+00  0.00000000000E+00 -0.48096322033E+03  0.23475117112E+04  0.22977131272E+04 0.  0.
        2    1    3    3  502    0 -0.84847522674E+03 -0.61814087328E+03 -0.71735573227E+03  0.12714588457E+04  0.25500000920E-02 0. -1.
       -2    1    3    3    0  502  0.84847522674E+03  0.61814087328E+03  0.23639251194E+03  0.10760528655E+04  0.25500000920E-02 0.  1.
</event>
<event>
 5   0  0.3226427E-06  0.2299071E+04  0.7818609E-02  0.8478288E-01
        1   -1    0    0  501    0  0.00000000000E+00  0.00000000000E+00  0.20168283783E+04  0.20168283783E+04  0.50400001928E-02 0. -1.
       -1   -1    0    0    0  501  0.00000000000E+00  0.00000000000E+00 -0.65520276096E+03  0.65520276098E+03  0.50400001928E-02 0.  1.
    10030    2    1    2    0    0  0.00000000000E+00  0.00000000000E+00  0.13616256173E+04  0.26720311393E+04  0.22990707008E+04 0.  0.
        4    1    3    3  502    0  0.10982194902E+01  0.26212154889E+03 -0.62000467798E+03  0.67313915804E+03  0.12699999809E+01 0.  1.
       -4    1    3    3    0  502 -0.10982194902E+01 -0.26212154889E+03  0.19816302953E+04  0.19988919812E+04  0.12699999809E+01 0. -1.
</event>
<event>
 5   0  0.7348107E-06  0.2302194E+04  0.7818609E-02  0.8477056E-01
       -2   -1    0    0    0  501  0.00000000000E+00  0.00000000000E+00  0.90536838422E+03  0.90536838422E+03  0.25500000920E-02 0.  1.
        2   -1    0    0  501    0  0.00000000000E+00  0.00000000000E+00 -0.14635197261E+04  0.14635197261E+04  0.25500000920E-02 0. -1.
    10030    2    1    2    0    0  0.00000000000E+00  0.00000000000E+00 -0.55815134184E+03  0.23688881103E+04  0.23021941618E+04 0.  0.
        3    1    3    3  502    0 -0.68296855557E+03 -0.13823105839E+03  0.66369344466E+03  0.96231121374E+03  0.10100000352E+00 0.  1.
       -3    1    3    3    0  502  0.68296855557E+03  0.13823105839E+03 -0.12218447865E+04  0.14065768966E+04  0.10100000352E+00 0. -1.
</event>
<event>
 5   0  0.2519625E-06  0.2297708E+04  0.7818609E-02  0.8478825E-01
        4   -1    0    0  501    0  0.00000000000E+00  0.00000000000E+00  0.11653417826E+04  0.11653424746E+04  0.12699999809E+01 0. -1.
       -4   -1    0    0    0  501  0.00000000000E+00  0.00000000000E+00 -0.11325978432E+04  0.11325985552E+04  0.12699999809E+01 0.  1.
    10030    2    1    2    0    0  0.00000000000E+00  0.00000000000E+00  0.32743939400E+02  0.22979410298E+04  0.22977077296E+04 0.  0.
        2    1    3    3  502    0  0.10288193650E+04  0.26335189991E+03  0.45464208512E+03  0.11552155359E+04  0.25500000920E-02 0.  1.
       -2    1    3    3    0  502 -0.10288193650E+04 -0.26335189991E+03 -0.42189814572E+03  0.11427254938E+04  0.25500000920E-02 0. -1.
</event>
<event>
 5   0  0.7003852E-06  0.2298344E+04  0.7818609E-02  0.8478574E-01
       -2   -1    0    0    0  501  0.00000000000E+00  0.00000000000E+00  0.72733467598E+03  0.72733467598E+03  0.25500000920E-02 0.  1.
        2   -1    0    0  501    0  0.00000000000E+00  0.00000000000E+00 -0.18156654901E+04  0.18156654901E+04  0.25500000920E-02 0. -1.
    10030    2    1    2    0    0  0.00000000000E+00  0.00000000000E+00 -0.10883308141E+04  0.25430001661E+04  0.22983441613E+04 0.  0.
        2    1    3    3  502    0  0.52682641303E+03  0.35662043157E+03  0.51471955716E+03  0.81832782197E+03  0.25500000920E-02 0.  1.
       -2    1    3    3    0  502 -0.52682641303E+03 -0.35662043157E+03 -0.16030503713E+04  0.17246723441E+04  0.25500000920E-02 0. -1.
</event>
<event>
 5   0  0.3238713E-06  0.2292065E+04  0.7818609E-02  0.8481056E-01
       -1   -1    0    0    0  501  0.00000000000E+00  0.00000000000E+00  0.78118108534E+03  0.78118108536E+03  0.50400001928E-02 0. -1.
        1   -1    0    0  501    0  0.00000000000E+00  0.00000000000E+00 -0.16812875849E+04  0.16812875849E+04  0.50400001928E-02 0.  1.
    10030    2    1    2    0    0  0.00000000000E+00  0.00000000000E+00 -0.90010649957E+03  0.24624686703E+04  0.22920646242E+04 0.  0.
        3    1    3    3  502    0  0.47898119830E+02 -0.10711381219E+04 -0.15296463064E+02  0.10723176292E+04  0.10100000352E+00 0. -1.
       -3    1    3    3    0  502 -0.47898119830E+02  0.10711381219E+04 -0.88481003650E+03  0.13901510410E+04  0.10100000352E+00 0.  1.
</event>
<event>
 5   0  0.7003852E-06  0.2300549E+04  0.7818609E-02  0.8477705E-01
       -2   -1    0    0    0  501  0.00000000000E+00  0.00000000000E+00  0.98246135324E+03  0.98246135324E+03  0.25500000920E-02 0. -1.
        2   -1    0    0  501    0  0.00000000000E+00  0.00000000000E+00 -0.13467516923E+04  0.13467516923E+04  0.25500000920E-02 0.  1.
    10030    2    1    2    0    0  0.00000000000E+00  0.00000000000E+00 -0.36429033909E+03  0.23292130456E+04  0.23005490563E+04 0.  0.
        2    1    3    3  502    0  0.10482225807E+04 -0.38004179797E+03  0.10409481127E+03  0.11198384154E+04  0.25500000920E-02 0. -1.
       -2    1    3    3    0  502 -0.10482225807E+04  0.38004179797E+03 -0.46838515036E+03  0.12093746301E+04  0.25500000920E-02 0.  1.
</event>
<event>
 5   0  0.3338758E-06  0.2301404E+04  0.7818609E-02  0.8477368E-01
        1   -1    0    0  501    0  0.00000000000E+00  0.00000000000E+00  0.17022147534E+04  0.17022147534E+04  0.50400001928E-02 0. -1.
       -1   -1    0    0    0  501  0.00000000000E+00  0.00000000000E+00 -0.77787797207E+03  0.77787797209E+03  0.50400001928E-02 0.  1.
    10030    2    1    2    0    0  0.00000000000E+00  0.00000000000E+00  0.92433678135E+03  0.24800927255E+04  0.23014042326E+04 0.  0.
        5    1    3    3  502    0 -0.92429869560E+03 -0.16381752218E+03 -0.25503457123E+03  0.97274301939E+03  0.46999998093E+01 0. -1.
       -5    1    3    3    0  502  0.92429869560E+03  0.16381752218E+03  0.11793713526E+04  0.15073497061E+04  0.46999998093E+01 0.  1.
</event>
<event>
 5   0  0.3226427E-06  0.2300983E+04  0.7818609E-02  0.8477534E-01
       -1   -1    0    0    0  501  0.00000000000E+00  0.00000000000E+00  0.10432216512E+04  0.10432216512E+04  0.50400001928E-02 0. -1.
        1   -1    0    0  501    0  0.00000000000E+00  0.00000000000E+00 -0.12687912261E+04  0.12687912261E+04  0.50400001928E-02 0.  1.
    10030    2    1    2    0    0  0.00000000000E+00  0.00000000000E+00 -0.22556957487E+03  0.23120128774E+04  0.23009828144E+04 0.  0.
        4    1    3    3  502    0  0.75580675380E+03 -0.95552671036E+02 -0.97903969224E+03  0.12405218635E+04  0.12699999809E+01 0.  1.
       -4    1    3    3    0  502 -0.75580675380E+03  0.95552671036E+02  0.75347011737E+03  0.10714910138E+04  0.12699999809E+01 0. -1.
</event>
<event>
 5   0  0.7348107E-06  0.2229596E+04  0.7818609E-02  0.8506210E-01
       -2   -1    0    0    0  501  0.00000000000E+00  0.00000000000E+00  0.81237744079E+03  0.81237744079E+03  0.25500000920E-02 0. -1.
        2   -1    0    0  501    0  0.00000000000E+00  0.00000000000E+00 -0.15297995629E+04  0.15297995630E+04  0.25500000920E-02 0.  1.
    10030    2    1    2    0    0  0.00000000000E+00  0.00000000000E+00 -0.71742212216E+03  0.23421770037E+04  0.22295960655E+04 0.  0.
        3    1    3    3  502    0  0.32824478420E+03  0.82910615795E+03 -0.10615322742E+04  0.13863666322E+04  0.10100000352E+00 0.  1.
       -3    1    3    3    0  502 -0.32824478420E+03 -0.82910615795E+03  0.34411015199E+03  0.95581037158E+03  0.10100000352E+00 0. -1.
</event>
<event>
 5   0  0.3238713E-06  0.2297957E+04  0.7818609E-02  0.8478727E-01
       -1   -1    0    0    0  501  0.00000000000E+00  0.00000000000E+00  0.11044178784E+04  0.11044178784E+04  0.50400001928E-02 0.  1.
        1   -1    0    0  501    0  0.00000000000E+00  0.00000000000E+00 -0.11953367731E+04  0.11953367731E+04  0.50400001928E-02 0. -1.
    10030    2    1    2    0    0  0.00000000000E+00  0.00000000000E+00 -0.90918894694E+02  0.22997546515E+04  0.22979567472E+04 0.  0.
        3    1    3    3  502    0  0.57984414448E+02  0.71297505610E+03  0.85438566387E+03  0.11143026949E+04  0.10100000352E+00 0.  1.
       -3    1    3    3    0  502 -0.57984414448E+02 -0.71297505610E+03 -0.94530455857E+03  0.11854519567E+04  0.10100000352E+00 0. -1.
</event>
<event>
 5   0  0.3195296E-06  0.2305600E+04  0.7818609E-02  0.8475716E-01
       -1   -1    0    0    0  501  0.00000000000E+00  0.00000000000E+00  0.61840706085E+03  0.61840706087E+03  0.50400001928E-02 0.  1.
        1   -1    0    0  501    0  0.00000000000E+00  0.00000000000E+00 -0.21489851162E+04  0.21489851162E+04  0.50400001928E-02 0. -1.
    10030    2    1    2    0    0  0.00000000000E+00  0.00000000000E+00 -0.15305780553E+04  0.27673921770E+04  0.23055997654E+04 0.  0.
        2    1    3    3  502    0 -0.40283692158E+03  0.54311293207E+03 -0.18859387708E+04  0.20035005090E+04  0.25500000920E-02 0. -1.
       -2    1    3    3    0  502  0.40283692158E+03 -0.54311293207E+03  0.35536071549E+03  0.76389166803E+03  0.25500000920E-02 0.  1.
</event>
<event>
 5   0  0.3195296E-06  0.2300773E+04  0.7818609E-02  0.8477616E-01
        1   -1    0    0  501    0  0.00000000000E+00  0.00000000000E+00  0.10712018677E+04  0.10712018677E+04  0.50400001928E-02 0. -1.
       -1   -1    0    0    0  501  0.00000000000E+00  0.00000000000E+00 -0.12354247143E+04  0.12354247143E+04  0.50400001928E-02 0.  1.
    10030    2    1    2    0    0  0.00000000000E+00  0.00000000000E+00 -0.16422284668E+03  0.23066265820E+04  0.23007731408E+04 0.  0.
        2    1    3    3  502    0  0.88451623265E+03 -0.60957745168E+03  0.33056139077E+03  0.11239325907E+04  0.25500000920E-02 0. -1.
       -2    1    3    3    0  502 -0.88451623265E+03  0.60957745168E+03 -0.49478423745E+03  0.11826939913E+04  0.25500000920E-02 0.  1.
</event>
<event>
 5   0  0.7044981E-06  0.2297802E+04  0.7818609E-02  0.8478788E-01
       -2   -1    0    0    0  501  0.00000000000E+00  0.00000000000E+00  0.14067723153E+04  0.14067723153E+04  0.25500000920E-02 0.  1.
        2   -1    0    0  501    0  0.00000000000E+00  0.00000000000E+00 -0.93829899598E+03  0.93829899599E+03  0.25500000920E-02 0. -1.
    10030    2    1    2    0    0  0.00000000000E+00  0.00000000000E+00  0.46847331927E+03  0.23450713112E+04  0.22978016024E+04 0.  0.
        4    1    3    3  502    0  0.34270773681E+03 -0.12640954188E+03 -0.87745757425E+03  0.95045324590E+03  0.12699999809E+01 0. -1.
       -4    1    3    3    0  502 -0.34270773681E+03  0.12640954188E+03  0.13459308935E+04  0.13946180653E+04  0.12699999809E+01 0.  1.
</event>
<event>
 5   0  0.3184492E-06  0.2293672E+04  0.7818609E-02  0.8480420E-01
        1   -1    0    0  501    0  0.00000000000E+00  0.00000000000E+00  0.25925017069E+04  0.25925017069E+04  0.50400001928E-02 0.  1.
       -1   -1    0    0    0  501  0.00000000000E+00  0.00000000000E+00 -0.50732193447E+03  0.50732193450E+03  0.50400001928E-02 0. -1.
    10030    2    1    2    0    0  0.00000000000E+00  0.00000000000E+00  0.20851797725E+04  0.30998236414E+04  0.22936721484E+04 0.  0.
        1    1    3    3  502    0 -0.47571476230E+03 -0.52501210353E+03  0.22613789766E+04  0.23697630936E+04  0.50400001928E-02 0.  1.
       -1    1    3    3    0  502  0.47571476230E+03  0.52501210353E+03 -0.17619920415E+03  0.73006054782E+03  0.50400001928E-02 0. -1.
</event>
<event>
 5   0  0.3184492E-06  0.2299577E+04  0.7818609E-02  0.8478088E-01
       -1   -1    0    0    0  501  0.00000000000E+00  0.00000000000E+00  0.50092371874E+03  0.50092371877E+03  0.50400001928E-02 0. -1.
        1   -1    0    0  501    0  0.00000000000E+00  0.00000000000E+00 -0.26391514432E+04  0.26391514432E+04  0.50400001928E-02 0.  1.
    10030    2    1    2    0    0  0.00000000000E+00  0.00000000000E+00 -0.21382277245E+04  0.31400751620E+04  0.22995769657E+04 0.  0.
        1    1    3    3  502    0  0.54151615932E+03  0.79981745193E+03 -0.19208472053E+04  0.21500236495E+04  0.50400001928E-02 0. -1.
       -1    1    3    3    0  502 -0.54151615932E+03 -0.79981745193E+03 -0.21738051914E+03  0.99005151248E+03  0.50400001928E-02 0.  1.
</event>
<event>
 5   0  0.7497344E-06  0.2297200E+04  0.7818609E-02  0.8479026E-01
       -2   -1    0    0    0  501  0.00000000000E+00  0.00000000000E+00  0.92498729292E+03  0.92498729292E+03  0.25500000920E-02 0. -1.
        2   -1    0    0  501    0  0.00000000000E+00  0.00000000000E+00 -0.14262705145E+04  0.14262705145E+04  0.25500000920E-02 0.  1.
    10030    2    1    2    0    0  0.00000000000E+00  0.00000000000E+00 -0.50128322155E+03  0.23512578074E+04  0.22972001238E+04 0.  0.
        5    1    3    3  502    0 -0.20681737864E+03  0.42409313156E+03 -0.13224861451E+04  0.14041439051E+04  0.46999998093E+01 0.  1.
       -5    1    3    3    0  502  0.20681737864E+03 -0.42409313156E+03  0.82120292351E+03  0.94711390230E+03  0.46999998093E+01 0. -1.
</event>
<event>
 5   0  0.7242214E-06  0.2300923E+04  0.7818609E-02  0.8477557E-01
        2   -1    0    0  501    0  0.00000000000E+00  0.00000000000E+00  0.20076741540E+04  0.20076741540E+04  0.25500000920E-02 0.  1.
       -2   -1    0    0    0  501  0.00000000000E+00  0.00000000000E+00 -0.65925151584E+03  0.65925151584E+03  0.25500000920E-02 0. -1.
    10030    2    1    2    0    0  0.00000000000E+00  0.00000000000E+00  0.13484226381E+04  0.26669256698E+04  0.23009234923E+04 0.  0.
        1    1    3    3  502    0 -0.85438896376E+03  0.16202638912E+02  0.15670087573E+04  0.17848695954E+04  0.50400001928E-02 0.  1.
       -1    1    3    3    0  502  0.85438896376E+03 -0.16202638912E+02 -0.21858611922E+03  0.88205607443E+03  0.50400001928E-02 0. -1.
</event>
<event>
 5   0  0.7242214E-06  0.2299900E+04  0.7818609E-02  0.8477961E-01
       -2   -1    0    0    0  501  0.00000000000E+00  0.00000000000E+00  0.12775334780E+04  0.12775334780E+04  0.25500000920E-02 0. -1.
        2   -1    0    0  501    0  0.00000000000E+00  0.00000000000E+00 -0.10351076561E+04  0.10351076561E+04  0.25500000920E-02 0.  1.
    10030    2    1    2    0    0  0.00000000000E+00  0.00000000000E+00  0.24242582194E+03  0.23126411340E+04  0.22998997230E+04 0.  0.
        1    1    3    3  502    0 -0.56626209628E+03 -0.35427771581E+03  0.10624645236E+04  0.12549885759E+04  0.50400001928E-02 0. -1.
       -1    1    3    3    0  502  0.56626209628E+03  0.35427771581E+03 -0.82003870166E+03  0.10576525582E+04  0.50400001928E-02 0.  1.
</event>
<event>
 5   0  0.3238713E-06  0.2291167E+04  0.7818609E-02  0.8481412E-01
        1   -1    0    0  501    0  0.00000000000E+00  0.00000000000E+00  0.13540750268E+04  0.13540750268E+04  0.50400001928E-02 0. -1.
       -1   -1    0    0    0  501  0.00000000000E+00  0.00000000000E+00 -0.96919389845E+03  0.96919389847E+03  0.50400001928E-02 0.  1.
    10030    2    1    2    0    0  0.00000000000E+00  0.00000000000E+00  0.38488112833E+03  0.23232689253E+04  0.22911667369E+04 0.  0.
        3    1    3    3  502    0  0.45209448056E+03 -0.45659817061E+03  0.11541435005E+04  0.13209536474E+04  0.10100000352E+00 0. -1.
       -3    1    3    3    0  502 -0.45209448056E+03  0.45659817061E+03 -0.76926237215E+03  0.10023152778E+04  0.10100000352E+00 0.  1.
</event>
<event>
 5   0  0.7497344E-06  0.2300296E+04  0.7818609E-02  0.8477804E-01
        2   -1    0    0  501    0  0.00000000000E+00  0.00000000000E+00  0.86956010814E+03  0.86956010815E+03  0.25500000920E-02 0.  1.
       -2   -1    0    0    0  501  0.00000000000E+00  0.00000000000E+00 -0.15212752791E+04  0.15212752791E+04  0.25500000920E-02 0. -1.
    10030    2    1    2    0    0  0.00000000000E+00  0.00000000000E+00 -0.65171517099E+03  0.23908353873E+04  0.23002958907E+04 0.  0.
        5    1    3    3  502    0 -0.40853047391E+03  0.10039204189E+04  0.74079758462E+02  0.10863992159E+04  0.46999998093E+01 0.  1.
       -5    1    3    3    0  502  0.40853047391E+03 -0.10039204189E+04 -0.72579492945E+03  0.13044361714E+04  0.46999998093E+01 0. -1.
</event>
<event>
 5   0  0.7003852E-06  0.2304514E+04  0.7818609E-02  0.8476143E-01
       -2   -1    0    0    0  501  0.00000000000E+00  0.00000000000E+00  0.11358396355E+04  0.11358396355E+04  0.25500000920E-02 0. -1.
        2   -1    0    0  501    0  0.00000000000E+00  0.00000000000E+00 -0.11689116358E+04  0.11689116358E+04  0.25500000920E-02 0.  1.
    10030    2    1    2    0    0  0.00000000000E+00  0.00000000000E+00 -0.33072000243E+02  0.23047512713E+04  0.23045139760E+04 0.  0.
        2    1    3    3  502    0 -0.19417438562E+03  0.11928518781E+03  0.11130773240E+04  0.11361662630E+04  0.25500000920E-02 0. -1.
       -2    1    3    3    0  502  0.19417438562E+03 -0.11928518781E+03 -0.11461493242E+04  0.11685850083E+04  0.25500000920E-02 0.  1.
</event>
<event>
 5   0  0.3338758E-06  0.2294798E+04  0.7818609E-02  0.8479975E-01
        1   -1    0    0  501    0  0.00000000000E+00  0.00000000000E+00  0.55061812224E+03  0.55061812226E+03  0.50400001928E-02 0. -1.
       -1   -1    0    0    0  501  0.00000000000E+00  0.00000000000E+00 -0.23909946199E+04  0.23909946199E+04  0.50400001928E-02 0.  1.
    10030    2    1    2    0    0  0.00000000000E+00  0.00000000000E+00 -0.18403764976E+04  0.29416127421E+04  0.22947984381E+04 0.  0.
        5    1    3    3  502    0  0.51986527074E+03  0.45339798971E+03 -0.20955040215E+04  0.22061252981E+04  0.46999998093E+01 0.  1.
       -5    1    3    3    0  502 -0.51986527074E+03 -0.45339798971E+03  0.25512752392E+03  0.73548744398E+03  0.46999998093E+01 0. -1.
</event>
<event>
 5   0  0.7242214E-06  0.2298523E+04  0.7818609E-02  0.8478504E-01
        2   -1    0    0  501    0  0.00000000000E+00  0.00000000000E+00  0.23025779689E+04  0.23025779689E+04  0.25500000920E-02 0. -1.
       -2   -1    0    0    0  501  0.00000000000E+00  0.00000000000E+00 -0.57361891443E+03  0.57361891443E+03  0.25500000920E-02 0.  1.
    10030    2    1    2    0    0  0.00000000000E+00  0.00000000000E+00  0.17289590545E+04  0.28761968833E+04  0.22985232432E+04 0.  0.
        1    1    3    3  502    0 -0.58057459958E+03  0.96092957441E+03  0.11718820966E+04  0.16228863673E+04  0.50400001928E-02 0.  1.
       -1    1    3    3    0  502  0.58057459958E+03 -0.96092957441E+03  0.55707695781E+03  0.12533105160E+04  0.50400001928E-02 0. -1.
</event>
<event>
 5   0  0.7044981E-06  0.2301190E+04  0.7818609E-02  0.8477452E-01
       -2   -1    0    0    0  501  0.00000000000E+00  0.00000000000E+00  0.14489440603E+04  0.14489440603E+04  0.25500000920E-02 0. -1.
        2   -1    0    0  501    0  0.00000000000E+00  0.00000000000E+00 -0.91367833182E+03  0.91367833183E+03  0.25500000920E-02 0.  1.
    10030    2    1    2    0    0  0.00000000000E+00  0.00000000000E+00  0.53526572843E+03  0.23626223921E+04  0.23011899460E+04 0.  0.
        4    1    3    3  502    0  0.41091230362E+03  0.99877310542E+03 -0.13978635151E+03  0.10890080231E+04  0.12699999809E+01 0.  1.
       -4    1    3    3    0  502 -0.41091230362E+03 -0.99877310542E+03  0.67505207994E+03  0.12736143690E+04  0.12699999809E+01 0. -1.
</event>
<event>
 5   0  0.7242214E-06  0.2307659E+04  0.7818609E-02  0.8474907E-01
        2   -1    0    0  501    0  0.00000000000E+00  0.00000000000E+00  0.17114626142E+04  0.17114626142E+04  0.25500000920E-02 0. -1.
       -2   -1    0    0    0  501  0.00000000000E+00  0.00000000000E+00 -0.77788565400E+03  0.77788565400E+03  0.25500000920E-02 0.  1.
    10030    2    1    2    0    0  0.00000000000E+00  0.00000000000E+00  0.93357696023E+03  0.24893482682E+04  0.23076587399E+04 0.  0.
        1    1    3    3  502    0  0.30575327318E+03 -0.10537235602E+04  0.81597902262E+02  0.11002166255E+04  0.50400001928E-02 0.  1.
       -1    1    3    3    0  502 -0.30575327318E+03  0.10537235602E+04  0.85197905797E+03  0.13891316427E+04  0.50400001928E-02 0. -1.
</event>
<event>
 5   0  0.7003852E-06  0.2299491E+04  0.7818609E-02  0.8478122E-01
       -2   -1    0    0    0  501  0.00000000000E+00  0.00000000000E+00  0.61962695169E+03  0.61962695169E+03  0.25500000920E-02 0. -1.
        2   -1    0    0  501    0  0.00000000000E+00  0.00000000000E+00 -0.21334034525E+04  0.21334034525E+04  0.25500000920E-02 0.  1.
    10030    2    1    2    0    0  0.00000000000E+00  0.00000000000E+00 -0.15137765008E+04  0.27530304042E+04  0.22994906201E+04 0.  0.
        2    1    3    3  502    0  0.73769866226E+03 -0.32218440432E+03  0.22594765829E+03  0.83609476196E+03  0.25500000920E-02 0. -1.
       -2    1    3    3    0  502 -0.73769866226E+03  0.32218440432E+03 -0.17397241591E+04  0.19169356423E+04  0.25500000920E-02 0.  1.
</event>
<event>
 5   0  0.3195296E-06  0.2299465E+04  0.7818609E-02  0.8478132E-01
        1   -1    0    0  501    0  0.00000000000E+00  0.00000000000E+00  0.10329321238E+04  0.10329321238E+04  0.50400001928E-02 0. -1.
       -1   -1    0    0    0  501  0.00000000000E+00  0.00000000000E+00 -0.12797402806E+04  0.12797402806E+04  0.50400001928E-02 0.  1.
    10030    2    1    2    0    0  0.00000000000E+00  0.00000000000E+00 -0.24680815676E+03  0.23126724044E+04  0.22994650212E+04 0.  0.
        2    1    3    3  502    0 -0.28846042739E+03  0.11037274069E+04  0.20460300187E+02  0.11409830108E+04  0.25500000920E-02 0. -1.
       -2    1    3    3    0  502  0.28846042739E+03 -0.11037274069E+04 -0.26726845694E+03  0.11716893936E+04  0.25500000920E-02 0.  1.
</event>
<event>
 5   0  0.3195296E-06  0.2299074E+04  0.7818609E-02  0.8478286E-01
       -1   -1    0    0    0  501  0.00000000000E+00  0.00000000000E+00  0.10615428096E+04  0.10615428096E+04  0.50400001928E-02 0.  1.
        1   -1    0    0  501    0  0.00000000000E+00  0.00000000000E+00 -0.12448253397E+04  0.12448253397E+04  0.50400001928E-02 0. -1.
    10030    2    1    2    0    0  0.00000000000E+00  0.00000000000E+00 -0.18328253013E+03  0.23063681493E+04  0.22990740645E+04 0.  0.
        2    1    3    3  502    0 -0.11512268795E+03  0.31047355706E+03  0.10126637684E+04  0.10654271306E+04  0.25500000920E-02 0.  1.
       -2    1    3    3    0  502  0.11512268795E+03 -0.31047355706E+03 -0.11959462985E+04  0.12409410187E+04  0.25500000920E-02 0. -1.
</event>
<event>
 5   0  0.7242214E-06  0.2302951E+04  0.7818609E-02  0.8476759E-01
        2   -1    0    0  501    0  0.00000000000E+00  0.00000000000E+00  0.18138657424E+04  0.18138657424E+04  0.25500000920E-02 0.  1.
       -2   -1    0    0    0  501  0.00000000000E+00  0.00000000000E+00 -0.73097764977E+03  0.73097764977E+03  0.25500000920E-02 0. -1.
    10030    2    1    2    0    0  0.00000000000E+00  0.00000000000E+00  0.10828880927E+04  0.25448433922E+04  0.23029505574E+04 0.  0.
        1    1    3    3  502    0  0.12129156343E+03  0.48812612517E+03 -0.60317092339E+03  0.78536228601E+03  0.50400001928E-02 0. -1.
       -1    1    3    3    0  502 -0.12129156343E+03 -0.48812612517E+03  0.16860590161E+04  0.17594811062E+04  0.50400001928E-02 0.  1.
</event>
<event>
 5   0  0.3184492E-06  0.2303531E+04  0.7818609E-02  0.8476530E-01
       -1   -1    0    0    0  501  0.00000000000E+00  0.00000000000E+00  0.85787809569E+03  0.85787809570E+03  0.50400001928E-02 0. -1.
        1   -1    0    0  501    0  0.00000000000E+00  0.00000000000E+00 -0.15463311774E+04  0.15463311774E+04  0.50400001928E-02 0.  1.
    10030    2    1    2    0    0  0.00000000000E+00  0.00000000000E+00 -0.68845308169E+03  0.24042092731E+04  0.23035308948E+04 0.  0.
        1    1    3    3  502    0  0.49202692301E+03 -0.80089108901E+03  0.35048248054E+03  0.10031724670E+04  0.50400001928E-02 0. -1.
       -1    1    3    3    0  502 -0.49202692301E+03  0.80089108901E+03 -0.10389355622E+04  0.14010368060E+04  0.50400001928E-02 0.  1.
</event>
<event>
 5   0  0.3338758E-06  0.2319318E+04  0.7818609E-02  0.8470343E-01
       -1   -1    0    0    0  501  0.00000000000E+00  0.00000000000E+00  0.68890648439E+03  0.68890648441E+03  0.50400001928E-02 0.  1.
        1   -1    0    0  501    0  0.00000000000E+00  0.00000000000E+00 -0.19520917050E+04  0.19520917051E+04  0.50400001928E-02 0. -1.
    10030    2    1    2    0    0  0.00000000000E+00  0.00000000000E+00 -0.12631852207E+04  0.26409981895E+04  0.23193176874E+04 0.  0.
        5    1    3    3  502    0  0.93885810031E+03  0.68066320062E+03 -0.63778972892E+03  0.13234631667E+04  0.46999998093E+01 0.  1.
       -5    1    3    3    0  502 -0.93885810031E+03 -0.68066320062E+03 -0.62539549173E+03  0.13175350228E+04  0.46999998093E+01 0. -1.
</event>
<event>
 5   0  0.7242214E-06  0.2301460E+04  0.7818609E-02  0.8477346E-01
        2   -1    0    0  501    0  0.00000000000E+00  0.00000000000E+00  0.11102582963E+04  0.11102582963E+04  0.25500000920E-02 0. -1.
       -2   -1    0    0    0  501  0.00000000000E+00  0.00000000000E+00 -0.11926765805E+04  0.11926765805E+04  0.25500000920E-02 0.  1.
    10030    2    1    2    0    0  0.00000000000E+00  0.00000000000E+00 -0.82418284243E+02  0.23029348768E+04  0.23014595963E+04 0.  0.
        1    1    3    3  502    0  0.21478978690E+03 -0.59821897947E+02  0.10884369063E+04  0.11110392483E+04  0.50400001928E-02 0. -1.
       -1    1    3    3    0  502 -0.21478978690E+03  0.59821897947E+02 -0.11708551906E+04  0.11918956286E+04  0.50400001928E-02 0.  1.
</event>
<event>
 5   0  0.3226427E-06  0.2297080E+04  0.7818609E-02  0.8479073E-01
        1   -1    0    0  501    0  0.00000000000E+00  0.00000000000E+00  0.20921825597E+04  0.20921825597E+04  0.50400001928E-02 0. -1.
       -1   -1    0    0    0  501  0.00000000000E+00  0.00000000000E+00 -0.63051101134E+03  0.63051101136E+03  0.50400001928E-02 0.  1.
    10030    2    1    2    0    0  0.00000000000E+00  0.00000000000E+00  0.14616715483E+04  0.27226935710E+04  0.22970800087E+04 0.  0.
        4    1    3    3  502    0  0.43157148035E+03  0.53935687852E+03  0.18184483962E+04  0.19452290270E+04  0.12699999809E+01 0. -1.
       -4    1    3    3    0  502 -0.43157148035E+03 -0.53935687852E+03 -0.35677684789E+03  0.77746454398E+03  0.12699999809E+01 0.  1.
</event>
<event>
 5   0  0.7003852E-06  0.2299524E+04  0.7818609E-02  0.8478109E-01
       -2   -1    0    0    0  501  0.00000000000E+00  0.00000000000E+00  0.65277539365E+03  0.65277539365E+03  0.25500000920E-02 0.  1.
        2   -1    0    0  501    0  0.00000000000E+00  0.00000000000E+00 -0.20251261148E+04  0.20251261148E+04  0.25500000920E-02 0. -1.
    10030    2    1    2    0    0  0.00000000000E+00  0.00000000000E+00 -0.13723507211E+04  0.26779015084E+04  0.22995238609E+04 0.  0.
        2    1    3    3  502    0 -0.93877733141E+03  0.13133706087E+03 -0.14439362855E+04  0.17272823446E+04  0.25500000920E-02 0. -1.
       -2    1    3    3    0  502  0.93877733141E+03 -0.13133706087E+03  0.71585564359E+02  0.95061916379E+03  0.25500000920E-02 0.  1.
</event>
<event>
 5   0  0.3226427E-06  0.2297742E+04  0.7818609E-02  0.8478812E-01
        1   -1    0    0  501    0  0.00000000000E+00  0.00000000000E+00  0.14351561887E+04  0.14351561888E+04  0.50400001928E-02 0.  1.
       -1   -1    0    0    0  501  0.00000000000E+00  0.00000000000E+00 -0.91969365954E+03  0.91969365955E+03  0.50400001928E-02 0. -1.
    10030    2    1    2    0    0  0.00000000000E+00  0.00000000000E+00  0.51546252921E+03  0.23548498483E+04  0.22977415410E+04 0.  0.
        4    1    3    3  502    0 -0.41899925335E+02 -0.73098891801E+03 -0.64959866557E+03  0.97881583620E+03  0.12699999809E+01 0. -1.
       -4    1    3    3    0  502  0.41899925335E+02  0.73098891801E+03  0.11650611948E+04  0.13760340121E+04  0.12699999809E+01 0.  1.
</event>
<event>
 5   0  0.3184492E-06  0.2298771E+04  0.7818609E-02  0.8478406E-01
       -1   -1    0    0    0  501  0.00000000000E+00  0.00000000000E+00  0.19208707002E+04  0.19208707002E+04  0.50400001928E-02 0. -1.
        1   -1    0    0  501    0  0.00000000000E+00  0.00000000000E+00 -0.68775402259E+03  0.68775402261E+03  0.50400001928E-02 0.  1.
    10030    2    1    2    0    0  0.00000000000E+00  0.00000000000E+00  0.12331166776E+04  0.26086247228E+04  0.22987705853E+04 0.  0.
        1    1    3    3  502    0  0.29657496129E+03  0.41165011580E+03  0.17869204444E+04  0.18575513990E+04  0.50400001928E-02 0. -1.
       -1    1    3    3    0  502 -0.29657496129E+03 -0.41165011580E+03 -0.55380376680E+03  0.75107332375E+03  0.50400001928E-02 0.  1.
</event>
<event>
 5   0  0.7497344E-06  0.2300342E+04  0.7818609E-02  0.8477786E-01
        2   -1    0    0  501    0  0.00000000000E+00  0.00000000000E+00  0.90492396028E+03  0.90492396028E+03  0.25500000920E-02 0.  1.
       -2   -1    0    0    0  501  0.00000000000E+00  0.00000000000E+00 -0.14618831731E+04  0.14618831731E+04  0.25500000920E-02 0. -1.
    10030    2    1    2    0    0  0.00000000000E+00  0.00000000000E+00 -0.55695921277E+03  0.23668071333E+04  0.23003418098E+04 0.  0.
        5    1    3    3  502    0 -0.13525298279E+03  0.11342026947E+04 -0.13981963166E+03  0.11507739750E+04  0.46999998093E+01 0. -1.
       -5    1    3    3    0  502  0.13525298279E+03 -0.11342026947E+04 -0.41713958111E+03  0.12160331584E+04  0.46999998093E+01 0.  1.
</event>
<event>
 5   0  0.3238713E-06  0.2298905E+04  0.7818609E-02  0.8478353E-01
        1   -1    0    0  501    0  0.00000000000E+00  0.00000000000E+00  0.18178753719E+04  0.18178753719E+04  0.50400001928E-02 0.  1.
       -1   -1    0    0    0  501  0.00000000000E+00  0.00000000000E+00 -0.72680518427E+03  0.72680518429E+03  0.50400001928E-02 0. -1.
    10030    2    1    2    0    0  0.00000000000E+00  0.00000000000E+00  0.10910701877E+04  0.25446805562E+04  0.22989051696E+04 0.  0.
        3    1    3    3  502    0 -0.83525961248E+03  0.23277659364E+03 -0.28972177924E+03  0.91421128977E+03  0.10100000352E+00 0. -1.
       -3    1    3    3    0  502  0.83525961248E+03 -0.23277659364E+03  0.13807919669E+04  0.16304692665E+04  0.10100000352E+00 0.  1.
</event>
<event>
 5   0  0.3238713E-06  0.2299318E+04  0.7818609E-02  0.8478190E-01
        1   -1    0    0  501    0  0.00000000000E+00  0.00000000000E+00  0.14844126777E+04  0.14844126777E+04  0.50400001928E-02 0.  1.
       -1   -1    0    0    0  501  0.00000000000E+00  0.00000000000E+00 -0.89039628504E+03  0.89039628506E+03  0.50400001928E-02 0. -1.
    10030    2    1    2    0    0  0.00000000000E+00  0.00000000000E+00  0.59401639264E+03  0.23748089627E+04  0.22993177542E+04 0.  0.
        3    1    3    3  502    0  0.71105073581E+03  0.77429564659E+03  0.77767874148E+03  0.13076357032E+04  0.10100000352E+00 0.  1.
       -3    1    3    3    0  502 -0.71105073581E+03 -0.77429564659E+03 -0.18366234885E+03  0.10671732595E+04  0.10100000352E+00 0. -1.
</event>
<event>
 5   0  0.7003852E-06  0.2305907E+04  0.7818609E-02  0.8475596E-01
       -2   -1    0    0    0  501  0.00000000000E+00  0.00000000000E+00  0.56239886066E+03  0.56239886067E+03  0.25500000920E-02 0. -1.
        2   -1    0    0  501    0  0.00000000000E+00  0.00000000000E+00 -0.23636271760E+04  0.23636271760E+04  0.25500000920E-02 0.  1.
    10030    2    1    2    0    0  0.00000000000E+00  0.00000000000E+00 -0.18012283154E+04  0.29260260367E+04  0.23059065296E+04 0.  0.
        2    1    3    3  502    0  0.61110566100E+03 -0.62190641278E+03  0.56633891828E+02  0.87374201734E+03  0.25500000920E-02 0. -1.
       -2    1    3    3    0  502 -0.61110566100E+03  0.62190641278E+03 -0.18578622072E+04  0.20522840194E+04  0.25500000920E-02 0.  1.
</event>
<event>
 5   0  0.7044981E-06  0.2299382E+04  0.7818609E-02  0.8478165E-01
        2   -1    0    0  501    0  0.00000000000E+00  0.00000000000E+00  0.12311901995E+04  0.12311901995E+04  0.25500000920E-02 0.  1.
       -2   -1    0    0    0  501  0.00000000000E+00  0.00000000000E+00 -0.10735864706E+04  0.10735864706E+04  0.25500000920E-02 0. -1.
    10030    2    1    2    0    0  0.00000000000E+00  0.00000000000E+00  0.15760372885E+03  0.23047766701E+04  0.22993817786E+04 0.  0.
        4    1    3    3  502    0 -0.50431910856E+03  0.35840571714E+03  0.10500930068E+04  0.12188065299E+04  0.12699999809E+01 0.  1.
       -4    1    3    3    0  502  0.50431910856E+03 -0.35840571714E+03 -0.89248927797E+03  0.10859701403E+04  0.12699999809E+01 0. -1.
</event>
<event>
 5   0  0.3238713E-06  0.2298676E+04  0.7818609E-02  0.8478443E-01
       -1   -1    0    0    0  501  0.00000000000E+00  0.00000000000E+00  0.83577797494E+03  0.83577797495E+03  0.50400001928E-02 0.  1.
        1   -1    0    0  501    0  0.00000000000E+00  0.00000000000E+00 -0.15805371074E+04  0.15805371074E+04  0.50400001928E-02 0. -1.
    10030    2    1    2    0    0  0.00000000000E+00  0.00000000000E+00 -0.74475913248E+03  0.24163150824E+04  0.22986762303E+04 0.  0.
        3    1    3    3  502    0 -0.71803528059E+03 -0.68160533596E+03 -0.98605220923E+03  0.13973043576E+04  0.10100000352E+00 0. -1.
       -3    1    3    3    0  502  0.71803528059E+03  0.68160533596E+03  0.24129307674E+03  0.10190107248E+04  0.10100000352E+00 0.  1.
</event>
<event>
 5   0  0.7003852E-06  0.2296862E+04  0.7818609E-02  0.8479159E-01
        2   -1    0    0  501    0  0.00000000000E+00  0.00000000000E+00  0.17216948212E+04  0.17216948212E+04  0.25500000920E-02 0. -1.
       -2   -1    0    0    0  501  0.00000000000E+00  0.00000000000E+00 -0.76604395578E+03  0.76604395578E+03  0.25500000920E-02 0.  1.
    10030    2    1    2    0    0  0.00000000000E+00  0.00000000000E+00  0.95565086537E+03  0.24877387769E+04  0.22968621303E+04 0.  0.
        2    1    3    3  502    0 -0.24957509541E+03  0.55242061554E+03  0.15343023535E+04  0.16497090582E+04  0.25500000920E-02 0. -1.
       -2    1    3    3    0  502  0.24957509541E+03 -0.55242061554E+03 -0.57865148815E+03  0.83802971873E+03  0.25500000920E-02 0.  1.
</event>
<event>
 5   0  0.7044981E-06  0.2299870E+04  0.7818609E-02  0.8477973E-01
        2   -1    0    0  501    0  0.00000000000E+00  0.00000000000E+00  0.15380463790E+04  0.15380463790E+04  0.25500000920E-02 0. -1.
       -2   -1    0    0    0  501  0.00000000000E+00  0.00000000000E+00 -0.85975952596E+03  0.85975952596E+03  0.25500000920E-02 0.  1.
    10030    2    1    2    0    0  0.00000000000E+00  0.00000000000E+00  0.67828685302E+03  0.23978059049E+04  0.22998695839E+04 0.  0.
        4    1    3    3  502    0 -0.37604700943E+03 -0.10614124814E+04  0.96106062658E+02  0.11301529972E+04  0.12699999809E+01 0. -1.
       -4    1    3    3    0  502  0.37604700943E+03  0.10614124814E+04  0.58218079036E+03  0.12676529077E+04  0.12699999809E+01 0.  1.
</event>
<event>
 5   0  0.7348107E-06  0.2296997E+04  0.7818609E-02  0.8479106E-01
       -2   -1    0    0    0  501  0.00000000000E+00  0.00000000000E+00  0.10727484467E+04  0.10727484467E+04  0.25500000920E-02 0.  1.
        2   -1    0    0  501    0  0.00000000000E+00  0.00000000000E+00 -0.12295971415E+04  0.12295971415E+04  0.25500000920E-02 0. -1.
    10030    2    1    2    0    0  0.00000000000E+00  0.00000000000E+00 -0.15684869486E+03  0.23023455882E+04  0.22969966683E+04 0.  0.
        3    1    3    3  502    0  0.11449602051E+04  0.89329036346E+02 -0.90064549326E+02  0.11519657899E+04  0.10100000352E+00 0. -1.
       -3    1    3    3    0  502 -0.11449602051E+04 -0.89329036346E+02 -0.66784145530E+02  0.11503797983E+04  0.10100000352E+00 0.  1.
</event>
<event>
 5   0  0.3338758E-06  0.2303351E+04  0.7818609E-02  0.8476601E-01
       -1   -1    0    0    0  501  0.00000000000E+00  0.00000000000E+00  0.11360966743E+04  0.11360966743E+04  0.50400001928E-02 0. -1.
        1   -1    0    0  501    0  0.00000000000E+00  0.00000000000E+00 -0.11674679844E+04  0.11674679844E+04  0.50400001928E-02 0.  1.
    10030    2    1    2    0    0  0.00000000000E+00  0.00000000000E+00 -0.31371310107E+02  0.23035646588E+04  0.23033510323E+04 0.  0.
        5    1    3    3  502    0 -0.73144279656E+03  0.81804056839E+03 -0.36519692027E+03  0.11565421811E+04  0.46999998093E+01 0. -1.
       -5    1    3    3    0  502  0.73144279656E+03 -0.81804056839E+03  0.33382561016E+03  0.11470224776E+04  0.46999998093E+01 0.  1.
</event>
<event>
 5   0  0.7003852E-06  0.2309298E+04  0.7818609E-02  0.8474264E-01
       -2   -1    0    0    0  501  0.00000000000E+00  0.00000000000E+00  0.90781615544E+03  0.90781615545E+03  0.25500000920E-02 0. -1.
        2   -1    0    0  501    0  0.00000000000E+00  0.00000000000E+00 -0.14685953406E+04  0.14685953406E+04  0.25500000920E-02 0.  1.
    10030    2    1    2    0    0  0.00000000000E+00  0.00000000000E+00 -0.56077918515E+03  0.23764114960E+04  0.23092982276E+04 0.  0.
        2    1    3    3  502    0 -0.16669072772E+03  0.36593959831E+03  0.83343273034E+03  0.92536895579E+03  0.25500000920E-02 0. -1.
       -2    1    3    3    0  502  0.16669072772E+03 -0.36593959831E+03 -0.13942119155E+04  0.14510425403E+04  0.25500000920E-02 0.  1.
</event>
<event>
 5   0  0.2519625E-06  0.2243116E+04  0.7818609E-02  0.8500694E-01
        3   -1    0    0  501    0  0.00000000000E+00  0.00000000000E+00  0.76016858975E+03  0.76016859646E+03  0.10100000352E+00 0.  1.
       -3   -1    0    0    0  501  0.00000000000E+00  0.00000000000E+00 -0.16547542101E+04  0.16547542132E+04  0.10100000352E+00 0. -1.
    10030    2    1    2    0    0  0.00000000000E+00  0.00000000000E+00 -0.89458562037E+03  0.24149228097E+04  0.22431158562E+04 0.  0.
        1    1    3    3  502    0 -0.33875042378E+03  0.66674497130E+03  0.45254283006E+03  0.87412568858E+03  0.50400001928E-02 0.  1.
       -1    1    3    3    0  502  0.33875042378E+03 -0.66674497130E+03 -0.13471284504E+04  0.15407971211E+04  0.50400001928E-02 0. -1.
</event>
<event>
 5   0  0.3226427E-06  0.2294198E+04  0.7818609E-02  0.8480212E-01
        1   -1    0    0  501    0  0.00000000000E+00  0.00000000000E+00  0.73930774625E+03  0.73930774627E+03  0.50400001928E-02 0.  1.
       -1   -1    0    0    0  501  0.00000000000E+00  0.00000000000E+00 -0.17798221270E+04  0.17798221270E+04  0.50400001928E-02 0. -1.
    10030    2    1    2    0    0  0.00000000000E+00  0.00000000000E+00 -0.10405143807E+04  0.25191298732E+04  0.22941981479E+04 0.  0.
        4    1    3    3  502    0 -0.64629840237E+03  0.79035185169E+03 -0.10944794652E+04  0.14967446632E+04  0.12699999809E+01 0. -1.
       -4    1    3    3    0  502  0.64629840237E+03 -0.79035185169E+03  0.53965084457E+02  0.10223852100E+04  0.12699999809E+01 0.  1.
</event>
<event>
 5   0  0.7003852E-06  0.2301010E+04  0.7818609E-02  0.8477523E-01
        2   -1    0    0  501    0  0.00000000000E+00  0.00000000000E+00  0.24307738184E+04  0.24307738184E+04  0.25500000920E-02 0. -1.
       -2   -1    0    0    0  501  0.00000000000E+00  0.00000000000E+00 -0.54454342334E+03  0.54454342335E+03  0.25500000920E-02 0.  1.
    10030    2    1    2    0    0  0.00000000000E+00  0.00000000000E+00  0.18862303951E+04  0.29753172418E+04  0.23010101229E+04 0.  0.
        2    1    3    3  502    0 -0.15768442070E+03 -0.50836904272E+03 -0.37576772940E+03  0.65154036452E+03  0.25500000920E-02 0.  1.
       -2    1    3    3    0  502  0.15768442070E+03  0.50836904272E+03  0.22619981245E+04  0.23237768773E+04  0.25500000920E-02 0. -1.
</event>
<event>
 5   0  0.3338758E-06  0.2300206E+04  0.7818609E-02  0.8477840E-01
        1   -1    0    0  501    0  0.00000000000E+00  0.00000000000E+00  0.13593151347E+04  0.13593151347E+04  0.50400001928E-02 0. -1.
       -1   -1    0    0    0  501  0.00000000000E+00  0.00000000000E+00 -0.97309110861E+03  0.97309110862E+03  0.50400001928E-02 0.  1.
    10030    2    1    2    0    0  0.00000000000E+00  0.00000000000E+00  0.38622402605E+03  0.23324062433E+04  0.23002064876E+04 0.  0.
        5    1    3    3  502    0 -0.10682771998E+03  0.73693389913E+03  0.10818699013E+04  0.13133728742E+04  0.46999998093E+01 0. -1.
       -5    1    3    3    0  502  0.10682771998E+03 -0.73693389913E+03 -0.69564587526E+03  0.10190333690E+04  0.46999998093E+01 0.  1.
</event>
<event>
 5   0  0.3338758E-06  0.2293963E+04  0.7818609E-02  0.8480305E-01
       -1   -1    0    0    0  501  0.00000000000E+00  0.00000000000E+00  0.75687806010E+03  0.75687806012E+03  0.50400001928E-02 0.  1.
        1   -1    0    0  501    0  0.00000000000E+00  0.00000000000E+00 -0.17381483380E+04  0.17381483380E+04  0.50400001928E-02 0. -1.
    10030    2    1    2    0    0  0.00000000000E+00  0.00000000000E+00 -0.98127027786E+03  0.24950263981E+04  0.22939628090E+04 0.  0.
        5    1    3    3  502    0 -0.21814904778E+03 -0.57150689436E+03  0.56462832548E+03  0.83248806195E+03  0.46999998093E+01 0.  1.
       -5    1    3    3    0  502  0.21814904778E+03  0.57150689436E+03 -0.15458986033E+04  0.16625383361E+04  0.46999998093E+01 0. -1.
</event>
<event>
 5   0  0.3238713E-06  0.2302579E+04  0.7818609E-02  0.8476905E-01
       -1   -1    0    0    0  501  0.00000000000E+00  0.00000000000E+00  0.95411104728E+03  0.95411104729E+03  0.50400001928E-02 0. -1.
        1   -1    0    0  501    0  0.00000000000E+00  0.00000000000E+00 -0.13892168449E+04  0.13892168449E+04  0.50400001928E-02 0.  1.
    10030    2    1    2    0    0  0.00000000000E+00  0.00000000000E+00 -0.43510579759E+03  0.23433278922E+04  0.23025786751E+04 0.  0.
        3    1    3    3  502    0 -0.35210379560E+03  0.68206537294E+03 -0.10908040426E+04  0.13338079792E+04  0.10100000352E+00 0.  1.
       -3    1    3    3    0  502  0.35210379560E+03 -0.68206537294E+03  0.65569824505E+03  0.10095199129E+04  0.10100000352E+00 0. -1.
</event>
<event>
 5   0  0.3195296E-06  0.2299985E+04  0.7818609E-02  0.8477927E-01
        1   -1    0    0  501    0  0.00000000000E+00  0.00000000000E+00  0.19844906695E+04  0.19844906695E+04  0.50400001928E-02 0.  1.
       -1   -1    0    0    0  501  0.00000000000E+00  0.00000000000E+00 -0.66640907236E+03  0.66640907238E+03  0.50400001928E-02 0. -1.
    10030    2    1    2    0    0  0.00000000000E+00  0.00000000000E+00  0.13180815971E+04  0.26508997419E+04  0.22999848575E+04 0.  0.
        2    1    3    3  502    0 -0.10397029666E+04  0.45939634582E+03  0.45790010480E+03  0.12254386020E+04  0.25500000920E-02 0. -1.
       -2    1    3    3    0  502  0.10397029666E+04 -0.45939634582E+03  0.86018149233E+03  0.14254611398E+04  0.25500000920E-02 0.  1.
</event>
<event>
 5   0  0.7497344E-06  0.2299790E+04  0.7818609E-02  0.8478004E-01
       -2   -1    0    0    0  501  0.00000000000E+00  0.00000000000E+00  0.90862904356E+03  0.90862904356E+03  0.25500000920E-02 0.  1.
        2   -1    0    0  501    0  0.00000000000E+00  0.00000000000E+00 -0.14552242818E+04  0.14552242818E+04  0.25500000920E-02 0. -1.
    10030    2    1    2    0    0  0.00000000000E+00  0.00000000000E+00 -0.54659523824E+03  0.23638533254E+04  0.22997904664E+04 0.  0.
        5    1    3    3  502    0 -0.45870534263E+03 -0.38043460088E+03 -0.12841017844E+04  0.14156555229E+04  0.46999998093E+01 0. -1.
       -5    1    3    3    0  502  0.45870534263E+03  0.38043460088E+03  0.73750654616E+03  0.94819780243E+03  0.46999998093E+01 0.  1.
</event>
<event>
 5   0  0.3226427E-06  0.2303417E+04  0.7818609E-02  0.8476575E-01
        1   -1    0    0  501    0  0.00000000000E+00  0.00000000000E+00  0.13369923513E+04  0.13369923513E+04  0.50400001928E-02 0.  1.
       -1   -1    0    0    0  501  0.00000000000E+00  0.00000000000E+00 -0.99210158230E+03  0.99210158231E+03  0.50400001928E-02 0. -1.
    10030    2    1    2    0    0  0.00000000000E+00  0.00000000000E+00  0.34489076904E+03  0.23290939337E+04  0.23034167902E+04 0.  0.
        4    1    3    3  502    0 -0.14426101166E+03  0.92741908567E+03  0.84735368771E+03  0.12644869651E+04  0.12699999809E+01 0.  1.
       -4    1    3    3    0  502  0.14426101166E+03 -0.92741908567E+03 -0.50246291866E+03  0.10646069686E+04  0.12699999809E+01 0. -1.
</event>
<event>
 5   0  0.3338758E-06  0.2306005E+04  0.7818609E-02  0.8475557E-01
       -1   -1    0    0    0  501  0.00000000000E+00  0.00000000000E+00  0.74439222393E+03  0.74439222395E+03  0.50400001928E-02 0. -1.
        1   -1    0    0  501    0  0.00000000000E+00  0.00000000000E+00 -0.17859062371E+04  0.17859062371E+04  0.50400001928E-02 0.  1.
    10030    2    1    2    0    0  0.00000000000E+00  0.00000000000E+00 -0.10415140132E+04  0.25302984611E+04  0.23060049572E+04 0.  0.
        5    1    3    3  502    0  0.47167262610E+03 -0.45042824380E+03  0.52252905717E+03  0.83571488835E+03  0.46999998093E+01 0. -1.
       -5    1    3    3    0  502 -0.47167262610E+03  0.45042824380E+03 -0.15640430703E+04  0.16945835727E+04  0.46999998093E+01 0.  1.
</event>
<event>
 5   0  0.7003852E-06  0.2302467E+04  0.7818609E-02  0.8476949E-01
        2   -1    0    0  501    0  0.00000000000E+00  0.00000000000E+00  0.15630647724E+04  0.15630647724E+04  0.25500000920E-02 0. -1.
       -2   -1    0    0    0  501  0.00000000000E+00  0.00000000000E+00 -0.84791009357E+03  0.84791009358E+03  0.25500000920E-02 0.  1.
    10030    2    1    2    0    0  0.00000000000E+00  0.00000000000E+00  0.71515467886E+03  0.24109748660E+04  0.23024668488E+04 0.  0.
        2    1    3    3  502    0  0.29869535610E+02 -0.73084637185E+03  0.12884665094E+04  0.14816121470E+04  0.25500000920E-02 0. -1.
       -2    1    3    3    0  502 -0.29869535610E+02  0.73084637185E+03 -0.57331183053E+03  0.92936271898E+03  0.25500000920E-02 0.  1.
</event>
<event>
 5   0  0.3195296E-06  0.2299165E+04  0.7818609E-02  0.8478250E-01
       -1   -1    0    0    0  501  0.00000000000E+00  0.00000000000E+00  0.11191684617E+04  0.11191684617E+04  0.50400001928E-02 0. -1.
        1   -1    0    0  501    0  0.00000000000E+00  0.00000000000E+00 -0.11808232064E+04  0.11808232064E+04  0.50400001928E-02 0.  1.
    10030    2    1    2    0    0  0.00000000000E+00  0.00000000000E+00 -0.61654744651E+02  0.22999916681E+04  0.22991651454E+04 0.  0.
        2    1    3    3  502    0  0.82471538823E+03  0.33276112354E+03  0.69789496938E+03  0.11304613329E+04  0.25500000920E-02 0. -1.
       -2    1    3    3    0  502 -0.82471538823E+03 -0.33276112354E+03 -0.75954971403E+03  0.11695303352E+04  0.25500000920E-02 0.  1.
</event>
<event>
 5   0  0.7497344E-06  0.2295167E+04  0.7818609E-02  0.8479829E-01
       -2   -1    0    0    0  501  0.00000000000E+00  0.00000000000E+00  0.17492208300E+04  0.17492208300E+04  0.25500000920E-02 0.  1.
        2   -1    0    0  501    0  0.00000000000E+00  0.00000000000E+00 -0.75287672312E+03  0.75287672313E+03  0.25500000920E-02 0. -1.
    10030    2    1    2    0    0  0.00000000000E+00  0.00000000000E+00  0.99634410691E+03  0.25020975532E+04  0.22951667883E+04 0.  0.
        5    1    3    3  502    0  0.70089675740E+03  0.70387113732E+03 -0.12829949105E+03  0.10015855889E+04  0.46999998093E+01 0. -1.
       -5    1    3    3    0  502 -0.70089675740E+03 -0.70387113732E+03  0.11246435980E+04  0.15005119643E+04  0.46999998093E+01 0.  1.
</event>
<event>
 5   0  0.3184492E-06  0.2278472E+04  0.7818609E-02  0.8486458E-01
       -1   -1    0    0    0  501  0.00000000000E+00  0.00000000000E+00  0.26939611672E+04  0.26939611672E+04  0.50400001928E-02 0.  1.
        1   -1    0    0  501    0  0.00000000000E+00  0.00000000000E+00 -0.48176597388E+03  0.48176597390E+03  0.50400001928E-02 0. -1.
    10030    2    1    2    0    0  0.00000000000E+00  0.00000000000E+00  0.22121951933E+04  0.31757271411E+04  0.22784721419E+04 0.  0.
        1    1    3    3  502    0  0.54294515834E+03 -0.96369281394E+03  0.14861866200E+04  0.18526316294E+04  0.50400001928E-02 0.  1.
       -1    1    3    3    0  502 -0.54294515834E+03  0.96369281394E+03  0.72600857328E+03  0.13230955117E+04  0.50400001928E-02 0. -1.
</event>
<event>
 5   0  0.7348107E-06  0.2257605E+04  0.7818609E-02  0.8494827E-01
       -2   -1    0    0    0  501  0.00000000000E+00  0.00000000000E+00  0.99502061160E+03  0.99502061160E+03  0.25500000920E-02 0. -1.
        2   -1    0    0  501    0  0.00000000000E+00  0.00000000000E+00 -0.12805714910E+04  0.12805714910E+04  0.25500000920E-02 0.  1.
    10030    2    1    2    0    0  0.00000000000E+00  0.00000000000E+00 -0.28555087944E+03  0.22755921026E+04  0.22576049506E+04 0.  0.
        3    1    3    3  502    0  0.31561725694E+03 -0.48967512539E+03  0.83177786213E+03  0.10155049992E+04  0.10100000352E+00 0. -1.
       -3    1    3    3    0  502 -0.31561725694E+03  0.48967512539E+03 -0.11173287416E+04  0.12600871034E+04  0.10100000352E+00 0.  1.
</event>
<event>
 5   0  0.7497344E-06  0.2301573E+04  0.7818609E-02  0.8477301E-01
       -2   -1    0    0    0  501  0.00000000000E+00  0.00000000000E+00  0.13977765699E+04  0.13977765699E+04  0.25500000920E-02 0. -1.
        2   -1    0    0  501    0  0.00000000000E+00  0.00000000000E+00 -0.94743972685E+03  0.94743972685E+03  0.25500000920E-02 0.  1.
    10030    2    1    2    0    0  0.00000000000E+00  0.00000000000E+00  0.45033684304E+03  0.23452162968E+04  0.23015725507E+04 0.  0.
        5    1    3    3  502    0 -0.22207282530E+03 -0.41363562572E+03  0.12957466746E+04  0.13781844235E+04  0.46999998093E+01 0. -1.
       -5    1    3    3    0  502  0.22207282530E+03  0.41363562572E+03 -0.84540983152E+03  0.96703187323E+03  0.46999998093E+01 0.  1.
</event>
<event>
 5   0  0.3184492E-06  0.2297671E+04  0.7818609E-02  0.8478840E-01
        1   -1    0    0  501    0  0.00000000000E+00  0.00000000000E+00  0.19944814877E+04  0.19944814877E+04  0.50400001928E-02 0.  1.
       -1   -1    0    0    0  501  0.00000000000E+00  0.00000000000E+00 -0.66173749018E+03  0.66173749020E+03  0.50400001928E-02 0. -1.
    10030    2    1    2    0    0  0.00000000000E+00  0.00000000000E+00  0.13327439975E+04  0.26562189779E+04  0.22976711461E+04 0.  0.
        1    1    3    3  502    0 -0.10957331996E+03  0.10570300770E+04  0.16179392923E+03  0.10749400782E+04  0.50400001928E-02 0. -1.
       -1    1    3    3    0  502  0.10957331996E+03 -0.10570300770E+04  0.11709500682E+04  0.15812788997E+04  0.50400001928E-02 0.  1.
</event>
<event>
 5   0  0.7003852E-06  0.2316344E+04  0.7818609E-02  0.8471505E-01
       -2   -1    0    0    0  501  0.00000000000E+00  0.00000000000E+00  0.10826209254E+04  0.10826209254E+04  0.25500000920E-02 0. -1.
        2   -1    0    0  501    0  0.00000000000E+00  0.00000000000E+00 -0.12389957066E+04  0.12389957066E+04  0.25500000920E-02 0.  1.
    10030    2    1    2    0    0  0.00000000000E+00  0.00000000000E+00 -0.15637478119E+03  0.23216166320E+04  0.23163442563E+04 0.  0.
        2    1    3    3  502    0  0.87307394658E+03  0.73480090033E+03 -0.27655756634E+03  0.11741697351E+04  0.25500000920E-02 0. -1.
       -2    1    3    3    0  502 -0.87307394658E+03 -0.73480090033E+03  0.12018278514E+03  0.11474468969E+04  0.25500000920E-02 0.  1.
</event>
<event>
 5   0  0.7497344E-06  0.2302744E+04  0.7818609E-02  0.8476840E-01
       -2   -1    0    0    0  501  0.00000000000E+00  0.00000000000E+00  0.11047488849E+04  0.11047488849E+04  0.25500000920E-02 0. -1.
        2   -1    0    0  501    0  0.00000000000E+00  0.00000000000E+00 -0.11999627500E+04  0.11999627500E+04  0.25500000920E-02 0.  1.
    10030    2    1    2    0    0  0.00000000000E+00  0.00000000000E+00 -0.95213865149E+02  0.23047116349E+04  0.23027440240E+04 0.  0.
        5    1    3    3  502    0  0.96603905088E+03 -0.20442467848E+03  0.54502613575E+03  0.11278725441E+04  0.46999998093E+01 0. -1.
       -5    1    3    3    0  502 -0.96603905088E+03  0.20442467848E+03 -0.64024000090E+03  0.11768390908E+04  0.46999998093E+01 0.  1.
</event>
<event>
 5   0  0.3195296E-06  0.2308165E+04  0.7818609E-02  0.8474709E-01
       -1   -1    0    0    0  501  0.00000000000E+00  0.00000000000E+00  0.83197876628E+03  0.83197876630E+03  0.50400001928E-02 0.  1.
        1   -1    0    0  501    0  0.00000000000E+00  0.00000000000E+00 -0.16008898600E+04  0.16008898600E+04  0.50400001928E-02 0. -1.
    10030    2    1    2    0    0  0.00000000000E+00  0.00000000000E+00 -0.76891109368E+03  0.24328686263E+04  0.23081649600E+04 0.  0.
        2    1    3    3  502    0  0.10253174518E+04 -0.37445592103E+03 -0.77941805367E+03  0.13412626947E+04  0.25500000920E-02 0. -1.
       -2    1    3    3    0  502 -0.10253174518E+04  0.37445592103E+03  0.10506959983E+02  0.10916059316E+04  0.25500000920E-02 0.  1.
</event>
<event>
 5   0  0.7497344E-06  0.2299874E+04  0.7818609E-02  0.8477971E-01
       -2   -1    0    0    0  501  0.00000000000E+00  0.00000000000E+00  0.11550436533E+04  0.11550436533E+04  0.25500000920E-02 0. -1.
        2   -1    0    0  501    0  0.00000000000E+00  0.00000000000E+00 -0.11448528026E+04  0.11448528026E+04  0.25500000920E-02 0.  1.
    10030    2    1    2    0    0  0.00000000000E+00  0.00000000000E+00  0.10190850624E+02  0.22998964559E+04  0.22998738779E+04 0.  0.
        5    1    3    3  502    0  0.94283777534E+03  0.11367789378E+02 -0.65313635992E+03  0.11470316002E+04  0.46999998093E+01 0.  1.
       -5    1    3    3    0  502 -0.94283777534E+03 -0.11367789378E+02  0.66332721054E+03  0.11528648557E+04  0.46999998093E+01 0. -1.
</event>
<event>
 5   0  0.3226427E-06  0.2300282E+04  0.7818609E-02  0.8477810E-01
        1   -1    0    0  501    0  0.00000000000E+00  0.00000000000E+00  0.14366385144E+04  0.14366385144E+04  0.50400001928E-02 0. -1.
       -1   -1    0    0    0  501  0.00000000000E+00  0.00000000000E+00 -0.92077733473E+03  0.92077733474E+03  0.50400001928E-02 0.  1.
    10030    2    1    2    0    0  0.00000000000E+00  0.00000000000E+00  0.51586117962E+03  0.23574158491E+04  0.23002818803E+04 0.  0.
        4    1    3    3  502    0 -0.10116457061E+04 -0.28209082272E+03 -0.22256459641E+03  0.10735636355E+04  0.12699999809E+01 0.  1.
       -4    1    3    3    0  502  0.10116457061E+04  0.28209082272E+03  0.73842577603E+03  0.12838522137E+04  0.12699999809E+01 0. -1.
</event>
<event>
 5   0  0.3338758E-06  0.2301829E+04  0.7818609E-02  0.8477200E-01
       -1   -1    0    0    0  501  0.00000000000E+00  0.00000000000E+00  0.71777547394E+03  0.71777547396E+03  0.50400001928E-02 0. -1.
        1   -1    0    0  501    0  0.00000000000E+00  0.00000000000E+00 -0.18454302674E+04  0.18454302674E+04  0.50400001928E-02 0.  1.
    10030    2    1    2    0    0  0.00000000000E+00  0.00000000000E+00 -0.11276547935E+04  0.25632057414E+04  0.23018293463E+04 0.  0.
        5    1    3    3  502    0 -0.86291958503E+03  0.27736724404E+03  0.22594661727E+03  0.93415028884E+03  0.46999998093E+01 0. -1.
       -5    1    3    3    0  502  0.86291958503E+03 -0.27736724404E+03 -0.13536014108E+04  0.16290554526E+04  0.46999998093E+01 0.  1.
</event>
<event>
 5   0  0.3338758E-06  0.2299189E+04  0.7818609E-02  0.8478241E-01
        1   -1    0    0  501    0  0.00000000000E+00  0.00000000000E+00  0.21990813985E+04  0.21990813985E+04  0.50400001928E-02 0. -1.
       -1   -1    0    0    0  501  0.00000000000E+00  0.00000000000E+00 -0.60096343814E+03  0.60096343816E+03  0.50400001928E-02 0.  1.
    10030    2    1    2    0    0  0.00000000000E+00  0.00000000000E+00  0.15981179604E+04  0.28000448367E+04  0.22991890031E+04 0.  0.
        5    1    3    3  502    0 -0.10755593163E+03 -0.64097120202E+03 -0.35572911271E+03  0.74093026114E+03  0.46999998093E+01 0.  1.
       -5    1    3    3    0  502  0.10755593163E+03  0.64097120202E+03  0.19538470731E+04  0.20591145756E+04  0.46999998093E+01 0. -1.
</event>
<event>
 5   0  0.2519625E-06  0.2300980E+04  0.7818609E-02  0.8477535E-01
       -3   -1    0    0    0  501  0.00000000000E+00  0.00000000000E+00  0.14566569074E+04  0.14566569109E+04  0.10100000352E+00 0.  1.
        3   -1    0    0  501    0  0.00000000000E+00  0.00000000000E+00 -0.90867443667E+03  0.90867444229E+03  0.10100000352E+00 0. -1.
    10030    2    1    2    0    0  0.00000000000E+00  0.00000000000E+00  0.54798247071E+03  0.23653313532E+04  0.23009797092E+04 0.  0.
        3    1    3    3  502    0  0.48780924506E+03  0.83894513416E+03  0.90920509568E+03  0.13298273248E+04  0.10100000352E+00 0.  1.
       -3    1    3    3    0  502 -0.48780924506E+03 -0.83894513416E+03 -0.36122262497E+03  0.10355040283E+04  0.10100000352E+00 0. -1.
</event>
<event>
 5   0  0.7348107E-06  0.2307023E+04  0.7818609E-02  0.8475157E-01
       -2   -1    0    0    0  501  0.00000000000E+00  0.00000000000E+00  0.15412885211E+04  0.15412885211E+04  0.25500000920E-02 0.  1.
        2   -1    0    0  501    0  0.00000000000E+00  0.00000000000E+00 -0.86329634617E+03  0.86329634617E+03  0.25500000920E-02 0. -1.
    10030    2    1    2    0    0  0.00000000000E+00  0.00000000000E+00  0.67799217496E+03  0.24045848673E+04  0.23070229723E+04 0.  0.
        3    1    3    3  502    0 -0.10482186619E+04  0.28891024276E+03 -0.62464183528E+02  0.10890974593E+04  0.10100000352E+00 0. -1.
       -3    1    3    3    0  502  0.10482186619E+04 -0.28891024276E+03  0.74045635849E+03  0.13154874080E+04  0.10100000352E+00 0.  1.
</event>
<event>
 5   0  0.3338758E-06  0.2295310E+04  0.7818609E-02  0.8479773E-01
        1   -1    0    0  501    0  0.00000000000E+00  0.00000000000E+00  0.16542394903E+04  0.16542394903E+04  0.50400001928E-02 0.  1.
       -1   -1    0    0    0  501  0.00000000000E+00  0.00000000000E+00 -0.79620363260E+03  0.79620363262E+03  0.50400001928E-02 0. -1.
    10030    2    1    2    0    0  0.00000000000E+00  0.00000000000E+00  0.85803585766E+03  0.24504431229E+04  0.22953095577E+04 0.  0.
        5    1    3    3  502    0  0.11957273194E+03  0.11407135146E+04  0.38679164022E+03  0.12104357991E+04  0.46999998093E+01 0. -1.
       -5    1    3    3    0  502 -0.11957273194E+03 -0.11407135146E+04  0.47124421744E+03  0.12400073238E+04  0.46999998093E+01 0.  1.
</event>
<event>
 5   0  0.3338758E-06  0.2300028E+04  0.7818609E-02  0.8477910E-01
        1   -1    0    0  501    0  0.00000000000E+00  0.00000000000E+00  0.11736327454E+04  0.11736327454E+04  0.50400001928E-02 0.  1.
       -1   -1    0    0    0  501  0.00000000000E+00  0.00000000000E+00 -0.11268710331E+04  0.11268710331E+04  0.50400001928E-02 0. -1.
    10030    2    1    2    0    0  0.00000000000E+00  0.00000000000E+00  0.46761712378E+02  0.23005037785E+04  0.23000284731E+04 0.  0.
        5    1    3    3  502    0  0.11475404856E+04  0.49149896103E+02  0.80364340310E+02  0.11514101770E+04  0.46999998093E+01 0. -1.
       -5    1    3    3    0  502 -0.11475404856E+04 -0.49149896103E+02 -0.33602627931E+02  0.11490936015E+04  0.46999998093E+01 0.  1.
</event>
<event>
 5   0  0.7348107E-06  0.2296529E+04  0.7818609E-02  0.8479291E-01
       -2   -1    0    0    0  501  0.00000000000E+00  0.00000000000E+00  0.74080961927E+03  0.74080961927E+03  0.25500000920E-02 0.  1.
        2   -1    0    0  501    0  0.00000000000E+00  0.00000000000E+00 -0.17798247331E+04  0.17798247331E+04  0.25500000920E-02 0. -1.
    10030    2    1    2    0    0  0.00000000000E+00  0.00000000000E+00 -0.10390151139E+04  0.25206343524E+04  0.22965289312E+04 0.  0.
        3    1    3    3  502    0  0.60788557016E+02 -0.11258204505E+04 -0.28068686569E+03  0.11618743745E+04  0.10100000352E+00 0.  1.
       -3    1    3    3    0  502 -0.60788557016E+02  0.11258204505E+04 -0.75832824818E+03  0.13587599779E+04  0.10100000352E+00 0. -1.
</event>
<event>
 5   0  0.7242214E-06  0.2300956E+04  0.7818609E-02  0.8477544E-01
        2   -1    0    0  501    0  0.00000000000E+00  0.00000000000E+00  0.12898859757E+04  0.12898859757E+04  0.25500000920E-02 0. -1.
       -2   -1    0    0    0  501  0.00000000000E+00  0.00000000000E+00 -0.10261367597E+04  0.10261367598E+04  0.25500000920E-02 0.  1.
    10030    2    1    2    0    0  0.00000000000E+00  0.00000000000E+00  0.26374921598E+03  0.23160227355E+04  0.23009558149E+04 0.  0.
        1    1    3    3  502    0 -0.82137234627E+03  0.79030409149E+03 -0.25244706701E+02  0.11401185831E+04  0.50400001928E-02 0.  1.
       -1    1    3    3    0  502  0.82137234627E+03 -0.79030409149E+03  0.28899392268E+03  0.11759041524E+04  0.50400001928E-02 0. -1.
</event>
<event>
 5   0  0.7044981E-06  0.2303643E+04  0.7818609E-02  0.8476486E-01
        2   -1    0    0  501    0  0.00000000000E+00  0.00000000000E+00  0.83066623101E+03  0.83066623101E+03  0.25500000920E-02 0.  1.
       -2   -1    0    0    0  501  0.00000000000E+00  0.00000000000E+00 -0.15971424052E+04  0.15971424052E+04  0.25500000920E-02 0. -1.
    10030    2    1    2    0    0  0.00000000000E+00  0.00000000000E+00 -0.76647617418E+03  0.24278086362E+04  0.23036425609E+04 0.  0.
        4    1    3    3  502    0 -0.66721250789E+02 -0.83715092661E+03  0.44755143501E+03  0.95161825282E+03  0.12699999809E+01 0.  1.
       -4    1    3    3    0  502  0.66721250789E+02  0.83715092661E+03 -0.12140276092E+04  0.14761903834E+04  0.12699999809E+01 0. -1.
</event>
<event>
 5   0  0.3195296E-06  0.2296273E+04  0.7818609E-02  0.8479392E-01
       -1   -1    0    0    0  501  0.00000000000E+00  0.00000000000E+00  0.61229888452E+03  0.61229888454E+03  0.50400001928E-02 0. -1.
        1   -1    0    0  501    0  0.00000000000E+00  0.00000000000E+00 -0.21528982192E+04  0.21528982192E+04  0.50400001928E-02 0.  1.
    10030    2    1    2    0    0  0.00000000000E+00  0.00000000000E+00 -0.15405993347E+04  0.27651971038E+04  0.22962727871E+04 0.  0.
        2    1    3    3  502    0  0.84486089235E+03  0.62486974866E+03 -0.21327550789E+03  0.10722586313E+04  0.25500000920E-02 0. -1.
       -2    1    3    3    0  502 -0.84486089235E+03 -0.62486974866E+03 -0.13273238268E+04  0.16929384724E+04  0.25500000920E-02 0.  1.
</event>
<event>
 5   0  0.7497344E-06  0.2302127E+04  0.7818609E-02  0.8477083E-01
        2   -1    0    0  501    0  0.00000000000E+00  0.00000000000E+00  0.18887036336E+04  0.18887036336E+04  0.25500000920E-02 0. -1.
       -2   -1    0    0    0  501  0.00000000000E+00  0.00000000000E+00 -0.70151149572E+03  0.70151149573E+03  0.25500000920E-02 0.  1.
    10030    2    1    2    0    0  0.00000000000E+00  0.00000000000E+00  0.11871921379E+04  0.25902151293E+04  0.23021271129E+04 0.  0.
        5    1    3    3  502    0 -0.97257419133E+03  0.48421049477E+03  0.16579890002E+03  0.10990321770E+04  0.46999998093E+01 0.  1.
       -5    1    3    3    0  502  0.97257419133E+03 -0.48421049477E+03  0.10213932379E+04  0.14911829523E+04  0.46999998093E+01 0. -1.
</event>
<event>
 5   0  0.3226427E-06  0.2300163E+04  0.7818609E-02  0.8477857E-01
        1   -1    0    0  501    0  0.00000000000E+00  0.00000000000E+00  0.17903025638E+04  0.17903025638E+04  0.50400001928E-02 0.  1.
       -1   -1    0    0    0  501  0.00000000000E+00  0.00000000000E+00 -0.73880642164E+03  0.73880642165E+03  0.50400001928E-02 0. -1.
    10030    2    1    2    0    0  0.00000000000E+00  0.00000000000E+00  0.10514961422E+04  0.25291089855E+04  0.23001626298E+04 0.  0.
        4    1    3    3  502    0 -0.67470828734E+03 -0.79046355481E+02  0.15461293431E+04  0.16887857051E+04  0.12699999809E+01 0.  1.
       -4    1    3    3    0  502  0.67470828734E+03  0.79046355481E+02 -0.49463320085E+03  0.84032328042E+03  0.12699999809E+01 0. -1.
</event>
<event>
 5   0  0.7242214E-06  0.2312230E+04  0.7818609E-02  0.8473115E-01
       -2   -1    0    0    0  501  0.00000000000E+00  0.00000000000E+00  0.11966411396E+04  0.11966411396E+04  0.25500000920E-02 0. -1.
        2   -1    0    0  501    0  0.00000000000E+00  0.00000000000E+00 -0.11169613123E+04  0.11169613123E+04  0.25500000920E-02 0.  1.
    10030    2    1    2    0    0  0.00000000000E+00  0.00000000000E+00  0.79679827296E+02  0.23136024520E+04  0.23122299693E+04 0.  0.
        1    1    3    3  502    0 -0.11510896396E+03 -0.46288454910E+03  0.10935982947E+04  0.11930923726E+04  0.50400001928E-02 0. -1.
       -1    1    3    3    0  502  0.11510896396E+03  0.46288454910E+03 -0.10139184674E+04  0.11205100794E+04  0.50400001928E-02 0.  1.
</event>
<event>
 5   0  0.7497344E-06  0.2299338E+04  0.7818609E-02  0.8478182E-01
       -2   -1    0    0    0  501  0.00000000000E+00  0.00000000000E+00  0.13560592627E+04  0.13560592627E+04  0.25500000920E-02 0.  1.
        2   -1    0    0  501    0  0.00000000000E+00  0.00000000000E+00 -0.97469065968E+03  0.97469065969E+03  0.25500000920E-02 0. -1.
    10030    2    1    2    0    0  0.00000000000E+00  0.00000000000E+00  0.38136860301E+03  0.23307499224E+04  0.22993375545E+04 0.  0.
        5    1    3    3  502    0  0.31981134342E+03 -0.10960674329E+04  0.54411493295E+02  0.11430773436E+04  0.46999998093E+01 0. -1.
       -5    1    3    3    0  502 -0.31981134342E+03  0.10960674329E+04  0.32695710972E+03  0.11876725788E+04  0.46999998093E+01 0.  1.
</event>
<event>
 5   0  0.7003852E-06  0.2299546E+04  0.7818609E-02  0.8478100E-01
       -2   -1    0    0    0  501  0.00000000000E+00  0.00000000000E+00  0.96688000026E+03  0.96688000026E+03  0.25500000920E-02 0.  1.
        2   -1    0    0  501    0  0.00000000000E+00  0.00000000000E+00 -0.13672612824E+04  0.13672612824E+04  0.25500000920E-02 0. -1.
    10030    2    1    2    0    0  0.00000000000E+00  0.00000000000E+00 -0.40038128211E+03  0.23341412826E+04  0.22995456847E+04 0.  0.
        2    1    3    3  502    0 -0.15637125889E+03 -0.67353593099E+03  0.73225634609E+03  0.10071256016E+04  0.25500000920E-02 0.  1.
       -2    1    3    3    0  502  0.15637125889E+03  0.67353593099E+03 -0.11326376282E+04  0.13270156811E+04  0.25500000920E-02 0. -1.
</event>
<event>
 5   0  0.3184492E-06  0.2299942E+04  0.7818609E-02  0.8477944E-01
        1   -1    0    0  501    0  0.00000000000E+00  0.00000000000E+00  0.19230139235E+04  0.19230139235E+04  0.50400001928E-02 0.  1.
       -1   -1    0    0    0  501  0.00000000000E+00  0.00000000000E+00 -0.68768799941E+03  0.68768799943E+03  0.50400001928E-02 0. -1.
    10030    2    1    2    0    0  0.00000000000E+00  0.00000000000E+00  0.12353259241E+04  0.26107019229E+04  0.22999422583E+04 0.  0.
        1    1    3    3  502    0  0.42277151446E+02  0.69110608052E+02 -0.68444454612E+03  0.68922272918E+03  0.50400001928E-02 0. -1.
       -1    1    3    3    0  502 -0.42277151446E+02 -0.69110608052E+02  0.19197704702E+04  0.19214791937E+04  0.50400001928E-02 0.  1.
</event>
<event>
 5   0  0.3226427E-06  0.2295618E+04  0.7818609E-02  0.8479651E-01
        1   -1    0    0  501    0  0.00000000000E+00  0.00000000000E+00  0.77381737147E+03  0.77381737148E+03  0.50400001928E-02 0. -1.
       -1   -1    0    0    0  501  0.00000000000E+00  0.00000000000E+00 -0.17025541728E+04  0.17025541728E+04  0.50400001928E-02 0.  1.
    10030    2    1    2    0    0  0.00000000000E+00  0.00000000000E+00 -0.92873680130E+03  0.24763715443E+04  0.22956184306E+04 0.  0.
        4    1    3    3  502    0  0.51785946171E+03  0.27390859620E+03 -0.15291328619E+04  0.16375143552E+04  0.12699999809E+01 0.  1.
       -4    1    3    3    0  502 -0.51785946171E+03 -0.27390859620E+03  0.60039606061E+03  0.83885718907E+03  0.12699999809E+01 0. -1.
</event>
<event>
 5   0  0.7003852E-06  0.2300308E+04  0.7818609E-02  0.8477800E-01
       -2   -1    0    0    0  501  0.00000000000E+00  0.00000000000E+00  0.80855384706E+03  0.80855384707E+03  0.25500000920E-02 0. -1.
        2   -1    0    0  501    0  0.00000000000E+00  0.00000000000E+00 -0.16360740305E+04  0.16360740305E+04  0.25500000920E-02 0.  1.
    10030    2    1    2    0    0  0.00000000000E+00  0.00000000000E+00 -0.82752018339E+03  0.24446278775E+04  0.23003077632E+04 0.  0.
        2    1    3    3  502    0  0.12303068327E+03  0.39511827888E+02 -0.16283351988E+04  0.16334543927E+04  0.25500000920E-02 0.  1.
       -2    1    3    3    0  502 -0.12303068327E+03 -0.39511827888E+02  0.80081501538E+03  0.81117348480E+03  0.25500000920E-02 0. -1.
</event>
<event>
 5   0  0.7497344E-06  0.2293995E+04  0.7818609E-02  0.8480293E-01
        2   -1    0    0  501    0  0.00000000000E+00  0.00000000000E+00  0.69461704600E+03  0.69461704601E+03  0.25500000920E-02 0.  1.
       -2   -1    0    0    0  501  0.00000000000E+00  0.00000000000E+00 -0.18939971679E+04  0.18939971679E+04  0.25500000920E-02 0. -1.
    10030    2    1    2    0    0  0.00000000000E+00  0.00000000000E+00 -0.11993801219E+04  0.25886142139E+04  0.22939945230E+04 0.  0.
        5    1    3    3  502    0 -0.40184743121E+03  0.75127942005E+02 -0.18089842279E+04  0.18546082046E+04  0.46999998093E+01 0. -1.
       -5    1    3    3    0  502  0.40184743121E+03 -0.75127942005E+02  0.60960410603E+03  0.73400600932E+03  0.46999998093E+01 0.  1.
</event>
<event>
 5   0  0.3226427E-06  0.2300617E+04  0.7818609E-02  0.8477678E-01
        1   -1    0    0  501    0  0.00000000000E+00  0.00000000000E+00  0.14399385375E+04  0.14399385375E+04  0.50400001928E-02 0. -1.
       -1   -1    0    0    0  501  0.00000000000E+00  0.00000000000E+00 -0.91893514937E+03  0.91893514938E+03  0.50400001928E-02 0.  1.
    10030    2    1    2    0    0  0.00000000000E+00  0.00000000000E+00  0.52100338817E+03  0.23588736869E+04  0.23006174259E+04 0.  0.
        4    1    3    3  502    0 -0.44934856710E+03 -0.10031858032E+04 -0.87069812418E+02  0.11026688785E+04  0.12699999809E+01 0.  1.
       -4    1    3    3    0  502  0.44934856710E+03  0.10031858032E+04  0.60807320059E+03  0.12562048084E+04  0.12699999809E+01 0. -1.
</event>
<event>
 5   0  0.3195296E-06  0.2304468E+04  0.7818609E-02  0.8476162E-01
       -1   -1    0    0    0  501  0.00000000000E+00  0.00000000000E+00  0.16484569387E+04  0.16484569388E+04  0.50400001928E-02 0.  1.
        1   -1    0    0  501    0  0.00000000000E+00  0.00000000000E+00 -0.80538521118E+03  0.80538521119E+03  0.50400001928E-02 0. -1.
    10030    2    1    2    0    0  0.00000000000E+00  0.00000000000E+00  0.84307172757E+03  0.24538421499E+04  0.23044676954E+04 0.  0.
        2    1    3    3  502    0 -0.60403515844E+03 -0.11084611574E+03 -0.61659353127E+03  0.87024876720E+03  0.25500000920E-02 0. -1.
       -2    1    3    3    0  502  0.60403515844E+03  0.11084611574E+03  0.14596652588E+04  0.15835933827E+04  0.25500000920E-02 0.  1.
</event>
<event>
 5   0  0.7044981E-06  0.2296733E+04  0.7818609E-02  0.8479210E-01
        2   -1    0    0  501    0  0.00000000000E+00  0.00000000000E+00  0.16461252410E+04  0.16461252410E+04  0.25500000920E-02 0.  1.
       -2   -1    0    0    0  501  0.00000000000E+00  0.00000000000E+00 -0.80112081699E+03  0.80112081699E+03  0.25500000920E-02 0. -1.
    10030    2    1    2    0    0  0.00000000000E+00  0.00000000000E+00  0.84500442403E+03  0.24472460580E+04  0.22967326339E+04 0.  0.
        4    1    3    3  502    0 -0.55578360832E+03  0.89664131530E+03 -0.60976026757E+02  0.10566838488E+04  0.12699999809E+01 0. -1.
       -4    1    3    3    0  502  0.55578360832E+03 -0.89664131530E+03  0.90598045079E+03  0.13905622092E+04  0.12699999809E+01 0.  1.
</event>
<event>
 5   0  0.2519625E-06  0.2305442E+04  0.7818609E-02  0.8475779E-01
       -3   -1    0    0    0  501  0.00000000000E+00  0.00000000000E+00  0.15460041872E+04  0.15460041905E+04  0.10100000352E+00 0.  1.
        3   -1    0    0  501    0  0.00000000000E+00  0.00000000000E+00 -0.85948352854E+03  0.85948353447E+03  0.10100000352E+00 0. -1.
    10030    2    1    2    0    0  0.00000000000E+00  0.00000000000E+00  0.68652065867E+03  0.24054877250E+04  0.23054415153E+04 0.  0.
        4    1    3    3  502    0  0.11413499273E+03 -0.34852899681E+03  0.14835081635E+04  0.15281679692E+04  0.12699999809E+01 0.  1.
       -4    1    3    3    0  502 -0.11413499273E+03  0.34852899681E+03 -0.79698750478E+03  0.87731975577E+03  0.12699999809E+01 0. -1.
</event>
<event>
 5   0  0.7044981E-06  0.2283239E+04  0.7818609E-02  0.8484559E-01
        2   -1    0    0  501    0  0.00000000000E+00  0.00000000000E+00  0.15268517648E+04  0.15268517648E+04  0.25500000920E-02 0. -1.
       -2   -1    0    0    0  501  0.00000000000E+00  0.00000000000E+00 -0.85358348335E+03  0.85358348336E+03  0.25500000920E-02 0.  1.
    10030    2    1    2    0    0  0.00000000000E+00  0.00000000000E+00  0.67326828147E+03  0.23804352482E+04  0.22832393199E+04 0.  0.
        4    1    3    3  502    0  0.90505983033E+02  0.11372583023E+04  0.38019876824E+03  0.12025391867E+04  0.12699999809E+01 0.  1.
       -4    1    3    3    0  502 -0.90505983033E+02 -0.11372583023E+04  0.29306951323E+03  0.11778960615E+04  0.12699999809E+01 0. -1.
</event>
<event>
 5   0  0.7044981E-06  0.2297714E+04  0.7818609E-02  0.8478823E-01
       -2   -1    0    0    0  501  0.00000000000E+00  0.00000000000E+00  0.28155182599E+04  0.28155182599E+04  0.25500000920E-02 0. -1.
        2   -1    0    0  501    0  0.00000000000E+00  0.00000000000E+00 -0.46878508915E+03  0.46878508916E+03  0.25500000920E-02 0.  1.
    10030    2    1    2    0    0  0.00000000000E+00  0.00000000000E+00  0.23467331707E+04  0.32843033490E+04  0.22977144979E+04 0.  0.
        4    1    3    3  502    0 -0.11344809964E+04  0.17514456435E+03  0.11071103737E+04  0.15948096256E+04  0.12699999809E+01 0.  1.
       -4    1    3    3    0  502  0.11344809964E+04 -0.17514456435E+03  0.12396227970E+04  0.16894937234E+04  0.12699999809E+01 0. -1.
</event>
<event>
 5   0  0.7348107E-06  0.2265308E+04  0.7818609E-02  0.8491727E-01
        2   -1    0    0  501    0  0.00000000000E+00  0.00000000000E+00  0.16413963008E+04  0.16413963008E+04  0.25500000920E-02 0. -1.
       -2   -1    0    0    0  501  0.00000000000E+00  0.00000000000E+00 -0.78159378295E+03  0.78159378295E+03  0.25500000920E-02 0.  1.
    10030    2    1    2    0    0  0.00000000000E+00  0.00000000000E+00  0.85980251785E+03  0.24229900838E+04  0.22653080533E+04 0.  0.
        3    1    3    3  502    0 -0.18117345145E+03  0.90574841489E+03 -0.27124337133E+03  0.96269257153E+03  0.10100000352E+00 0.  1.
       -3    1    3    3    0  502  0.18117345145E+03 -0.90574841489E+03  0.11310458892E+04  0.14602975122E+04  0.10100000352E+00 0. -1.
</event>
<event>
 5   0  0.3195296E-06  0.2303470E+04  0.7818609E-02  0.8476554E-01
        1   -1    0    0  501    0  0.00000000000E+00  0.00000000000E+00  0.73203745299E+03  0.73203745301E+03  0.50400001928E-02 0.  1.
       -1   -1    0    0    0  501  0.00000000000E+00  0.00000000000E+00 -0.18120561787E+04  0.18120561787E+04  0.50400001928E-02 0. -1.
    10030    2    1    2    0    0  0.00000000000E+00  0.00000000000E+00 -0.10800187257E+04  0.25440936317E+04  0.23034695481E+04 0.  0.
        2    1    3    3  502    0  0.46297585676E+03  0.64758353145E+03 -0.14592916386E+04  0.16623005626E+04  0.25500000920E-02 0. -1.
       -2    1    3    3    0  502 -0.46297585676E+03 -0.64758353145E+03  0.37927291290E+03  0.88179306904E+03  0.25500000920E-02 0.  1.
</event>
<event>
 5   0  0.3184492E-06  0.2295936E+04  0.7818609E-02  0.8479525E-01
        1   -1    0    0  501    0  0.00000000000E+00  0.00000000000E+00  0.20404166055E+04  0.20404166055E+04  0.50400001928E-02 0.  1.
       -1   -1    0    0    0  501  0.00000000000E+00  0.00000000000E+00 -0.64586327572E+03  0.64586327574E+03  0.50400001928E-02 0. -1.
    10030    2    1    2    0    0  0.00000000000E+00  0.00000000000E+00  0.13945533298E+04  0.26862798812E+04  0.22959356722E+04 0.  0.
        1    1    3    3  502    0 -0.69250869664E+03  0.40565351125E+03  0.16576212711E+04  0.18416925217E+04  0.50400001928E-02 0.  1.
       -1    1    3    3    0  502  0.69250869664E+03 -0.40565351125E+03 -0.26306794131E+03  0.84458735953E+03  0.50400001928E-02 0. -1.
</event>
<event>
 5   0  0.3338758E-06  0.2305809E+04  0.7818609E-02  0.8475634E-01
        1   -1    0    0  501    0  0.00000000000E+00  0.00000000000E+00  0.17169339223E+04  0.17169339223E+04  0.50400001928E-02 0.  1.
       -1   -1    0    0    0  501  0.00000000000E+00  0.00000000000E+00 -0.77416392825E+03  0.77416392826E+03  0.50400001928E-02 0. -1.
    10030    2    1    2    0    0  0.00000000000E+00  0.00000000000E+00  0.94276999400E+03  0.24910978505E+04  0.23058085869E+04 0.  0.
        5    1    3    3  502    0  0.87342009820E+03  0.18454847633E+03  0.12595615261E+04  0.15438387662E+04  0.46999998093E+01 0.  1.
       -5    1    3    3    0  502 -0.87342009820E+03 -0.18454847633E+03 -0.31679153206E+03  0.94725908433E+03  0.46999998093E+01 0. -1.
</event>
<event>
 5   0  0.7242214E-06  0.2307919E+04  0.7818609E-02  0.8474805E-01
        2   -1    0    0  501    0  0.00000000000E+00  0.00000000000E+00  0.24624233848E+04  0.24624233848E+04  0.25500000920E-02 0. -1.
       -2   -1    0    0    0  501  0.00000000000E+00  0.00000000000E+00 -0.54077735924E+03  0.54077735925E+03  0.25500000920E-02 0.  1.
    10030    2    1    2    0    0  0.00000000000E+00  0.00000000000E+00  0.19216460256E+04  0.30032007441E+04  0.23079192494E+04 0.  0.
        1    1    3    3  502    0 -0.54690494354E+02  0.10730058423E+04  0.41291689191E+03  0.11510138781E+04  0.50400001928E-02 0.  1.
       -1    1    3    3    0  502  0.54690494354E+02 -0.10730058423E+04  0.15087291337E+04  0.18521868660E+04  0.50400001928E-02 0. -1.
</event>
<event>
 5   0  0.7497344E-06  0.2304106E+04  0.7818609E-02  0.8476304E-01
        2   -1    0    0  501    0  0.00000000000E+00  0.00000000000E+00  0.15880714274E+04  0.15880714274E+04  0.25500000920E-02 0. -1.
       -2   -1    0    0    0  501  0.00000000000E+00  0.00000000000E+00 -0.83574725688E+03  0.83574725688E+03  0.25500000920E-02 0.  1.
    10030    2    1    2    0    0  0.00000000000E+00  0.00000000000E+00  0.75232417055E+03  0.24238186843E+04  0.23041061948E+04 0.  0.
        5    1    3    3  502    0  0.76446054468E+02 -0.28578379494E+02 -0.83269232045E+03  0.83669547241E+03  0.46999998093E+01 0.  1.
       -5    1    3    3    0  502 -0.76446054468E+02  0.28578379494E+02  0.15850164910E+04  0.15871232119E+04  0.46999998093E+01 0. -1.
</event>
<event>
 5   0  0.7044981E-06  0.2301609E+04  0.7818609E-02  0.8477287E-01
       -2   -1    0    0    0  501  0.00000000000E+00  0.00000000000E+00  0.97337224764E+03  0.97337224764E+03  0.25500000920E-02 0. -1.
        2   -1    0    0  501    0  0.00000000000E+00  0.00000000000E+00 -0.13605800789E+04  0.13605800789E+04  0.25500000920E-02 0.  1.
    10030    2    1    2    0    0  0.00000000000E+00  0.00000000000E+00 -0.38720783125E+03  0.23339523265E+04  0.23016089064E+04 0.  0.
        4    1    3    3  502    0 -0.74463814392E+03 -0.26507605926E+03 -0.10417774738E+04  0.13076900246E+04  0.12699999809E+01 0.  1.
       -4    1    3    3    0  502  0.74463814392E+03  0.26507605926E+03  0.65456964254E+03  0.10262623020E+04  0.12699999809E+01 0. -1.
</event>
<event>
 5   0  0.3338758E-06  0.2298497E+04  0.7818609E-02  0.8478514E-01
        1   -1    0    0  501    0  0.00000000000E+00  0.00000000000E+00  0.10985862339E+04  0.10985862339E+04  0.50400001928E-02 0. -1.
       -1   -1    0    0    0  501  0.00000000000E+00  0.00000000000E+00 -0.12022467421E+04  0.12022467421E+04  0.50400001928E-02 0.  1.
    10030    2    1    2    0    0  0.00000000000E+00  0.00000000000E+00 -0.10366050819E+03  0.23008329760E+04  0.22984966571E+04 0.  0.
        5    1    3    3  502    0  0.34714803646E+03 -0.55529515564E+03  0.89352640121E+03  0.11078248908E+04  0.46999998093E+01 0. -1.
       -5    1    3    3    0  502 -0.34714803646E+03  0.55529515564E+03 -0.99718690940E+03  0.11930080852E+04  0.46999998093E+01 0.  1.
</event>
<event>
 5   0  0.3184492E-06  0.2296825E+04  0.7818609E-02  0.8479174E-01
        1   -1    0    0  501    0  0.00000000000E+00  0.00000000000E+00  0.15254280200E+04  0.15254280200E+04  0.50400001928E-02 0. -1.
       -1   -1    0    0    0  501  0.00000000000E+00  0.00000000000E+00 -0.86457779120E+03  0.86457779122E+03  0.50400001928E-02 0.  1.
    10030    2    1    2    0    0  0.00000000000E+00  0.00000000000E+00  0.66085022880E+03  0.23900058112E+04  0.22968249286E+04 0.  0.
        1    1    3    3  502    0 -0.68250009169E+03 -0.91470445468E+03  0.46352274584E+03  0.12318051593E+04  0.50400001928E-02 0.  1.
       -1    1    3    3    0  502  0.68250009169E+03  0.91470445468E+03  0.19732748296E+03  0.11582006519E+04  0.50400001928E-02 0. -1.
</event>
<event>
 5   0  0.3195296E-06  0.2306626E+04  0.7818609E-02  0.8475313E-01
       -1   -1    0    0    0  501  0.00000000000E+00  0.00000000000E+00  0.22322031396E+04  0.22322031396E+04  0.50400001928E-02 0.  1.
        1   -1    0    0  501    0  0.00000000000E+00  0.00000000000E+00 -0.59588237545E+03  0.59588237547E+03  0.50400001928E-02 0. -1.
    10030    2    1    2    0    0  0.00000000000E+00  0.00000000000E+00  0.16363207642E+04  0.28280855151E+04  0.23066256821E+04 0.  0.
        2    1    3    3  502    0 -0.62158986847E+03  0.49531938598E+03  0.18428026597E+04  0.20068973321E+04  0.25500000920E-02 0.  1.
       -2    1    3    3    0  502  0.62158986847E+03 -0.49531938598E+03 -0.20648189558E+03  0.82118818302E+03  0.25500000920E-02 0. -1.
</event>
<event>
 5   0  0.3195296E-06  0.2305508E+04  0.7818609E-02  0.8475753E-01
        1   -1    0    0  501    0  0.00000000000E+00  0.00000000000E+00  0.82342724757E+03  0.82342724759E+03  0.50400001928E-02 0.  1.
       -1   -1    0    0    0  501  0.00000000000E+00  0.00000000000E+00 -0.16137938831E+04  0.16137938831E+04  0.50400001928E-02 0. -1.
    10030    2    1    2    0    0  0.00000000000E+00  0.00000000000E+00 -0.79036663556E+03  0.24372211307E+04  0.23055080615E+04 0.  0.
        2    1    3    3  502    0 -0.42835454573E+03  0.29436687132E+02 -0.15261084575E+04  0.15853583695E+04  0.25500000920E-02 0. -1.
       -2    1    3    3    0  502  0.42835454573E+03 -0.29436687132E+02  0.73574182199E+03  0.85186276127E+03  0.25500000920E-02 0.  1.
</event>
<event>
 5   0  0.3338758E-06  0.2301448E+04  0.7818609E-02  0.8477350E-01
       -1   -1    0    0    0  501  0.00000000000E+00  0.00000000000E+00  0.41815071949E+03  0.41815071952E+03  0.50400001928E-02 0. -1.
        1   -1    0    0  501    0  0.00000000000E+00  0.00000000000E+00 -0.31667198691E+04  0.31667198691E+04  0.50400001928E-02 0.  1.
    10030    2    1    2    0    0  0.00000000000E+00  0.00000000000E+00 -0.27485691496E+04  0.35848705886E+04  0.23014484063E+04 0.  0.
        5    1    3    3  502    0 -0.16414099945E+03 -0.57973187176E+03  0.15278708627E+03  0.62160863456E+03  0.46999998093E+01 0. -1.
       -5    1    3    3    0  502  0.16414099945E+03  0.57973187176E+03 -0.29013562359E+04  0.29632619541E+04  0.46999998093E+01 0.  1.
</event>
<event>
 5   0  0.7242214E-06  0.2294280E+04  0.7818609E-02  0.8480180E-01
        2   -1    0    0  501    0  0.00000000000E+00  0.00000000000E+00  0.14293784977E+04  0.14293784977E+04  0.25500000920E-02 0. -1.
       -2   -1    0    0    0  501  0.00000000000E+00  0.00000000000E+00 -0.92063088672E+03  0.92063088673E+03  0.25500000920E-02 0.  1.
    10030    2    1    2    0    0  0.00000000000E+00  0.00000000000E+00  0.50874761100E+03  0.23500093845E+04  0.22942798381E+04 0.  0.
        1    1    3    3  502    0  0.59822609922E+02 -0.76237817000E+03 -0.62145805646E+03  0.98539805901E+03  0.50400001928E-02 0.  1.
       -1    1    3    3    0  502 -0.59822609922E+02  0.76237817000E+03  0.11302056675E+04  0.13646113254E+04  0.50400001928E-02 0. -1.
</event>
<event>
 5   0  0.3195296E-06  0.2300004E+04  0.7818609E-02  0.8477920E-01
        1   -1    0    0  501    0  0.00000000000E+00  0.00000000000E+00  0.78678918275E+03  0.78678918277E+03  0.50400001928E-02 0. -1.
       -1   -1    0    0    0  501  0.00000000000E+00  0.00000000000E+00 -0.16808876059E+04  0.16808876059E+04  0.50400001928E-02 0.  1.
    10030    2    1    2    0    0  0.00000000000E+00  0.00000000000E+00 -0.89409842319E+03  0.24676767887E+04  0.23000036398E+04 0.  0.
        2    1    3    3  502    0 -0.99335167701E+03 -0.46983109145E+03 -0.83186370209E+02  0.11020021692E+04  0.25500000920E-02 0. -1.
       -2    1    3    3    0  502  0.99335167701E+03  0.46983109145E+03 -0.81091205298E+03  0.13656746195E+04  0.25500000920E-02 0.  1.
</event>
<event>
 5   0  0.3184492E-06  0.2294710E+04  0.7818609E-02  0.8480010E-01
       -1   -1    0    0    0  501  0.00000000000E+00  0.00000000000E+00  0.67452594362E+03  0.67452594364E+03  0.50400001928E-02 0. -1.
        1   -1    0    0  501    0  0.00000000000E+00  0.00000000000E+00 -0.19516279549E+04  0.19516279549E+04  0.50400001928E-02 0.  1.
    10030    2    1    2    0    0  0.00000000000E+00  0.00000000000E+00 -0.12771020113E+04  0.26261538986E+04  0.22947101672E+04 0.  0.
        1    1    3    3  502    0 -0.16279418698E+03 -0.20088772884E+03  0.64074754829E+03  0.69095242064E+03  0.50400001928E-02 0. -1.
       -1    1    3    3    0  502  0.16279418698E+03  0.20088772884E+03 -0.19178495596E+04  0.19352014779E+04  0.50400001928E-02 0.  1.
</event>
<event>
 5   0  0.7044981E-06  0.2302409E+04  0.7818609E-02  0.8476972E-01
        2   -1    0    0  501    0  0.00000000000E+00  0.00000000000E+00  0.18062176433E+04  0.18062176433E+04  0.25500000920E-02 0.  1.
       -2   -1    0    0    0  501  0.00000000000E+00  0.00000000000E+00 -0.73372779687E+03  0.73372779687E+03  0.25500000920E-02 0. -1.
    10030    2    1    2    0    0  0.00000000000E+00  0.00000000000E+00  0.10724898465E+04  0.25399454402E+04  0.23024092530E+04 0.  0.
        4    1    3    3  502    0  0.33328865699E+03 -0.41284721327E+03 -0.59079511916E+03  0.79408100097E+03  0.12699999809E+01 0. -1.
       -4    1    3    3    0  502 -0.33328865699E+03  0.41284721327E+03  0.16632849656E+04  0.17458644392E+04  0.12699999809E+01 0.  1.
</event>
<event>
 5   0  0.3338758E-06  0.2296821E+04  0.7818609E-02  0.8479176E-01
        1   -1    0    0  501    0  0.00000000000E+00  0.00000000000E+00  0.12909717264E+04  0.12909717264E+04  0.50400001928E-02 0.  1.
       -1   -1    0    0    0  501  0.00000000000E+00  0.00000000000E+00 -0.10215918188E+04  0.10215918188E+04  0.50400001928E-02 0. -1.
    10030    2    1    2    0    0  0.00000000000E+00  0.00000000000E+00  0.26937990762E+03  0.23125635452E+04  0.22968205450E+04 0.  0.
        5    1    3    3  502    0 -0.22232649304E+03  0.35251008420E+03 -0.94275307914E+03  0.10307753815E+04  0.46999998093E+01 0. -1.
       -5    1    3    3    0  502  0.22232649304E+03 -0.35251008420E+03  0.12121329868E+04  0.12817881637E+04  0.46999998093E+01 0.  1.
</event>
<event>
 5   0  0.3338758E-06  0.2303337E+04  0.7818609E-02  0.8476607E-01
        1   -1    0    0  501    0  0.00000000000E+00  0.00000000000E+00  0.16791384586E+04  0.16791384586E+04  0.50400001928E-02 0.  1.
       -1   -1    0    0    0  501  0.00000000000E+00  0.00000000000E+00 -0.78989331058E+03  0.78989331060E+03  0.50400001928E-02 0. -1.
    10030    2    1    2    0    0  0.00000000000E+00  0.00000000000E+00  0.88924514799E+03  0.24690317692E+04  0.23033369150E+04 0.  0.
        5    1    3    3  502    0 -0.70532884117E+02 -0.40159016863E+03  0.15991680529E+04  0.16503363605E+04  0.46999998093E+01 0.  1.
       -5    1    3    3    0  502  0.70532884117E+02  0.40159016863E+03 -0.70992290492E+03  0.81869540869E+03  0.46999998093E+01 0. -1.
</event>
<event>
 5   0  0.3195296E-06  0.2325235E+04  0.7818609E-02  0.8468037E-01
        1   -1    0    0  501    0  0.00000000000E+00  0.00000000000E+00  0.18356004471E+04  0.18356004471E+04  0.50400001928E-02 0.  1.
       -1   -1    0    0    0  501  0.00000000000E+00  0.00000000000E+00 -0.73636922542E+03  0.73636922544E+03  0.50400001928E-02 0. -1.
    10030    2    1    2    0    0  0.00000000000E+00  0.00000000000E+00  0.10992312217E+04  0.25719696726E+04  0.23252351962E+04 0.  0.
        2    1    3    3  502    0 -0.15576938839E+03 -0.10109843237E+04  0.11608123722E+04  0.15472035318E+04  0.25500000920E-02 0.  1.
       -2    1    3    3    0  502  0.15576938839E+03  0.10109843237E+04 -0.61581150533E+02  0.10247661408E+04  0.25500000920E-02 0. -1.
</event>
<event>
 5   0  0.7242214E-06  0.2298513E+04  0.7818609E-02  0.8478508E-01
       -2   -1    0    0    0  501  0.00000000000E+00  0.00000000000E+00  0.11856295621E+04  0.11856295621E+04  0.25500000920E-02 0. -1.
        2   -1    0    0  501    0  0.00000000000E+00  0.00000000000E+00 -0.11139991908E+04  0.11139991908E+04  0.25500000920E-02 0.  1.
    10030    2    1    2    0    0  0.00000000000E+00  0.00000000000E+00  0.71630371298E+02  0.22996287530E+04  0.22985128869E+04 0.  0.
        1    1    3    3  502    0  0.38072091695E+03 -0.97938482960E+03  0.50149502813E+03  0.11643196830E+04  0.50400001928E-02 0. -1.
       -1    1    3    3    0  502 -0.38072091695E+03  0.97938482960E+03 -0.42986465683E+03  0.11353090699E+04  0.50400001928E-02 0.  1.
</event>
<event>
 5   0  0.3226427E-06  0.2298725E+04  0.7818609E-02  0.8478424E-01
       -1   -1    0    0    0  501  0.00000000000E+00  0.00000000000E+00  0.83454044692E+03  0.83454044693E+03  0.50400001928E-02 0. -1.
        1   -1    0    0  501    0  0.00000000000E+00  0.00000000000E+00 -0.15829483732E+04  0.15829483732E+04  0.50400001928E-02 0.  1.
    10030    2    1    2    0    0  0.00000000000E+00  0.00000000000E+00 -0.74840792627E+03  0.24174888201E+04  0.22987252492E+04 0.  0.
        4    1    3    3  502    0  0.29341209950E+03 -0.63452998455E+03 -0.13336509290E+04  0.15057706913E+04  0.12699999809E+01 0.  1.
       -4    1    3    3    0  502 -0.29341209950E+03  0.63452998455E+03  0.58524300269E+03  0.91171812888E+03  0.12699999809E+01 0. -1.
</event>
<event>
 5   0  0.7242214E-06  0.2298545E+04  0.7818609E-02  0.8478495E-01
        2   -1    0    0  501    0  0.00000000000E+00  0.00000000000E+00  0.21536211821E+04  0.21536211821E+04  0.25500000920E-02 0. -1.
       -2   -1    0    0    0  501  0.00000000000E+00  0.00000000000E+00 -0.61330529449E+03  0.61330529449E+03  0.25500000920E-02 0.  1.
    10030    2    1    2    0    0  0.00000000000E+00  0.00000000000E+00  0.15403158876E+04  0.27669264766E+04  0.22985449948E+04 0.  0.
        1    1    3    3  502    0  0.85091482954E+03  0.60902168310E+03  0.19806322348E+03  0.10649847408E+04  0.50400001928E-02 0.  1.
       -1    1    3    3    0  502 -0.85091482954E+03 -0.60902168310E+03  0.13422526641E+04  0.17019417358E+04  0.50400001928E-02 0. -1.
</event>
<event>
 5   0  0.7348107E-06  0.2297016E+04  0.7818609E-02  0.8479098E-01
        2   -1    0    0  501    0  0.00000000000E+00  0.00000000000E+00  0.16554421181E+04  0.16554421181E+04  0.25500000920E-02 0. -1.
       -2   -1    0    0    0  501  0.00000000000E+00  0.00000000000E+00 -0.79680895993E+03  0.79680895993E+03  0.25500000920E-02 0.  1.
    10030    2    1    2    0    0  0.00000000000E+00  0.00000000000E+00  0.85863315813E+03  0.24522510780E+04  0.22970164234E+04 0.  0.
        3    1    3    3  502    0 -0.91922606221E+03 -0.64477707700E+03  0.17141881805E+03  0.11358250102E+04  0.10100000352E+00 0.  1.
       -3    1    3    3    0  502  0.91922606221E+03  0.64477707700E+03  0.68721434008E+03  0.13164260678E+04  0.10100000352E+00 0. -1.
</event>
<event>
 5   0  0.7348107E-06  0.2303393E+04  0.7818609E-02  0.8476584E-01
       -2   -1    0    0    0  501  0.00000000000E+00  0.00000000000E+00  0.95091688324E+03  0.95091688324E+03  0.25500000920E-02 0.  1.
        2   -1    0    0  501    0  0.00000000000E+00  0.00000000000E+00 -0.13948696714E+04  0.13948696714E+04  0.25500000920E-02 0. -1.
    10030    2    1    2    0    0  0.00000000000E+00  0.00000000000E+00 -0.44395278813E+03  0.23457865546E+04  0.23033932538E+04 0.  0.
        3    1    3    3  502    0  0.10204993787E+04 -0.33943251273E+03  0.19764058015E+03  0.10934784963E+04  0.10100000352E+00 0.  1.
       -3    1    3    3    0  502 -0.10204993787E+04  0.33943251273E+03 -0.64159336828E+03  0.12523080584E+04  0.10100000352E+00 0. -1.
</event>
<event>
 5   0  0.3184492E-06  0.2301165E+04  0.7818609E-02  0.8477462E-01
       -1   -1    0    0    0  501  0.00000000000E+00  0.00000000000E+00  0.18014894857E+04  0.18014894857E+04  0.50400001928E-02 0. -1.
        1   -1    0    0  501    0  0.00000000000E+00  0.00000000000E+00 -0.73485889536E+03  0.73485889537E+03  0.50400001928E-02 0.  1.
    10030    2    1    2    0    0  0.00000000000E+00  0.00000000000E+00  0.10666305903E+04  0.25363483811E+04  0.23011654208E+04 0.  0.
        1    1    3    3  502    0 -0.30605796093E+03  0.32303429065E+03  0.17028016260E+04  0.17599875017E+04  0.50400001928E-02 0. -1.
       -1    1    3    3    0  502  0.30605796093E+03 -0.32303429065E+03 -0.63617103570E+03  0.77636087940E+03  0.50400001928E-02 0.  1.
</event>
<event>
 5   0  0.3338758E-06  0.2291439E+04  0.7818609E-02  0.8481304E-01
       -1   -1    0    0    0  501  0.00000000000E+00  0.00000000000E+00  0.67274048888E+03  0.67274048889E+03  0.50400001928E-02 0.  1.
        1   -1    0    0  501    0  0.00000000000E+00  0.00000000000E+00 -0.19512321296E+04  0.19512321296E+04  0.50400001928E-02 0. -1.
    10030    2    1    2    0    0  0.00000000000E+00  0.00000000000E+00 -0.12784916407E+04  0.26239726185E+04  0.22914387243E+04 0.  0.
        5    1    3    3  502    0  0.54641732401E+03 -0.67618015014E+03 -0.14937688688E+04  0.17283399581E+04  0.46999998093E+01 0. -1.
       -5    1    3    3    0  502 -0.54641732401E+03  0.67618015014E+03  0.21527722808E+03  0.89563266039E+03  0.46999998093E+01 0.  1.
</event>
<event>
 5   0  0.7348107E-06  0.2319917E+04  0.7818609E-02  0.8470109E-01
       -2   -1    0    0    0  501  0.00000000000E+00  0.00000000000E+00  0.85681883054E+03  0.85681883055E+03  0.25500000920E-02 0.  1.
        2   -1    0    0  501    0  0.00000000000E+00  0.00000000000E+00 -0.15703477772E+04  0.15703477772E+04  0.25500000920E-02 0. -1.
    10030    2    1    2    0    0  0.00000000000E+00  0.00000000000E+00 -0.71352894666E+03  0.24271666078E+04  0.23199168485E+04 0.  0.
        3    1    3    3  502    0  0.45172496089E+03  0.99771785034E+03 -0.75653823434E+03  0.13311072306E+04  0.10100000352E+00 0. -1.
       -3    1    3    3    0  502 -0.45172496089E+03 -0.99771785034E+03  0.43009287685E+02  0.10960593771E+04  0.10100000352E+00 0.  1.
</event>
<event>
 5   0  0.3338758E-06  0.2304365E+04  0.7818609E-02  0.8476202E-01
        1   -1    0    0  501    0  0.00000000000E+00  0.00000000000E+00  0.14349859382E+04  0.14349859382E+04  0.50400001928E-02 0.  1.
       -1   -1    0    0    0  501  0.00000000000E+00  0.00000000000E+00 -0.92511319826E+03  0.92511319828E+03  0.50400001928E-02 0. -1.
    10030    2    1    2    0    0  0.00000000000E+00  0.00000000000E+00  0.50987273995E+03  0.23600991365E+04  0.23043649284E+04 0.  0.
        5    1    3    3  502    0  0.44470543920E+03 -0.94281611902E+03 -0.24768477463E+03  0.10714639516E+04  0.46999998093E+01 0. -1.
       -5    1    3    3    0  502 -0.44470543920E+03  0.94281611902E+03  0.75755751458E+03  0.12886351849E+04  0.46999998093E+01 0.  1.
</event>
<event>
 5   0  0.7003852E-06  0.2298709E+04  0.7818609E-02  0.8478430E-01
       -2   -1    0    0    0  501  0.00000000000E+00  0.00000000000E+00  0.74768779494E+03  0.74768779495E+03  0.25500000920E-02 0.  1.
        2   -1    0    0  501    0  0.00000000000E+00  0.00000000000E+00 -0.17668017755E+04  0.17668017755E+04  0.25500000920E-02 0. -1.
    10030    2    1    2    0    0  0.00000000000E+00  0.00000000000E+00 -0.10191139806E+04  0.25144895705E+04  0.22987093106E+04 0.  0.
        2    1    3    3  502    0 -0.65070789369E+03  0.66105131662E+03  0.23283080435E+03  0.95635756366E+03  0.25500000920E-02 0.  1.
       -2    1    3    3    0  502  0.65070789369E+03 -0.66105131662E+03 -0.12519447849E+04  0.15581320068E+04  0.25500000920E-02 0. -1.
</event>
<event>
 5   0  0.3238713E-06  0.2316162E+04  0.7818609E-02  0.8471576E-01
        1   -1    0    0  501    0  0.00000000000E+00  0.00000000000E+00  0.11762942303E+04  0.11762942303E+04  0.50400001928E-02 0. -1.
       -1   -1    0    0    0  501  0.00000000000E+00  0.00000000000E+00 -0.11401498822E+04  0.11401498822E+04  0.50400001928E-02 0.  1.
    10030    2    1    2    0    0  0.00000000000E+00  0.00000000000E+00  0.36144348151E+02  0.23164441125E+04  0.23161621084E+04 0.  0.
        3    1    3    3  502    0  0.79605746602E+02 -0.11521629768E+04  0.10372790436E+03  0.11595585748E+04  0.10100000352E+00 0. -1.
       -3    1    3    3    0  502 -0.79605746602E+02  0.11521629768E+04 -0.67583556209E+02  0.11568855377E+04  0.10100000352E+00 0.  1.
</event>
<event>
 5   0  0.3184492E-06  0.2303432E+04  0.7818609E-02  0.8476569E-01
       -1   -1    0    0    0  501  0.00000000000E+00  0.00000000000E+00  0.80996585284E+03  0.80996585285E+03  0.50400001928E-02 0.  1.
        1   -1    0    0  501    0  0.00000000000E+00  0.00000000000E+00 -0.16376609204E+04  0.16376609204E+04  0.50400001928E-02 0. -1.
    10030    2    1    2    0    0  0.00000000000E+00  0.00000000000E+00 -0.82769506752E+03  0.24476267732E+04  0.23034317216E+04 0.  0.
        1    1    3    3  502    0  0.16196319638E+03  0.25641911079E+03 -0.15944658628E+04  0.16230539809E+04  0.50400001928E-02 0. -1.
       -1    1    3    3    0  502 -0.16196319638E+03 -0.25641911079E+03  0.76677079525E+03  0.82457279232E+03  0.50400001928E-02 0.  1.
</event>
<event>
 5   0  0.3226427E-06  0.2301808E+04  0.7818609E-02  0.8477208E-01
       -1   -1    0    0    0  501  0.00000000000E+00  0.00000000000E+00  0.20703206298E+04  0.20703206298E+04  0.50400001928E-02 0. -1.
        1   -1    0    0  501    0  0.00000000000E+00  0.00000000000E+00 -0.63979478068E+03  0.63979478070E+03  0.50400001928E-02 0.  1.
    10030    2    1    2    0    0  0.00000000000E+00  0.00000000000E+00  0.14305258491E+04  0.27101154105E+04  0.23018082746E+04 0.  0.
        4    1    3    3  502    0 -0.53747305929E+03  0.93760773074E+03  0.24934968408E+03  0.11091268746E+04  0.12699999809E+01 0.  1.
       -4    1    3    3    0  502  0.53747305929E+03 -0.93760773074E+03  0.11811761650E+04  0.16009885358E+04  0.12699999809E+01 0. -1.
</event>
<event>
 5   0  0.7044981E-06  0.2289320E+04  0.7818609E-02  0.8482144E-01
        2   -1    0    0  501    0  0.00000000000E+00  0.00000000000E+00  0.12846549949E+04  0.12846549949E+04  0.25500000920E-02 0.  1.
       -2   -1    0    0    0  501  0.00000000000E+00  0.00000000000E+00 -0.10199207919E+04  0.10199207919E+04  0.25500000920E-02 0. -1.
    10030    2    1    2    0    0  0.00000000000E+00  0.00000000000E+00  0.26473420300E+03  0.23045757867E+04  0.22893198463E+04 0.  0.
        4    1    3    3  502    0 -0.34282423298E+03 -0.95123444895E+03  0.67247707088E+03  0.12143321026E+04  0.12699999809E+01 0. -1.
       -4    1    3    3    0  502  0.34282423298E+03  0.95123444895E+03 -0.40774286788E+03  0.10902436841E+04  0.12699999809E+01 0.  1.
</event>
<event>
 5   0  0.3238713E-06  0.2308191E+04  0.7818609E-02  0.8474698E-01
        1   -1    0    0  501    0  0.00000000000E+00  0.00000000000E+00  0.13607647528E+04  0.13607647528E+04  0.50400001928E-02 0. -1.
       -1   -1    0    0    0  501  0.00000000000E+00  0.00000000000E+00 -0.97881472502E+03  0.97881472504E+03  0.50400001928E-02 0.  1.
    10030    2    1    2    0    0  0.00000000000E+00  0.00000000000E+00  0.38195002778E+03  0.23395794779E+04  0.23081911337E+04 0.  0.
        3    1    3    3  502    0  0.86542715070E+03 -0.18415880392E+03 -0.56008583959E+03  0.10471746636E+04  0.10100000352E+00 0.  1.
       -3    1    3    3    0  502 -0.86542715070E+03  0.18415880392E+03  0.94203586737E+03  0.12924048142E+04  0.10100000352E+00 0. -1.
</event>
<event>
 5   0  0.3338758E-06  0.2297719E+04  0.7818609E-02  0.8478821E-01
       -1   -1    0    0    0  501  0.00000000000E+00  0.00000000000E+00  0.84475143271E+03  0.84475143273E+03  0.50400001928E-02 0. -1.
        1   -1    0    0  501    0  0.00000000000E+00  0.00000000000E+00 -0.15624455659E+04  0.15624455659E+04  0.50400001928E-02 0.  1.
    10030    2    1    2    0    0  0.00000000000E+00  0.00000000000E+00 -0.71769413320E+03  0.24071969986E+04  0.22977189823E+04 0.  0.
        5    1    3    3  502    0 -0.87649770098E+03  0.66195907845E+03 -0.60250226623E+01  0.10984063147E+04  0.46999998093E+01 0. -1.
       -5    1    3    3    0  502  0.87649770098E+03 -0.66195907845E+03 -0.71166911054E+03  0.13087906839E+04  0.46999998093E+01 0.  1.
</event>
<event>
 5   0  0.3226427E-06  0.2299685E+04  0.7818609E-02  0.8478045E-01
       -1   -1    0    0    0  501  0.00000000000E+00  0.00000000000E+00  0.80310812855E+03  0.80310812857E+03  0.50400001928E-02 0.  1.
        1   -1    0    0  501    0  0.00000000000E+00  0.00000000000E+00 -0.16462764048E+04  0.16462764048E+04  0.50400001928E-02 0. -1.
    10030    2    1    2    0    0  0.00000000000E+00  0.00000000000E+00 -0.84316827623E+03  0.24493845334E+04  0.22996851633E+04 0.  0.
        4    1    3    3  502    0  0.11418117637E+04 -0.46749276066E+02 -0.28594953075E+03  0.11780018444E+04  0.12699999809E+01 0.  1.
       -4    1    3    3    0  502 -0.11418117637E+04  0.46749276066E+02 -0.55721874549E+03  0.12713826889E+04  0.12699999809E+01 0. -1.
</event>
<event>
 5   0  0.7003852E-06  0.2298927E+04  0.7818609E-02  0.8478344E-01
       -2   -1    0    0    0  501  0.00000000000E+00  0.00000000000E+00  0.77213890709E+03  0.77213890709E+03  0.25500000920E-02 0.  1.
        2   -1    0    0  501    0  0.00000000000E+00  0.00000000000E+00 -0.17111766216E+04  0.17111766216E+04  0.25500000920E-02 0. -1.
    10030    2    1    2    0    0  0.00000000000E+00  0.00000000000E+00 -0.93903771447E+03  0.24833155286E+04  0.22989267465E+04 0.  0.
        2    1    3    3  502    0 -0.85703622941E+03  0.76453116764E+03 -0.52072385209E+03  0.12610203547E+04  0.25500000920E-02 0. -1.
       -2    1    3    3    0  502  0.85703622941E+03 -0.76453116764E+03 -0.41831386238E+03  0.12222951740E+04  0.25500000920E-02 0.  1.
</event>
<event>
 5   0  0.7044981E-06  0.2300735E+04  0.7818609E-02  0.8477632E-01
       -2   -1    0    0    0  501  0.00000000000E+00  0.00000000000E+00  0.17162192002E+04  0.17162192002E+04  0.25500000920E-02 0. -1.
        2   -1    0    0  501    0  0.00000000000E+00  0.00000000000E+00 -0.77108155021E+03  0.77108155022E+03  0.25500000920E-02 0.  1.
    10030    2    1    2    0    0  0.00000000000E+00  0.00000000000E+00  0.94513764998E+03  0.24873007504E+04  0.23007346317E+04 0.  0.
        4    1    3    3  502    0 -0.24297484566E+03  0.82494040984E+03 -0.35344313858E+03  0.92977799529E+03  0.12699999809E+01 0.  1.
       -4    1    3    3    0  502  0.24297484566E+03 -0.82494040984E+03  0.12985807886E+04  0.15575227551E+04  0.12699999809E+01 0. -1.
</event>
<event>
 5   0  0.7044981E-06  0.2304605E+04  0.7818609E-02  0.8476108E-01
       -2   -1    0    0    0  501  0.00000000000E+00  0.00000000000E+00  0.92787617766E+03  0.92787617767E+03  0.25500000920E-02 0.  1.
        2   -1    0    0  501    0  0.00000000000E+00  0.00000000000E+00 -0.14310109532E+04  0.14310109532E+04  0.25500000920E-02 0. -1.
    10030    2    1    2    0    0  0.00000000000E+00  0.00000000000E+00 -0.50313477550E+03  0.23588871308E+04  0.23046049322E+04 0.  0.
        4    1    3    3  502    0  0.27276198817E+03 -0.11146594990E+04 -0.35859832730E+03  0.12022725457E+04  0.12699999809E+01 0. -1.
       -4    1    3    3    0  502 -0.27276198817E+03  0.11146594990E+04 -0.14453644820E+03  0.11566145852E+04  0.12699999809E+01 0.  1.
</event>
<event>
 5   0  0.3226427E-06  0.2300181E+04  0.7818609E-02  0.8477850E-01
       -1   -1    0    0    0  501  0.00000000000E+00  0.00000000000E+00  0.92779829230E+03  0.92779829231E+03  0.50400001928E-02 0. -1.
        1   -1    0    0  501    0  0.00000000000E+00  0.00000000000E+00 -0.14256419979E+04  0.14256419979E+04  0.50400001928E-02 0.  1.
    10030    2    1    2    0    0  0.00000000000E+00  0.00000000000E+00 -0.49784370557E+03  0.23534402902E+04  0.23001810460E+04 0.  0.
        4    1    3    3  502    0  0.45406789421E+02 -0.21938310175E+03 -0.14030997905E+04  0.14208734486E+04  0.12699999809E+01 0.  1.
       -4    1    3    3    0  502 -0.45406789421E+02  0.21938310175E+03  0.90525608494E+03  0.93256684161E+03  0.12699999809E+01 0. -1.
</event>
<event>
 5   0  0.7003852E-06  0.2299138E+04  0.7818609E-02  0.8478261E-01
        2   -1    0    0  501    0  0.00000000000E+00  0.00000000000E+00  0.95633980816E+03  0.95633980816E+03  0.25500000920E-02 0. -1.
       -2   -1    0    0    0  501  0.00000000000E+00  0.00000000000E+00 -0.13818406125E+04  0.13818406125E+04  0.25500000920E-02 0.  1.
    10030    2    1    2    0    0  0.00000000000E+00  0.00000000000E+00 -0.42550080438E+03  0.23381804207E+04  0.22991382614E+04 0.  0.
        2    1    3    3  502    0  0.98181546865E+03  0.59345019229E+03 -0.13826431340E+03  0.11555352723E+04  0.25500000920E-02 0.  1.
       -2    1    3    3    0  502 -0.98181546865E+03 -0.59345019229E+03 -0.28723649098E+03  0.11826451484E+04  0.25500000920E-02 0. -1.
</event>
<event>
 5   0  0.7044981E-06  0.2304142E+04  0.7818609E-02  0.8476290E-01
       -2   -1    0    0    0  501  0.00000000000E+00  0.00000000000E+00  0.10461435178E+04  0.10461435178E+04  0.25500000920E-02 0.  1.
        2   -1    0    0  501    0  0.00000000000E+00  0.00000000000E+00 -0.12687239792E+04  0.12687239792E+04  0.25500000920E-02 0. -1.
    10030    2    1    2    0    0  0.00000000000E+00  0.00000000000E+00 -0.22258046145E+03  0.23148674970E+04  0.23041418070E+04 0.  0.
        4    1    3    3  502    0  0.10159550462E+04 -0.28368155642E+03  0.35414362414E+03  0.11126810867E+04  0.12699999809E+01 0.  1.
       -4    1    3    3    0  502 -0.10159550462E+04  0.28368155642E+03 -0.57672408559E+03  0.12021864103E+04  0.12699999809E+01 0. -1.
</event>
<event>
 5   0  0.7497344E-06  0.2305792E+04  0.7818609E-02  0.8475641E-01
        2   -1    0    0  501    0  0.00000000000E+00  0.00000000000E+00  0.93950581932E+03  0.93950581932E+03  0.25500000920E-02 0.  1.
       -2   -1    0    0    0  501  0.00000000000E+00  0.00000000000E+00 -0.14147529945E+04  0.14147529945E+04  0.25500000920E-02 0. -1.
    10030    2    1    2    0    0  0.00000000000E+00  0.00000000000E+00 -0.47524717514E+03  0.23542588138E+04  0.23057915528E+04 0.  0.
        5    1    3    3  502    0 -0.27167484717E+03  0.66914858763E+03 -0.11551674009E+04  0.13623512282E+04  0.46999998093E+01 0. -1.
       -5    1    3    3    0  502  0.27167484717E+03 -0.66914858763E+03  0.67992022577E+03  0.99190758557E+03  0.46999998093E+01 0.  1.
</event>
<event>
 5   0  0.2519625E-06  0.2315632E+04  0.7818609E-02  0.8471783E-01
        4   -1    0    0  501    0  0.00000000000E+00  0.00000000000E+00  0.91840113549E+03  0.91840201359E+03  0.12699999809E+01 0.  1.
       -4   -1    0    0    0  501  0.00000000000E+00  0.00000000000E+00 -0.14596417249E+04  0.14596422774E+04  0.12699999809E+01 0. -1.
    10030    2    1    2    0    0  0.00000000000E+00  0.00000000000E+00 -0.54124058940E+03  0.23780442910E+04  0.23156323703E+04 0.  0.
        5    1    3    3  502    0 -0.70678766988E+02 -0.98007389059E+03 -0.89947745561E+03  0.13321494294E+04  0.46999998093E+01 0. -1.
       -5    1    3    3    0  502  0.70678766988E+02  0.98007389059E+03  0.35823686622E+03  0.10458948616E+04  0.46999998093E+01 0.  1.
</event>
<event>
 5   0  0.7348107E-06  0.2304303E+04  0.7818609E-02  0.8476227E-01
       -2   -1    0    0    0  501  0.00000000000E+00  0.00000000000E+00  0.64196275198E+03  0.64196275198E+03  0.25500000920E-02 0.  1.
        2   -1    0    0  501    0  0.00000000000E+00  0.00000000000E+00 -0.20678032468E+04  0.20678032468E+04  0.25500000920E-02 0. -1.
    10030    2    1    2    0    0  0.00000000000E+00  0.00000000000E+00 -0.14258404948E+04  0.27097659988E+04  0.23043026389E+04 0.  0.
        3    1    3    3  502    0  0.47738853640E+03 -0.34577708950E+03  0.45121469450E+03  0.74233167859E+03  0.10100000352E+00 0.  1.
       -3    1    3    3    0  502 -0.47738853640E+03  0.34577708950E+03 -0.18770551893E+04  0.19674343202E+04  0.10100000352E+00 0. -1.
</event>
<event>
 5   0  0.2519625E-06  0.2299175E+04  0.7818609E-02  0.8478247E-01
       -3   -1    0    0    0  501  0.00000000000E+00  0.00000000000E+00  0.13313976630E+04  0.13313976668E+04  0.10100000352E+00 0. -1.
        3   -1    0    0  501    0  0.00000000000E+00  0.00000000000E+00 -0.99260436420E+03  0.99260436934E+03  0.10100000352E+00 0.  1.
    10030    2    1    2    0    0  0.00000000000E+00  0.00000000000E+00  0.33879329876E+03  0.23240020361E+04  0.22991747573E+04 0.  0.
        2    1    3    3  502    0 -0.21480273458E+03  0.79437243565E+03 -0.64200648312E+03  0.10437145710E+04  0.25500000920E-02 0.  1.
       -2    1    3    3    0  502  0.21480273458E+03 -0.79437243565E+03  0.98079978187E+03  0.12802874652E+04  0.25500000920E-02 0. -1.
</event>
<event>
 5   0  0.3195296E-06  0.2304378E+04  0.7818609E-02  0.8476197E-01
       -1   -1    0    0    0  501  0.00000000000E+00  0.00000000000E+00  0.54960149787E+03  0.54960149789E+03  0.50400001928E-02 0. -1.
        1   -1    0    0  501    0  0.00000000000E+00  0.00000000000E+00 -0.24154591902E+04  0.24154591902E+04  0.50400001928E-02 0.  1.
    10030    2    1    2    0    0  0.00000000000E+00  0.00000000000E+00 -0.18658576923E+04  0.29650606881E+04  0.23043784316E+04 0.  0.
        2    1    3    3  502    0 -0.31776014537E+03 -0.56603348899E+02 -0.23561019552E+04  0.23781067832E+04  0.25500000920E-02 0.  1.
       -2    1    3    3    0  502  0.31776014537E+03  0.56603348899E+02  0.49024426290E+03  0.58695390484E+03  0.25500000920E-02 0. -1.
</event>
<event>
 5   0  0.7242214E-06  0.2305195E+04  0.7818609E-02  0.8475876E-01
       -2   -1    0    0    0  501  0.00000000000E+00  0.00000000000E+00  0.65716476404E+03  0.65716476405E+03  0.25500000920E-02 0. -1.
        2   -1    0    0  501    0  0.00000000000E+00  0.00000000000E+00 -0.20215340290E+04  0.20215340290E+04  0.25500000920E-02 0.  1.
    10030    2    1    2    0    0  0.00000000000E+00  0.00000000000E+00 -0.13643692649E+04  0.26786987930E+04  0.23051949446E+04 0.  0.
        1    1    3    3  502    0  0.27370821150E+03  0.99202936358E+03 -0.79001393416E+02  0.10321238605E+04  0.50400001928E-02 0. -1.
       -1    1    3    3    0  502 -0.27370821150E+03 -0.99202936358E+03 -0.12853678715E+04  0.16465749325E+04  0.50400001928E-02 0.  1.
</event>
<event>
 5   0  0.3226427E-06  0.2298007E+04  0.7818609E-02  0.8478707E-01
        1   -1    0    0  501    0  0.00000000000E+00  0.00000000000E+00  0.14321675089E+04  0.14321675089E+04  0.50400001928E-02 0. -1.
       -1   -1    0    0    0  501  0.00000000000E+00  0.00000000000E+00 -0.92182568212E+03  0.92182568213E+03  0.50400001928E-02 0.  1.
    10030    2    1    2    0    0  0.00000000000E+00  0.00000000000E+00  0.51034182679E+03  0.23539931910E+04  0.22980067805E+04 0.  0.
        4    1    3    3  502    0 -0.49340956037E+03  0.72650973498E+03  0.10141249248E+04  0.13415365688E+04  0.12699999809E+01 0. -1.
       -4    1    3    3    0  502  0.49340956037E+03 -0.72650973498E+03 -0.50378309802E+03  0.10124566223E+04  0.12699999809E+01 0.  1.
</event>
<event>
 5   0  0.7348107E-06  0.2299403E+04  0.7818609E-02  0.8478157E-01
        2   -1    0    0  501    0  0.00000000000E+00  0.00000000000E+00  0.20638843669E+04  0.20638843669E+04  0.25500000920E-02 0.  1.
       -2   -1    0    0    0  501  0.00000000000E+00  0.00000000000E+00 -0.64044924048E+03  0.64044924048E+03  0.25500000920E-02 0. -1.
    10030    2    1    2    0    0  0.00000000000E+00  0.00000000000E+00  0.14234351264E+04  0.27043336074E+04  0.22994026835E+04 0.  0.
        3    1    3    3  502    0  0.34722874704E+03  0.74880184456E+03  0.16529973926E+04  0.18476126204E+04  0.10100000352E+00 0.  1.
       -3    1    3    3    0  502 -0.34722874704E+03 -0.74880184456E+03 -0.22956226617E+03  0.85672098692E+03  0.10100000352E+00 0. -1.
</event>
<event>
 5   0  0.3338758E-06  0.2298785E+04  0.7818609E-02  0.8478400E-01
       -1   -1    0    0    0  501  0.00000000000E+00  0.00000000000E+00  0.11165700003E+04  0.11165700004E+04  0.50400001928E-02 0. -1.
        1   -1    0    0  501    0  0.00000000000E+00  0.00000000000E+00 -0.11831803589E+04  0.11831803589E+04  0.50400001928E-02 0.  1.
    10030    2    1    2    0    0  0.00000000000E+00  0.00000000000E+00 -0.66610358534E+02  0.22997503592E+04  0.22987855000E+04 0.  0.
        5    1    3    3  502    0  0.28560912284E+03 -0.10096091541E+04  0.43614478956E+03  0.11362779513E+04  0.46999998093E+01 0. -1.
       -5    1    3    3    0  502 -0.28560912284E+03  0.10096091541E+04 -0.50275514810E+03  0.11634724080E+04  0.46999998093E+01 0.  1.
</event>
<event>
 5   0  0.3238713E-06  0.2292651E+04  0.7818609E-02  0.8480825E-01
       -1   -1    0    0    0  501  0.00000000000E+00  0.00000000000E+00  0.12453368571E+04  0.12453368571E+04  0.50400001928E-02 0. -1.
        1   -1    0    0  501    0  0.00000000000E+00  0.00000000000E+00 -0.10551856549E+04  0.10551856549E+04  0.50400001928E-02 0.  1.
    10030    2    1    2    0    0  0.00000000000E+00  0.00000000000E+00  0.19015120220E+03  0.23005225120E+04  0.22926505073E+04 0.  0.
        3    1    3    3  502    0  0.77518113923E+03  0.86602220077E+02 -0.74784195608E+03  0.10805893506E+04  0.10100000352E+00 0.  1.
       -3    1    3    3    0  502 -0.77518113923E+03 -0.86602220077E+02  0.93799315828E+03  0.12199331614E+04  0.10100000352E+00 0. -1.
</event>
<event>
 5   0  0.2519625E-06  0.2289774E+04  0.7818609E-02  0.8481964E-01
        3   -1    0    0  501    0  0.00000000000E+00  0.00000000000E+00  0.94536606972E+03  0.94536607512E+03  0.10100000352E+00 0. -1.
       -3   -1    0    0    0  501  0.00000000000E+00  0.00000000000E+00 -0.13865169636E+04  0.13865169673E+04  0.10100000352E+00 0.  1.
    10030    2    1    2    0    0  0.00000000000E+00  0.00000000000E+00 -0.44115089391E+03  0.23318830424E+04  0.22897738780E+04 0.  0.
        5    1    3    3  502    0 -0.68883433215E+01  0.80108323201E+03 -0.10535178339E+04  0.13235194408E+04  0.46999998093E+01 0.  1.
       -5    1    3    3    0  502  0.68883433215E+01 -0.80108323201E+03  0.61236693998E+03  0.10083636016E+04  0.46999998093E+01 0. -1.
</event>
<event>
 5   0  0.7003852E-06  0.2300955E+04  0.7818609E-02  0.8477545E-01
       -2   -1    0    0    0  501  0.00000000000E+00  0.00000000000E+00  0.12978154331E+04  0.12978154331E+04  0.25500000920E-02 0.  1.
        2   -1    0    0  501    0  0.00000000000E+00  0.00000000000E+00 -0.10198662764E+04  0.10198662764E+04  0.25500000920E-02 0. -1.
    10030    2    1    2    0    0  0.00000000000E+00  0.00000000000E+00  0.27794915677E+03  0.23176817095E+04  0.23009547525E+04 0.  0.
        2    1    3    3  502    0 -0.70155304151E+03  0.90438303599E+03  0.25606440170E+03  0.11728829113E+04  0.25500000920E-02 0.  1.
       -2    1    3    3    0  502  0.70155304151E+03 -0.90438303599E+03  0.21884755069E+02  0.11447987982E+04  0.25500000920E-02 0. -1.
</event>
<event>
 5   0  0.7497344E-06  0.2307831E+04  0.7818609E-02  0.8474840E-01
       -2   -1    0    0    0  501  0.00000000000E+00  0.00000000000E+00  0.14000720371E+04  0.14000720371E+04  0.25500000920E-02 0. -1.
        2   -1    0    0  501    0  0.00000000000E+00  0.00000000000E+00 -0.95103754096E+03  0.95103754097E+03  0.25500000920E-02 0.  1.
    10030    2    1    2    0    0  0.00000000000E+00  0.00000000000E+00  0.44903449616E+03  0.23511095781E+04  0.23078310747E+04 0.  0.
        5    1    3    3  502    0 -0.63385760815E+03  0.51603958233E+03  0.10543017395E+04  0.13340339448E+04  0.46999998093E+01 0. -1.
       -5    1    3    3    0  502  0.63385760815E+03 -0.51603958233E+03 -0.60526724336E+03  0.10170756333E+04  0.46999998093E+01 0.  1.
</event>
<event>
 5   0  0.3226427E-06  0.2301356E+04  0.7818609E-02  0.8477387E-01
        1   -1    0    0  501    0  0.00000000000E+00  0.00000000000E+00  0.88245429559E+03  0.88245429561E+03  0.50400001928E-02 0. -1.
       -1   -1    0    0    0  501  0.00000000000E+00  0.00000000000E+00 -0.15004289140E+04  0.15004289140E+04  0.50400001928E-02 0.  1.
    10030    2    1    2    0    0  0.00000000000E+00  0.00000000000E+00 -0.61797461841E+03  0.23828832096E+04  0.23013560702E+04 0.  0.
        4    1    3    3  502    0 -0.10782826961E+03 -0.21306534755E+03  0.85651507720E+03  0.88918134733E+03  0.12699999809E+01 0. -1.
       -4    1    3    3    0  502  0.10782826961E+03  0.21306534755E+03 -0.14744896956E+04  0.14937018623E+04  0.12699999809E+01 0.  1.
</event>
<event>
 5   0  0.7044981E-06  0.2300568E+04  0.7818609E-02  0.8477697E-01
        2   -1    0    0  501    0  0.00000000000E+00  0.00000000000E+00  0.23438164160E+04  0.23438164160E+04  0.25500000920E-02 0.  1.
       -2   -1    0    0    0  501  0.00000000000E+00  0.00000000000E+00 -0.56452933492E+03  0.56452933492E+03  0.25500000920E-02 0. -1.
    10030    2    1    2    0    0  0.00000000000E+00  0.00000000000E+00  0.17792870811E+04  0.29083457509E+04  0.23005678625E+04 0.  0.
        4    1    3    3  502    0  0.16270084541E+03  0.20810018080E+03  0.23049528788E+04  0.23200402231E+04  0.12699999809E+01 0.  1.
       -4    1    3    3    0  502 -0.16270084541E+03 -0.20810018080E+03 -0.52566579770E+03  0.58830552786E+03  0.12699999809E+01 0. -1.
</event>
<event>
 5   0  0.3338758E-06  0.2338700E+04  0.7818609E-02  0.8462817E-01
        1   -1    0    0  501    0  0.00000000000E+00  0.00000000000E+00  0.13192202549E+04  0.13192202549E+04  0.50400001928E-02 0.  1.
       -1   -1    0    0    0  501  0.00000000000E+00  0.00000000000E+00 -0.10365056865E+04  0.10365056865E+04  0.50400001928E-02 0. -1.
    10030    2    1    2    0    0  0.00000000000E+00  0.00000000000E+00  0.28271456845E+03  0.23557259414E+04  0.23386998918E+04 0.  0.
        5    1    3    3  502    0 -0.54145615854E+03  0.82197051998E+03  0.77725898399E+03  0.12541785860E+04  0.46999998093E+01 0. -1.
       -5    1    3    3    0  502  0.54145615854E+03 -0.82197051998E+03 -0.49454441554E+03  0.11015473554E+04  0.46999998093E+01 0.  1.
</event>
<event>
 5   0  0.7003852E-06  0.2296283E+04  0.7818609E-02  0.8479388E-01
       -2   -1    0    0    0  501  0.00000000000E+00  0.00000000000E+00  0.57660761159E+03  0.57660761159E+03  0.25500000920E-02 0.  1.
        2   -1    0    0  501    0  0.00000000000E+00  0.00000000000E+00 -0.22861799790E+04  0.22861799790E+04  0.25500000920E-02 0. -1.
    10030    2    1    2    0    0  0.00000000000E+00  0.00000000000E+00 -0.17095723674E+04  0.28627875906E+04  0.22962828897E+04 0.  0.
        2    1    3    3  502    0  0.61771312922E+03  0.43645496248E+03  0.22212915105E+03  0.78829169984E+03  0.25500000920E-02 0.  1.
       -2    1    3    3    0  502 -0.61771312922E+03 -0.43645496248E+03 -0.19317015185E+04  0.20744958907E+04  0.25500000920E-02 0. -1.
</event>
<event>
 5   0  0.7348107E-06  0.2296285E+04  0.7818609E-02  0.8479387E-01
        2   -1    0    0  501    0  0.00000000000E+00  0.00000000000E+00  0.65988062839E+03  0.65988062840E+03  0.25500000920E-02 0. -1.
       -2   -1    0    0    0  501  0.00000000000E+00  0.00000000000E+00 -0.19976812329E+04  0.19976812329E+04  0.25500000920E-02 0.  1.
    10030    2    1    2    0    0  0.00000000000E+00  0.00000000000E+00 -0.13378006045E+04  0.26575618613E+04  0.22962849538E+04 0.  0.
        3    1    3    3  502    0  0.62517218767E+03 -0.96155936346E+03 -0.60772067676E+03  0.12979834763E+04  0.10100000352E+00 0.  1.
       -3    1    3    3    0  502 -0.62517218767E+03  0.96155936346E+03 -0.73007992774E+03  0.13595783849E+04  0.10100000352E+00 0. -1.
</event>
<event>
 5   0  0.3195296E-06  0.2288344E+04  0.7818609E-02  0.8482531E-01
        1   -1    0    0  501    0  0.00000000000E+00  0.00000000000E+00  0.11025600675E+04  0.11025600675E+04  0.50400001928E-02 0.  1.
       -1   -1    0    0    0  501  0.00000000000E+00  0.00000000000E+00 -0.11873543311E+04  0.11873543311E+04  0.50400001928E-02 0. -1.
    10030    2    1    2    0    0  0.00000000000E+00  0.00000000000E+00 -0.84794263566E+02  0.22899143986E+04  0.22883439178E+04 0.  0.
        2    1    3    3  502    0 -0.13196120756E+03  0.11303755180E+04 -0.16065987742E+03  0.11493364034E+04  0.25500000920E-02 0. -1.
       -2    1    3    3    0  502  0.13196120756E+03 -0.11303755180E+04  0.75865613857E+02  0.11405779953E+04  0.25500000920E-02 0.  1.
</event>
<event>
 5   0  0.3338758E-06  0.2298338E+04  0.7818609E-02  0.8478577E-01
       -1   -1    0    0    0  501  0.00000000000E+00  0.00000000000E+00  0.11950420972E+04  0.11950420972E+04  0.50400001928E-02 0. -1.
        1   -1    0    0  501    0  0.00000000000E+00  0.00000000000E+00 -0.11050563702E+04  0.11050563702E+04  0.50400001928E-02 0.  1.
    10030    2    1    2    0    0  0.00000000000E+00  0.00000000000E+00  0.89985727034E+02  0.23000984674E+04  0.22983375576E+04 0.  0.
        5    1    3    3  502    0  0.54662083660E+03  0.66639371409E+03 -0.71564990855E+03  0.11202909456E+04  0.46999998093E+01 0.  1.
       -5    1    3    3    0  502 -0.54662083660E+03 -0.66639371409E+03  0.80563563559E+03  0.11798075218E+04  0.46999998093E+01 0. -1.
</event>
<event>
 5   0  0.7348107E-06  0.2305099E+04  0.7818609E-02  0.8475914E-01
       -2   -1    0    0    0  501  0.00000000000E+00  0.00000000000E+00  0.10168314703E+04  0.10168314703E+04  0.25500000920E-02 0.  1.
        2   -1    0    0  501    0  0.00000000000E+00  0.00000000000E+00 -0.13063815799E+04  0.13063815799E+04  0.25500000920E-02 0. -1.
    10030    2    1    2    0    0  0.00000000000E+00  0.00000000000E+00 -0.28955010965E+03  0.23232130502E+04  0.23050986119E+04 0.  0.
        3    1    3    3  502    0 -0.87529949408E+03 -0.65538578202E+03  0.22235411831E+03  0.11158499414E+04  0.10100000352E+00 0.  1.
       -3    1    3    3    0  502  0.87529949408E+03  0.65538578202E+03 -0.51190422796E+03  0.12073631088E+04  0.10100000352E+00 0. -1.
</event>
<event>
 5   0  0.7348107E-06  0.2301834E+04  0.7818609E-02  0.8477198E-01
        2   -1    0    0  501    0  0.00000000000E+00  0.00000000000E+00  0.21353127686E+04  0.21353127686E+04  0.25500000920E-02 0. -1.
       -2   -1    0    0    0  501  0.00000000000E+00  0.00000000000E+00 -0.62033521246E+03  0.62033521247E+03  0.25500000920E-02 0.  1.
    10030    2    1    2    0    0  0.00000000000E+00  0.00000000000E+00  0.15149775561E+04  0.27556479810E+04  0.23018337907E+04 0.  0.
        3    1    3    3  502    0 -0.38572313777E+03  0.63187472123E+03  0.18124530627E+04  0.19578136063E+04  0.10100000352E+00 0. -1.
       -3    1    3    3    0  502  0.38572313777E+03 -0.63187472123E+03 -0.29747550657E+03  0.79783437476E+03  0.10100000352E+00 0.  1.
</event>
<event>
 5   0  0.7003852E-06  0.2287634E+04  0.7818609E-02  0.8482813E-01
        2   -1    0    0  501    0  0.00000000000E+00  0.00000000000E+00  0.93200802062E+03  0.93200802063E+03  0.25500000920E-02 0. -1.
       -2   -1    0    0    0  501  0.00000000000E+00  0.00000000000E+00 -0.14037624664E+04  0.14037624664E+04  0.25500000920E-02 0.  1.
    10030    2    1    2    0    0  0.00000000000E+00  0.00000000000E+00 -0.47175444579E+03  0.23357704870E+04  0.22876344793E+04 0.  0.
        2    1    3    3  502    0  0.11237857897E+04  0.19361541122E+03 -0.14491592371E+03  0.11495138335E+04  0.25500000920E-02 0. -1.
       -2    1    3    3    0  502 -0.11237857897E+04 -0.19361541122E+03 -0.32683852209E+03  0.11862566535E+04  0.25500000920E-02 0.  1.
</event>
<event>
 5   0  0.3184492E-06  0.2294323E+04  0.7818609E-02  0.8480163E-01
        1   -1    0    0  501    0  0.00000000000E+00  0.00000000000E+00  0.12190953615E+04  0.12190953615E+04  0.50400001928E-02 0. -1.
       -1   -1    0    0    0  501  0.00000000000E+00  0.00000000000E+00 -0.10794717163E+04  0.10794717163E+04  0.50400001928E-02 0.  1.
    10030    2    1    2    0    0  0.00000000000E+00  0.00000000000E+00  0.13962364520E+03  0.22985670778E+04  0.22943225250E+04 0.  0.
        1    1    3    3  502    0 -0.12720329176E+03  0.91512738028E+03 -0.61140211312E+03  0.11079040317E+04  0.50400001928E-02 0.  1.
       -1    1    3    3    0  502  0.12720329176E+03 -0.91512738028E+03  0.75102575832E+03  0.11906630461E+04  0.50400001928E-02 0. -1.
</event>
<event>
 5   0  0.7044981E-06  0.2280023E+04  0.7818609E-02  0.8485840E-01
       -2   -1    0    0    0  501  0.00000000000E+00  0.00000000000E+00  0.83104397503E+03  0.83104397504E+03  0.25500000920E-02 0. -1.
        2   -1    0    0  501    0  0.00000000000E+00  0.00000000000E+00 -0.15638474698E+04  0.15638474699E+04  0.25500000920E-02 0.  1.
    10030    2    1    2    0    0  0.00000000000E+00  0.00000000000E+00 -0.73280349482E+03  0.23948914449E+04  0.22800228224E+04 0.  0.
        4    1    3    3  502    0 -0.39783922604E+02 -0.20871878747E+01  0.83031184157E+03  0.83126799770E+03  0.12699999809E+01 0. -1.
       -4    1    3    3    0  502  0.39783922604E+02  0.20871878747E+01 -0.15631153364E+04  0.15636234472E+04  0.12699999809E+01 0.  1.
</event>
<event>
 5   0  0.7348107E-06  0.2300415E+04  0.7818609E-02  0.8477757E-01
        2   -1    0    0  501    0  0.00000000000E+00  0.00000000000E+00  0.13085396082E+04  0.13085396082E+04  0.25500000920E-02 0. -1.
       -2   -1    0    0    0  501  0.00000000000E+00  0.00000000000E+00 -0.10110337708E+04  0.10110337708E+04  0.25500000920E-02 0.  1.
    10030    2    1    2    0    0  0.00000000000E+00  0.00000000000E+00  0.29750583741E+03  0.23195733790E+04  0.23004153837E+04 0.  0.
        3    1    3    3  502    0  0.11436234322E+03  0.84023496968E+02  0.12996784732E+04  0.13074030891E+04  0.10100000352E+00 0. -1.
       -3    1    3    3    0  502 -0.11436234322E+03 -0.84023496968E+02 -0.10021726358E+04  0.10121702899E+04  0.10100000352E+00 0.  1.
</event>
<event>
 5   0  0.3195296E-06  0.2291177E+04  0.7818609E-02  0.8481408E-01
        1   -1    0    0  501    0  0.00000000000E+00  0.00000000000E+00  0.30532746102E+04  0.30532746102E+04  0.50400001928E-02 0. -1.
       -1   -1    0    0    0  501  0.00000000000E+00  0.00000000000E+00 -0.42982469847E+03  0.42982469850E+03  0.50400001928E-02 0.  1.
    10030    2    1    2    0    0  0.00000000000E+00  0.00000000000E+00  0.26234499117E+04  0.34830993087E+04  0.22911768493E+04 0.  0.
        2    1    3    3  502    0  0.26710952643E+03  0.73342756183E+03  0.36993562121E+02  0.78142946655E+03  0.25500000920E-02 0.  1.
       -2    1    3    3    0  502 -0.26710952643E+03 -0.73342756183E+03  0.25864563496E+04  0.27016698421E+04  0.25500000920E-02 0. -1.
</event>
<event>
 5   0  0.3184492E-06  0.2302117E+04  0.7818609E-02  0.8477087E-01
        1   -1    0    0  501    0  0.00000000000E+00  0.00000000000E+00  0.10987851317E+04  0.10987851317E+04  0.50400001928E-02 0.  1.
       -1   -1    0    0    0  501  0.00000000000E+00  0.00000000000E+00 -0.12058191861E+04  0.12058191861E+04  0.50400001928E-02 0. -1.
    10030    2    1    2    0    0  0.00000000000E+00  0.00000000000E+00 -0.10703405443E+03  0.23046043179E+04  0.23021174542E+04 0.  0.
        1    1    3    3  502    0  0.56466908366E+03 -0.11668480361E+03  0.94378687119E+03  0.11059838044E+04  0.50400001928E-02 0.  1.
       -1    1    3    3    0  502 -0.56466908366E+03  0.11668480361E+03 -0.10508209256E+04  0.11986205134E+04  0.50400001928E-02 0. -1.
</event>
<event>
 5   0  0.7242214E-06  0.2299298E+04  0.7818609E-02  0.8478198E-01
        2   -1    0    0  501    0  0.00000000000E+00  0.00000000000E+00  0.18656704729E+04  0.18656704729E+04  0.25500000920E-02 0.  1.
       -2   -1    0    0    0  501  0.00000000000E+00  0.00000000000E+00 -0.70842791244E+03  0.70842791244E+03  0.25500000920E-02 0. -1.
    10030    2    1    2    0    0  0.00000000000E+00  0.00000000000E+00  0.11572425605E+04  0.25740983853E+04  0.22992981872E+04 0.  0.
        1    1    3    3  502    0  0.10994609862E+04  0.11010053805E+03  0.93397942466E+03  0.14468082645E+04  0.50400001928E-02 0. -1.
       -1    1    3    3    0  502 -0.10994609862E+04 -0.11010053805E+03  0.22326313579E+03  0.11272901208E+04  0.50400001928E-02 0.  1.
</event>
<event>
 5   0  0.3338758E-06  0.2297470E+04  0.7818609E-02  0.8478920E-01
       -1   -1    0    0    0  501  0.00000000000E+00  0.00000000000E+00  0.14112270661E+04  0.14112270661E+04  0.50400001928E-02 0. -1.
        1   -1    0    0  501    0  0.00000000000E+00  0.00000000000E+00 -0.93506678021E+03  0.93506678022E+03  0.50400001928E-02 0.  1.
    10030    2    1    2    0    0  0.00000000000E+00  0.00000000000E+00  0.47616028588E+03  0.23462938463E+04  0.22974695200E+04 0.  0.
        5    1    3    3  502    0 -0.42150053036E+03  0.78144457133E+03 -0.50627909428E+03  0.10220855769E+04  0.46999998093E+01 0.  1.
       -5    1    3    3    0  502  0.42150053036E+03 -0.78144457133E+03  0.98243938015E+03  0.13242082694E+04  0.46999998093E+01 0. -1.
</event>
<event>
 5   0  0.3184492E-06  0.2308768E+04  0.7818609E-02  0.8474472E-01
       -1   -1    0    0    0  501  0.00000000000E+00  0.00000000000E+00  0.10009526456E+04  0.10009526456E+04  0.50400001928E-02 0.  1.
        1   -1    0    0  501    0  0.00000000000E+00  0.00000000000E+00 -0.13313337164E+04  0.13313337164E+04  0.50400001928E-02 0. -1.
    10030    2    1    2    0    0  0.00000000000E+00  0.00000000000E+00 -0.33038107077E+03  0.23322863620E+04  0.23087676415E+04 0.  0.
        1    1    3    3  502    0  0.50451203389E+03 -0.96949657613E+03  0.21027562918E+03  0.11129563530E+04  0.50400001928E-02 0.  1.
       -1    1    3    3    0  502 -0.50451203389E+03  0.96949657613E+03 -0.54065669995E+03  0.12193300089E+04  0.50400001928E-02 0. -1.
</event>
<event>
 5   0  0.7348107E-06  0.2300533E+04  0.7818609E-02  0.8477711E-01
        2   -1    0    0  501    0  0.00000000000E+00  0.00000000000E+00  0.91144077852E+03  0.91144077853E+03  0.25500000920E-02 0. -1.
       -2   -1    0    0    0  501  0.00000000000E+00  0.00000000000E+00 -0.14516720287E+04  0.14516720287E+04  0.25500000920E-02 0.  1.
    10030    2    1    2    0    0  0.00000000000E+00  0.00000000000E+00 -0.54023125022E+03  0.23631128073E+04  0.23005330548E+04 0.  0.
        3    1    3    3  502    0  0.16389901318E+03  0.10329371434E+04 -0.76198470560E+03  0.12940026007E+04  0.10100000352E+00 0.  1.
       -3    1    3    3    0  502 -0.16389901318E+03 -0.10329371434E+04  0.22175345538E+03  0.10691102066E+04  0.10100000352E+00 0. -1.
</event>
<event>
 5   0  0.3184492E-06  0.2295675E+04  0.7818609E-02  0.8479628E-01
       -1   -1    0    0    0  501  0.00000000000E+00  0.00000000000E+00  0.11718759025E+04  0.11718759025E+04  0.50400001928E-02 0.  1.
        1   -1    0    0  501    0  0.00000000000E+00  0.00000000000E+00 -0.11242923269E+04  0.11242923269E+04  0.50400001928E-02 0. -1.
    10030    2    1    2    0    0  0.00000000000E+00  0.00000000000E+00  0.47583575562E+02  0.22961682294E+04  0.22956751384E+04 0.  0.
        1    1    3    3  502    0 -0.73791927224E+03 -0.15848119941E+03  0.88878384397E+03  0.11660093757E+04  0.50400001928E-02 0.  1.
       -1    1    3    3    0  502  0.73791927224E+03  0.15848119941E+03 -0.84120026841E+03  0.11301588537E+04  0.50400001928E-02 0. -1.
</event>
<event>
 5   0  0.3184492E-06  0.2304409E+04  0.7818609E-02  0.8476185E-01
       -1   -1    0    0    0  501  0.00000000000E+00  0.00000000000E+00  0.81694199547E+03  0.81694199549E+03  0.50400001928E-02 0. -1.
        1   -1    0    0  501    0  0.00000000000E+00  0.00000000000E+00 -0.16250541723E+04  0.16250541724E+04  0.50400001928E-02 0.  1.
    10030    2    1    2    0    0  0.00000000000E+00  0.00000000000E+00 -0.80811217687E+03  0.24419961678E+04  0.23044088164E+04 0.  0.
        1    1    3    3  502    0  0.63066155002E+03 -0.17171220145E+03  0.60146819667E+03  0.88824718544E+03  0.50400001928E-02 0. -1.
       -1    1    3    3    0  502 -0.63066155002E+03  0.17171220145E+03 -0.14095803735E+04  0.15537489824E+04  0.50400001928E-02 0.  1.
</event>
<event>
 5   0  0.3195296E-06  0.2300445E+04  0.7818609E-02  0.8477746E-01
        1   -1    0    0  501    0  0.00000000000E+00  0.00000000000E+00  0.15753537354E+04  0.15753537354E+04  0.50400001928E-02 0.  1.
       -1   -1    0    0    0  501  0.00000000000E+00  0.00000000000E+00 -0.83981855283E+03  0.83981855285E+03  0.50400001928E-02 0. -1.
    10030    2    1    2    0    0  0.00000000000E+00  0.00000000000E+00  0.73553518260E+03  0.24151722883E+04  0.23004445608E+04 0.  0.
        2    1    3    3  502    0  0.80327532024E+03 -0.61044976283E+03 -0.21214879252E+03  0.10309739392E+04  0.25500000920E-02 0. -1.
       -2    1    3    3    0  502 -0.80327532024E+03  0.61044976283E+03  0.94768397513E+03  0.13841983491E+04  0.25500000920E-02 0.  1.
</event>
<event>
 5   0  0.7242214E-06  0.2297437E+04  0.7818609E-02  0.8478932E-01
       -2   -1    0    0    0  501  0.00000000000E+00  0.00000000000E+00  0.17536833553E+04  0.17536833553E+04  0.25500000920E-02 0. -1.
        2   -1    0    0  501    0  0.00000000000E+00  0.00000000000E+00 -0.75244720320E+03  0.75244720320E+03  0.25500000920E-02 0.  1.
    10030    2    1    2    0    0  0.00000000000E+00  0.00000000000E+00  0.10012361521E+04  0.25061305585E+04  0.22974369510E+04 0.  0.
        1    1    3    3  502    0  0.60852694471E+02 -0.11464166501E+04  0.54397732458E+03  0.12703879391E+04  0.50400001928E-02 0.  1.
       -1    1    3    3    0  502 -0.60852694471E+02  0.11464166501E+04  0.45725882749E+03  0.12357426194E+04  0.50400001928E-02 0. -1.
</event>
<event>
 5   0  0.2519625E-06  0.2293424E+04  0.7818609E-02  0.8480519E-01
       -3   -1    0    0    0  501  0.00000000000E+00  0.00000000000E+00  0.62759364420E+03  0.62759365232E+03  0.10100000352E+00 0. -1.
        3   -1    0    0  501    0  0.00000000000E+00  0.00000000000E+00 -0.20952222087E+04  0.20952222111E+04  0.10100000352E+00 0.  1.
    10030    2    1    2    0    0  0.00000000000E+00  0.00000000000E+00 -0.14676285645E+04  0.27228158634E+04  0.22934237774E+04 0.  0.
        3    1    3    3  502    0 -0.44845587038E+03  0.90243183975E+03 -0.84136891216E+02  0.10112244656E+04  0.10100000352E+00 0. -1.
       -3    1    3    3    0  502  0.44845587038E+03 -0.90243183975E+03 -0.13834916732E+04  0.17115913979E+04  0.10100000352E+00 0.  1.
</event>
<event>
 5   0  0.7348107E-06  0.2298478E+04  0.7818609E-02  0.8478522E-01
        2   -1    0    0  501    0  0.00000000000E+00  0.00000000000E+00  0.16123389108E+04  0.16123389108E+04  0.25500000920E-02 0.  1.
       -2   -1    0    0    0  501  0.00000000000E+00  0.00000000000E+00 -0.81915167598E+03  0.81915167599E+03  0.25500000920E-02 0. -1.
    10030    2    1    2    0    0  0.00000000000E+00  0.00000000000E+00  0.79318723479E+03  0.24314905868E+04  0.22984778624E+04 0.  0.
        3    1    3    3  502    0  0.75270238627E+03  0.47545692863E+03 -0.37218741658E+03  0.96495785220E+03  0.10100000352E+00 0. -1.
       -3    1    3    3    0  502 -0.75270238627E+03 -0.47545692863E+03  0.11653746514E+04  0.14665327346E+04  0.10100000352E+00 0.  1.
</event>
<event>
 5   0  0.7003852E-06  0.2298199E+04  0.7818609E-02  0.8478632E-01
        2   -1    0    0  501    0  0.00000000000E+00  0.00000000000E+00  0.15805556095E+04  0.15805556095E+04  0.25500000920E-02 0.  1.
       -2   -1    0    0    0  501  0.00000000000E+00  0.00000000000E+00 -0.83542087498E+03  0.83542087498E+03  0.25500000920E-02 0. -1.
    10030    2    1    2    0    0  0.00000000000E+00  0.00000000000E+00  0.74513473449E+03  0.24159764845E+04  0.22981985556E+04 0.  0.
        2    1    3    3  502    0  0.11466485235E+04  0.12687092997E+02  0.45028404069E+03  0.12319575951E+04  0.25500000920E-02 0.  1.
       -2    1    3    3    0  502 -0.11466485235E+04 -0.12687092997E+02  0.29485069380E+03  0.11840188894E+04  0.25500000920E-02 0. -1.
</event>
<event>
 5   0  0.7044981E-06  0.2299794E+04  0.7818609E-02  0.8478002E-01
        2   -1    0    0  501    0  0.00000000000E+00  0.00000000000E+00  0.14882224632E+04  0.14882224632E+04  0.25500000920E-02 0. -1.
       -2   -1    0    0    0  501  0.00000000000E+00  0.00000000000E+00 -0.88848471933E+03  0.88848471934E+03  0.25500000920E-02 0.  1.
    10030    2    1    2    0    0  0.00000000000E+00  0.00000000000E+00  0.59973774387E+03  0.23767071825E+04  0.22997938321E+04 0.  0.
        4    1    3    3  502    0 -0.85118735451E+03  0.35035896991E+03  0.10121132007E+04  0.13680811614E+04  0.12699999809E+01 0. -1.
       -4    1    3    3    0  502  0.85118735451E+03 -0.35035896991E+03 -0.41237545680E+03  0.10086260212E+04  0.12699999809E+01 0.  1.
</event>
<event>
 5   0  0.7348107E-06  0.2296394E+04  0.7818609E-02  0.8479344E-01
       -2   -1    0    0    0  501  0.00000000000E+00  0.00000000000E+00  0.11150766960E+04  0.11150766960E+04  0.25500000920E-02 0.  1.
        2   -1    0    0  501    0  0.00000000000E+00  0.00000000000E+00 -0.11823012167E+04  0.11823012167E+04  0.25500000920E-02 0. -1.
    10030    2    1    2    0    0  0.00000000000E+00  0.00000000000E+00 -0.67224520613E+02  0.22973779127E+04  0.22963941599E+04 0.  0.
        3    1    3    3  502    0 -0.83949528236E+02  0.10234935496E+04  0.48019314654E+03  0.11336542849E+04  0.10100000352E+00 0.  1.
       -3    1    3    3    0  502  0.83949528236E+02 -0.10234935496E+04 -0.54741766715E+03  0.11637236278E+04  0.10100000352E+00 0. -1.
</event>
<event>
 5   0  0.3184492E-06  0.2302422E+04  0.7818609E-02  0.8476967E-01
       -1   -1    0    0    0  501  0.00000000000E+00  0.00000000000E+00  0.11844898815E+04  0.11844898815E+04  0.50400001928E-02 0.  1.
        1   -1    0    0  501    0  0.00000000000E+00  0.00000000000E+00 -0.11188675734E+04  0.11188675734E+04  0.50400001928E-02 0. -1.
    10030    2    1    2    0    0  0.00000000000E+00  0.00000000000E+00  0.65622308100E+02  0.23033574550E+04  0.23024224804E+04 0.  0.
        1    1    3    3  502    0  0.10262362257E+04  0.46306993301E+03 -0.20747956864E+03  0.11448328809E+04  0.50400001928E-02 0. -1.
       -1    1    3    3    0  502 -0.10262362257E+04 -0.46306993301E+03  0.27310187674E+03  0.11585245741E+04  0.50400001928E-02 0.  1.
</event>
<event>
 5   0  0.2519625E-06  0.2310650E+04  0.7818609E-02  0.8473734E-01
        3   -1    0    0  501    0  0.00000000000E+00  0.00000000000E+00  0.10662224982E+04  0.10662225030E+04  0.10100000352E+00 0.  1.
       -3   -1    0    0    0  501  0.00000000000E+00  0.00000000000E+00 -0.12518738003E+04  0.12518738044E+04  0.10100000352E+00 0. -1.
    10030    2    1    2    0    0  0.00000000000E+00  0.00000000000E+00 -0.18565130210E+03  0.23180963074E+04  0.23106501432E+04 0.  0.
        3    1    3    3  502    0  0.31416425450E+03  0.72942473019E+03  0.74893509236E+03  0.10916333627E+04  0.10100000352E+00 0.  1.
       -3    1    3    3    0  502 -0.31416425450E+03 -0.72942473019E+03 -0.93458639446E+03  0.12264629447E+04  0.10100000352E+00 0. -1.
</event>
<event>
 5   0  0.7044981E-06  0.2298564E+04  0.7818609E-02  0.8478487E-01
        2   -1    0    0  501    0  0.00000000000E+00  0.00000000000E+00  0.20868059538E+04  0.20868059538E+04  0.25500000920E-02 0. -1.
       -2   -1    0    0    0  501  0.00000000000E+00  0.00000000000E+00 -0.63295263536E+03  0.63295263536E+03  0.25500000920E-02 0.  1.
    10030    2    1    2    0    0  0.00000000000E+00  0.00000000000E+00  0.14538533184E+04  0.27197585891E+04  0.22985641848E+04 0.  0.
        4    1    3    3  502    0 -0.83649557299E+03 -0.33881457301E+03 -0.11502954907E+03  0.90980963315E+03  0.12699999809E+01 0.  1.
       -4    1    3    3    0  502  0.83649557299E+03  0.33881457301E+03  0.15688828675E+04  0.18099489560E+04  0.12699999809E+01 0. -1.
</event>
<event>
 5   0  0.7003852E-06  0.2302042E+04  0.7818609E-02  0.8477116E-01
       -2   -1    0    0    0  501  0.00000000000E+00  0.00000000000E+00  0.34141783289E+04  0.34141783289E+04  0.25500000920E-02 0.  1.
        2   -1    0    0  501    0  0.00000000000E+00  0.00000000000E+00 -0.38804347575E+03  0.38804347576E+03  0.25500000920E-02 0. -1.
    10030    2    1    2    0    0  0.00000000000E+00  0.00000000000E+00  0.30261348531E+04  0.38022218046E+04  0.23020422460E+04 0.  0.
        2    1    3    3  502    0 -0.41865392418E+03 -0.57735781856E+03  0.30052850183E+04  0.30887458944E+04  0.25500000920E-02 0.  1.
       -2    1    3    3    0  502  0.41865392418E+03  0.57735781856E+03  0.20849834837E+02  0.71347591025E+03  0.25500000920E-02 0. -1.
</event>
<event>
 5   0  0.3195296E-06  0.2300151E+04  0.7818609E-02  0.8477861E-01
       -1   -1    0    0    0  501  0.00000000000E+00  0.00000000000E+00  0.10550780964E+04  0.10550780965E+04  0.50400001928E-02 0.  1.
        1   -1    0    0  501    0  0.00000000000E+00  0.00000000000E+00 -0.12536267627E+04  0.12536267627E+04  0.50400001928E-02 0. -1.
    10030    2    1    2    0    0  0.00000000000E+00  0.00000000000E+00 -0.19854866624E+03  0.23087048591E+04  0.23001514197E+04 0.  0.
        2    1    3    3  502    0  0.77353001906E+03  0.47787887485E+03  0.60758680028E+03  0.10935623573E+04  0.25500000920E-02 0.  1.
       -2    1    3    3    0  502 -0.77353001906E+03 -0.47787887485E+03 -0.80613546652E+03  0.12151425018E+04  0.25500000920E-02 0. -1.
</event>
<event>
 5   0  0.2519625E-06  0.2300420E+04  0.7818609E-02  0.8477756E-01
        4   -1    0    0  501    0  0.00000000000E+00  0.00000000000E+00  0.15006542868E+04  0.15006548242E+04  0.12699999809E+01 0. -1.
       -4   -1    0    0    0  501  0.00000000000E+00  0.00000000000E+00 -0.88160296223E+03  0.88160387698E+03  0.12699999809E+01 0.  1.
    10030    2    1    2    0    0  0.00000000000E+00  0.00000000000E+00  0.61905132455E+03  0.23822587012E+04  0.23004199566E+04 0.  0.
        5    1    3    3  502    0 -0.11006079248E+04  0.28772240469E+03  0.48538736609E+03  0.12368285942E+04  0.46999998093E+01 0. -1.
       -5    1    3    3    0  502  0.11006079248E+04 -0.28772240469E+03  0.13366395846E+03  0.11454301070E+04  0.46999998093E+01 0.  1.
</event>
<event>
 5   0  0.7242214E-06  0.2298645E+04  0.7818609E-02  0.8478455E-01
       -2   -1    0    0    0  501  0.00000000000E+00  0.00000000000E+00  0.86045152029E+03  0.86045152029E+03  0.25500000920E-02 0. -1.
        2   -1    0    0  501    0  0.00000000000E+00  0.00000000000E+00 -0.15351735114E+04  0.15351735114E+04  0.25500000920E-02 0.  1.
    10030    2    1    2    0    0  0.00000000000E+00  0.00000000000E+00 -0.67472199108E+03  0.23956250317E+04  0.22986451503E+04 0.  0.
        1    1    3    3  502    0  0.16345526468E+03 -0.11223951945E+03  0.84249157122E+03  0.86550989647E+03  0.50400001928E-02 0. -1.
       -1    1    3    3    0  502 -0.16345526468E+03  0.11223951945E+03 -0.15172135623E+04  0.15301151352E+04  0.50400001928E-02 0.  1.
</event>
<event>
 5   0  0.3184492E-06  0.2291065E+04  0.7818609E-02  0.8481453E-01
       -1   -1    0    0    0  501  0.00000000000E+00  0.00000000000E+00  0.10592738014E+04  0.10592738014E+04  0.50400001928E-02 0. -1.
        1   -1    0    0  501    0  0.00000000000E+00  0.00000000000E+00 -0.12388149505E+04  0.12388149505E+04  0.50400001928E-02 0.  1.
    10030    2    1    2    0    0  0.00000000000E+00  0.00000000000E+00 -0.17954114914E+03  0.22980887519E+04  0.22910645751E+04 0.  0.
        1    1    3    3  502    0  0.10578711724E+04  0.36308268516E+03  0.15862501671E+03  0.11296381499E+04  0.50400001928E-02 0. -1.
       -1    1    3    3    0  502 -0.10578711724E+04 -0.36308268516E+03 -0.33816616585E+03  0.11684506020E+04  0.50400001928E-02 0.  1.
</event>
<event>
 5   0  0.3338758E-06  0.2297087E+04  0.7818609E-02  0.8479071E-01
        1   -1    0    0  501    0  0.00000000000E+00  0.00000000000E+00  0.19371419724E+04  0.19371419724E+04  0.50400001928E-02 0. -1.
       -1   -1    0    0    0  501  0.00000000000E+00  0.00000000000E+00 -0.68097836864E+03  0.68097836866E+03  0.50400001928E-02 0.  1.
    10030    2    1    2    0    0  0.00000000000E+00  0.00000000000E+00  0.12561636038E+04  0.26181203411E+04  0.22970866595E+04 0.  0.
        5    1    3    3  502    0 -0.10608866377E+04  0.40427421890E+03  0.82618842885E+03  0.14041109329E+04  0.46999998093E+01 0.  1.
       -5    1    3    3    0  502  0.10608866377E+04 -0.40427421890E+03  0.42997517495E+03  0.12140094082E+04  0.46999998093E+01 0. -1.
</event>
<event>
 5   0  0.3184492E-06  0.2300831E+04  0.7818609E-02  0.8477594E-01
        1   -1    0    0  501    0  0.00000000000E+00  0.00000000000E+00  0.10315241699E+04  0.10315241700E+04  0.50400001928E-02 0. -1.
       -1   -1    0    0    0  501  0.00000000000E+00  0.00000000000E+00 -0.12830095276E+04  0.12830095276E+04  0.50400001928E-02 0.  1.
    10030    2    1    2    0    0  0.00000000000E+00  0.00000000000E+00 -0.25148535769E+03  0.23145336976E+04  0.23008305788E+04 0.  0.
        1    1    3    3  502    0 -0.10440031887E+04 -0.42991326403E+02  0.35843921187E+03  0.11046581285E+04  0.50400001928E-02 0. -1.
       -1    1    3    3    0  502  0.10440031887E+04  0.42991326403E+02 -0.60992456956E+03  0.12098755691E+04  0.50400001928E-02 0.  1.
</event>
<event>
 5   0  0.3238713E-06  0.2298579E+04  0.7818609E-02  0.8478481E-01
        1   -1    0    0  501    0  0.00000000000E+00  0.00000000000E+00  0.17014064653E+04  0.17014064653E+04  0.50400001928E-02 0. -1.
       -1   -1    0    0    0  501  0.00000000000E+00  0.00000000000E+00 -0.77633815130E+03  0.77633815132E+03  0.50400001928E-02 0.  1.
    10030    2    1    2    0    0  0.00000000000E+00  0.00000000000E+00  0.92506831396E+03  0.24777446166E+04  0.22985793438E+04 0.  0.
        3    1    3    3  502    0  0.13220192915E+03 -0.10665845653E+04  0.23627713340E+02  0.10750061693E+04  0.10100000352E+00 0.  1.
       -3    1    3    3    0  502 -0.13220192915E+03  0.10665845653E+04  0.90144060062E+03  0.14027384473E+04  0.10100000352E+00 0. -1.
</event>
<event>
 5   0  0.7242214E-06  0.2293118E+04  0.7818609E-02  0.8480639E-01
       -2   -1    0    0    0  501  0.00000000000E+00  0.00000000000E+00  0.87399746585E+03  0.87399746585E+03  0.25500000920E-02 0.  1.
        2   -1    0    0  501    0  0.00000000000E+00  0.00000000000E+00 -0.15041209988E+04  0.15041209988E+04  0.25500000920E-02 0. -1.
    10030    2    1    2    0    0  0.00000000000E+00  0.00000000000E+00 -0.63012353298E+03  0.23781184647E+04  0.22931183496E+04 0.  0.
        1    1    3    3  502    0  0.31546898683E+03  0.37656164909E+03  0.75933142424E+03  0.90438021268E+03  0.50400001928E-02 0.  1.
       -1    1    3    3    0  502 -0.31546898683E+03 -0.37656164909E+03 -0.13894549572E+04  0.14737382520E+04  0.50400001928E-02 0. -1.
</event>
<event>
 5   0  0.7242214E-06  0.2303617E+04  0.7818609E-02  0.8476496E-01
       -2   -1    0    0    0  501  0.00000000000E+00  0.00000000000E+00  0.16462911055E+04  0.16462911055E+04  0.25500000920E-02 0.  1.
        2   -1    0    0  501    0  0.00000000000E+00  0.00000000000E+00 -0.80584967085E+03  0.80584967085E+03  0.25500000920E-02 0. -1.
    10030    2    1    2    0    0  0.00000000000E+00  0.00000000000E+00  0.84044143462E+03  0.24521407763E+04  0.23036172820E+04 0.  0.
        1    1    3    3  502    0  0.49858116859E+03  0.34606176273E+03 -0.62183423921E+03  0.86891872254E+03  0.50400001928E-02 0. -1.
       -1    1    3    3    0  502 -0.49858116859E+03 -0.34606176273E+03  0.14622756738E+04  0.15832220538E+04  0.50400001928E-02 0.  1.
</event>
<event>
 5   0  0.2519625E-06  0.2301084E+04  0.7818609E-02  0.8477494E-01
        3   -1    0    0  501    0  0.00000000000E+00  0.00000000000E+00  0.21903928663E+04  0.21903928686E+04  0.10100000352E+00 0. -1.
       -3   -1    0    0    0  501  0.00000000000E+00  0.00000000000E+00 -0.60434235282E+03  0.60434236126E+03  0.10100000352E+00 0.  1.
    10030    2    1    2    0    0  0.00000000000E+00  0.00000000000E+00  0.15860505135E+04  0.27947352299E+04  0.23010842605E+04 0.  0.
        5    1    3    3  502    0 -0.63923471225E+03  0.57722619300E+03 -0.13345795416E+03  0.87157570569E+03  0.46999998093E+01 0.  1.
       -5    1    3    3    0  502  0.63923471225E+03 -0.57722619300E+03  0.17195084676E+04  0.19231595242E+04  0.46999998093E+01 0. -1.
</event>
<event>
 5   0  0.7044981E-06  0.2301922E+04  0.7818609E-02  0.8477164E-01
       -2   -1    0    0    0  501  0.00000000000E+00  0.00000000000E+00  0.10453489218E+04  0.10453489218E+04  0.25500000920E-02 0.  1.
        2   -1    0    0  501    0  0.00000000000E+00  0.00000000000E+00 -0.12672426215E+04  0.12672426215E+04  0.25500000920E-02 0. -1.
    10030    2    1    2    0    0  0.00000000000E+00  0.00000000000E+00 -0.22189369969E+03  0.23125915432E+04  0.23019215521E+04 0.  0.
        4    1    3    3  502    0 -0.96956590328E+03  0.19738841115E+02  0.51181473151E+03  0.10965416522E+04  0.12699999809E+01 0.  1.
       -4    1    3    3    0  502  0.96956590328E+03 -0.19738841115E+02 -0.73370843120E+03  0.12160498911E+04  0.12699999809E+01 0. -1.
</event>
<event>
 5   0  0.3195296E-06  0.2290350E+04  0.7818609E-02  0.8481736E-01
        1   -1    0    0  501    0  0.00000000000E+00  0.00000000000E+00  0.95210289340E+03  0.95210289341E+03  0.50400001928E-02 0.  1.
       -1   -1    0    0    0  501  0.00000000000E+00  0.00000000000E+00 -0.13773986564E+04  0.13773986564E+04  0.50400001928E-02 0. -1.
    10030    2    1    2    0    0  0.00000000000E+00  0.00000000000E+00 -0.42529576304E+03  0.23295015499E+04  0.22903495333E+04 0.  0.
        2    1    3    3  502    0  0.53286789749E+03  0.84318940820E+03  0.35956027594E+03  0.10602830595E+04  0.25500000920E-02 0.  1.
       -2    1    3    3    0  502 -0.53286789749E+03 -0.84318940820E+03 -0.78485603897E+03  0.12692184903E+04  0.25500000920E-02 0. -1.
</event>
<event>
 5   0  0.7497344E-06  0.2297521E+04  0.7818609E-02  0.8478899E-01
       -2   -1    0    0    0  501  0.00000000000E+00  0.00000000000E+00  0.11552409520E+04  0.11552409520E+04  0.25500000920E-02 0.  1.
        2   -1    0    0  501    0  0.00000000000E+00  0.00000000000E+00 -0.11423165805E+04  0.11423165805E+04  0.25500000920E-02 0. -1.
    10030    2    1    2    0    0  0.00000000000E+00  0.00000000000E+00  0.12924371526E+02  0.22975575325E+04  0.22975211807E+04 0.  0.
        5    1    3    3  502    0 -0.13117245844E+03 -0.10715491862E+04  0.39915775668E+03  0.11509877832E+04  0.46999998093E+01 0.  1.
       -5    1    3    3    0  502  0.13117245844E+03  0.10715491862E+04 -0.38623338515E+03  0.11465697493E+04  0.46999998093E+01 0. -1.
</event>
<event>
 5   0  0.7497344E-06  0.2290615E+04  0.7818609E-02  0.8481631E-01
       -2   -1    0    0    0  501  0.00000000000E+00  0.00000000000E+00  0.87786389621E+03  0.87786389621E+03  0.25500000920E-02 0. -1.
        2   -1    0    0  501    0  0.00000000000E+00  0.00000000000E+00 -0.14942281994E+04  0.14942281994E+04  0.25500000920E-02 0.  1.
    10030    2    1    2    0    0  0.00000000000E+00  0.00000000000E+00 -0.61636430315E+03  0.23720920956E+04  0.22906147550E+04 0.  0.
        5    1    3    3  502    0 -0.98069945905E+03  0.15793311485E+02 -0.92055882705E+03  0.13451659755E+04  0.46999998093E+01 0.  1.
       -5    1    3    3    0  502  0.98069945905E+03 -0.15793311485E+02  0.30419452390E+03  0.10269261200E+04  0.46999998093E+01 0. -1.
</event>
<event>
 5   0  0.7348107E-06  0.2301325E+04  0.7818609E-02  0.8477399E-01
        2   -1    0    0  501    0  0.00000000000E+00  0.00000000000E+00  0.85258444252E+03  0.85258444252E+03  0.25500000920E-02 0. -1.
       -2   -1    0    0    0  501  0.00000000000E+00  0.00000000000E+00 -0.15529537681E+04  0.15529537681E+04  0.25500000920E-02 0.  1.
    10030    2    1    2    0    0  0.00000000000E+00  0.00000000000E+00 -0.70036932556E+03  0.24055382106E+04  0.23013250293E+04 0.  0.
        3    1    3    3  502    0 -0.13292394850E+03 -0.11120986433E+04 -0.74435568466E+02  0.11224851147E+04  0.10100000352E+00 0. -1.
       -3    1    3    3    0  502  0.13292394850E+03  0.11120986433E+04 -0.62593375709E+03  0.12830530960E+04  0.10100000352E+00 0.  1.
</event>
<event>
 5   0  0.7497344E-06  0.2298871E+04  0.7818609E-02  0.8478367E-01
       -2   -1    0    0    0  501  0.00000000000E+00  0.00000000000E+00  0.67375938811E+03  0.67375938811E+03  0.25500000920E-02 0. -1.
        2   -1    0    0  501    0  0.00000000000E+00  0.00000000000E+00 -0.19609398008E+04  0.19609398008E+04  0.25500000920E-02 0.  1.
    10030    2    1    2    0    0  0.00000000000E+00  0.00000000000E+00 -0.12871804127E+04  0.26346991889E+04  0.22988706796E+04 0.  0.
        5    1    3    3  502    0  0.10183332666E+03  0.11053988450E+04 -0.98531335977E+03  0.14842981977E+04  0.46999998093E+01 0. -1.
       -5    1    3    3    0  502 -0.10183332666E+03 -0.11053988450E+04 -0.30186705294E+03  0.11504009912E+04  0.46999998093E+01 0.  1.
</event>
<event>
 5   0  0.7003852E-06  0.2298915E+04  0.7818609E-02  0.8478349E-01
        2   -1    0    0  501    0  0.00000000000E+00  0.00000000000E+00  0.78530963575E+03  0.78530963575E+03  0.25500000920E-02 0.  1.
       -2   -1    0    0    0  501  0.00000000000E+00  0.00000000000E+00 -0.16824603400E+04  0.16824603400E+04  0.25500000920E-02 0. -1.
    10030    2    1    2    0    0  0.00000000000E+00  0.00000000000E+00 -0.89715070424E+03  0.24677699757E+04  0.22989148020E+04 0.  0.
        2    1    3    3  502    0  0.54897225567E+03 -0.92691946411E+03 -0.87889636845E+03  0.13903269604E+04  0.25500000920E-02 0.  1.
       -2    1    3    3    0  502 -0.54897225567E+03  0.92691946411E+03 -0.18254335794E+02  0.10774430153E+04  0.25500000920E-02 0. -1.
</event>
<event>
 5   0  0.7497344E-06  0.2298123E+04  0.7818609E-02  0.8478662E-01
        2   -1    0    0  501    0  0.00000000000E+00  0.00000000000E+00  0.18362174312E+04  0.18362174312E+04  0.25500000920E-02 0.  1.
       -2   -1    0    0    0  501  0.00000000000E+00  0.00000000000E+00 -0.71905524533E+03  0.71905524534E+03  0.25500000920E-02 0. -1.
    10030    2    1    2    0    0  0.00000000000E+00  0.00000000000E+00  0.11171621858E+04  0.25552726765E+04  0.22981225167E+04 0.  0.
        5    1    3    3  502    0  0.57041924109E+03 -0.92935153420E+03  0.15576272703E+03  0.11015246261E+04  0.46999998093E+01 0. -1.
       -5    1    3    3    0  502 -0.57041924109E+03  0.92935153420E+03  0.96139945882E+03  0.14537480504E+04  0.46999998093E+01 0.  1.
</event>
<event>
 5   0  0.7003852E-06  0.2298981E+04  0.7818609E-02  0.8478323E-01
       -2   -1    0    0    0  501  0.00000000000E+00  0.00000000000E+00  0.65041880620E+03  0.65041880621E+03  0.25500000920E-02 0.  1.
        2   -1    0    0  501    0  0.00000000000E+00  0.00000000000E+00 -0.20315038554E+04  0.20315038554E+04  0.25500000920E-02 0. -1.
    10030    2    1    2    0    0  0.00000000000E+00  0.00000000000E+00 -0.13810850492E+04  0.26819226616E+04  0.22989809155E+04 0.  0.
        2    1    3    3  502    0 -0.81262435456E+03  0.18582188282E+03  0.23277418074E+03  0.86548941818E+03  0.25500000920E-02 0.  1.
       -2    1    3    3    0  502  0.81262435456E+03 -0.18582188282E+03 -0.16138592299E+04  0.18164332434E+04  0.25500000920E-02 0. -1.
</event>
<event>
 5   0  0.7044981E-06  0.2293601E+04  0.7818609E-02  0.8480448E-01
        2   -1    0    0  501    0  0.00000000000E+00  0.00000000000E+00  0.15391652260E+04  0.15391652260E+04  0.25500000920E-02 0.  1.
       -2   -1    0    0    0  501  0.00000000000E+00  0.00000000000E+00 -0.85445748174E+03  0.85445748174E+03  0.25500000920E-02 0. -1.
    10030    2    1    2    0    0  0.00000000000E+00  0.00000000000E+00  0.68470774422E+03  0.23936227077E+04  0.22936008746E+04 0.  0.
        4    1    3    3  502    0 -0.72578872181E+03 -0.85849483727E+03  0.57888039603E+03  0.12644709487E+04  0.12699999809E+01 0. -1.
       -4    1    3    3    0  502  0.72578872181E+03  0.85849483727E+03  0.10582734819E+03  0.11291517590E+04  0.12699999809E+01 0.  1.
</event>
<event>
 5   0  0.7242214E-06  0.2299125E+04  0.7818609E-02  0.8478266E-01
       -2   -1    0    0    0  501  0.00000000000E+00  0.00000000000E+00  0.16368971313E+04  0.16368971313E+04  0.25500000920E-02 0.  1.
        2   -1    0    0  501    0  0.00000000000E+00  0.00000000000E+00 -0.80731611268E+03  0.80731611269E+03  0.25500000920E-02 0. -1.
    10030    2    1    2    0    0  0.00000000000E+00  0.00000000000E+00  0.82958101862E+03  0.24442132440E+04  0.22991245542E+04 0.  0.
        1    1    3    3  502    0 -0.98051511353E+01 -0.84937716844E+03  0.12382385304E+04  0.15015899485E+04  0.50400001928E-02 0.  1.
       -1    1    3    3    0  502  0.98051511353E+01  0.84937716844E+03 -0.40865751177E+03  0.94262329550E+03  0.50400001928E-02 0. -1.
</event>
<event>
 5   0  0.3184492E-06  0.2299607E+04  0.7818609E-02  0.8478076E-01
        1   -1    0    0  501    0  0.00000000000E+00  0.00000000000E+00  0.10935188020E+04  0.10935188020E+04  0.50400001928E-02 0.  1.
       -1   -1    0    0    0  501  0.00000000000E+00  0.00000000000E+00 -0.12089850866E+04  0.12089850866E+04  0.50400001928E-02 0. -1.
    10030    2    1    2    0    0  0.00000000000E+00  0.00000000000E+00 -0.11546628457E+03  0.23025038887E+04  0.22996068565E+04 0.  0.
        1    1    3    3  502    0 -0.67193776067E+03  0.25095586271E+03  0.84204724612E+03  0.11061296325E+04  0.50400001928E-02 0.  1.
       -1    1    3    3    0  502  0.67193776067E+03 -0.25095586271E+03 -0.95751353068E+03  0.11963742561E+04  0.50400001928E-02 0. -1.
</event>
<event>
 5   0  0.3338758E-06  0.2299484E+04  0.7818609E-02  0.8478124E-01
       -1   -1    0    0    0  501  0.00000000000E+00  0.00000000000E+00  0.54617967607E+03  0.54617967610E+03  0.50400001928E-02 0.  1.
        1   -1    0    0  501    0  0.00000000000E+00  0.00000000000E+00 -0.24202788755E+04  0.24202788756E+04  0.50400001928E-02 0. -1.
    10030    2    1    2    0    0  0.00000000000E+00  0.00000000000E+00 -0.18740991995E+04  0.29664585516E+04  0.22994844051E+04 0.  0.
        5    1    3    3  502    0 -0.57800804295E+02 -0.76412474544E+02  0.54100822861E+03  0.54944680604E+03  0.46999998093E+01 0.  1.
       -5    1    3    3    0  502  0.57800804295E+02  0.76412474544E+02 -0.24151074281E+04  0.24170117456E+04  0.46999998093E+01 0. -1.
</event>
<event>
 5   0  0.3195296E-06  0.2294206E+04  0.7818609E-02  0.8480209E-01
        1   -1    0    0  501    0  0.00000000000E+00  0.00000000000E+00  0.15778516005E+04  0.15778516005E+04  0.50400001928E-02 0.  1.
       -1   -1    0    0    0  501  0.00000000000E+00  0.00000000000E+00 -0.83394759795E+03  0.83394759797E+03  0.50400001928E-02 0. -1.
    10030    2    1    2    0    0  0.00000000000E+00  0.00000000000E+00  0.74390400251E+03  0.24117991984E+04  0.22942062263E+04 0.  0.
        2    1    3    3  502    0 -0.10094594493E+04 -0.20982827332E+03 -0.15662125785E+03  0.10428645657E+04  0.25500000920E-02 0. -1.
       -2    1    3    3    0  502  0.10094594493E+04  0.20982827332E+03  0.90052526036E+03  0.13689346327E+04  0.25500000920E-02 0.  1.
</event>
<event>
 5   0  0.3338758E-06  0.2313034E+04  0.7818609E-02  0.8472800E-01
       -1   -1    0    0    0  501  0.00000000000E+00  0.00000000000E+00  0.12615580083E+04  0.12615580083E+04  0.50400001928E-02 0. -1.
        1   -1    0    0  501    0  0.00000000000E+00  0.00000000000E+00 -0.10602221528E+04  0.10602221528E+04  0.50400001928E-02 0.  1.
    10030    2    1    2    0    0  0.00000000000E+00  0.00000000000E+00  0.20133585550E+03  0.23217801611E+04  0.23130341523E+04 0.  0.
        5    1    3    3  502    0  0.11022687500E+03  0.15094428683E+03 -0.10449518590E+04  0.10615463340E+04  0.46999998093E+01 0.  1.
       -5    1    3    3    0  502 -0.11022687500E+03 -0.15094428683E+03  0.12462877145E+04  0.12602338271E+04  0.46999998093E+01 0. -1.
</event>
<event>
 5   0  0.7242214E-06  0.2302720E+04  0.7818609E-02  0.8476850E-01
        2   -1    0    0  501    0  0.00000000000E+00  0.00000000000E+00  0.11340336730E+04  0.11340336730E+04  0.25500000920E-02 0.  1.
       -2   -1    0    0    0  501  0.00000000000E+00  0.00000000000E+00 -0.11689506254E+04  0.11689506254E+04  0.25500000920E-02 0. -1.
    10030    2    1    2    0    0  0.00000000000E+00  0.00000000000E+00 -0.34916952372E+02  0.23029842984E+04  0.23027195845E+04 0.  0.
        1    1    3    3  502    0  0.25427394783E+03  0.30015425655E+03  0.10647387196E+04  0.11350842961E+04  0.50400001928E-02 0.  1.
       -1    1    3    3    0  502 -0.25427394783E+03 -0.30015425655E+03 -0.10996556720E+04  0.11679000022E+04  0.50400001928E-02 0. -1.
</event>
<event>
 5   0  0.7044981E-06  0.2300330E+04  0.7818609E-02  0.8477791E-01
       -2   -1    0    0    0  501  0.00000000000E+00  0.00000000000E+00  0.21041491411E+04  0.21041491411E+04  0.25500000920E-02 0. -1.
        2   -1    0    0  501    0  0.00000000000E+00  0.00000000000E+00 -0.62870026379E+03  0.62870026380E+03  0.25500000920E-02 0.  1.
    10030    2    1    2    0    0  0.00000000000E+00  0.00000000000E+00  0.14754488773E+04  0.27328494049E+04  0.23003296460E+04 0.  0.
        4    1    3    3  502    0  0.33259632698E+03  0.64068658561E+03 -0.32605762047E+03  0.79209519786E+03  0.12699999809E+01 0.  1.
       -4    1    3    3    0  502 -0.33259632698E+03 -0.64068658561E+03  0.18015064977E+04  0.19407542070E+04  0.12699999809E+01 0. -1.
</event>
<event>
 5   0  0.3226427E-06  0.2236874E+04  0.7818609E-02  0.8503235E-01
        1   -1    0    0  501    0  0.00000000000E+00  0.00000000000E+00  0.26535988627E+04  0.26535988627E+04  0.50400001928E-02 0. -1.
       -1   -1    0    0    0  501  0.00000000000E+00  0.00000000000E+00 -0.47139798243E+03  0.47139798246E+03  0.50400001928E-02 0.  1.
    10030    2    1    2    0    0  0.00000000000E+00  0.00000000000E+00  0.21822008803E+04  0.31249968452E+04  0.22368738455E+04 0.  0.
        4    1    3    3  502    0 -0.67411081953E+03 -0.29408412514E+03 -0.86054962174E+02  0.74048493508E+03  0.12699999809E+01 0.  1.
       -4    1    3    3    0  502  0.67411081953E+03  0.29408412514E+03  0.22682558425E+04  0.23845119101E+04  0.12699999809E+01 0. -1.
</event>
<event>
 5   0  0.3195296E-06  0.2293576E+04  0.7818609E-02  0.8480458E-01
       -1   -1    0    0    0  501  0.00000000000E+00  0.00000000000E+00  0.58173962531E+03  0.58173962533E+03  0.50400001928E-02 0.  1.
        1   -1    0    0  501    0  0.00000000000E+00  0.00000000000E+00 -0.22606725514E+04  0.22606725514E+04  0.50400001928E-02 0. -1.
    10030    2    1    2    0    0  0.00000000000E+00  0.00000000000E+00 -0.16789329261E+04  0.28424121767E+04  0.22935760751E+04 0.  0.
        2    1    3    3  502    0  0.52537264545E+03 -0.91717300353E+03 -0.13907777413E+04  0.17468501541E+04  0.25500000920E-02 0. -1.
       -2    1    3    3    0  502 -0.52537264545E+03  0.91717300353E+03 -0.28815518474E+03  0.10955620227E+04  0.25500000920E-02 0.  1.
</event>
<event>
 5   0  0.3195296E-06  0.2292036E+04  0.7818609E-02  0.8481068E-01
        1   -1    0    0  501    0  0.00000000000E+00  0.00000000000E+00  0.14721036816E+04  0.14721036816E+04  0.50400001928E-02 0.  1.
       -1   -1    0    0    0  501  0.00000000000E+00  0.00000000000E+00 -0.89216340739E+03  0.89216340741E+03  0.50400001928E-02 0. -1.
    10030    2    1    2    0    0  0.00000000000E+00  0.00000000000E+00  0.57994027423E+03  0.23642670890E+04  0.22920358083E+04 0.  0.
        2    1    3    3  502    0  0.50551598547E+03 -0.80095559362E+03 -0.37556089290E+03  0.10188828484E+04  0.25500000920E-02 0. -1.
       -2    1    3    3    0  502 -0.50551598547E+03  0.80095559362E+03  0.95550116713E+03  0.13453842406E+04  0.25500000920E-02 0.  1.
</event>
<event>
 5   0  0.7003852E-06  0.2298636E+04  0.7818609E-02  0.8478459E-01
       -2   -1    0    0    0  501  0.00000000000E+00  0.00000000000E+00  0.10507268610E+04  0.10507268610E+04  0.25500000920E-02 0.  1.
        2   -1    0    0  501    0  0.00000000000E+00  0.00000000000E+00 -0.12571605065E+04  0.12571605065E+04  0.25500000920E-02 0. -1.
    10030    2    1    2    0    0  0.00000000000E+00  0.00000000000E+00 -0.20643364552E+03  0.23078873675E+04  0.22986363895E+04 0.  0.
        2    1    3    3  502    0  0.45850486355E+03 -0.90943295678E+03  0.43150265447E+03  0.11061146205E+04  0.25500000920E-02 0.  1.
       -2    1    3    3    0  502 -0.45850486355E+03  0.90943295678E+03 -0.63793629999E+03  0.12017727471E+04  0.25500000920E-02 0. -1.
</event>
<event>
 5   0  0.3184492E-06  0.2300657E+04  0.7818609E-02  0.8477662E-01
       -1   -1    0    0    0  501  0.00000000000E+00  0.00000000000E+00  0.90058438805E+03  0.90058438806E+03  0.50400001928E-02 0. -1.
        1   -1    0    0  501    0  0.00000000000E+00  0.00000000000E+00 -0.14693293923E+04  0.14693293923E+04  0.50400001928E-02 0.  1.
    10030    2    1    2    0    0  0.00000000000E+00  0.00000000000E+00 -0.56874500421E+03  0.23699137803E+04  0.23006565251E+04 0.  0.
        1    1    3    3  502    0  0.76690755165E+03  0.79784089006E+03  0.39017309502E+02  0.11073480162E+04  0.50400001928E-02 0. -1.
       -1    1    3    3    0  502 -0.76690755165E+03 -0.79784089006E+03 -0.60776231371E+03  0.12625657641E+04  0.50400001928E-02 0.  1.
</event>
<event>
 5   0  0.3195296E-06  0.2311374E+04  0.7818609E-02  0.8473450E-01
       -1   -1    0    0    0  501  0.00000000000E+00  0.00000000000E+00  0.89877837088E+03  0.89877837089E+03  0.50400001928E-02 0.  1.
        1   -1    0    0  501    0  0.00000000000E+00  0.00000000000E+00 -0.14860312562E+04  0.14860312562E+04  0.50400001928E-02 0. -1.
    10030    2    1    2    0    0  0.00000000000E+00  0.00000000000E+00 -0.58725288529E+03  0.23848096271E+04  0.23113742679E+04 0.  0.
        2    1    3    3  502    0 -0.15732075021E+03 -0.67211475626E+03  0.66271184111E+03  0.95690911188E+03  0.25500000920E-02 0.  1.
       -2    1    3    3    0  502  0.15732075021E+03  0.67211475626E+03 -0.12499647264E+04  0.14279005152E+04  0.25500000920E-02 0. -1.
</event>
<event>
 5   0  0.3238713E-06  0.2298947E+04  0.7818609E-02  0.8478337E-01
        1   -1    0    0  501    0  0.00000000000E+00  0.00000000000E+00  0.18580735831E+04  0.18580735831E+04  0.50400001928E-02 0. -1.
       -1   -1    0    0    0  501  0.00000000000E+00  0.00000000000E+00 -0.71110679710E+03  0.71110679711E+03  0.50400001928E-02 0.  1.
    10030    2    1    2    0    0  0.00000000000E+00  0.00000000000E+00  0.11469667860E+04  0.25691803802E+04  0.22989465018E+04 0.  0.
        3    1    3    3  502    0 -0.58130252776E+02 -0.68571288701E+03 -0.45545348487E+03  0.82523886044E+03  0.10100000352E+00 0.  1.
       -3    1    3    3    0  502  0.58130252776E+02  0.68571288701E+03  0.16024202709E+04  0.17439415198E+04  0.10100000352E+00 0. -1.
</event>
<event>
 5   0  0.3226427E-06  0.2298343E+04  0.7818609E-02  0.8478575E-01
       -1   -1    0    0    0  501  0.00000000000E+00  0.00000000000E+00  0.60851311892E+03  0.60851311894E+03  0.50400001928E-02 0.  1.
        1   -1    0    0  501    0  0.00000000000E+00  0.00000000000E+00 -0.21701999679E+04  0.21701999679E+04  0.50400001928E-02 0. -1.
    10030    2    1    2    0    0  0.00000000000E+00  0.00000000000E+00 -0.15616868490E+04  0.27787130868E+04  0.22983430128E+04 0.  0.
        4    1    3    3  502    0 -0.11357764910E+04 -0.15160995829E+03 -0.88637888451E+03  0.14486693745E+04  0.12699999809E+01 0. -1.
       -4    1    3    3    0  502  0.11357764910E+04  0.15160995829E+03 -0.67530796444E+03  0.13300437123E+04  0.12699999809E+01 0.  1.
</event>
<event>
 5   0  0.7044981E-06  0.2298191E+04  0.7818609E-02  0.8478635E-01
        2   -1    0    0  501    0  0.00000000000E+00  0.00000000000E+00  0.10932801922E+04  0.10932801922E+04  0.25500000920E-02 0. -1.
       -2   -1    0    0    0  501  0.00000000000E+00  0.00000000000E+00 -0.12077607099E+04  0.12077607099E+04  0.25500000920E-02 0.  1.
    10030    2    1    2    0    0  0.00000000000E+00  0.00000000000E+00 -0.11448051773E+03  0.23010409021E+04  0.22981913419E+04 0.  0.
        4    1    3    3  502    0 -0.48294242540E+02  0.93496308491E+03 -0.72434782081E+03  0.11837101345E+04  0.12699999809E+01 0.  1.
       -4    1    3    3    0  502  0.48294242540E+02 -0.93496308491E+03  0.60986730307E+03  0.11173307676E+04  0.12699999809E+01 0. -1.
</event>
<event>
 5   0  0.7003852E-06  0.2310918E+04  0.7818609E-02  0.8473629E-01
       -2   -1    0    0    0  501  0.00000000000E+00  0.00000000000E+00  0.10449835711E+04  0.10449835711E+04  0.25500000920E-02 0. -1.
        2   -1    0    0  501    0  0.00000000000E+00  0.00000000000E+00 -0.12776139672E+04  0.12776139672E+04  0.25500000920E-02 0.  1.
    10030    2    1    2    0    0  0.00000000000E+00  0.00000000000E+00 -0.23263039613E+03  0.23225975383E+04  0.23109180911E+04 0.  0.
        2    1    3    3  502    0  0.57478332914E+03  0.54597255953E+03  0.72854238609E+03  0.10766781876E+04  0.25500000920E-02 0. -1.
       -2    1    3    3    0  502 -0.57478332914E+03 -0.54597255953E+03 -0.96117278223E+03  0.12459193507E+04  0.25500000920E-02 0.  1.
</event>
<event>
 5   0  0.7497344E-06  0.2297602E+04  0.7818609E-02  0.8478867E-01
       -2   -1    0    0    0  501  0.00000000000E+00  0.00000000000E+00  0.80074245775E+03  0.80074245775E+03  0.25500000920E-02 0. -1.
        2   -1    0    0  501    0  0.00000000000E+00  0.00000000000E+00 -0.16481504602E+04  0.16481504602E+04  0.25500000920E-02 0.  1.
    10030    2    1    2    0    0  0.00000000000E+00  0.00000000000E+00 -0.84740800249E+03  0.24488929180E+04  0.22976022722E+04 0.  0.
        5    1    3    3  502    0 -0.59263658379E+03  0.81095334591E+03 -0.10179637625E+04  0.14300824317E+04  0.46999998093E+01 0.  1.
       -5    1    3    3    0  502  0.59263658379E+03 -0.81095334591E+03  0.17055576001E+03  0.10188104863E+04  0.46999998093E+01 0. -1.
</event>
<event>
 5   0  0.7348107E-06  0.2298613E+04  0.7818609E-02  0.8478468E-01
       -2   -1    0    0    0  501  0.00000000000E+00  0.00000000000E+00  0.98355144027E+03  0.98355144027E+03  0.25500000920E-02 0. -1.
        2   -1    0    0  501    0  0.00000000000E+00  0.00000000000E+00 -0.13429956856E+04  0.13429956857E+04  0.25500000920E-02 0.  1.
    10030    2    1    2    0    0  0.00000000000E+00  0.00000000000E+00 -0.35944424538E+03  0.23265471259E+04  0.22986129217E+04 0.  0.
        3    1    3    3  502    0 -0.99988678518E+03 -0.41840591973E+02 -0.75172817594E+03  0.12516467070E+04  0.10100000352E+00 0.  1.
       -3    1    3    3    0  502  0.99988678518E+03  0.41840591973E+02  0.39228393056E+03  0.10749004190E+04  0.10100000352E+00 0. -1.
</event>
<event>
 5   0  0.7242214E-06  0.2299437E+04  0.7818609E-02  0.8478143E-01
       -2   -1    0    0    0  501  0.00000000000E+00  0.00000000000E+00  0.56534233170E+03  0.56534233171E+03  0.25500000920E-02 0. -1.
        2   -1    0    0  501    0  0.00000000000E+00  0.00000000000E+00 -0.23381461928E+04  0.23381461928E+04  0.25500000920E-02 0.  1.
    10030    2    1    2    0    0  0.00000000000E+00  0.00000000000E+00 -0.17728038611E+04  0.29034885245E+04  0.22994373403E+04 0.  0.
        1    1    3    3  502    0 -0.62610918599E+02  0.10012555228E+04 -0.17724339428E+03  0.10187482367E+04  0.50400001928E-02 0. -1.
       -1    1    3    3    0  502  0.62610918599E+02 -0.10012555228E+04 -0.15955604669E+04  0.18847402878E+04  0.50400001928E-02 0.  1.
</event>
<event>
 5   0  0.3238713E-06  0.2298470E+04  0.7818609E-02  0.8478525E-01
       -1   -1    0    0    0  501  0.00000000000E+00  0.00000000000E+00  0.10549846064E+04  0.10549846064E+04  0.50400001928E-02 0. -1.
        1   -1    0    0  501    0  0.00000000000E+00  0.00000000000E+00 -0.12519050562E+04  0.12519050562E+04  0.50400001928E-02 0.  1.
    10030    2    1    2    0    0  0.00000000000E+00  0.00000000000E+00 -0.19692044980E+03  0.23068896625E+04  0.22984695455E+04 0.  0.
        3    1    3    3  502    0  0.40127218159E+03 -0.81233144551E+03  0.61112253747E+03  0.10928735092E+04  0.10100000352E+00 0.  1.
       -3    1    3    3    0  502 -0.40127218159E+03  0.81233144551E+03 -0.80804298728E+03  0.12140161533E+04  0.10100000352E+00 0. -1.
</event>
<event>
 5   0  0.3238713E-06  0.2299330E+04  0.7818609E-02  0.8478185E-01
       -1   -1    0    0    0  501  0.00000000000E+00  0.00000000000E+00  0.63264871852E+03  0.63264871854E+03  0.50400001928E-02 0. -1.
        1   -1    0    0  501    0  0.00000000000E+00  0.00000000000E+00 -0.20891999455E+04  0.20891999455E+04  0.50400001928E-02 0.  1.
    10030    2    1    2    0    0  0.00000000000E+00  0.00000000000E+00 -0.14565512270E+04  0.27218486640E+04  0.22993300488E+04 0.  0.
        3    1    3    3  502    0  0.52987260096E+03  0.99806832580E+03 -0.97889774929E+03  0.14950405245E+04  0.10100000352E+00 0.  1.
       -3    1    3    3    0  502 -0.52987260096E+03 -0.99806832580E+03 -0.47765347768E+03  0.12268081395E+04  0.10100000352E+00 0. -1.
</event>
<event>
 5   0  0.7348107E-06  0.2302641E+04  0.7818609E-02  0.8476881E-01
        2   -1    0    0  501    0  0.00000000000E+00  0.00000000000E+00  0.19958915773E+04  0.19958915774E+04  0.25500000920E-02 0. -1.
       -2   -1    0    0    0  501  0.00000000000E+00  0.00000000000E+00 -0.66413368071E+03  0.66413368071E+03  0.25500000920E-02 0.  1.
    10030    2    1    2    0    0  0.00000000000E+00  0.00000000000E+00  0.13317578966E+04  0.26600252581E+04  0.23026409356E+04 0.  0.
        3    1    3    3  502    0  0.93534323836E+03 -0.21705122886E+02  0.14409876877E+04  0.17180755549E+04  0.10100000352E+00 0. -1.
       -3    1    3    3    0  502 -0.93534323836E+03  0.21705122886E+02 -0.10922979105E+03  0.94194970320E+03  0.10100000352E+00 0.  1.
</event>
<event>
 5   0  0.3226427E-06  0.2299100E+04  0.7818609E-02  0.8478276E-01
       -1   -1    0    0    0  501  0.00000000000E+00  0.00000000000E+00  0.85452631867E+03  0.85452631869E+03  0.50400001928E-02 0.  1.
        1   -1    0    0  501    0  0.00000000000E+00  0.00000000000E+00 -0.15464301423E+04  0.15464301423E+04  0.50400001928E-02 0. -1.
    10030    2    1    2    0    0  0.00000000000E+00  0.00000000000E+00 -0.69190382366E+03  0.24009564610E+04  0.22991000471E+04 0.  0.
        4    1    3    3  502    0  0.87628406300E+03 -0.60978640232E+03  0.99257293782E+02  0.10721785480E+04  0.12699999809E+01 0.  1.
       -4    1    3    3    0  502 -0.87628406300E+03  0.60978640232E+03 -0.79116111744E+03  0.13287779130E+04  0.12699999809E+01 0. -1.
</event>
<event>
 5   0  0.7242214E-06  0.2301842E+04  0.7818609E-02  0.8477195E-01
        2   -1    0    0  501    0  0.00000000000E+00  0.00000000000E+00  0.18853505276E+04  0.18853505276E+04  0.25500000920E-02 0. -1.
       -2   -1    0    0    0  501  0.00000000000E+00  0.00000000000E+00 -0.70258514375E+03  0.70258514376E+03  0.25500000920E-02 0.  1.
    10030    2    1    2    0    0  0.00000000000E+00  0.00000000000E+00  0.11827653839E+04  0.25879356714E+04  0.23018421071E+04 0.  0.
        1    1    3    3  502    0 -0.80371078574E+03  0.69021291434E+03  0.10970307957E+04  0.15250644121E+04  0.50400001928E-02 0. -1.
       -1    1    3    3    0  502  0.80371078574E+03 -0.69021291434E+03  0.85734588175E+02  0.10628712593E+04  0.50400001928E-02 0.  1.
</event>
<event>
 5   0  0.7348107E-06  0.2310673E+04  0.7818609E-02  0.8473725E-01
        2   -1    0    0  501    0  0.00000000000E+00  0.00000000000E+00  0.17199645670E+04  0.17199645670E+04  0.25500000920E-02 0.  1.
       -2   -1    0    0    0  501  0.00000000000E+00  0.00000000000E+00 -0.77606383368E+03  0.77606383368E+03  0.25500000920E-02 0. -1.
    10030    2    1    2    0    0  0.00000000000E+00  0.00000000000E+00  0.94390073328E+03  0.24960284006E+04  0.23106728852E+04 0.  0.
        3    1    3    3  502    0  0.18045361066E+03 -0.62298074277E+03  0.15047496595E+04  0.16385786705E+04  0.10100000352E+00 0.  1.
       -3    1    3    3    0  502 -0.18045361066E+03  0.62298074277E+03 -0.56084892623E+03  0.85744973014E+03  0.10100000352E+00 0. -1.
</event>
<event>
 5   0  0.3238713E-06  0.2301224E+04  0.7818609E-02  0.8477439E-01
        1   -1    0    0  501    0  0.00000000000E+00  0.00000000000E+00  0.86475479893E+03  0.86475479894E+03  0.50400001928E-02 0.  1.
       -1   -1    0    0    0  501  0.00000000000E+00  0.00000000000E+00 -0.15309629567E+04  0.15309629567E+04  0.50400001928E-02 0. -1.
    10030    2    1    2    0    0  0.00000000000E+00  0.00000000000E+00 -0.66620815777E+03  0.23957177557E+04  0.23012236430E+04 0.  0.
        3    1    3    3  502    0 -0.16166962271E+03  0.88438809201E+03  0.41445436335E+03  0.98997565308E+03  0.10100000352E+00 0.  1.
       -3    1    3    3    0  502  0.16166962271E+03 -0.88438809201E+03 -0.10806625211E+04  0.14057421026E+04  0.10100000352E+00 0. -1.
</event>
<event>
 5   0  0.7348107E-06  0.2298225E+04  0.7818609E-02  0.8478621E-01
       -2   -1    0    0    0  501  0.00000000000E+00  0.00000000000E+00  0.86798669693E+03  0.86798669693E+03  0.25500000920E-02 0.  1.
        2   -1    0    0  501    0  0.00000000000E+00  0.00000000000E+00 -0.15212906875E+04  0.15212906875E+04  0.25500000920E-02 0. -1.
    10030    2    1    2    0    0  0.00000000000E+00  0.00000000000E+00 -0.65330399057E+03  0.23892773844E+04  0.22982254710E+04 0.  0.
        3    1    3    3  502    0  0.92564412006E+03  0.57938864688E+03 -0.69852716860E+03  0.12963211240E+04  0.10100000352E+00 0. -1.
       -3    1    3    3    0  502 -0.92564412006E+03 -0.57938864688E+03  0.45223178031E+02  0.10929562604E+04  0.10100000352E+00 0.  1.
</event>
<event>
 5   0  0.7242214E-06  0.2298054E+04  0.7818609E-02  0.8478689E-01
        2   -1    0    0  501    0  0.00000000000E+00  0.00000000000E+00  0.12044610896E+04  0.12044610896E+04  0.25500000920E-02 0.  1.
       -2   -1    0    0    0  501  0.00000000000E+00  0.00000000000E+00 -0.10961443851E+04  0.10961443851E+04  0.25500000920E-02 0. -1.
    10030    2    1    2    0    0  0.00000000000E+00  0.00000000000E+00  0.10831670458E+03  0.23006054747E+04  0.22980541860E+04 0.  0.
        1    1    3    3  502    0 -0.15116309291E+03  0.10853871597E+04 -0.29169253876E+03  0.11340194462E+04  0.50400001928E-02 0. -1.
       -1    1    3    3    0  502  0.15116309291E+03 -0.10853871597E+04  0.40000924335E+03  0.11665860285E+04  0.50400001928E-02 0.  1.
</event>
<event>
 5   0  0.3195296E-06  0.2298328E+04  0.7818609E-02  0.8478581E-01
        1   -1    0    0  501    0  0.00000000000E+00  0.00000000000E+00  0.15633767292E+04  0.15633767292E+04  0.50400001928E-02 0. -1.
       -1   -1    0    0    0  501  0.00000000000E+00  0.00000000000E+00 -0.84469564368E+03  0.84469564369E+03  0.50400001928E-02 0.  1.
    10030    2    1    2    0    0  0.00000000000E+00  0.00000000000E+00  0.71868108548E+03  0.24080723729E+04  0.22983276638E+04 0.  0.
        2    1    3    3  502    0  0.94479617619E+03  0.40525437291E+03  0.89738490261E+03  0.13646137126E+04  0.25500000920E-02 0. -1.
       -2    1    3    3    0  502 -0.94479617619E+03 -0.40525437291E+03 -0.17870381713E+03  0.10434586602E+04  0.25500000920E-02 0.  1.
</event>
<event>
 5   0  0.7044981E-06  0.2301576E+04  0.7818609E-02  0.8477300E-01
        2   -1    0    0  501    0  0.00000000000E+00  0.00000000000E+00  0.16571695971E+04  0.16571695971E+04  0.25500000920E-02 0.  1.
       -2   -1    0    0    0  501  0.00000000000E+00  0.00000000000E+00 -0.79914178441E+03  0.79914178441E+03  0.25500000920E-02 0. -1.
    10030    2    1    2    0    0  0.00000000000E+00  0.00000000000E+00  0.85802781271E+03  0.24563113815E+04  0.23015763893E+04 0.  0.
        4    1    3    3  502    0 -0.73212292828E+03 -0.58904502885E+03 -0.27997858439E+03  0.98049357405E+03  0.12699999809E+01 0. -1.
       -4    1    3    3    0  502  0.73212292828E+03  0.58904502885E+03  0.11380063971E+04  0.14758178075E+04  0.12699999809E+01 0.  1.
</event>
<event>
 5   0  0.7003852E-06  0.2299139E+04  0.7818609E-02  0.8478261E-01
        2   -1    0    0  501    0  0.00000000000E+00  0.00000000000E+00  0.99102423440E+03  0.99102423441E+03  0.25500000920E-02 0. -1.
       -2   -1    0    0    0  501  0.00000000000E+00  0.00000000000E+00 -0.13334784544E+04  0.13334784544E+04  0.25500000920E-02 0.  1.
    10030    2    1    2    0    0  0.00000000000E+00  0.00000000000E+00 -0.34245421997E+03  0.23245026888E+04  0.22991385033E+04 0.  0.
        2    1    3    3  502    0 -0.38080285006E+03  0.94138872898E+03 -0.71595285308E+03  0.12425023290E+04  0.25500000920E-02 0.  1.
       -2    1    3    3    0  502  0.38080285006E+03 -0.94138872898E+03  0.37349863312E+03  0.10820003598E+04  0.25500000920E-02 0. -1.
</event>
<event>
 5   0  0.3238713E-06  0.2279470E+04  0.7818609E-02  0.8486060E-01
        1   -1    0    0  501    0  0.00000000000E+00  0.00000000000E+00  0.20939229611E+04  0.20939229611E+04  0.50400001928E-02 0. -1.
       -1   -1    0    0    0  501  0.00000000000E+00  0.00000000000E+00 -0.62036480504E+03  0.62036480506E+03  0.50400001928E-02 0.  1.
    10030    2    1    2    0    0  0.00000000000E+00  0.00000000000E+00  0.14735581560E+04  0.27142877661E+04  0.22794702100E+04 0.  0.
        3    1    3    3  502    0 -0.73387830530E+02 -0.38030094232E+03 -0.53959651215E+03  0.66421305808E+03  0.10100000352E+00 0.  1.
       -3    1    3    3    0  502  0.73387830530E+02  0.38030094232E+03  0.20131546682E+04  0.20500747081E+04  0.10100000352E+00 0. -1.
</event>
<event>
 5   0  0.3226427E-06  0.2304518E+04  0.7818609E-02  0.8476142E-01
       -1   -1    0    0    0  501  0.00000000000E+00  0.00000000000E+00  0.51671270039E+03  0.51671270042E+03  0.50400001928E-02 0. -1.
        1   -1    0    0  501    0  0.00000000000E+00  0.00000000000E+00 -0.25695148107E+04  0.25695148107E+04  0.50400001928E-02 0.  1.
    10030    2    1    2    0    0  0.00000000000E+00  0.00000000000E+00 -0.20528021103E+04  0.30862275111E+04  0.23045181159E+04 0.  0.
        4    1    3    3  502    0  0.98278325617E+03  0.57052255782E+03 -0.77110582547E+03  0.13733043088E+04  0.12699999809E+01 0.  1.
       -4    1    3    3    0  502 -0.98278325617E+03 -0.57052255782E+03 -0.12816962849E+04  0.17129232023E+04  0.12699999809E+01 0. -1.
</event>
<event>
 5   0  0.3338758E-06  0.2298977E+04  0.7818609E-02  0.8478324E-01
       -1   -1    0    0    0  501  0.00000000000E+00  0.00000000000E+00  0.10988283955E+04  0.10988283955E+04  0.50400001928E-02 0.  1.
        1   -1    0    0  501    0  0.00000000000E+00  0.00000000000E+00 -0.12024846040E+04  0.12024846040E+04  0.50400001928E-02 0. -1.
    10030    2    1    2    0    0  0.00000000000E+00  0.00000000000E+00 -0.10365620843E+03  0.23013129995E+04  0.22989773622E+04 0.  0.
        5    1    3    3  502    0 -0.49351959680E+03 -0.96764106119E+03 -0.42825711592E+03  0.11676116919E+04  0.46999998093E+01 0. -1.
       -5    1    3    3    0  502  0.49351959680E+03  0.96764106119E+03  0.32460090749E+03  0.11337013076E+04  0.46999998093E+01 0.  1.
</event>
<event>
 5   0  0.3226427E-06  0.2297199E+04  0.7818609E-02  0.8479026E-01
       -1   -1    0    0    0  501  0.00000000000E+00  0.00000000000E+00  0.61017960456E+03  0.61017960459E+03  0.50400001928E-02 0.  1.
        1   -1    0    0  501    0  0.00000000000E+00  0.00000000000E+00 -0.21621186343E+04  0.21621186343E+04  0.50400001928E-02 0. -1.
    10030    2    1    2    0    0  0.00000000000E+00  0.00000000000E+00 -0.15519390297E+04  0.27722982389E+04  0.22971988972E+04 0.  0.
        4    1    3    3  502    0  0.71496188725E+03  0.67695607980E+03 -0.14897677833E+04  0.17857350574E+04  0.12699999809E+01 0.  1.
       -4    1    3    3    0  502 -0.71496188725E+03 -0.67695607980E+03 -0.62171246391E+02  0.98656318144E+03  0.12699999809E+01 0. -1.
</event>
<event>
 5   0  0.3184492E-06  0.2297156E+04  0.7818609E-02  0.8479043E-01
        1   -1    0    0  501    0  0.00000000000E+00  0.00000000000E+00  0.14272492058E+04  0.14272492058E+04  0.50400001928E-02 0.  1.
       -1   -1    0    0    0  501  0.00000000000E+00  0.00000000000E+00 -0.92431742241E+03  0.92431742242E+03  0.50400001928E-02 0. -1.
    10030    2    1    2    0    0  0.00000000000E+00  0.00000000000E+00  0.50293178336E+03  0.23515666282E+04  0.22971558998E+04 0.  0.
        1    1    3    3  502    0  0.24370873615E+03 -0.11201721920E+04  0.17870766252E+03  0.11602224427E+04  0.50400001928E-02 0. -1.
       -1    1    3    3    0  502 -0.24370873615E+03  0.11201721920E+04  0.32422412084E+03  0.11913441855E+04  0.50400001928E-02 0.  1.
</event>
<event>
 5   0  0.7497344E-06  0.2298437E+04  0.7818609E-02  0.8478538E-01
       -2   -1    0    0    0  501  0.00000000000E+00  0.00000000000E+00  0.56146160085E+03  0.56146160086E+03  0.25500000920E-02 0.  1.
        2   -1    0    0  501    0  0.00000000000E+00  0.00000000000E+00 -0.23522587057E+04  0.23522587057E+04  0.25500000920E-02 0. -1.
    10030    2    1    2    0    0  0.00000000000E+00  0.00000000000E+00 -0.17907971048E+04  0.29137203066E+04  0.22984368066E+04 0.  0.
        5    1    3    3  502    0  0.35951697644E+03 -0.10904058538E+04 -0.95806260372E+03  0.14953740084E+04  0.46999998093E+01 0. -1.
       -5    1    3    3    0  502 -0.35951697644E+03  0.10904058538E+04 -0.83273450113E+03  0.14183462982E+04  0.46999998093E+01 0.  1.
</event>
<event>
 5   0  0.3226427E-06  0.2275275E+04  0.7818609E-02  0.8487734E-01
        1   -1    0    0  501    0  0.00000000000E+00  0.00000000000E+00  0.97994099618E+03  0.97994099619E+03  0.50400001928E-02 0.  1.
       -1   -1    0    0    0  501  0.00000000000E+00  0.00000000000E+00 -0.13207112357E+04  0.13207112357E+04  0.50400001928E-02 0. -1.
    10030    2    1    2    0    0  0.00000000000E+00  0.00000000000E+00 -0.34077023950E+03  0.23006522319E+04  0.22752750023E+04 0.  0.
        4    1    3    3  502    0 -0.70301432043E+03 -0.77105448220E+03 -0.62872139667E+03  0.12182144133E+04  0.12699999809E+01 0. -1.
       -4    1    3    3    0  502  0.70301432043E+03  0.77105448220E+03  0.28795115718E+03  0.10824378186E+04  0.12699999809E+01 0.  1.
</event>
<event>
 5   0  0.2519625E-06  0.2300175E+04  0.7818609E-02  0.8477852E-01
        4   -1    0    0  501    0  0.00000000000E+00  0.00000000000E+00  0.11249324289E+04  0.11249331458E+04  0.12699999809E+01 0. -1.
       -4   -1    0    0    0  501  0.00000000000E+00  0.00000000000E+00 -0.11758035237E+04  0.11758042096E+04  0.12699999809E+01 0.  1.
    10030    2    1    2    0    0  0.00000000000E+00  0.00000000000E+00 -0.50871094810E+02  0.23007373554E+04  0.23001748868E+04 0.  0.
        2    1    3    3  502    0 -0.22595514872E+03 -0.33472842315E+03 -0.11025471815E+04  0.11741844548E+04  0.25500000920E-02 0.  1.
       -2    1    3    3    0  502  0.22595514872E+03  0.33472842315E+03  0.10516760867E+04  0.11265529006E+04  0.25500000920E-02 0. -1.
</event>
<event>
 5   0  0.7348107E-06  0.2300541E+04  0.7818609E-02  0.8477708E-01
        2   -1    0    0  501    0  0.00000000000E+00  0.00000000000E+00  0.99898398622E+03  0.99898398623E+03  0.25500000920E-02 0.  1.
       -2   -1    0    0    0  501  0.00000000000E+00  0.00000000000E+00 -0.13244682830E+04  0.13244682830E+04  0.25500000920E-02 0. -1.
    10030    2    1    2    0    0  0.00000000000E+00  0.00000000000E+00 -0.32548429675E+03  0.23234522692E+04  0.23005413319E+04 0.  0.
        3    1    3    3  502    0 -0.24428942459E+02  0.30912124306E+03 -0.12814602504E+04  0.13184434382E+04  0.10100000352E+00 0. -1.
       -3    1    3    3    0  502  0.24428942459E+02 -0.30912124306E+03  0.95597595368E+03  0.10050088310E+04  0.10100000352E+00 0.  1.
</event>
<event>
 5   0  0.7348107E-06  0.2299190E+04  0.7818609E-02  0.8478240E-01
       -2   -1    0    0    0  501  0.00000000000E+00  0.00000000000E+00  0.19330991257E+04  0.19330991257E+04  0.25500000920E-02 0.  1.
        2   -1    0    0  501    0  0.00000000000E+00  0.00000000000E+00 -0.68365293068E+03  0.68365293069E+03  0.25500000920E-02 0. -1.
    10030    2    1    2    0    0  0.00000000000E+00  0.00000000000E+00  0.12494461950E+04  0.26167520563E+04  0.22991901901E+04 0.  0.
        3    1    3    3  502    0 -0.57418201345E+03  0.22505690842E+02 -0.50847850356E+03  0.76729517753E+03  0.10100000352E+00 0. -1.
       -3    1    3    3    0  502  0.57418201345E+03 -0.22505690842E+02  0.17579246985E+04  0.18494568788E+04  0.10100000352E+00 0.  1.
</event>
<event>
 5   0  0.3338758E-06  0.2300663E+04  0.7818609E-02  0.8477660E-01
        1   -1    0    0  501    0  0.00000000000E+00  0.00000000000E+00  0.10429882636E+04  0.10429882636E+04  0.50400001928E-02 0.  1.
       -1   -1    0    0    0  501  0.00000000000E+00  0.00000000000E+00 -0.12687218375E+04  0.12687218375E+04  0.50400001928E-02 0. -1.
    10030    2    1    2    0    0  0.00000000000E+00  0.00000000000E+00 -0.22573357394E+03  0.23117101011E+04  0.23006625014E+04 0.  0.
        5    1    3    3  502    0  0.84412463346E+03  0.51691707510E+03  0.47602792632E+03  0.10983507345E+04  0.46999998093E+01 0.  1.
       -5    1    3    3    0  502 -0.84412463346E+03 -0.51691707510E+03 -0.70176150025E+03  0.12133593666E+04  0.46999998093E+01 0. -1.
</event>
<event>
 5   0  0.7497344E-06  0.2297689E+04  0.7818609E-02  0.8478833E-01
        2   -1    0    0  501    0  0.00000000000E+00  0.00000000000E+00  0.23039679432E+04  0.23039679432E+04  0.25500000920E-02 0.  1.
       -2   -1    0    0    0  501  0.00000000000E+00  0.00000000000E+00 -0.57285670603E+03  0.57285670604E+03  0.25500000920E-02 0. -1.
    10030    2    1    2    0    0  0.00000000000E+00  0.00000000000E+00  0.17311112372E+04  0.28768246493E+04  0.22976888273E+04 0.  0.
        5    1    3    3  502    0  0.89654166173E+03 -0.68547369881E+02  0.17608693345E+04  0.19771617527E+04  0.46999998093E+01 0.  1.
       -5    1    3    3    0  502 -0.89654166173E+03  0.68547369881E+02 -0.29758097303E+02  0.89966289658E+03  0.46999998093E+01 0. -1.
</event>
<event>
 5   0  0.7348107E-06  0.2297278E+04  0.7818609E-02  0.8478995E-01
        2   -1    0    0  501    0  0.00000000000E+00  0.00000000000E+00  0.19756537214E+04  0.19756537214E+04  0.25500000920E-02 0. -1.
       -2   -1    0    0    0  501  0.00000000000E+00  0.00000000000E+00 -0.66781533578E+03  0.66781533578E+03  0.25500000920E-02 0.  1.
    10030    2    1    2    0    0  0.00000000000E+00  0.00000000000E+00  0.13078383856E+04  0.26434690572E+04  0.22972782621E+04 0.  0.
        3    1    3    3  502    0 -0.10946651255E+04  0.10204452131E+03  0.10367172626E+04  0.15111212771E+04  0.10100000352E+00 0. -1.
       -3    1    3    3    0  502  0.10946651255E+04 -0.10204452131E+03  0.27112112295E+03  0.11323477800E+04  0.10100000352E+00 0.  1.
</event>
<event>
 5   0  0.3238713E-06  0.2294932E+04  0.7818609E-02  0.8479922E-01
        1   -1    0    0  501    0  0.00000000000E+00  0.00000000000E+00  0.13831962994E+04  0.13831962994E+04  0.50400001928E-02 0. -1.
       -1   -1    0    0    0  501  0.00000000000E+00  0.00000000000E+00 -0.95191015737E+03  0.95191015738E+03  0.50400001928E-02 0.  1.
    10030    2    1    2    0    0  0.00000000000E+00  0.00000000000E+00  0.43128614199E+03  0.23351064567E+04  0.22949323363E+04 0.  0.
        3    1    3    3  502    0 -0.65804027318E+03 -0.10812542288E+03 -0.73449712778E+03  0.99206559718E+03  0.10100000352E+00 0.  1.
       -3    1    3    3    0  502  0.65804027318E+03  0.10812542288E+03  0.11657832698E+04  0.13430408596E+04  0.10100000352E+00 0. -1.
</event>
<event>
 5   0  0.3238713E-06  0.2297735E+04  0.7818609E-02  0.8478815E-01
       -1   -1    0    0    0  501  0.00000000000E+00  0.00000000000E+00  0.15531157657E+04  0.15531157657E+04  0.50400001928E-02 0. -1.
        1   -1    0    0  501    0  0.00000000000E+00  0.00000000000E+00 -0.84983784768E+03  0.84983784769E+03  0.50400001928E-02 0.  1.
    10030    2    1    2    0    0  0.00000000000E+00  0.00000000000E+00  0.70327791799E+03  0.24029536134E+04  0.22977350235E+04 0.  0.
        3    1    3    3  502    0 -0.35151747742E+03 -0.52067483220E+03 -0.65429676868E+03  0.90706730154E+03  0.10100000352E+00 0.  1.
       -3    1    3    3    0  502  0.35151747742E+03  0.52067483220E+03  0.13575746867E+04  0.14958863118E+04  0.10100000352E+00 0. -1.
</event>
<event>
 5   0  0.3226427E-06  0.2299242E+04  0.7818609E-02  0.8478220E-01
       -1   -1    0    0    0  501  0.00000000000E+00  0.00000000000E+00  0.80383219174E+03  0.80383219176E+03  0.50400001928E-02 0.  1.
        1   -1    0    0  501    0  0.00000000000E+00  0.00000000000E+00 -0.16441591857E+04  0.16441591857E+04  0.50400001928E-02 0. -1.
    10030    2    1    2    0    0  0.00000000000E+00  0.00000000000E+00 -0.84032699398E+03  0.24479913775E+04  0.22992416853E+04 0.  0.
        4    1    3    3  502    0  0.29974530127E+03  0.35245419897E+03  0.70032644203E+03  0.83936282161E+03  0.12699999809E+01 0.  1.
       -4    1    3    3    0  502 -0.29974530127E+03 -0.35245419897E+03 -0.15406534360E+04  0.16086285559E+04  0.12699999809E+01 0. -1.
</event>
<event>
 5   0  0.7242214E-06  0.2305087E+04  0.7818609E-02  0.8475918E-01
       -2   -1    0    0    0  501  0.00000000000E+00  0.00000000000E+00  0.11506937419E+04  0.11506937419E+04  0.25500000920E-02 0. -1.
        2   -1    0    0  501    0  0.00000000000E+00  0.00000000000E+00 -0.11543958772E+04  0.11543958772E+04  0.25500000920E-02 0.  1.
    10030    2    1    2    0    0  0.00000000000E+00  0.00000000000E+00 -0.37021352511E+01  0.23050896191E+04  0.23050866462E+04 0.  0.
        1    1    3    3  502    0  0.11224461303E+04  0.24704372947E+03  0.84405589929E+02  0.11524062753E+04  0.50400001928E-02 0. -1.
       -1    1    3    3    0  502 -0.11224461303E+04 -0.24704372947E+03 -0.88107725180E+02  0.11526833438E+04  0.50400001928E-02 0.  1.
</event>
<event>
 5   0  0.7497344E-06  0.2293560E+04  0.7818609E-02  0.8480464E-01
       -2   -1    0    0    0  501  0.00000000000E+00  0.00000000000E+00  0.52351215065E+03  0.52351215066E+03  0.25500000920E-02 0. -1.
        2   -1    0    0  501    0  0.00000000000E+00  0.00000000000E+00 -0.25120810107E+04  0.25120810107E+04  0.25500000920E-02 0.  1.
    10030    2    1    2    0    0  0.00000000000E+00  0.00000000000E+00 -0.19885688601E+04  0.30355931614E+04  0.22935604919E+04 0.  0.
        5    1    3    3  502    0 -0.31595634217E+03  0.42377603001E+03 -0.23412103496E+04  0.24001463549E+04  0.46999998093E+01 0.  1.
       -5    1    3    3    0  502  0.31595634217E+03 -0.42377603001E+03  0.35264148953E+03  0.63544680650E+03  0.46999998093E+01 0. -1.
</event>
<event>
 5   0  0.7003852E-06  0.2307068E+04  0.7818609E-02  0.8475139E-01
       -2   -1    0    0    0  501  0.00000000000E+00  0.00000000000E+00  0.10647686336E+04  0.10647686336E+04  0.25500000920E-02 0.  1.
        2   -1    0    0  501    0  0.00000000000E+00  0.00000000000E+00 -0.12496997621E+04  0.12496997621E+04  0.25500000920E-02 0. -1.
    10030    2    1    2    0    0  0.00000000000E+00  0.00000000000E+00 -0.18493112852E+03  0.23144683958E+04  0.23070683633E+04 0.  0.
        2    1    3    3  502    0  0.42383235701E+03 -0.90352265189E+03 -0.67281402838E+03  0.12036053199E+04  0.25500000920E-02 0. -1.
       -2    1    3    3    0  502 -0.42383235701E+03  0.90352265189E+03  0.48788289987E+03  0.11108630759E+04  0.25500000920E-02 0.  1.
</event>
<event>
 5   0  0.7348107E-06  0.2300612E+04  0.7818609E-02  0.8477680E-01
       -2   -1    0    0    0  501  0.00000000000E+00  0.00000000000E+00  0.10906024233E+04  0.10906024233E+04  0.25500000920E-02 0.  1.
        2   -1    0    0  501    0  0.00000000000E+00  0.00000000000E+00 -0.12132776614E+04  0.12132776614E+04  0.25500000920E-02 0. -1.
    10030    2    1    2    0    0  0.00000000000E+00  0.00000000000E+00 -0.12267523815E+03  0.23038800847E+04  0.23006117079E+04 0.  0.
        3    1    3    3  502    0 -0.10431250998E+04  0.47158140160E+03 -0.17421223299E+03  0.11579503031E+04  0.10100000352E+00 0.  1.
       -3    1    3    3    0  502  0.10431250998E+04 -0.47158140160E+03  0.51536994844E+02  0.11459297815E+04  0.10100000352E+00 0. -1.
</event>
<event>
 5   0  0.3195296E-06  0.2300532E+04  0.7818609E-02  0.8477711E-01
       -1   -1    0    0    0  501  0.00000000000E+00  0.00000000000E+00  0.69583977476E+03  0.69583977478E+03  0.50400001928E-02 0. -1.
        1   -1    0    0  501    0  0.00000000000E+00  0.00000000000E+00 -0.19014605976E+04  0.19014605976E+04  0.50400001928E-02 0.  1.
    10030    2    1    2    0    0  0.00000000000E+00  0.00000000000E+00 -0.12056208228E+04  0.25973003724E+04  0.23005320376E+04 0.  0.
        2    1    3    3  502    0 -0.72961550231E+03  0.88915481087E+03 -0.61782462747E+03  0.13056195193E+04  0.25500000920E-02 0.  1.
       -2    1    3    3    0  502  0.72961550231E+03 -0.88915481087E+03 -0.58779619538E+03  0.12916808531E+04  0.25500000920E-02 0. -1.
</event>
<event>
 5   0  0.3184492E-06  0.2301253E+04  0.7818609E-02  0.8477427E-01
       -1   -1    0    0    0  501  0.00000000000E+00  0.00000000000E+00  0.76952903319E+03  0.76952903320E+03  0.50400001928E-02 0.  1.
        1   -1    0    0  501    0  0.00000000000E+00  0.00000000000E+00 -0.17204560900E+04  0.17204560900E+04  0.50400001928E-02 0. -1.
    10030    2    1    2    0    0  0.00000000000E+00  0.00000000000E+00 -0.95092705684E+03  0.24899851232E+04  0.23012526255E+04 0.  0.
        1    1    3    3  502    0 -0.53895183288E+03  0.54896210879E+03  0.45034536326E+03  0.89142549957E+03  0.50400001928E-02 0.  1.
       -1    1    3    3    0  502  0.53895183288E+03 -0.54896210879E+03 -0.14012724201E+04  0.15985596237E+04  0.50400001928E-02 0. -1.
</event>
<event>
 5   0  0.7348107E-06  0.2299566E+04  0.7818609E-02  0.8478092E-01
       -2   -1    0    0    0  501  0.00000000000E+00  0.00000000000E+00  0.92170571793E+03  0.92170571793E+03  0.25500000920E-02 0. -1.
        2   -1    0    0  501    0  0.00000000000E+00  0.00000000000E+00 -0.14342986509E+04  0.14342986509E+04  0.25500000920E-02 0.  1.
    10030    2    1    2    0    0  0.00000000000E+00  0.00000000000E+00 -0.51259293297E+03  0.23560043688E+04  0.22995662789E+04 0.  0.
        3    1    3    3  502    0  0.17338894303E+03  0.78715926636E+03 -0.10963703273E+04  0.13607760069E+04  0.10100000352E+00 0.  1.
       -3    1    3    3    0  502 -0.17338894303E+03 -0.78715926636E+03  0.58377739428E+03  0.99522836196E+03  0.10100000352E+00 0. -1.
</event>
<event>
 5   0  0.7497344E-06  0.2298505E+04  0.7818609E-02  0.8478511E-01
       -2   -1    0    0    0  501  0.00000000000E+00  0.00000000000E+00  0.10516838524E+04  0.10516838524E+04  0.25500000920E-02 0. -1.
        2   -1    0    0  501    0  0.00000000000E+00  0.00000000000E+00 -0.12558734740E+04  0.12558734740E+04  0.25500000920E-02 0.  1.
    10030    2    1    2    0    0  0.00000000000E+00  0.00000000000E+00 -0.20418962152E+03  0.23075573264E+04  0.22985054738E+04 0.  0.
        5    1    3    3  502    0  0.66146522342E+03  0.89511442271E+03  0.18537826595E+03  0.11283409339E+04  0.46999998093E+01 0. -1.
       -5    1    3    3    0  502 -0.66146522342E+03 -0.89511442271E+03 -0.38956788747E+03  0.11792163926E+04  0.46999998093E+01 0.  1.
</event>
<event>
 5   0  0.3238713E-06  0.2298972E+04  0.7818609E-02  0.8478327E-01
       -1   -1    0    0    0  501  0.00000000000E+00  0.00000000000E+00  0.14978201106E+04  0.14978201106E+04  0.50400001928E-02 0.  1.
        1   -1    0    0  501    0  0.00000000000E+00  0.00000000000E+00 -0.88216046109E+03  0.88216046110E+03  0.50400001928E-02 0. -1.
    10030    2    1    2    0    0  0.00000000000E+00  0.00000000000E+00  0.61565964952E+03  0.23799805717E+04  0.22989716653E+04 0.  0.
        3    1    3    3  502    0  0.91440073953E+03 -0.46694893186E+03  0.84290582716E+03  0.13284051570E+04  0.10100000352E+00 0.  1.
       -3    1    3    3    0  502 -0.91440073953E+03  0.46694893186E+03 -0.22724617764E+03  0.10515754147E+04  0.10100000352E+00 0. -1.
</event>
<event>
 5   0  0.3195296E-06  0.2299729E+04  0.7818609E-02  0.8478028E-01
       -1   -1    0    0    0  501  0.00000000000E+00  0.00000000000E+00  0.75174403734E+03  0.75174403736E+03  0.50400001928E-02 0. -1.
        1   -1    0    0  501    0  0.00000000000E+00  0.00000000000E+00 -0.17588280249E+04  0.17588280249E+04  0.50400001928E-02 0.  1.
    10030    2    1    2    0    0  0.00000000000E+00  0.00000000000E+00 -0.10070839876E+04  0.25105720623E+04  0.22997290975E+04 0.  0.
        2    1    3    3  502    0  0.67494920639E+03 -0.91357890768E+03 -0.30823886866E+03  0.11769426715E+04  0.25500000920E-02 0.  1.
       -2    1    3    3    0  502 -0.67494920639E+03  0.91357890768E+03 -0.69884511891E+03  0.13336293908E+04  0.25500000920E-02 0. -1.
</event>
<event>
 5   0  0.3195296E-06  0.2327860E+04  0.7818609E-02  0.8467017E-01
        1   -1    0    0  501    0  0.00000000000E+00  0.00000000000E+00  0.24763244968E+04  0.24763244968E+04  0.50400001928E-02 0. -1.
       -1   -1    0    0    0  501  0.00000000000E+00  0.00000000000E+00 -0.54707397333E+03  0.54707397335E+03  0.50400001928E-02 0.  1.
    10030    2    1    2    0    0  0.00000000000E+00  0.00000000000E+00  0.19292505235E+04  0.30233984702E+04  0.23278596880E+04 0.  0.
        2    1    3    3  502    0 -0.85630397088E+03  0.63168427401E+02  0.19852171832E+04  0.21629456778E+04  0.25500000920E-02 0. -1.
       -2    1    3    3    0  502  0.85630397088E+03 -0.63168427401E+02 -0.55966659756E+02  0.86045279230E+03  0.25500000920E-02 0.  1.
</event>
<event>
 5   0  0.7044981E-06  0.2298358E+04  0.7818609E-02  0.8478569E-01
        2   -1    0    0  501    0  0.00000000000E+00  0.00000000000E+00  0.22408836050E+04  0.22408836050E+04  0.25500000920E-02 0. -1.
       -2   -1    0    0    0  501  0.00000000000E+00  0.00000000000E+00 -0.58932650142E+03  0.58932650142E+03  0.25500000920E-02 0.  1.
    10030    2    1    2    0    0  0.00000000000E+00  0.00000000000E+00  0.16515571036E+04  0.28302101064E+04  0.22983577572E+04 0.  0.
        4    1    3    3  502    0 -0.65132818059E+03  0.82298627589E+03  0.14021442466E+04  0.17514408098E+04  0.12699999809E+01 0.  1.
       -4    1    3    3    0  502  0.65132818059E+03 -0.82298627589E+03  0.24941285697E+03  0.10787692966E+04  0.12699999809E+01 0. -1.
</event>
<event>
 5   0  0.3338758E-06  0.2279826E+04  0.7818609E-02  0.8485918E-01
        1   -1    0    0  501    0  0.00000000000E+00  0.00000000000E+00  0.10320236407E+04  0.10320236407E+04  0.50400001928E-02 0. -1.
       -1   -1    0    0    0  501  0.00000000000E+00  0.00000000000E+00 -0.12590809139E+04  0.12590809139E+04  0.50400001928E-02 0.  1.
    10030    2    1    2    0    0  0.00000000000E+00  0.00000000000E+00 -0.22705727320E+03  0.22911045547E+04  0.22798256677E+04 0.  0.
        5    1    3    3  502    0  0.25987026388E+03  0.73621223433E+02  0.99939160123E+03  0.10352576014E+04  0.46999998093E+01 0. -1.
       -5    1    3    3    0  502 -0.25987026388E+03 -0.73621223433E+02 -0.12264488744E+04  0.12558469533E+04  0.46999998093E+01 0.  1.
</event>
<event>
 5   0  0.7497344E-06  0.2297429E+04  0.7818609E-02  0.8478936E-01
        2   -1    0    0  501    0  0.00000000000E+00  0.00000000000E+00  0.96244411916E+03  0.96244411916E+03  0.25500000920E-02 0. -1.
       -2   -1    0    0    0  501  0.00000000000E+00  0.00000000000E+00 -0.13710353236E+04  0.13710353236E+04  0.25500000920E-02 0.  1.
    10030    2    1    2    0    0  0.00000000000E+00  0.00000000000E+00 -0.40859120447E+03  0.23334794428E+04  0.22974288972E+04 0.  0.
        5    1    3    3  502    0  0.29514282715E+03  0.46733038760E+03  0.81848919520E+03  0.98765056182E+03  0.46999998093E+01 0. -1.
       -5    1    3    3    0  502 -0.29514282715E+03 -0.46733038760E+03 -0.12270803997E+04  0.13458288810E+04  0.46999998093E+01 0.  1.
</event>
<event>
 5   0  0.3195296E-06  0.2356614E+04  0.7818609E-02  0.8455927E-01
        1   -1    0    0  501    0  0.00000000000E+00  0.00000000000E+00  0.15467500833E+04  0.15467500833E+04  0.50400001928E-02 0.  1.
       -1   -1    0    0    0  501  0.00000000000E+00  0.00000000000E+00 -0.89762896804E+03  0.89762896806E+03  0.50400001928E-02 0. -1.
    10030    2    1    2    0    0  0.00000000000E+00  0.00000000000E+00  0.64912111523E+03  0.24443790513E+04  0.23566142502E+04 0.  0.
        2    1    3    3  502    0  0.40754762521E+03  0.32742704516E+03 -0.77075124776E+03  0.93132219057E+03  0.25500000920E-02 0. -1.
       -2    1    3    3    0  502 -0.40754762521E+03 -0.32742704516E+03  0.14198723630E+04  0.15130568608E+04  0.25500000920E-02 0.  1.
</event>
<event>
 5   0  0.7242214E-06  0.2300564E+04  0.7818609E-02  0.8477699E-01
       -2   -1    0    0    0  501  0.00000000000E+00  0.00000000000E+00  0.95212877892E+03  0.95212877893E+03  0.25500000920E-02 0. -1.
        2   -1    0    0  501    0  0.00000000000E+00  0.00000000000E+00 -0.13896738972E+04  0.13896738972E+04  0.25500000920E-02 0.  1.
    10030    2    1    2    0    0  0.00000000000E+00  0.00000000000E+00 -0.43754511828E+03  0.23418026761E+04  0.23005638534E+04 0.  0.
        1    1    3    3  502    0 -0.40014665953E+03 -0.72111837527E+03 -0.10350317063E+04  0.13234121404E+04  0.50400001928E-02 0.  1.
       -1    1    3    3    0  502  0.40014665953E+03  0.72111837527E+03  0.59748658805E+03  0.10183905357E+04  0.50400001928E-02 0. -1.
</event>
<event>
 5   0  0.3338758E-06  0.2299456E+04  0.7818609E-02  0.8478136E-01
       -1   -1    0    0    0  501  0.00000000000E+00  0.00000000000E+00  0.32202346159E+04  0.32202346159E+04  0.50400001928E-02 0.  1.
        1   -1    0    0  501    0  0.00000000000E+00  0.00000000000E+00 -0.41049002210E+03  0.41049002213E+03  0.50400001928E-02 0. -1.
    10030    2    1    2    0    0  0.00000000000E+00  0.00000000000E+00  0.28097445938E+04  0.36307246381E+04  0.22994557432E+04 0.  0.
        5    1    3    3  502    0  0.65060217020E+03 -0.26622709320E+03  0.28413624267E+04  0.29270330676E+04  0.46999998093E+01 0.  1.
       -5    1    3    3    0  502 -0.65060217020E+03  0.26622709320E+03 -0.31617832848E+02  0.70369157048E+03  0.46999998093E+01 0. -1.
</event>
<event>
 5   0  0.3195296E-06  0.2301212E+04  0.7818609E-02  0.8477443E-01
        1   -1    0    0  501    0  0.00000000000E+00  0.00000000000E+00  0.86357893428E+03  0.86357893429E+03  0.50400001928E-02 0.  1.
       -1   -1    0    0    0  501  0.00000000000E+00  0.00000000000E+00 -0.15330319631E+04  0.15330319631E+04  0.50400001928E-02 0. -1.
    10030    2    1    2    0    0  0.00000000000E+00  0.00000000000E+00 -0.66945302878E+03  0.23966108974E+04  0.23012119493E+04 0.  0.
        2    1    3    3  502    0 -0.93438626474E+03 -0.10576661898E+03 -0.10252595975E+04  0.13911942754E+04  0.25500000920E-02 0. -1.
       -2    1    3    3    0  502  0.93438626474E+03  0.10576661898E+03  0.35580656876E+03  0.10054166220E+04  0.25500000920E-02 0.  1.
</event>
<event>
 5   0  0.7003852E-06  0.2301087E+04  0.7818609E-02  0.8477493E-01
       -2   -1    0    0    0  501  0.00000000000E+00  0.00000000000E+00  0.10737474111E+04  0.10737474111E+04  0.25500000920E-02 0. -1.
        2   -1    0    0  501    0  0.00000000000E+00  0.00000000000E+00 -0.12328316882E+04  0.12328316882E+04  0.25500000920E-02 0.  1.
    10030    2    1    2    0    0  0.00000000000E+00  0.00000000000E+00 -0.15908427713E+03  0.23065790993E+04  0.23010865551E+04 0.  0.
        2    1    3    3  502    0 -0.61800944211E+03  0.71644128803E+03 -0.73572367820E+03  0.11985462529E+04  0.25500000920E-02 0.  1.
       -2    1    3    3    0  502  0.61800944211E+03 -0.71644128803E+03  0.57663940107E+03  0.11080328464E+04  0.25500000920E-02 0. -1.
</event>
<event>
 5   0  0.7003852E-06  0.2298457E+04  0.7818609E-02  0.8478530E-01
        2   -1    0    0  501    0  0.00000000000E+00  0.00000000000E+00  0.16347263336E+04  0.16347263336E+04  0.25500000920E-02 0. -1.
       -2   -1    0    0    0  501  0.00000000000E+00  0.00000000000E+00 -0.80791885736E+03  0.80791885737E+03  0.25500000920E-02 0.  1.
    10030    2    1    2    0    0  0.00000000000E+00  0.00000000000E+00  0.82680747626E+03  0.24426451910E+04  0.22984570751E+04 0.  0.
        2    1    3    3  502    0  0.32675332459E+02 -0.99504554039E+03  0.10234741851E+04  0.14278244683E+04  0.25500000920E-02 0. -1.
       -2    1    3    3    0  502 -0.32675332459E+02  0.99504554039E+03 -0.19666670882E+03  0.10148207227E+04  0.25500000920E-02 0.  1.
</event>
<event>
 5   0  0.7044981E-06  0.2299997E+04  0.7818609E-02  0.8477922E-01
        2   -1    0    0  501    0  0.00000000000E+00  0.00000000000E+00  0.17367922832E+04  0.17367922832E+04  0.25500000920E-02 0. -1.
       -2   -1    0    0    0  501  0.00000000000E+00  0.00000000000E+00 -0.76145930784E+03  0.76145930785E+03  0.25500000920E-02 0.  1.
    10030    2    1    2    0    0  0.00000000000E+00  0.00000000000E+00  0.97533297536E+03  0.24982515910E+04  0.22999970868E+04 0.  0.
        4    1    3    3  502    0  0.20553021218E+03  0.53060117274E+03  0.15731659729E+04  0.16729115529E+04  0.12699999809E+01 0. -1.
       -4    1    3    3    0  502 -0.20553021218E+03 -0.53060117274E+03 -0.59783299757E+03  0.82534003812E+03  0.12699999809E+01 0.  1.
</event>
<event>
 5   0  0.7003852E-06  0.2286453E+04  0.7818609E-02  0.8483282E-01
        2   -1    0    0  501    0  0.00000000000E+00  0.00000000000E+00  0.11891942707E+04  0.11891942707E+04  0.25500000920E-02 0.  1.
       -2   -1    0    0    0  501  0.00000000000E+00  0.00000000000E+00 -0.10990354560E+04  0.10990354560E+04  0.25500000920E-02 0. -1.
    10030    2    1    2    0    0  0.00000000000E+00  0.00000000000E+00  0.90158814706E+02  0.22882297267E+04  0.22864528577E+04 0.  0.
        2    1    3    3  502    0  0.13159146364E+01 -0.28610302521E+03 -0.10626276261E+04  0.11004699653E+04  0.25500000920E-02 0. -1.
       -2    1    3    3    0  502 -0.13159146364E+01  0.28610302521E+03  0.11527864409E+04  0.11877597614E+04  0.25500000920E-02 0.  1.
</event>
<event>
 5   0  0.7003852E-06  0.2308894E+04  0.7818609E-02  0.8474423E-01
        2   -1    0    0  501    0  0.00000000000E+00  0.00000000000E+00  0.14536786285E+04  0.14536786285E+04  0.25500000920E-02 0. -1.
       -2   -1    0    0    0  501  0.00000000000E+00  0.00000000000E+00 -0.91681058591E+03  0.91681058591E+03  0.25500000920E-02 0.  1.
    10030    2    1    2    0    0  0.00000000000E+00  0.00000000000E+00  0.53686804256E+03  0.23704892144E+04  0.23088940687E+04 0.  0.
        2    1    3    3  502    0  0.10026765591E+03 -0.50854055758E+03  0.13274957884E+04  0.14251007577E+04  0.25500000920E-02 0. -1.
       -2    1    3    3    0  502 -0.10026765591E+03  0.50854055758E+03 -0.79062774581E+03  0.94538845666E+03  0.25500000920E-02 0.  1.
</event>
<event>
 5   0  0.7348107E-06  0.2302136E+04  0.7818609E-02  0.8477079E-01
        2   -1    0    0  501    0  0.00000000000E+00  0.00000000000E+00  0.15780527332E+04  0.15780527332E+04  0.25500000920E-02 0.  1.
       -2   -1    0    0    0  501  0.00000000000E+00  0.00000000000E+00 -0.83961558979E+03  0.83961558979E+03  0.25500000920E-02 0. -1.
    10030    2    1    2    0    0  0.00000000000E+00  0.00000000000E+00  0.73843714344E+03  0.24176683230E+04  0.23021361179E+04 0.  0.
        3    1    3    3  502    0  0.75951424811E+03  0.10851795389E+03  0.12703723547E+04  0.14840768071E+04  0.10100000352E+00 0.  1.
       -3    1    3    3    0  502 -0.75951424811E+03 -0.10851795389E+03 -0.53193521131E+03  0.93359151594E+03  0.10100000352E+00 0. -1.
</event>
<event>
 5   0  0.3226427E-06  0.2257389E+04  0.7818609E-02  0.8494914E-01
       -1   -1    0    0    0  501  0.00000000000E+00  0.00000000000E+00  0.11896855036E+04  0.11896855036E+04  0.50400001928E-02 0. -1.
        1   -1    0    0  501    0  0.00000000000E+00  0.00000000000E+00 -0.10708304913E+04  0.10708304913E+04  0.50400001928E-02 0.  1.
    10030    2    1    2    0    0  0.00000000000E+00  0.00000000000E+00  0.11885501232E+03  0.22605159948E+04  0.22573892108E+04 0.  0.
        4    1    3    3  502    0  0.44175774484E+03  0.10207748795E+04  0.25157512583E+03  0.11403608712E+04  0.12699999809E+01 0. -1.
       -4    1    3    3    0  502 -0.44175774484E+03 -0.10207748795E+04 -0.13272011351E+03  0.11201551237E+04  0.12699999809E+01 0.  1.
</event>
<event>
 5   0  0.3184492E-06  0.2301256E+04  0.7818609E-02  0.8477426E-01
       -1   -1    0    0    0  501  0.00000000000E+00  0.00000000000E+00  0.10403056586E+04  0.10403056587E+04  0.50400001928E-02 0. -1.
        1   -1    0    0  501    0  0.00000000000E+00  0.00000000000E+00 -0.12726502368E+04  0.12726502368E+04  0.50400001928E-02 0.  1.
    10030    2    1    2    0    0  0.00000000000E+00  0.00000000000E+00 -0.23234457811E+03  0.23129558954E+04  0.23012563897E+04 0.  0.
        1    1    3    3  502    0  0.10760234653E+04  0.40583427202E+03 -0.78333999573E+02  0.11526769581E+04  0.50400001928E-02 0. -1.
       -1    1    3    3    0  502 -0.10760234653E+04 -0.40583427202E+03 -0.15401057854E+03  0.11602789374E+04  0.50400001928E-02 0.  1.
</event>
<event>
 5   0  0.3238713E-06  0.2278734E+04  0.7818609E-02  0.8486353E-01
        1   -1    0    0  501    0  0.00000000000E+00  0.00000000000E+00  0.15899125083E+04  0.15899125083E+04  0.50400001928E-02 0. -1.
       -1   -1    0    0    0  501  0.00000000000E+00  0.00000000000E+00 -0.81649596162E+03  0.81649596164E+03  0.50400001928E-02 0.  1.
    10030    2    1    2    0    0  0.00000000000E+00  0.00000000000E+00  0.77341654670E+03  0.24064084700E+04  0.22787339840E+04 0.  0.
        3    1    3    3  502    0 -0.27502835190E+03 -0.15001680270E+03 -0.77011874085E+03  0.83140153997E+03  0.10100000352E+00 0.  1.
       -3    1    3    3    0  502  0.27502835190E+03  0.15001680270E+03  0.15435352876E+04  0.15750069300E+04  0.10100000352E+00 0. -1.
</event>
<event>
 5   0  0.3195296E-06  0.2302979E+04  0.7818609E-02  0.8476747E-01
        1   -1    0    0  501    0  0.00000000000E+00  0.00000000000E+00  0.16847036990E+04  0.16847036990E+04  0.50400001928E-02 0.  1.
       -1   -1    0    0    0  501  0.00000000000E+00  0.00000000000E+00 -0.78703927295E+03  0.78703927297E+03  0.50400001928E-02 0. -1.
    10030    2    1    2    0    0  0.00000000000E+00  0.00000000000E+00  0.89766442607E+03  0.24717429720E+04  0.23029789182E+04 0.  0.
        2    1    3    3  502    0 -0.48501350265E+03  0.39736208720E+03 -0.58775546622E+03  0.85941329649E+03  0.25500000920E-02 0. -1.
       -2    1    3    3    0  502  0.48501350265E+03 -0.39736208720E+03  0.14854198923E+04  0.16123296755E+04  0.25500000920E-02 0.  1.
</event>
<event>
 5   0  0.3238713E-06  0.2286903E+04  0.7818609E-02  0.8483103E-01
       -1   -1    0    0    0  501  0.00000000000E+00  0.00000000000E+00  0.16863903132E+04  0.16863903133E+04  0.50400001928E-02 0. -1.
        1   -1    0    0  501    0  0.00000000000E+00  0.00000000000E+00 -0.77531344160E+03  0.77531344162E+03  0.50400001928E-02 0.  1.
    10030    2    1    2    0    0  0.00000000000E+00  0.00000000000E+00  0.91107687164E+03  0.24617037549E+04  0.22869027768E+04 0.  0.
        3    1    3    3  502    0  0.10981308862E+04 -0.49163122985E+02  0.11655071963E+03  0.11053924807E+04  0.10100000352E+00 0. -1.
       -3    1    3    3    0  502 -0.10981308862E+04  0.49163122985E+02  0.79452615201E+03  0.13563112742E+04  0.10100000352E+00 0.  1.
</event>
<event>
 5   0  0.7044981E-06  0.2300664E+04  0.7818609E-02  0.8477659E-01
       -2   -1    0    0    0  501  0.00000000000E+00  0.00000000000E+00  0.86935411029E+03  0.86935411030E+03  0.25500000920E-02 0.  1.
        2   -1    0    0  501    0  0.00000000000E+00  0.00000000000E+00 -0.15221225134E+04  0.15221225134E+04  0.25500000920E-02 0. -1.
    10030    2    1    2    0    0  0.00000000000E+00  0.00000000000E+00 -0.65276840314E+03  0.23914766237E+04  0.23006637855E+04 0.  0.
        4    1    3    3  502    0 -0.10015988660E+04  0.54359844642E+03 -0.48929408063E+03  0.12402055755E+04  0.12699999809E+01 0. -1.
       -4    1    3    3    0  502  0.10015988660E+04 -0.54359844642E+03 -0.16347432251E+03  0.11512710482E+04  0.12699999809E+01 0.  1.
</event>
<event>
 5   0  0.7044981E-06  0.2298663E+04  0.7818609E-02  0.8478448E-01
        2   -1    0    0  501    0  0.00000000000E+00  0.00000000000E+00  0.19466985173E+04  0.19466985173E+04  0.25500000920E-02 0. -1.
       -2   -1    0    0    0  501  0.00000000000E+00  0.00000000000E+00 -0.67856580351E+03  0.67856580352E+03  0.25500000920E-02 0.  1.
    10030    2    1    2    0    0  0.00000000000E+00  0.00000000000E+00  0.12681327138E+04  0.26252643208E+04  0.22986631276E+04 0.  0.
        4    1    3    3  502    0 -0.77992772029E+03 -0.23459389849E+03 -0.29210592403E+03  0.86524506924E+03  0.12699999809E+01 0.  1.
       -4    1    3    3    0  502  0.77992772029E+03  0.23459389849E+03  0.15602386378E+04  0.17600192516E+04  0.12699999809E+01 0. -1.
</event>
<event>
 5   0  0.7003852E-06  0.2278170E+04  0.7818609E-02  0.8486578E-01
        2   -1    0    0  501    0  0.00000000000E+00  0.00000000000E+00  0.96678982714E+03  0.96678982714E+03  0.25500000920E-02 0. -1.
       -2   -1    0    0    0  501  0.00000000000E+00  0.00000000000E+00 -0.13420854758E+04  0.13420854758E+04  0.25500000920E-02 0.  1.
    10030    2    1    2    0    0  0.00000000000E+00  0.00000000000E+00 -0.37529564864E+03  0.23088753029E+04  0.22781699543E+04 0.  0.
        2    1    3    3  502    0 -0.96585266993E+03 -0.45346928834E+03 -0.59178141698E+03  0.12201274610E+04  0.25500000920E-02 0. -1.
       -2    1    3    3    0  502  0.96585266993E+03  0.45346928834E+03  0.21648576834E+03  0.10887478420E+04  0.25500000920E-02 0.  1.
</event>
<event>
 5   0  0.2519625E-06  0.2299371E+04  0.7818609E-02  0.8478169E-01
        3   -1    0    0  501    0  0.00000000000E+00  0.00000000000E+00  0.94436029657E+03  0.94436030197E+03  0.10100000352E+00 0. -1.
       -3   -1    0    0    0  501  0.00000000000E+00  0.00000000000E+00 -0.13996530486E+04  0.13996530522E+04  0.10100000352E+00 0.  1.
    10030    2    1    2    0    0  0.00000000000E+00  0.00000000000E+00 -0.45529275198E+03  0.23440133542E+04  0.22993710258E+04 0.  0.
        1    1    3    3  502    0  0.94807075431E+03 -0.31382685598E+03  0.35301883204E+03  0.10592203484E+04  0.50400001928E-02 0. -1.
       -1    1    3    3    0  502 -0.94807075431E+03  0.31382685598E+03 -0.80831158402E+03  0.12847930057E+04  0.50400001928E-02 0.  1.
</event>
<event>
 5   0  0.3226427E-06  0.2299362E+04  0.7818609E-02  0.8478173E-01
       -1   -1    0    0    0  501  0.00000000000E+00  0.00000000000E+00  0.41943590123E+03  0.41943590126E+03  0.50400001928E-02 0.  1.
        1   -1    0    0  501    0  0.00000000000E+00  0.00000000000E+00 -0.31512944081E+04  0.31512944081E+04  0.50400001928E-02 0. -1.
    10030    2    1    2    0    0  0.00000000000E+00  0.00000000000E+00 -0.27318585068E+04  0.35707303093E+04  0.22993616594E+04 0.  0.
        4    1    3    3  502    0 -0.58394623666E+02  0.10348988798E+04 -0.59361177034E+03  0.11944882462E+04  0.12699999809E+01 0.  1.
       -4    1    3    3    0  502  0.58394623666E+02 -0.10348988798E+04 -0.21382467365E+04  0.23762420631E+04  0.12699999809E+01 0. -1.
</event>
<event>
 5   0  0.3238713E-06  0.2303569E+04  0.7818609E-02  0.8476515E-01
       -1   -1    0    0    0  501  0.00000000000E+00  0.00000000000E+00  0.82374653719E+03  0.82374653720E+03  0.50400001928E-02 0.  1.
        1   -1    0    0  501    0  0.00000000000E+00  0.00000000000E+00 -0.16104556487E+04  0.16104556487E+04  0.50400001928E-02 0. -1.
    10030    2    1    2    0    0  0.00000000000E+00  0.00000000000E+00 -0.78670911153E+03  0.24342021859E+04  0.23035687652E+04 0.  0.
        3    1    3    3  502    0  0.41357580998E+03  0.10435926849E+04 -0.12090261669E+03  0.11290474283E+04  0.10100000352E+00 0.  1.
       -3    1    3    3    0  502 -0.41357580998E+03 -0.10435926849E+04 -0.66580649484E+03  0.13051547576E+04  0.10100000352E+00 0. -1.
</event>
<event>
 5   0  0.3226427E-06  0.2304782E+04  0.7818609E-02  0.8476038E-01
        1   -1    0    0  501    0  0.00000000000E+00  0.00000000000E+00  0.17543656669E+04  0.17543656669E+04  0.50400001928E-02 0.  1.
       -1   -1    0    0    0  501  0.00000000000E+00  0.00000000000E+00 -0.75697185066E+03  0.75697185068E+03  0.50400001928E-02 0. -1.
    10030    2    1    2    0    0  0.00000000000E+00  0.00000000000E+00  0.99739381620E+03  0.25113375175E+04  0.23047823547E+04 0.  0.
        4    1    3    3  502    0 -0.70245355608E+03 -0.49523746758E+03  0.13351553468E+04  0.15878735972E+04  0.12699999809E+01 0.  1.
       -4    1    3    3    0  502  0.70245355608E+03  0.49523746758E+03 -0.33776153058E+03  0.92346392035E+03  0.12699999809E+01 0. -1.
</event>
<event>
 5   0  0.3226427E-06  0.2297225E+04  0.7818609E-02  0.8479016E-01
        1   -1    0    0  501    0  0.00000000000E+00  0.00000000000E+00  0.13605031988E+04  0.13605031988E+04  0.50400001928E-02 0. -1.
       -1   -1    0    0    0  501  0.00000000000E+00  0.00000000000E+00 -0.96972297799E+03  0.96972297800E+03  0.50400001928E-02 0.  1.
    10030    2    1    2    0    0  0.00000000000E+00  0.00000000000E+00  0.39078022082E+03  0.23302261768E+04  0.22972254687E+04 0.  0.
        4    1    3    3  502    0 -0.92444416234E+03  0.37273017203E+02 -0.49506672101E+03  0.10493230953E+04  0.12699999809E+01 0.  1.
       -4    1    3    3    0  502  0.92444416234E+03 -0.37273017203E+02  0.88584694183E+03  0.12809030816E+04  0.12699999809E+01 0. -1.
</event>
<event>
 5   0  0.7242214E-06  0.2297348E+04  0.7818609E-02  0.8478968E-01
        2   -1    0    0  501    0  0.00000000000E+00  0.00000000000E+00  0.24560116600E+04  0.24560116600E+04  0.25500000920E-02 0. -1.
       -2   -1    0    0    0  501  0.00000000000E+00  0.00000000000E+00 -0.53723356484E+03  0.53723356484E+03  0.25500000920E-02 0.  1.
    10030    2    1    2    0    0  0.00000000000E+00  0.00000000000E+00  0.19187780951E+04  0.29932452248E+04  0.22973479487E+04 0.  0.
        1    1    3    3  502    0 -0.24744967480E+01 -0.91966871902E+03  0.18560880506E+04  0.20714389992E+04  0.50400001928E-02 0. -1.
       -1    1    3    3    0  502  0.24744967480E+01  0.91966871902E+03  0.62690044556E+02  0.92180622561E+03  0.50400001928E-02 0.  1.
</event>
<event>
 5   0  0.7003852E-06  0.2287250E+04  0.7818609E-02  0.8482965E-01
        2   -1    0    0  501    0  0.00000000000E+00  0.00000000000E+00  0.16495511178E+04  0.16495511178E+04  0.25500000920E-02 0.  1.
       -2   -1    0    0    0  501  0.00000000000E+00  0.00000000000E+00 -0.79286884304E+03  0.79286884304E+03  0.25500000920E-02 0. -1.
    10030    2    1    2    0    0  0.00000000000E+00  0.00000000000E+00  0.85668227475E+03  0.24424199608E+04  0.22872496027E+04 0.  0.
        2    1    3    3  502    0 -0.45856069295E+03  0.18390433904E+03 -0.67302692919E+03  0.83490356476E+03  0.25500000920E-02 0. -1.
       -2    1    3    3    0  502  0.45856069295E+03 -0.18390433904E+03  0.15297092039E+04  0.16075163961E+04  0.25500000920E-02 0.  1.
</event>
<event>
 5   0  0.7348107E-06  0.2279857E+04  0.7818609E-02  0.8485906E-01
       -2   -1    0    0    0  501  0.00000000000E+00  0.00000000000E+00  0.11812961043E+04  0.11812961043E+04  0.25500000920E-02 0.  1.
        2   -1    0    0  501    0  0.00000000000E+00  0.00000000000E+00 -0.11000095935E+04  0.11000095935E+04  0.25500000920E-02 0. -1.
    10030    2    1    2    0    0  0.00000000000E+00  0.00000000000E+00  0.81286510761E+02  0.22813056978E+04  0.22798570547E+04 0.  0.
        3    1    3    3  502    0 -0.36126622759E+03  0.90369646634E+03  0.63453233870E+03  0.11618140512E+04  0.10100000352E+00 0.  1.
       -3    1    3    3    0  502  0.36126622759E+03 -0.90369646634E+03 -0.55324582794E+03  0.11194916466E+04  0.10100000352E+00 0. -1.
</event>
<event>
 5   0  0.7497344E-06  0.2303145E+04  0.7818609E-02  0.8476682E-01
        2   -1    0    0  501    0  0.00000000000E+00  0.00000000000E+00  0.18506511511E+04  0.18506511511E+04  0.25500000920E-02 0.  1.
       -2   -1    0    0    0  501  0.00000000000E+00  0.00000000000E+00 -0.71656929831E+03  0.71656929832E+03  0.25500000920E-02 0. -1.
    10030    2    1    2    0    0  0.00000000000E+00  0.00000000000E+00  0.11340818527E+04  0.25672204494E+04  0.23031454984E+04 0.  0.
        5    1    3    3  502    0  0.45360844551E+03  0.76432502798E+03 -0.24913287483E+03  0.92306156325E+03  0.46999998093E+01 0. -1.
       -5    1    3    3    0  502 -0.45360844551E+03 -0.76432502798E+03  0.13832147276E+04  0.16441588861E+04  0.46999998093E+01 0.  1.
</event>
<event>
 5   0  0.3338758E-06  0.2296786E+04  0.7818609E-02  0.8479190E-01
        1   -1    0    0  501    0  0.00000000000E+00  0.00000000000E+00  0.14170435552E+04  0.14170435552E+04  0.50400001928E-02 0.  1.
       -1   -1    0    0    0  501  0.00000000000E+00  0.00000000000E+00 -0.93067427621E+03  0.93067427623E+03  0.50400001928E-02 0. -1.
    10030    2    1    2    0    0  0.00000000000E+00  0.00000000000E+00  0.48636927900E+03  0.23477178314E+04  0.22967855669E+04 0.  0.
        5    1    3    3  502    0 -0.28766501045E+03  0.12612982947E+03  0.13722717085E+04  0.14077683133E+04  0.46999998093E+01 0.  1.
       -5    1    3    3    0  502  0.28766501045E+03 -0.12612982947E+03 -0.88590242946E+03  0.93994951814E+03  0.46999998093E+01 0. -1.
</event>
<event>
 5   0  0.3195296E-06  0.2300881E+04  0.7818609E-02  0.8477574E-01
        1   -1    0    0  501    0  0.00000000000E+00  0.00000000000E+00  0.15882531792E+04  0.15882531792E+04  0.50400001928E-02 0. -1.
       -1   -1    0    0    0  501  0.00000000000E+00  0.00000000000E+00 -0.83331393558E+03  0.83331393559E+03  0.50400001928E-02 0.  1.
    10030    2    1    2    0    0  0.00000000000E+00  0.00000000000E+00  0.75493924362E+03  0.24215671148E+04  0.23008811421E+04 0.  0.
        2    1    3    3  502    0  0.45164057598E+03  0.10573339201E+04  0.33564502628E+03  0.11977444687E+04  0.25500000920E-02 0.  1.
       -2    1    3    3    0  502 -0.45164057598E+03 -0.10573339201E+04  0.41929421734E+03  0.12238226461E+04  0.25500000920E-02 0. -1.
</event>
<event>
 5   0  0.3338758E-06  0.2301494E+04  0.7818609E-02  0.8477332E-01
        1   -1    0    0  501    0  0.00000000000E+00  0.00000000000E+00  0.89831555763E+03  0.89831555765E+03  0.50400001928E-02 0.  1.
       -1   -1    0    0    0  501  0.00000000000E+00  0.00000000000E+00 -0.14741135091E+04  0.14741135091E+04  0.50400001928E-02 0. -1.
    10030    2    1    2    0    0  0.00000000000E+00  0.00000000000E+00 -0.57579795143E+03  0.23724290667E+04  0.23014943832E+04 0.  0.
        5    1    3    3  502    0  0.52042531123E+03 -0.96627064387E+03 -0.64450282593E+03  0.12727637033E+04  0.46999998093E+01 0.  1.
       -5    1    3    3    0  502 -0.52042531123E+03  0.96627064387E+03  0.68704874494E+02  0.10996653634E+04  0.46999998093E+01 0. -1.
</event>
<event>
 5   0  0.7003852E-06  0.2299914E+04  0.7818609E-02  0.8477955E-01
       -2   -1    0    0    0  501  0.00000000000E+00  0.00000000000E+00  0.89851510773E+03  0.89851510773E+03  0.25500000920E-02 0. -1.
        2   -1    0    0  501    0  0.00000000000E+00  0.00000000000E+00 -0.14717626061E+04  0.14717626061E+04  0.25500000920E-02 0.  1.
    10030    2    1    2    0    0  0.00000000000E+00  0.00000000000E+00 -0.57324749842E+03  0.23702777139E+04  0.22999138563E+04 0.  0.
        2    1    3    3  502    0 -0.18732095481E+03  0.90596183321E+02 -0.14521997955E+04  0.14670313748E+04  0.25500000920E-02 0.  1.
       -2    1    3    3    0  502  0.18732095481E+03 -0.90596183321E+02  0.87895229708E+03  0.90324633910E+03  0.25500000920E-02 0. -1.
</event>
<event>
 5   0  0.7242214E-06  0.2299054E+04  0.7818609E-02  0.8478294E-01
       -2   -1    0    0    0  501  0.00000000000E+00  0.00000000000E+00  0.69366255171E+03  0.69366255172E+03  0.25500000920E-02 0. -1.
        2   -1    0    0  501    0  0.00000000000E+00  0.00000000000E+00 -0.19049792224E+04  0.19049792224E+04  0.25500000920E-02 0.  1.
    10030    2    1    2    0    0  0.00000000000E+00  0.00000000000E+00 -0.12113166707E+04  0.25986417742E+04  0.22990543694E+04 0.  0.
        1    1    3    3  502    0 -0.70246332480E+02 -0.91813503992E+03 -0.13834441739E+04  0.16618737260E+04  0.50400001928E-02 0.  1.
       -1    1    3    3    0  502  0.70246332480E+02  0.91813503992E+03  0.17212750316E+03  0.93676804820E+03  0.50400001928E-02 0. -1.
</event>
<event>
 5   0  0.7242214E-06  0.2336052E+04  0.7818609E-02  0.8463841E-01
        2   -1    0    0  501    0  0.00000000000E+00  0.00000000000E+00  0.29483023363E+04  0.29483023363E+04  0.25500000920E-02 0. -1.
       -2   -1    0    0    0  501  0.00000000000E+00  0.00000000000E+00 -0.46273556771E+03  0.46273556772E+03  0.25500000920E-02 0.  1.
    10030    2    1    2    0    0  0.00000000000E+00  0.00000000000E+00  0.24855667686E+04  0.34110379040E+04  0.23360516736E+04 0.  0.
        1    1    3    3  502    0 -0.87119928197E+02 -0.43311094375E+03  0.28215999458E+04  0.28559764049E+04  0.50400001928E-02 0. -1.
       -1    1    3    3    0  502  0.87119928197E+02  0.43311094375E+03 -0.33603317724E+03  0.55506149904E+03  0.50400001928E-02 0.  1.
</event>
<event>
 5   0  0.7348107E-06  0.2300939E+04  0.7818609E-02  0.8477551E-01
        2   -1    0    0  501    0  0.00000000000E+00  0.00000000000E+00  0.10497257277E+04  0.10497257277E+04  0.25500000920E-02 0. -1.
       -2   -1    0    0    0  501  0.00000000000E+00  0.00000000000E+00 -0.12608821104E+04  0.12608821104E+04  0.25500000920E-02 0.  1.
    10030    2    1    2    0    0  0.00000000000E+00  0.00000000000E+00 -0.21115638265E+03  0.23106078381E+04  0.23009392786E+04 0.  0.
        3    1    3    3  502    0 -0.64914053348E+03 -0.10303088523E+02 -0.10593537960E+04  0.12424653158E+04  0.10100000352E+00 0.  1.
       -3    1    3    3    0  502  0.64914053348E+03  0.10303088523E+02  0.84819741331E+03  0.10681425223E+04  0.10100000352E+00 0. -1.
</event>
<event>
 5   0  0.3226427E-06  0.2297944E+04  0.7818609E-02  0.8478732E-01
        1   -1    0    0  501    0  0.00000000000E+00  0.00000000000E+00  0.13552416811E+04  0.13552416811E+04  0.50400001928E-02 0.  1.
       -1   -1    0    0    0  501  0.00000000000E+00  0.00000000000E+00 -0.97409654524E+03  0.97409654526E+03  0.50400001928E-02 0. -1.
    10030    2    1    2    0    0  0.00000000000E+00  0.00000000000E+00  0.38114513582E+03  0.23293382263E+04  0.22979436368E+04 0.  0.
        4    1    3    3  502    0 -0.76735715375E+03 -0.81838678102E+03 -0.60890612532E+02  0.11235226764E+04  0.12699999809E+01 0. -1.
       -4    1    3    3    0  502  0.76735715375E+03  0.81838678102E+03  0.44203574835E+03  0.12058155499E+04  0.12699999809E+01 0.  1.
</event>
<event>
 5   0  0.7242214E-06  0.2299333E+04  0.7818609E-02  0.8478184E-01
       -2   -1    0    0    0  501  0.00000000000E+00  0.00000000000E+00  0.53629902273E+03  0.53629902273E+03  0.25500000920E-02 0. -1.
        2   -1    0    0  501    0  0.00000000000E+00  0.00000000000E+00 -0.24645452983E+04  0.24645452983E+04  0.25500000920E-02 0.  1.
    10030    2    1    2    0    0  0.00000000000E+00  0.00000000000E+00 -0.19282462756E+04  0.30008443211E+04  0.22993331511E+04 0.  0.
        1    1    3    3  502    0 -0.57670878845E+03 -0.92871331837E+03 -0.49970099133E+03  0.12019993907E+04  0.50400001928E-02 0.  1.
       -1    1    3    3    0  502  0.57670878845E+03  0.92871331837E+03 -0.14285452843E+04  0.17988449304E+04  0.50400001928E-02 0. -1.
</event>
<event>
 5   0  0.3195296E-06  0.2298888E+04  0.7818609E-02  0.8478360E-01
       -1   -1    0    0    0  501  0.00000000000E+00  0.00000000000E+00  0.74687098431E+03  0.74687098432E+03  0.50400001928E-02 0. -1.
        1   -1    0    0  501    0  0.00000000000E+00  0.00000000000E+00 -0.17690086113E+04  0.17690086113E+04  0.50400001928E-02 0.  1.
    10030    2    1    2    0    0  0.00000000000E+00  0.00000000000E+00 -0.10221376270E+04  0.25158795956E+04  0.22988877335E+04 0.  0.
        2    1    3    3  502    0 -0.94018752310E+03  0.27097963118E+03 -0.11711943203E+04  0.15261319323E+04  0.25500000920E-02 0.  1.
       -2    1    3    3    0  502  0.94018752310E+03 -0.27097963118E+03  0.14905669329E+03  0.98974766326E+03  0.25500000920E-02 0. -1.
</event>
<event>
 5   0  0.7497344E-06  0.2300542E+04  0.7818609E-02  0.8477707E-01
       -2   -1    0    0    0  501  0.00000000000E+00  0.00000000000E+00  0.13930689984E+04  0.13930689984E+04  0.25500000920E-02 0.  1.
        2   -1    0    0  501    0  0.00000000000E+00  0.00000000000E+00 -0.94979039585E+03  0.94979039585E+03  0.25500000920E-02 0. -1.
    10030    2    1    2    0    0  0.00000000000E+00  0.00000000000E+00  0.44327860255E+03  0.23428593943E+04  0.23005421582E+04 0.  0.
        5    1    3    3  502    0 -0.24473443212E+03  0.31485856443E+03 -0.87712790974E+03  0.96353843613E+03  0.46999998093E+01 0. -1.
       -5    1    3    3    0  502  0.24473443212E+03 -0.31485856443E+03  0.13204065123E+04  0.13793209581E+04  0.46999998093E+01 0.  1.
</event>
<event>
 5   0  0.7348107E-06  0.2269194E+04  0.7818609E-02  0.8490167E-01
        2   -1    0    0  501    0  0.00000000000E+00  0.00000000000E+00  0.21732762152E+04  0.21732762152E+04  0.25500000920E-02 0. -1.
       -2   -1    0    0    0  501  0.00000000000E+00  0.00000000000E+00 -0.59233638670E+03  0.59233638671E+03  0.25500000920E-02 0.  1.
    10030    2    1    2    0    0  0.00000000000E+00  0.00000000000E+00  0.15809398285E+04  0.27656126019E+04  0.22691942011E+04 0.  0.
        3    1    3    3  502    0  0.41588361483E+03  0.45195236673E+03  0.19531546165E+04  0.20474455033E+04  0.10100000352E+00 0. -1.
       -3    1    3    3    0  502 -0.41588361483E+03 -0.45195236673E+03 -0.37221478802E+03  0.71816709859E+03  0.10100000352E+00 0.  1.
</event>
<event>
 5   0  0.3195296E-06  0.2298938E+04  0.7818609E-02  0.8478340E-01
       -1   -1    0    0    0  501  0.00000000000E+00  0.00000000000E+00  0.86704562639E+03  0.86704562641E+03  0.50400001928E-02 0. -1.
        1   -1    0    0  501    0  0.00000000000E+00  0.00000000000E+00 -0.15238857775E+04  0.15238857775E+04  0.50400001928E-02 0.  1.
    10030    2    1    2    0    0  0.00000000000E+00  0.00000000000E+00 -0.65684015112E+03  0.23909314039E+04  0.22989375794E+04 0.  0.
        2    1    3    3  502    0 -0.79225522738E+03 -0.57941016459E+03  0.29376151150E+03  0.10245390719E+04  0.25500000920E-02 0. -1.
       -2    1    3    3    0  502  0.79225522738E+03  0.57941016459E+03 -0.95060166262E+03  0.13663923321E+04  0.25500000920E-02 0.  1.
</event>
<event>
 5   0  0.3195296E-06  0.2294277E+04  0.7818609E-02  0.8480181E-01
       -1   -1    0    0    0  501  0.00000000000E+00  0.00000000000E+00  0.51373102791E+03  0.51373102794E+03  0.50400001928E-02 0.  1.
        1   -1    0    0  501    0  0.00000000000E+00  0.00000000000E+00 -0.25615097230E+04  0.25615097230E+04  0.50400001928E-02 0. -1.
    10030    2    1    2    0    0  0.00000000000E+00  0.00000000000E+00 -0.20477786951E+04  0.30752407510E+04  0.22942772483E+04 0.  0.
        2    1    3    3  502    0  0.18375277870E+03 -0.10883963537E+04 -0.14425466724E+04  0.18164010043E+04  0.25500000920E-02 0.  1.
       -2    1    3    3    0  502 -0.18375277870E+03  0.10883963537E+04 -0.60523202273E+03  0.12588397467E+04  0.25500000920E-02 0. -1.
</event>
<event>
 5   0  0.2519625E-06  0.2292170E+04  0.7818609E-02  0.8481015E-01
        3   -1    0    0  501    0  0.00000000000E+00  0.00000000000E+00  0.10710238958E+04  0.10710239005E+04  0.10100000352E+00 0.  1.
       -3   -1    0    0    0  501  0.00000000000E+00  0.00000000000E+00 -0.12264068167E+04  0.12264068209E+04  0.10100000352E+00 0. -1.
    10030    2    1    2    0    0  0.00000000000E+00  0.00000000000E+00 -0.15538292097E+03  0.22974307214E+04  0.22921701655E+04 0.  0.
        2    1    3    3  502    0  0.11076500053E+04 -0.23953645857E+03 -0.24909494890E+03  0.11603079517E+04  0.25500000920E-02 0.  1.
       -2    1    3    3    0  502 -0.11076500053E+04  0.23953645857E+03  0.93712027929E+02  0.11371227697E+04  0.25500000920E-02 0. -1.
</event>
<event>
 5   0  0.7003852E-06  0.2318114E+04  0.7818609E-02  0.8470813E-01
        2   -1    0    0  501    0  0.00000000000E+00  0.00000000000E+00  0.96797975611E+03  0.96797975611E+03  0.25500000920E-02 0. -1.
       -2   -1    0    0    0  501  0.00000000000E+00  0.00000000000E+00 -0.13878530852E+04  0.13878530852E+04  0.25500000920E-02 0.  1.
    10030    2    1    2    0    0  0.00000000000E+00  0.00000000000E+00 -0.41987332909E+03  0.23558328413E+04  0.23181144846E+04 0.  0.
        2    1    3    3  502    0  0.27330937761E+03  0.10464616409E+04  0.21353720019E+03  0.11024418886E+04  0.25500000920E-02 0. -1.
       -2    1    3    3    0  502 -0.27330937761E+03 -0.10464616409E+04 -0.63341052928E+03  0.12533909527E+04  0.25500000920E-02 0.  1.
</event>
<event>
 5   0  0.7003852E-06  0.2259198E+04  0.7818609E-02  0.8494185E-01
        2   -1    0    0  501    0  0.00000000000E+00  0.00000000000E+00  0.23150801538E+04  0.23150801538E+04  0.25500000920E-02 0.  1.
       -2   -1    0    0    0  501  0.00000000000E+00  0.00000000000E+00 -0.55116612857E+03  0.55116612858E+03  0.25500000920E-02 0. -1.
    10030    2    1    2    0    0  0.00000000000E+00  0.00000000000E+00  0.17639140252E+04  0.28662462824E+04  0.22591978804E+04 0.  0.
        2    1    3    3  502    0  0.10524909063E+04 -0.56763858854E+02  0.13973596454E+04  0.17503066080E+04  0.25500000920E-02 0.  1.
       -2    1    3    3    0  502 -0.10524909063E+04  0.56763858854E+02  0.36655437985E+03  0.11159396744E+04  0.25500000920E-02 0. -1.
</event>
<event>
 5   0  0.3238713E-06  0.2299733E+04  0.7818609E-02  0.8478026E-01
       -1   -1    0    0    0  501  0.00000000000E+00  0.00000000000E+00  0.17634003482E+04  0.17634003482E+04  0.50400001928E-02 0. -1.
        1   -1    0    0  501    0  0.00000000000E+00  0.00000000000E+00 -0.74979750037E+03  0.74979750038E+03  0.50400001928E-02 0.  1.
    10030    2    1    2    0    0  0.00000000000E+00  0.00000000000E+00  0.10136028478E+04  0.25131978485E+04  0.22997331786E+04 0.  0.
        3    1    3    3  502    0 -0.16736410568E+03  0.86091781339E+03  0.13194690281E+04  0.15843575201E+04  0.10100000352E+00 0. -1.
       -3    1    3    3    0  502  0.16736410568E+03 -0.86091781339E+03 -0.30586618029E+03  0.92884032844E+03  0.10100000352E+00 0.  1.
</event>
<event>
 5   0  0.7044981E-06  0.2318402E+04  0.7818609E-02  0.8470701E-01
        2   -1    0    0  501    0  0.00000000000E+00  0.00000000000E+00  0.10505627115E+04  0.10505627115E+04  0.25500000920E-02 0. -1.
       -2   -1    0    0    0  501  0.00000000000E+00  0.00000000000E+00 -0.12790732512E+04  0.12790732512E+04  0.25500000920E-02 0.  1.
    10030    2    1    2    0    0  0.00000000000E+00  0.00000000000E+00 -0.22851053969E+03  0.23296359628E+04  0.23184017452E+04 0.  0.
        4    1    3    3  502    0 -0.92963411149E+03  0.36604312260E+03 -0.70492839633E+03  0.12227562331E+04  0.12699999809E+01 0.  1.
       -4    1    3    3    0  502  0.92963411149E+03 -0.36604312260E+03  0.47641785664E+03  0.11068797296E+04  0.12699999809E+01 0. -1.
</event>
<event>
 5   0  0.3184492E-06  0.2299416E+04  0.7818609E-02  0.8478152E-01
       -1   -1    0    0    0  501  0.00000000000E+00  0.00000000000E+00  0.67818105495E+03  0.67818105497E+03  0.50400001928E-02 0. -1.
        1   -1    0    0  501    0  0.00000000000E+00  0.00000000000E+00 -0.19490784371E+04  0.19490784371E+04  0.50400001928E-02 0.  1.
    10030    2    1    2    0    0  0.00000000000E+00  0.00000000000E+00 -0.12708973822E+04  0.26272594921E+04  0.22994156394E+04 0.  0.
        1    1    3    3  502    0 -0.23000257848E+03 -0.10605458238E+04 -0.10692812026E+04  0.15234897180E+04  0.50400001928E-02 0.  1.
       -1    1    3    3    0  502  0.23000257848E+03  0.10605458238E+04 -0.20161617958E+03  0.11037697742E+04  0.50400001928E-02 0. -1.
</event>
<event>
 5   0  0.7003852E-06  0.2304487E+04  0.7818609E-02  0.8476154E-01
        2   -1    0    0  501    0  0.00000000000E+00  0.00000000000E+00  0.17067538187E+04  0.17067538187E+04  0.25500000920E-02 0.  1.
       -2   -1    0    0    0  501  0.00000000000E+00  0.00000000000E+00 -0.77788921469E+03  0.77788921469E+03  0.25500000920E-02 0. -1.
    10030    2    1    2    0    0  0.00000000000E+00  0.00000000000E+00  0.92886460403E+03  0.24846430334E+04  0.23044872642E+04 0.  0.
        2    1    3    3  502    0  0.51590509691E+03  0.89323824117E+03 -0.89159157297E+02  0.10353656262E+04  0.25500000920E-02 0. -1.
       -2    1    3    3    0  502 -0.51590509691E+03 -0.89323824117E+03  0.10180237613E+04  0.14492774072E+04  0.25500000920E-02 0.  1.
</event>
<event>
 5   0  0.3338758E-06  0.2296529E+04  0.7818609E-02  0.8479291E-01
        1   -1    0    0  501    0  0.00000000000E+00  0.00000000000E+00  0.16566993402E+04  0.16566993402E+04  0.50400001928E-02 0. -1.
       -1   -1    0    0    0  501  0.00000000000E+00  0.00000000000E+00 -0.79586645631E+03  0.79586645633E+03  0.50400001928E-02 0.  1.
    10030    2    1    2    0    0  0.00000000000E+00  0.00000000000E+00  0.86083288393E+03  0.24525657966E+04  0.22965290620E+04 0.  0.
        5    1    3    3  502    0  0.10031129362E+04  0.17411825683E+02  0.10268906104E+04  0.14356410241E+04  0.46999998093E+01 0. -1.
       -5    1    3    3    0  502 -0.10031129362E+04 -0.17411825683E+02 -0.16605772646E+03  0.10169247725E+04  0.46999998093E+01 0.  1.
</event>
<event>
 5   0  0.7242214E-06  0.2301404E+04  0.7818609E-02  0.8477368E-01
       -2   -1    0    0    0  501  0.00000000000E+00  0.00000000000E+00  0.81234903223E+03  0.81234903224E+03  0.25500000920E-02 0.  1.
        2   -1    0    0  501    0  0.00000000000E+00  0.00000000000E+00 -0.16299834407E+04  0.16299834408E+04  0.25500000920E-02 0. -1.
    10030    2    1    2    0    0  0.00000000000E+00  0.00000000000E+00 -0.81763440852E+03  0.24423324730E+04  0.23014043284E+04 0.  0.
        1    1    3    3  502    0 -0.52976293390E+03 -0.74512273290E+03  0.33272676236E+03  0.97291507936E+03  0.50400001928E-02 0.  1.
       -1    1    3    3    0  502  0.52976293390E+03  0.74512273290E+03 -0.11503611709E+04  0.14694173936E+04  0.50400001928E-02 0. -1.
</event>
<event>
 5   0  0.7497344E-06  0.2301047E+04  0.7818609E-02  0.8477508E-01
       -2   -1    0    0    0  501  0.00000000000E+00  0.00000000000E+00  0.54860625829E+03  0.54860625829E+03  0.25500000920E-02 0.  1.
        2   -1    0    0  501    0  0.00000000000E+00  0.00000000000E+00 -0.24128500214E+04  0.24128500214E+04  0.25500000920E-02 0. -1.
    10030    2    1    2    0    0  0.00000000000E+00  0.00000000000E+00 -0.18642437631E+04  0.29614562797E+04  0.23010472590E+04 0.  0.
        5    1    3    3  502    0  0.31130852858E+03  0.92389936287E+03 -0.17183320855E+04  0.19756493309E+04  0.46999998093E+01 0. -1.
       -5    1    3    3    0  502 -0.31130852858E+03 -0.92389936287E+03 -0.14591167766E+03  0.98580694882E+03  0.46999998093E+01 0.  1.
</event>
<event>
 5   0  0.3184492E-06  0.2297946E+04  0.7818609E-02  0.8478731E-01
       -1   -1    0    0    0  501  0.00000000000E+00  0.00000000000E+00  0.12324101416E+04  0.12324101416E+04  0.50400001928E-02 0. -1.
        1   -1    0    0  501    0  0.00000000000E+00  0.00000000000E+00 -0.10711845821E+04  0.10711845821E+04  0.50400001928E-02 0.  1.
    10030    2    1    2    0    0  0.00000000000E+00  0.00000000000E+00  0.16122555949E+03  0.23035947236E+04  0.22979458152E+04 0.  0.
        1    1    3    3  502    0  0.15145102828E+03 -0.28223895664E+03 -0.10255227848E+04  0.10743803911E+04  0.50400001928E-02 0.  1.
       -1    1    3    3    0  502 -0.15145102828E+03  0.28223895664E+03  0.11867483443E+04  0.12292143325E+04  0.50400001928E-02 0. -1.
</event>
<event>
 5   0  0.3226427E-06  0.2267192E+04  0.7818609E-02  0.8490970E-01
        1   -1    0    0  501    0  0.00000000000E+00  0.00000000000E+00  0.12878168545E+04  0.12878168545E+04  0.50400001928E-02 0. -1.
       -1   -1    0    0    0  501  0.00000000000E+00  0.00000000000E+00 -0.99784382200E+03  0.99784382201E+03  0.50400001928E-02 0.  1.
    10030    2    1    2    0    0  0.00000000000E+00  0.00000000000E+00  0.28997303252E+03  0.22856606765E+04  0.22671921773E+04 0.  0.
        4    1    3    3  502    0  0.37258140404E+03 -0.84969027677E+03  0.80163557972E+03  0.12261368947E+04  0.12699999809E+01 0. -1.
       -4    1    3    3    0  502 -0.37258140404E+03  0.84969027677E+03 -0.51166254720E+03  0.10595237818E+04  0.12699999809E+01 0.  1.
</event>
<event>
 5   0  0.3226427E-06  0.2297949E+04  0.7818609E-02  0.8478730E-01
        1   -1    0    0  501    0  0.00000000000E+00  0.00000000000E+00  0.13159062291E+04  0.13159062291E+04  0.50400001928E-02 0. -1.
       -1   -1    0    0    0  501  0.00000000000E+00  0.00000000000E+00 -0.10032189071E+04  0.10032189071E+04  0.50400001928E-02 0.  1.
    10030    2    1    2    0    0  0.00000000000E+00  0.00000000000E+00  0.31268732195E+03  0.23191251362E+04  0.22979486583E+04 0.  0.
        4    1    3    3  502    0  0.17470739587E+03 -0.65819272902E+03  0.10902906035E+04  0.12854865054E+04  0.12699999809E+01 0. -1.
       -4    1    3    3    0  502 -0.17470739587E+03  0.65819272902E+03 -0.77760328152E+03  0.10336386308E+04  0.12699999809E+01 0.  1.
</event>
<event>
 5   0  0.7003852E-06  0.2335567E+04  0.7818609E-02  0.8464028E-01
       -2   -1    0    0    0  501  0.00000000000E+00  0.00000000000E+00  0.68121224787E+03  0.68121224787E+03  0.25500000920E-02 0. -1.
        2   -1    0    0  501    0  0.00000000000E+00  0.00000000000E+00 -0.20018997170E+04  0.20018997170E+04  0.25500000920E-02 0.  1.
    10030    2    1    2    0    0  0.00000000000E+00  0.00000000000E+00 -0.13206874691E+04  0.26831119649E+04  0.23355672598E+04 0.  0.
        2    1    3    3  502    0 -0.98475918501E+03  0.44094559088E+03 -0.11735073950E+04  0.15941465656E+04  0.25500000920E-02 0. -1.
       -2    1    3    3    0  502  0.98475918501E+03 -0.44094559088E+03 -0.14718007418E+03  0.10889653993E+04  0.25500000920E-02 0.  1.
</event>
<event>
 5   0  0.7003852E-06  0.2298889E+04  0.7818609E-02  0.8478359E-01
       -2   -1    0    0    0  501  0.00000000000E+00  0.00000000000E+00  0.80031753022E+03  0.80031753022E+03  0.25500000920E-02 0. -1.
        2   -1    0    0  501    0  0.00000000000E+00  0.00000000000E+00 -0.16508732243E+04  0.16508732243E+04  0.25500000920E-02 0.  1.
    10030    2    1    2    0    0  0.00000000000E+00  0.00000000000E+00 -0.85055569405E+03  0.24511907545E+04  0.22988891070E+04 0.  0.
        2    1    3    3  502    0  0.49521464720E+03 -0.99503723294E+03 -0.11279899586E+03  0.11171661717E+04  0.25500000920E-02 0. -1.
       -2    1    3    3    0  502 -0.49521464720E+03  0.99503723294E+03 -0.73775669819E+03  0.13340245828E+04  0.25500000920E-02 0.  1.
</event>
<event>
 5   0  0.7044981E-06  0.2299873E+04  0.7818609E-02  0.8477971E-01
        2   -1    0    0  501    0  0.00000000000E+00  0.00000000000E+00  0.15700171695E+04  0.15700171695E+04  0.25500000920E-02 0.  1.
       -2   -1    0    0    0  501  0.00000000000E+00  0.00000000000E+00 -0.84225430865E+03  0.84225430865E+03  0.25500000920E-02 0. -1.
    10030    2    1    2    0    0  0.00000000000E+00  0.00000000000E+00  0.72776286083E+03  0.24122714781E+04  0.22998728014E+04 0.  0.
        4    1    3    3  502    0  0.10342923980E+04 -0.72344115903E+02 -0.15777559620E+03  0.10487560190E+04  0.12699999809E+01 0.  1.
       -4    1    3    3    0  502 -0.10342923980E+04  0.72344115903E+02  0.88553845703E+03  0.13635154592E+04  0.12699999809E+01 0. -1.
</event>
<event>
 5   0  0.7497344E-06  0.2299804E+04  0.7818609E-02  0.8477999E-01
       -2   -1    0    0    0  501  0.00000000000E+00  0.00000000000E+00  0.95773196719E+03  0.95773196719E+03  0.25500000920E-02 0.  1.
        2   -1    0    0  501    0  0.00000000000E+00  0.00000000000E+00 -0.13806307856E+04  0.13806307856E+04  0.25500000920E-02 0. -1.
    10030    2    1    2    0    0  0.00000000000E+00  0.00000000000E+00 -0.42289881841E+03  0.23383627528E+04  0.22998036771E+04 0.  0.
        5    1    3    3  502    0 -0.19788996056E+03 -0.93336357911E+03 -0.86402337378E+03  0.12872010285E+04  0.46999998093E+01 0. -1.
       -5    1    3    3    0  502  0.19788996056E+03  0.93336357911E+03  0.44112455537E+03  0.10511617243E+04  0.46999998093E+01 0.  1.
</event>
<event>
 5   0  0.7003852E-06  0.2301763E+04  0.7818609E-02  0.8477226E-01
       -2   -1    0    0    0  501  0.00000000000E+00  0.00000000000E+00  0.61132100720E+03  0.61132100721E+03  0.25500000920E-02 0. -1.
        2   -1    0    0  501    0  0.00000000000E+00  0.00000000000E+00 -0.21666651439E+04  0.21666651439E+04  0.25500000920E-02 0.  1.
    10030    2    1    2    0    0  0.00000000000E+00  0.00000000000E+00 -0.15553441367E+04  0.27779861511E+04  0.23017627315E+04 0.  0.
        2    1    3    3  502    0  0.68073571949E+03 -0.32232216037E+03 -0.18279032923E+04  0.19769985181E+04  0.25500000920E-02 0.  1.
       -2    1    3    3    0  502 -0.68073571949E+03  0.32232216037E+03  0.27255915557E+03  0.80098763296E+03  0.25500000920E-02 0. -1.
</event>
<event>
 5   0  0.7044981E-06  0.2254782E+04  0.7818609E-02  0.8495966E-01
        2   -1    0    0  501    0  0.00000000000E+00  0.00000000000E+00  0.16094341414E+04  0.16094341414E+04  0.25500000920E-02 0. -1.
       -2   -1    0    0    0  501  0.00000000000E+00  0.00000000000E+00 -0.78972527617E+03  0.78972527618E+03  0.25500000920E-02 0.  1.
    10030    2    1    2    0    0  0.00000000000E+00  0.00000000000E+00  0.81970886520E+03  0.23991594176E+04  0.22547823148E+04 0.  0.
        4    1    3    3  502    0  0.28804781885E+03 -0.56087870992E+03 -0.58457550752E+03  0.85981777725E+03  0.12699999809E+01 0.  1.
       -4    1    3    3    0  502 -0.28804781885E+03  0.56087870992E+03  0.14042843727E+04  0.15393416403E+04  0.12699999809E+01 0. -1.
</event>
<event>
 5   0  0.7044981E-06  0.2298878E+04  0.7818609E-02  0.8478364E-01
       -2   -1    0    0    0  501  0.00000000000E+00  0.00000000000E+00  0.11131495915E+04  0.11131495915E+04  0.25500000920E-02 0.  1.
        2   -1    0    0  501    0  0.00000000000E+00  0.00000000000E+00 -0.11869111940E+04  0.11869111940E+04  0.25500000920E-02 0. -1.
    10030    2    1    2    0    0  0.00000000000E+00  0.00000000000E+00 -0.73761602480E+02  0.23000607856E+04  0.22988777356E+04 0.  0.
        4    1    3    3  502    0  0.71205590318E+02  0.55265990332E+03 -0.10427363674E+04  0.11822875918E+04  0.12699999809E+01 0. -1.
       -4    1    3    3    0  502 -0.71205590318E+02 -0.55265990332E+03  0.96897476492E+03  0.11177731938E+04  0.12699999809E+01 0.  1.
</event>
<event>
 5   0  0.7044981E-06  0.2301605E+04  0.7818609E-02  0.8477288E-01
        2   -1    0    0  501    0  0.00000000000E+00  0.00000000000E+00  0.14471661424E+04  0.14471661424E+04  0.25500000920E-02 0. -1.
       -2   -1    0    0    0  501  0.00000000000E+00  0.00000000000E+00 -0.91513110821E+03  0.91513110821E+03  0.25500000920E-02 0.  1.
    10030    2    1    2    0    0  0.00000000000E+00  0.00000000000E+00  0.53203503422E+03  0.23622972506E+04  0.23016053143E+04 0.  0.
        4    1    3    3  502    0 -0.77293880504E+03  0.85199553725E+02 -0.60467516740E+03  0.98505179116E+03  0.12699999809E+01 0.  1.
       -4    1    3    3    0  502  0.77293880504E+03 -0.85199553725E+02  0.11367102016E+04  0.13772454595E+04  0.12699999809E+01 0. -1.
</event>
<event>
 5   0  0.7497344E-06  0.2255334E+04  0.7818609E-02  0.8495744E-01
       -2   -1    0    0    0  501  0.00000000000E+00  0.00000000000E+00  0.11994143927E+04  0.11994143927E+04  0.25500000920E-02 0. -1.
        2   -1    0    0  501    0  0.00000000000E+00  0.00000000000E+00 -0.10602110292E+04  0.10602110292E+04  0.25500000920E-02 0.  1.
    10030    2    1    2    0    0  0.00000000000E+00  0.00000000000E+00  0.13920336355E+03  0.22596254219E+04  0.22553335609E+04 0.  0.
        5    1    3    3  502    0  0.97137211808E+03  0.54695055257E+03  0.23990037207E+03  0.11403038969E+04  0.46999998093E+01 0. -1.
       -5    1    3    3    0  502 -0.97137211808E+03 -0.54695055257E+03 -0.10069700852E+03  0.11193215250E+04  0.46999998093E+01 0.  1.
</event>
<event>
 5   0  0.3226427E-06  0.2299332E+04  0.7818609E-02  0.8478185E-01
        1   -1    0    0  501    0  0.00000000000E+00  0.00000000000E+00  0.18164477789E+04  0.18164477789E+04  0.50400001928E-02 0.  1.
       -1   -1    0    0    0  501  0.00000000000E+00  0.00000000000E+00 -0.72764635006E+03  0.72764635008E+03  0.50400001928E-02 0. -1.
    10030    2    1    2    0    0  0.00000000000E+00  0.00000000000E+00  0.10888014288E+04  0.25440941290E+04  0.22993317259E+04 0.  0.
        4    1    3    3  502    0  0.71536301565E+03 -0.18468105156E+03  0.15190052864E+04  0.16891506765E+04  0.12699999809E+01 0.  1.
       -4    1    3    3    0  502 -0.71536301565E+03  0.18468105156E+03 -0.43020385755E+03  0.85494345247E+03  0.12699999809E+01 0. -1.
</event>
<event>
 5   0  0.7497344E-06  0.2302793E+04  0.7818609E-02  0.8476821E-01
        2   -1    0    0  501    0  0.00000000000E+00  0.00000000000E+00  0.18327371120E+04  0.18327371120E+04  0.25500000920E-02 0.  1.
       -2   -1    0    0    0  501  0.00000000000E+00  0.00000000000E+00 -0.72335216217E+03  0.72335216218E+03  0.25500000920E-02 0. -1.
    10030    2    1    2    0    0  0.00000000000E+00  0.00000000000E+00  0.11093849498E+04  0.25560892742E+04  0.23027933929E+04 0.  0.
        5    1    3    3  502    0 -0.16347667080E+03 -0.48008616304E+03 -0.59268215070E+03  0.78006510471E+03  0.46999998093E+01 0. -1.
       -5    1    3    3    0  502  0.16347667080E+03  0.48008616304E+03  0.17020671005E+04  0.17760241694E+04  0.46999998093E+01 0.  1.
</event>
<event>
 5   0  0.7348107E-06  0.2301735E+04  0.7818609E-02  0.8477237E-01
       -2   -1    0    0    0  501  0.00000000000E+00  0.00000000000E+00  0.76653332539E+03  0.76653332540E+03  0.25500000920E-02 0. -1.
        2   -1    0    0  501    0  0.00000000000E+00  0.00000000000E+00 -0.17279039349E+04  0.17279039349E+04  0.25500000920E-02 0.  1.
    10030    2    1    2    0    0  0.00000000000E+00  0.00000000000E+00 -0.96137060951E+03  0.24944372603E+04  0.23017349536E+04 0.  0.
        3    1    3    3  502    0  0.70902775931E+03  0.26529565539E+03  0.45871581427E+03  0.88516798219E+03  0.10100000352E+00 0. -1.
       -3    1    3    3    0  502 -0.70902775931E+03 -0.26529565539E+03 -0.14200864238E+04  0.16092692781E+04  0.10100000352E+00 0.  1.
</event>
<event>
 5   0  0.2519625E-06  0.2301386E+04  0.7818609E-02  0.8477375E-01
       -4   -1    0    0    0  501  0.00000000000E+00  0.00000000000E+00  0.68928034894E+03  0.68928151893E+03  0.12699999809E+01 0.  1.
        4   -1    0    0  501    0  0.00000000000E+00  0.00000000000E+00 -0.19209772503E+04  0.19209776701E+04  0.12699999809E+01 0. -1.
    10030    2    1    2    0    0  0.00000000000E+00  0.00000000000E+00 -0.12316969014E+04  0.26102591891E+04  0.23013856211E+04 0.  0.
        4    1    3    3  502    0 -0.72386412524E+03 -0.83661255253E+03 -0.25683407657E+03  0.11357223211E+04  0.12699999809E+01 0.  1.
       -4    1    3    3    0  502  0.72386412524E+03  0.83661255253E+03 -0.97486282480E+03  0.14745368680E+04  0.12699999809E+01 0. -1.
</event>
<event>
 5   0  0.3184492E-06  0.2296860E+04  0.7818609E-02  0.8479160E-01
       -1   -1    0    0    0  501  0.00000000000E+00  0.00000000000E+00  0.97313385823E+03  0.97313385824E+03  0.50400001928E-02 0. -1.
        1   -1    0    0  501    0  0.00000000000E+00  0.00000000000E+00 -0.13553036865E+04  0.13553036865E+04  0.50400001928E-02 0.  1.
    10030    2    1    2    0    0  0.00000000000E+00  0.00000000000E+00 -0.38216982829E+03  0.23284375448E+04  0.22968603837E+04 0.  0.
        1    1    3    3  502    0 -0.10828039990E+04  0.37918327352E+03 -0.24324567391E+03  0.11727799935E+04  0.50400001928E-02 0. -1.
       -1    1    3    3    0  502  0.10828039990E+04 -0.37918327352E+03 -0.13892415438E+03  0.11556575513E+04  0.50400001928E-02 0.  1.
</event>
<event>
 5   0  0.3338758E-06  0.2298806E+04  0.7818609E-02  0.8478392E-01
       -1   -1    0    0    0  501  0.00000000000E+00  0.00000000000E+00  0.10689704516E+04  0.10689704516E+04  0.50400001928E-02 0.  1.
        1   -1    0    0  501    0  0.00000000000E+00  0.00000000000E+00 -0.12358871985E+04  0.12358871985E+04  0.50400001928E-02 0. -1.
    10030    2    1    2    0    0  0.00000000000E+00  0.00000000000E+00 -0.16691674695E+03  0.23048576501E+04  0.22988056871E+04 0.  0.
        5    1    3    3  502    0  0.61755374626E+03  0.84641350273E+03 -0.55726607430E+03  0.11867417641E+04  0.46999998093E+01 0.  1.
       -5    1    3    3    0  502 -0.61755374626E+03 -0.84641350273E+03  0.39034932735E+03  0.11181158860E+04  0.46999998093E+01 0. -1.
</event>
<event>
 5   0  0.3338758E-06  0.2299941E+04  0.7818609E-02  0.8477944E-01
        1   -1    0    0  501    0  0.00000000000E+00  0.00000000000E+00  0.10520869495E+04  0.10520869495E+04  0.50400001928E-02 0. -1.
       -1   -1    0    0    0  501  0.00000000000E+00  0.00000000000E+00 -0.12569611173E+04  0.12569611173E+04  0.50400001928E-02 0.  1.
    10030    2    1    2    0    0  0.00000000000E+00  0.00000000000E+00 -0.20487416779E+03  0.23090480669E+04  0.22999412059E+04 0.  0.
        5    1    3    3  502    0 -0.60625869426E+03  0.87336025627E+03  0.33759344774E+03  0.11154815855E+04  0.46999998093E+01 0. -1.
       -5    1    3    3    0  502  0.60625869426E+03 -0.87336025627E+03 -0.54246761553E+03  0.11935664814E+04  0.46999998093E+01 0.  1.
</event>
<event>
 5   0  0.7242214E-06  0.2299021E+04  0.7818609E-02  0.8478307E-01
       -2   -1    0    0    0  501  0.00000000000E+00  0.00000000000E+00  0.87597634824E+03  0.87597634825E+03  0.25500000920E-02 0. -1.
        2   -1    0    0  501    0  0.00000000000E+00  0.00000000000E+00 -0.15084595925E+04  0.15084595925E+04  0.25500000920E-02 0.  1.
    10030    2    1    2    0    0  0.00000000000E+00  0.00000000000E+00 -0.63248324421E+03  0.23844359407E+04  0.22990214660E+04 0.  0.
        1    1    3    3  502    0  0.10781546939E+04 -0.10802606048E+03 -0.71428091791E+03  0.12977998318E+04  0.50400001928E-02 0.  1.
       -1    1    3    3    0  502 -0.10781546939E+04  0.10802606048E+03  0.81797673694E+02  0.10866361089E+04  0.50400001928E-02 0. -1.
</event>
<event>
 5   0  0.7242214E-06  0.2301533E+04  0.7818609E-02  0.8477317E-01
        2   -1    0    0  501    0  0.00000000000E+00  0.00000000000E+00  0.16890183191E+04  0.16890183191E+04  0.25500000920E-02 0.  1.
       -2   -1    0    0    0  501  0.00000000000E+00  0.00000000000E+00 -0.78404342688E+03  0.78404342688E+03  0.25500000920E-02 0. -1.
    10030    2    1    2    0    0  0.00000000000E+00  0.00000000000E+00  0.90497489220E+03  0.24730617460E+04  0.23015331507E+04 0.  0.
        1    1    3    3  502    0  0.78236588017E+01  0.11238971343E+04  0.71800183539E+03  0.13336913487E+04  0.50400001928E-02 0.  1.
       -1    1    3    3    0  502 -0.78236588017E+01 -0.11238971343E+04  0.18697305681E+03  0.11393703972E+04  0.50400001928E-02 0. -1.
</event>
<event>
 5   0  0.3226427E-06  0.2304189E+04  0.7818609E-02  0.8476271E-01
        1   -1    0    0  501    0  0.00000000000E+00  0.00000000000E+00  0.15329080885E+04  0.15329080885E+04  0.50400001928E-02 0.  1.
       -1   -1    0    0    0  501  0.00000000000E+00  0.00000000000E+00 -0.86588451151E+03  0.86588451153E+03  0.50400001928E-02 0. -1.
    10030    2    1    2    0    0  0.00000000000E+00  0.00000000000E+00  0.66702357701E+03  0.23987926001E+04  0.23041886828E+04 0.  0.
        4    1    3    3  502    0  0.11244616713E+04 -0.24723075361E+03  0.37746688727E+03  0.12116187353E+04  0.12699999809E+01 0. -1.
       -4    1    3    3    0  502 -0.11244616713E+04  0.24723075361E+03  0.28955668974E+03  0.11871738648E+04  0.12699999809E+01 0.  1.
</event>
<event>
 5   0  0.7003852E-06  0.2301747E+04  0.7818609E-02  0.8477233E-01
       -2   -1    0    0    0  501  0.00000000000E+00  0.00000000000E+00  0.65029306099E+03  0.65029306100E+03  0.25500000920E-02 0. -1.
        2   -1    0    0  501    0  0.00000000000E+00  0.00000000000E+00 -0.20367889239E+04  0.20367889239E+04  0.25500000920E-02 0.  1.
    10030    2    1    2    0    0  0.00000000000E+00  0.00000000000E+00 -0.13864958629E+04  0.26870819849E+04  0.23017469052E+04 0.  0.
        2    1    3    3  502    0  0.63715241291E+03  0.68175412477E+03  0.93137412264E+02  0.93777740509E+03  0.25500000920E-02 0. -1.
       -2    1    3    3    0  502 -0.63715241291E+03 -0.68175412477E+03 -0.14796332752E+04  0.17493045798E+04  0.25500000920E-02 0.  1.
</event>
<event>
 5   0  0.7497344E-06  0.2293335E+04  0.7818609E-02  0.8480554E-01
        2   -1    0    0  501    0  0.00000000000E+00  0.00000000000E+00  0.18096008467E+04  0.18096008467E+04  0.25500000920E-02 0.  1.
       -2   -1    0    0    0  501  0.00000000000E+00  0.00000000000E+00 -0.72659468536E+03  0.72659468536E+03  0.25500000920E-02 0. -1.
    10030    2    1    2    0    0  0.00000000000E+00  0.00000000000E+00  0.10830061613E+04  0.25361955321E+04  0.22933350020E+04 0.  0.
        5    1    3    3  502    0 -0.69049791819E+03 -0.35363783889E+03 -0.39229514843E+03  0.86934726640E+03  0.46999998093E+01 0. -1.
       -5    1    3    3    0  502  0.69049791819E+03  0.35363783889E+03  0.14753013098E+04  0.16668482657E+04  0.46999998093E+01 0.  1.
</event>
<event>
 5   0  0.7497344E-06  0.2295303E+04  0.7818609E-02  0.8479775E-01
        2   -1    0    0  501    0  0.00000000000E+00  0.00000000000E+00  0.89757039809E+03  0.89757039810E+03  0.25500000920E-02 0.  1.
       -2   -1    0    0    0  501  0.00000000000E+00  0.00000000000E+00 -0.14674107364E+04  0.14674107364E+04  0.25500000920E-02 0. -1.
    10030    2    1    2    0    0  0.00000000000E+00  0.00000000000E+00 -0.56984033831E+03  0.23649811345E+04  0.22953034125E+04 0.  0.
        5    1    3    3  502    0 -0.10256804061E+03 -0.77694356130E+03  0.57893471019E+03  0.97434541568E+03  0.46999998093E+01 0.  1.
       -5    1    3    3    0  502  0.10256804061E+03  0.77694356130E+03 -0.11487750485E+04  0.13906357188E+04  0.46999998093E+01 0. -1.
</event>
<event>
 5   0  0.3184492E-06  0.2293502E+04  0.7818609E-02  0.8480488E-01
       -1   -1    0    0    0  501  0.00000000000E+00  0.00000000000E+00  0.17055677961E+04  0.17055677961E+04  0.50400001928E-02 0.  1.
        1   -1    0    0  501    0  0.00000000000E+00  0.00000000000E+00 -0.77102610742E+03  0.77102610743E+03  0.50400001928E-02 0. -1.
    10030    2    1    2    0    0  0.00000000000E+00  0.00000000000E+00  0.93454168871E+03  0.24765939036E+04  0.22935015141E+04 0.  0.
        1    1    3    3  502    0 -0.76022063147E+02 -0.10596408412E+04  0.93350182212E+03  0.14142290191E+04  0.50400001928E-02 0.  1.
       -1    1    3    3    0  502  0.76022063147E+02  0.10596408412E+04  0.10398665894E+01  0.10623648845E+04  0.50400001928E-02 0. -1.
</event>
<event>
 5   0  0.3226427E-06  0.2301087E+04  0.7818609E-02  0.8477493E-01
       -1   -1    0    0    0  501  0.00000000000E+00  0.00000000000E+00  0.12019366699E+04  0.12019366700E+04  0.50400001928E-02 0.  1.
        1   -1    0    0  501    0  0.00000000000E+00  0.00000000000E+00 -0.11013477812E+04  0.11013477812E+04  0.50400001928E-02 0. -1.
    10030    2    1    2    0    0  0.00000000000E+00  0.00000000000E+00  0.10058888875E+03  0.23032844512E+04  0.23010869472E+04 0.  0.
        4    1    3    3  502    0 -0.10339843694E+04 -0.13450603334E+03 -0.43651671971E+03  0.11303822401E+04  0.12699999809E+01 0. -1.
       -4    1    3    3    0  502  0.10339843694E+04  0.13450603334E+03  0.53710560847E+03  0.11729022111E+04  0.12699999809E+01 0.  1.
</event>
<event>
 5   0  0.7348107E-06  0.2295478E+04  0.7818609E-02  0.8479706E-01
       -2   -1    0    0    0  501  0.00000000000E+00  0.00000000000E+00  0.10241429559E+04  0.10241429559E+04  0.25500000920E-02 0.  1.
        2   -1    0    0  501    0  0.00000000000E+00  0.00000000000E+00 -0.12862503880E+04  0.12862503880E+04  0.25500000920E-02 0. -1.
    10030    2    1    2    0    0  0.00000000000E+00  0.00000000000E+00 -0.26210743209E+03  0.23103933439E+04  0.22954775315E+04 0.  0.
        3    1    3    3  502    0 -0.71366507656E+03  0.32836044609E+03 -0.97325003283E+03  0.12507414044E+04  0.10100000352E+00 0. -1.
       -3    1    3    3    0  502  0.71366507656E+03 -0.32836044609E+03  0.71114260074E+03  0.10596519395E+04  0.10100000352E+00 0.  1.
</event>
<event>
 5   0  0.7242214E-06  0.2301915E+04  0.7818609E-02  0.8477166E-01
        2   -1    0    0  501    0  0.00000000000E+00  0.00000000000E+00  0.19554134157E+04  0.19554134157E+04  0.25500000920E-02 0.  1.
       -2   -1    0    0    0  501  0.00000000000E+00  0.00000000000E+00 -0.67745437745E+03  0.67745437745E+03  0.25500000920E-02 0. -1.
    10030    2    1    2    0    0  0.00000000000E+00  0.00000000000E+00  0.12779590383E+04  0.26328677932E+04  0.23019151837E+04 0.  0.
        1    1    3    3  502    0  0.73617329419E+02  0.11090955331E+04  0.29739343731E+03  0.11506325519E+04  0.50400001928E-02 0. -1.
       -1    1    3    3    0  502 -0.73617329419E+02 -0.11090955331E+04  0.98056560099E+03  0.14822352413E+04  0.50400001928E-02 0.  1.
</event>
<event>
 5   0  0.7497344E-06  0.2299450E+04  0.7818609E-02  0.8478138E-01
       -2   -1    0    0    0  501  0.00000000000E+00  0.00000000000E+00  0.10473792511E+04  0.10473792511E+04  0.25500000920E-02 0. -1.
        2   -1    0    0  501    0  0.00000000000E+00  0.00000000000E+00 -0.12620712437E+04  0.12620712437E+04  0.25500000920E-02 0.  1.
    10030    2    1    2    0    0  0.00000000000E+00  0.00000000000E+00 -0.21469199262E+03  0.23094504948E+04  0.22994497029E+04 0.  0.
        5    1    3    3  502    0  0.57107769999E+03  0.43299007857E+02  0.89390534307E+03  0.10616465494E+04  0.46999998093E+01 0. -1.
       -5    1    3    3    0  502 -0.57107769999E+03 -0.43299007857E+02 -0.11085973357E+04  0.12478039454E+04  0.46999998093E+01 0.  1.
</event>
<event>
 5   0  0.2519625E-06  0.2303535E+04  0.7818609E-02  0.8476529E-01
       -4   -1    0    0    0  501  0.00000000000E+00  0.00000000000E+00  0.14504726372E+04  0.14504731932E+04  0.12699999809E+01 0.  1.
        4   -1    0    0  501    0  0.00000000000E+00  0.00000000000E+00 -0.91457520576E+03  0.91457608754E+03  0.12699999809E+01 0. -1.
    10030    2    1    2    0    0  0.00000000000E+00  0.00000000000E+00  0.53589743146E+03  0.23650492807E+04  0.23035346846E+04 0.  0.
        1    1    3    3  502    0 -0.72336122900E+03 -0.18797944591E+03  0.11676958466E+04  0.13863986908E+04  0.50400001928E-02 0.  1.
       -1    1    3    3    0  502  0.72336122900E+03  0.18797944591E+03 -0.63179841516E+03  0.97865058991E+03  0.50400001928E-02 0. -1.
</event>
<event>
 5   0  0.7348107E-06  0.2291245E+04  0.7818609E-02  0.8481381E-01
        2   -1    0    0  501    0  0.00000000000E+00  0.00000000000E+00  0.20232171471E+04  0.20232171471E+04  0.25500000920E-02 0. -1.
       -2   -1    0    0    0  501  0.00000000000E+00  0.00000000000E+00 -0.64869487331E+03  0.64869487331E+03  0.25500000920E-02 0.  1.
    10030    2    1    2    0    0  0.00000000000E+00  0.00000000000E+00  0.13745222738E+04  0.26719120205E+04  0.22912447193E+04 0.  0.
        3    1    3    3  502    0  0.66522732414E+03  0.57961274653E+03  0.15393993114E+04  0.17743248233E+04  0.10100000352E+00 0. -1.
       -3    1    3    3    0  502 -0.66522732414E+03 -0.57961274653E+03 -0.16487703752E+03  0.89758719711E+03  0.10100000352E+00 0.  1.
</event>
<event>
 5   0  0.7044981E-06  0.2299024E+04  0.7818609E-02  0.8478306E-01
        2   -1    0    0  501    0  0.00000000000E+00  0.00000000000E+00  0.15070125604E+04  0.15070125604E+04  0.25500000920E-02 0. -1.
       -2   -1    0    0    0  501  0.00000000000E+00  0.00000000000E+00 -0.87681959839E+03  0.87681959839E+03  0.25500000920E-02 0.  1.
    10030    2    1    2    0    0  0.00000000000E+00  0.00000000000E+00  0.63019296202E+03  0.23838321588E+04  0.22990242695E+04 0.  0.
        4    1    3    3  502    0 -0.30858245391E+03 -0.32442954097E+03 -0.78268357244E+03  0.90170552033E+03  0.12699999809E+01 0.  1.
       -4    1    3    3    0  502  0.30858245391E+03  0.32442954097E+03  0.14128765345E+04  0.14821266385E+04  0.12699999809E+01 0. -1.
</event>
<event>
 5   0  0.2519625E-06  0.2287485E+04  0.7818609E-02  0.8482872E-01
       -3   -1    0    0    0  501  0.00000000000E+00  0.00000000000E+00  0.92785720691E+03  0.92785721241E+03  0.10100000352E+00 0. -1.
        3   -1    0    0  501    0  0.00000000000E+00  0.00000000000E+00 -0.14098577946E+04  0.14098577982E+04  0.10100000352E+00 0.  1.
    10030    2    1    2    0    0  0.00000000000E+00  0.00000000000E+00 -0.48200058766E+03  0.23377150106E+04  0.22874848424E+04 0.  0.
        1    1    3    3  502    0  0.26387706892E+03  0.11002222060E+04 -0.69912334368E+02  0.11335818209E+04  0.50400001928E-02 0. -1.
       -1    1    3    3    0  502 -0.26387706892E+03 -0.11002222060E+04 -0.41208825330E+03  0.12041331897E+04  0.50400001928E-02 0.  1.
</event>
<event>
 5   0  0.7348107E-06  0.2300747E+04  0.7818609E-02  0.8477627E-01
        2   -1    0    0  501    0  0.00000000000E+00  0.00000000000E+00  0.12548638235E+04  0.12548638235E+04  0.25500000920E-02 0.  1.
       -2   -1    0    0    0  501  0.00000000000E+00  0.00000000000E+00 -0.10545841474E+04  0.10545841474E+04  0.25500000920E-02 0. -1.
    10030    2    1    2    0    0  0.00000000000E+00  0.00000000000E+00  0.20027967611E+03  0.23094479710E+04  0.23007472660E+04 0.  0.
        3    1    3    3  502    0  0.34041782942E+03 -0.22838706609E+03  0.11790601928E+04  0.12482899900E+04  0.10100000352E+00 0.  1.
       -3    1    3    3    0  502 -0.34041782942E+03  0.22838706609E+03 -0.97878051672E+03  0.10611579810E+04  0.10100000352E+00 0. -1.
</event>
<event>
 5   0  0.7044981E-06  0.2299448E+04  0.7818609E-02  0.8478139E-01
        2   -1    0    0  501    0  0.00000000000E+00  0.00000000000E+00  0.23204624193E+04  0.23204624193E+04  0.25500000920E-02 0.  1.
       -2   -1    0    0    0  501  0.00000000000E+00  0.00000000000E+00 -0.56965583308E+03  0.56965583308E+03  0.25500000920E-02 0. -1.
    10030    2    1    2    0    0  0.00000000000E+00  0.00000000000E+00  0.17508065863E+04  0.28901182524E+04  0.22994477186E+04 0.  0.
        4    1    3    3  502    0 -0.40973481497E+03 -0.45572221911E+03 -0.34725762290E+03  0.70438258720E+03  0.12699999809E+01 0. -1.
       -4    1    3    3    0  502  0.40973481497E+03  0.45572221911E+03  0.20980642092E+04  0.21857356652E+04  0.12699999809E+01 0.  1.
</event>
<event>
 5   0  0.7242214E-06  0.2301991E+04  0.7818609E-02  0.8477136E-01
       -2   -1    0    0    0  501  0.00000000000E+00  0.00000000000E+00  0.11817591342E+04  0.11817591342E+04  0.25500000920E-02 0.  1.
        2   -1    0    0  501    0  0.00000000000E+00  0.00000000000E+00 -0.11210328843E+04  0.11210328843E+04  0.25500000920E-02 0. -1.
    10030    2    1    2    0    0  0.00000000000E+00  0.00000000000E+00  0.60726249840E+02  0.23027920185E+04  0.23019911822E+04 0.  0.
        1    1    3    3  502    0  0.53510476307E+03  0.94986353728E+03  0.39956197943E+03  0.11611320435E+04  0.50400001928E-02 0.  1.
       -1    1    3    3    0  502 -0.53510476307E+03 -0.94986353728E+03 -0.33883572959E+03  0.11416599750E+04  0.50400001928E-02 0. -1.
</event>
<event>
 5   0  0.3226427E-06  0.2294385E+04  0.7818609E-02  0.8480138E-01
       -1   -1    0    0    0  501  0.00000000000E+00  0.00000000000E+00  0.13648338451E+04  0.13648338451E+04  0.50400001928E-02 0.  1.
        1   -1    0    0  501    0  0.00000000000E+00  0.00000000000E+00 -0.96425692607E+03  0.96425692608E+03  0.50400001928E-02 0. -1.
    10030    2    1    2    0    0  0.00000000000E+00  0.00000000000E+00  0.40057691906E+03  0.23290907712E+04  0.22943848745E+04 0.  0.
        4    1    3    3  502    0 -0.50572838824E+03  0.30463524531E+03 -0.79819821368E+03  0.99281712142E+03  0.12699999809E+01 0. -1.
       -4    1    3    3    0  502  0.50572838824E+03 -0.30463524531E+03  0.11987751327E+04  0.13362736498E+04  0.12699999809E+01 0.  1.
</event>
<event>
 5   0  0.7348107E-06  0.2283531E+04  0.7818609E-02  0.8484443E-01
       -2   -1    0    0    0  501  0.00000000000E+00  0.00000000000E+00  0.14040855555E+04  0.14040855555E+04  0.25500000920E-02 0.  1.
        2   -1    0    0  501    0  0.00000000000E+00  0.00000000000E+00 -0.92845344146E+03  0.92845344146E+03  0.25500000920E-02 0. -1.
    10030    2    1    2    0    0  0.00000000000E+00  0.00000000000E+00  0.47563211409E+03  0.23325389970E+04  0.22835306577E+04 0.  0.
        3    1    3    3  502    0 -0.71149067471E+03 -0.79499806893E+03  0.65322222754E+03  0.12509756986E+04  0.10100000352E+00 0.  1.
       -3    1    3    3    0  502  0.71149067471E+03  0.79499806893E+03 -0.17759011345E+03  0.10815632984E+04  0.10100000352E+00 0. -1.
</event>
<event>
 5   0  0.7497344E-06  0.2309839E+04  0.7818609E-02  0.8474052E-01
        2   -1    0    0  501    0  0.00000000000E+00  0.00000000000E+00  0.79335796052E+03  0.79335796052E+03  0.25500000920E-02 0. -1.
       -2   -1    0    0    0  501  0.00000000000E+00  0.00000000000E+00 -0.16812569603E+04  0.16812569603E+04  0.25500000920E-02 0.  1.
    10030    2    1    2    0    0  0.00000000000E+00  0.00000000000E+00 -0.88789899981E+03  0.24746149208E+04  0.23098386032E+04 0.  0.
        5    1    3    3  502    0  0.66915500835E+03  0.35162409670E+03  0.49149898827E+03  0.90166583391E+03  0.46999998093E+01 0. -1.
       -5    1    3    3    0  502 -0.66915500835E+03 -0.35162409670E+03 -0.13793979881E+04  0.15729490869E+04  0.46999998093E+01 0.  1.
</event>
<event>
 5   0  0.3238713E-06  0.2305199E+04  0.7818609E-02  0.8475874E-01
       -1   -1    0    0    0  501  0.00000000000E+00  0.00000000000E+00  0.11331753449E+04  0.11331753449E+04  0.50400001928E-02 0.  1.
        1   -1    0    0  501    0  0.00000000000E+00  0.00000000000E+00 -0.11723563512E+04  0.11723563512E+04  0.50400001928E-02 0. -1.
    10030    2    1    2    0    0  0.00000000000E+00  0.00000000000E+00 -0.39181006226E+02  0.23055316961E+04  0.23051987442E+04 0.  0.
        3    1    3    3  502    0 -0.43143028856E+03 -0.60367182620E+03 -0.90172330094E+03  0.11677571191E+04  0.10100000352E+00 0. -1.
       -3    1    3    3    0  502  0.43143028856E+03  0.60367182620E+03  0.86254229471E+03  0.11377745770E+04  0.10100000352E+00 0.  1.
</event>
<event>
 5   0  0.3226427E-06  0.2295023E+04  0.7818609E-02  0.8479886E-01
        1   -1    0    0  501    0  0.00000000000E+00  0.00000000000E+00  0.16986148869E+04  0.16986148869E+04  0.50400001928E-02 0. -1.
       -1   -1    0    0    0  501  0.00000000000E+00  0.00000000000E+00 -0.77520945647E+03  0.77520945648E+03  0.50400001928E-02 0.  1.
    10030    2    1    2    0    0  0.00000000000E+00  0.00000000000E+00  0.92340543047E+03  0.24738243434E+04  0.22950227217E+04 0.  0.
        4    1    3    3  502    0 -0.37819164535E+03  0.41147143211E+03  0.15420030940E+04  0.16401563386E+04  0.12699999809E+01 0. -1.
       -4    1    3    3    0  502  0.37819164535E+03 -0.41147143211E+03 -0.61859766356E+03  0.83366800486E+03  0.12699999809E+01 0.  1.
</event>
<event>
 5   0  0.7044981E-06  0.2338172E+04  0.7818609E-02  0.8463021E-01
        2   -1    0    0  501    0  0.00000000000E+00  0.00000000000E+00  0.82998744364E+03  0.82998744365E+03  0.25500000920E-02 0.  1.
       -2   -1    0    0    0  501  0.00000000000E+00  0.00000000000E+00 -0.16467258946E+04  0.16467258946E+04  0.25500000920E-02 0. -1.
    10030    2    1    2    0    0  0.00000000000E+00  0.00000000000E+00 -0.81673845100E+03  0.24767133383E+04  0.23381717778E+04 0.  0.
        4    1    3    3  502    0  0.49474871235E+03 -0.70361054758E+02 -0.15278905659E+04  0.16075379188E+04  0.12699999809E+01 0. -1.
       -4    1    3    3    0  502 -0.49474871235E+03  0.70361054758E+02  0.71115211486E+03  0.86917541944E+03  0.12699999809E+01 0.  1.
</event>
<event>
 5   0  0.3238713E-06  0.2300251E+04  0.7818609E-02  0.8477822E-01
        1   -1    0    0  501    0  0.00000000000E+00  0.00000000000E+00  0.89001907848E+03  0.89001907850E+03  0.50400001928E-02 0. -1.
       -1   -1    0    0    0  501  0.00000000000E+00  0.00000000000E+00 -0.14862473757E+04  0.14862473757E+04  0.50400001928E-02 0.  1.
    10030    2    1    2    0    0  0.00000000000E+00  0.00000000000E+00 -0.59622829718E+03  0.23762664542E+04  0.23002508730E+04 0.  0.
        3    1    3    3  502    0 -0.42411792140E+03 -0.69401881561E+03  0.54193152763E+03  0.97735762058E+03  0.10100000352E+00 0. -1.
       -3    1    3    3    0  502  0.42411792140E+03  0.69401881561E+03 -0.11381598248E+04  0.13989088336E+04  0.10100000352E+00 0.  1.
</event>
<event>
 5   0  0.7497344E-06  0.2296011E+04  0.7818609E-02  0.8479496E-01
       -2   -1    0    0    0  501  0.00000000000E+00  0.00000000000E+00  0.17114780833E+04  0.17114780833E+04  0.25500000920E-02 0.  1.
        2   -1    0    0  501    0  0.00000000000E+00  0.00000000000E+00 -0.77004588750E+03  0.77004588751E+03  0.25500000920E-02 0. -1.
    10030    2    1    2    0    0  0.00000000000E+00  0.00000000000E+00  0.94143219578E+03  0.24815239708E+04  0.22960110275E+04 0.  0.
        5    1    3    3  502    0 -0.10376144954E+03 -0.10250742737E+04 -0.76503822330E+02  0.10331595374E+04  0.46999998093E+01 0. -1.
       -5    1    3    3    0  502  0.10376144954E+03  0.10250742737E+04  0.10179360181E+04  0.14483644334E+04  0.46999998093E+01 0.  1.
</event>
<event>
 5   0  0.7003852E-06  0.2301941E+04  0.7818609E-02  0.8477156E-01
        2   -1    0    0  501    0  0.00000000000E+00  0.00000000000E+00  0.13995029366E+04  0.13995029366E+04  0.25500000920E-02 0. -1.
       -2   -1    0    0    0  501  0.00000000000E+00  0.00000000000E+00 -0.94657373507E+03  0.94657373507E+03  0.25500000920E-02 0.  1.
    10030    2    1    2    0    0  0.00000000000E+00  0.00000000000E+00  0.45292920156E+03  0.23460766717E+04  0.23019406786E+04 0.  0.
        2    1    3    3  502    0 -0.89982548235E+03 -0.23694229388E+03 -0.46394933676E+03  0.10397483044E+04  0.25500000920E-02 0. -1.
       -2    1    3    3    0  502  0.89982548235E+03  0.23694229388E+03  0.91687853832E+03  0.13063283674E+04  0.25500000920E-02 0.  1.
</event>
<event>
 5   0  0.7497344E-06  0.2309700E+04  0.7818609E-02  0.8474106E-01
       -2   -1    0    0    0  501  0.00000000000E+00  0.00000000000E+00  0.13962347833E+04  0.13962347833E+04  0.25500000920E-02 0.  1.
        2   -1    0    0  501    0  0.00000000000E+00  0.00000000000E+00 -0.95519645532E+03  0.95519645532E+03  0.25500000920E-02 0. -1.
    10030    2    1    2    0    0  0.00000000000E+00  0.00000000000E+00  0.44103832801E+03  0.23514312386E+04  0.23096999942E+04 0.  0.
        5    1    3    3  502    0 -0.58082268035E+03  0.35998699530E+03 -0.72727453058E+03  0.99794586808E+03  0.46999998093E+01 0. -1.
       -5    1    3    3    0  502  0.58082268035E+03 -0.35998699530E+03  0.11683128586E+04  0.13534853706E+04  0.46999998093E+01 0.  1.
</event>
<event>
 5   0  0.3338758E-06  0.2297820E+04  0.7818609E-02  0.8478781E-01
       -1   -1    0    0    0  501  0.00000000000E+00  0.00000000000E+00  0.78680649986E+03  0.78680649987E+03  0.50400001928E-02 0. -1.
        1   -1    0    0  501    0  0.00000000000E+00  0.00000000000E+00 -0.16776605556E+04  0.16776605556E+04  0.50400001928E-02 0.  1.
    10030    2    1    2    0    0  0.00000000000E+00  0.00000000000E+00 -0.89085405574E+03  0.24644670555E+04  0.22978200362E+04 0.  0.
        5    1    3    3  502    0  0.36802647726E+01 -0.83694517391E+03  0.39872589868E+03  0.92708964009E+03  0.46999998093E+01 0. -1.
       -5    1    3    3    0  502 -0.36802647726E+01  0.83694517391E+03 -0.12895799544E+04  0.15373774154E+04  0.46999998093E+01 0.  1.
</event>
<event>
 5   0  0.3226427E-06  0.2295424E+04  0.7818609E-02  0.8479728E-01
        1   -1    0    0  501    0  0.00000000000E+00  0.00000000000E+00  0.13562760287E+04  0.13562760287E+04  0.50400001928E-02 0.  1.
       -1   -1    0    0    0  501  0.00000000000E+00  0.00000000000E+00 -0.97122000730E+03  0.97122000732E+03  0.50400001928E-02 0. -1.
    10030    2    1    2    0    0  0.00000000000E+00  0.00000000000E+00  0.38505602137E+03  0.23274960360E+04  0.22954236337E+04 0.  0.
        4    1    3    3  502    0  0.13223250450E+03  0.83544811561E+03 -0.59405693486E+03  0.10336170683E+04  0.12699999809E+01 0. -1.
       -4    1    3    3    0  502 -0.13223250450E+03 -0.83544811561E+03  0.97911295623E+03  0.12938789677E+04  0.12699999809E+01 0.  1.
</event>
<event>
 5   0  0.7348107E-06  0.2292405E+04  0.7818609E-02  0.8480922E-01
       -2   -1    0    0    0  501  0.00000000000E+00  0.00000000000E+00  0.16689620915E+04  0.16689620915E+04  0.25500000920E-02 0. -1.
        2   -1    0    0  501    0  0.00000000000E+00  0.00000000000E+00 -0.78718383758E+03  0.78718383758E+03  0.25500000920E-02 0.  1.
    10030    2    1    2    0    0  0.00000000000E+00  0.00000000000E+00  0.88177825394E+03  0.24561459291E+04  0.22924048368E+04 0.  0.
        3    1    3    3  502    0  0.11795536200E+03 -0.80401813441E+03  0.13069721171E+04  0.15390044682E+04  0.10100000352E+00 0. -1.
       -3    1    3    3    0  502 -0.11795536200E+03  0.80401813441E+03 -0.42519386318E+03  0.91714146094E+03  0.10100000352E+00 0.  1.
</event>
<event>
 5   0  0.3195296E-06  0.2302534E+04  0.7818609E-02  0.8476922E-01
       -1   -1    0    0    0  501  0.00000000000E+00  0.00000000000E+00  0.99028441379E+03  0.99028441380E+03  0.50400001928E-02 0.  1.
        1   -1    0    0  501    0  0.00000000000E+00  0.00000000000E+00 -0.13384197977E+04  0.13384197977E+04  0.50400001928E-02 0. -1.
    10030    2    1    2    0    0  0.00000000000E+00  0.00000000000E+00 -0.34813538392E+03  0.23287042115E+04  0.23025344860E+04 0.  0.
        2    1    3    3  502    0  0.13462685234E+03  0.29284411795E+03  0.94372431579E+03  0.99724503058E+03  0.25500000920E-02 0.  1.
       -2    1    3    3    0  502 -0.13462685234E+03 -0.29284411795E+03 -0.12918596997E+04  0.13314591809E+04  0.25500000920E-02 0. -1.
</event>
<event>
 5   0  0.7044981E-06  0.2313640E+04  0.7818609E-02  0.8472563E-01
       -2   -1    0    0    0  501  0.00000000000E+00  0.00000000000E+00  0.59496380787E+03  0.59496380788E+03  0.25500000920E-02 0.  1.
        2   -1    0    0  501    0  0.00000000000E+00  0.00000000000E+00 -0.22492665430E+04  0.22492665430E+04  0.25500000920E-02 0. -1.
    10030    2    1    2    0    0  0.00000000000E+00  0.00000000000E+00 -0.16543027351E+04  0.28442303509E+04  0.23136397190E+04 0.  0.
        4    1    3    3  502    0 -0.95214368446E+02 -0.28762518911E+03 -0.21996253574E+04  0.22203935127E+04  0.12699999809E+01 0. -1.
       -4    1    3    3    0  502  0.95214368446E+02  0.28762518911E+03  0.54532262230E+03  0.62383683817E+03  0.12699999809E+01 0.  1.
</event>
<event>
 5   0  0.3226427E-06  0.2298310E+04  0.7818609E-02  0.8478588E-01
       -1   -1    0    0    0  501  0.00000000000E+00  0.00000000000E+00  0.14035311957E+04  0.14035311958E+04  0.50400001928E-02 0.  1.
        1   -1    0    0  501    0  0.00000000000E+00  0.00000000000E+00 -0.94088173233E+03  0.94088173234E+03  0.50400001928E-02 0. -1.
    10030    2    1    2    0    0  0.00000000000E+00  0.00000000000E+00  0.46264946342E+03  0.23444129281E+04  0.22983096944E+04 0.  0.
        4    1    3    3  502    0  0.11255046263E+04 -0.51340422612E+02  0.60459055433E+00  0.11266758546E+04  0.12699999809E+01 0.  1.
       -4    1    3    3    0  502 -0.11255046263E+04  0.51340422612E+02  0.46204487287E+03  0.12177370735E+04  0.12699999809E+01 0. -1.
</event>
<event>
 5   0  0.3184492E-06  0.2300542E+04  0.7818609E-02  0.8477707E-01
        1   -1    0    0  501    0  0.00000000000E+00  0.00000000000E+00  0.21074316915E+04  0.21074316915E+04  0.50400001928E-02 0. -1.
       -1   -1    0    0    0  501  0.00000000000E+00  0.00000000000E+00 -0.62783711656E+03  0.62783711658E+03  0.50400001928E-02 0.  1.
    10030    2    1    2    0    0  0.00000000000E+00  0.00000000000E+00  0.14795945750E+04  0.27352688081E+04  0.23005424026E+04 0.  0.
        1    1    3    3  502    0  0.34829191612E+03  0.98977057790E+03  0.17937778364E+03  0.10644855307E+04  0.50400001928E-02 0. -1.
       -1    1    3    3    0  502 -0.34829191612E+03 -0.98977057790E+03  0.13002167913E+04  0.16707832774E+04  0.50400001928E-02 0.  1.
</event>
<event>
 5   0  0.3338758E-06  0.2299705E+04  0.7818609E-02  0.8478037E-01
       -1   -1    0    0    0  501  0.00000000000E+00  0.00000000000E+00  0.13729299402E+04  0.13729299402E+04  0.50400001928E-02 0.  1.
        1   -1    0    0  501    0  0.00000000000E+00  0.00000000000E+00 -0.96302154704E+03  0.96302154705E+03  0.50400001928E-02 0. -1.
    10030    2    1    2    0    0  0.00000000000E+00  0.00000000000E+00  0.40990839318E+03  0.23359514873E+04  0.22997052985E+04 0.  0.
        5    1    3    3  502    0 -0.43300541944E+03  0.30753861505E+03  0.12408640012E+04  0.13497552565E+04  0.46999998093E+01 0.  1.
       -5    1    3    3    0  502  0.43300541944E+03 -0.30753861505E+03 -0.83095560804E+03  0.98619623075E+03  0.46999998093E+01 0. -1.
</event>
<event>
 5   0  0.3238713E-06  0.2302084E+04  0.7818609E-02  0.8477100E-01
        1   -1    0    0  501    0  0.00000000000E+00  0.00000000000E+00  0.21861140731E+04  0.21861140731E+04  0.50400001928E-02 0. -1.
       -1   -1    0    0    0  501  0.00000000000E+00  0.00000000000E+00 -0.60605145221E+03  0.60605145223E+03  0.50400001928E-02 0.  1.
    10030    2    1    2    0    0  0.00000000000E+00  0.00000000000E+00  0.15800626209E+04  0.27921655253E+04  0.23020839331E+04 0.  0.
        3    1    3    3  502    0  0.86600293371E+03  0.63484442043E+03  0.12929171582E+04  0.16806615684E+04  0.10100000352E+00 0. -1.
       -3    1    3    3    0  502 -0.86600293371E+03 -0.63484442043E+03  0.28714546270E+03  0.11115039569E+04  0.10100000352E+00 0.  1.
</event>
<event>
 5   0  0.7003852E-06  0.2298148E+04  0.7818609E-02  0.8478652E-01
       -2   -1    0    0    0  501  0.00000000000E+00  0.00000000000E+00  0.62526364307E+03  0.62526364307E+03  0.25500000920E-02 0.  1.
        2   -1    0    0  501    0  0.00000000000E+00  0.00000000000E+00 -0.21117025865E+04  0.21117025865E+04  0.25500000920E-02 0. -1.
    10030    2    1    2    0    0  0.00000000000E+00  0.00000000000E+00 -0.14864389434E+04  0.27369662295E+04  0.22981478214E+04 0.  0.
        2    1    3    3  502    0 -0.51296563234E+03  0.10225048780E+04 -0.87215473568E+03  0.14385075073E+04  0.25500000920E-02 0. -1.
       -2    1    3    3    0  502  0.51296563234E+03 -0.10225048780E+04 -0.61428420772E+03  0.12984587223E+04  0.25500000920E-02 0.  1.
</event>
<event>
 5   0  0.3226427E-06  0.2298346E+04  0.7818609E-02  0.8478573E-01
        1   -1    0    0  501    0  0.00000000000E+00  0.00000000000E+00  0.10128102223E+04  0.10128102224E+04  0.50400001928E-02 0. -1.
       -1   -1    0    0    0  501  0.00000000000E+00  0.00000000000E+00 -0.13038959331E+04  0.13038959331E+04  0.50400001928E-02 0.  1.
    10030    2    1    2    0    0  0.00000000000E+00  0.00000000000E+00 -0.29108571079E+03  0.23167061555E+04  0.22983464752E+04 0.  0.
        4    1    3    3  502    0 -0.76647957090E+03  0.18097029774E+03  0.69801521450E+03  0.10523630713E+04  0.12699999809E+01 0. -1.
       -4    1    3    3    0  502  0.76647957090E+03 -0.18097029774E+03 -0.98910092528E+03  0.12643430842E+04  0.12699999809E+01 0.  1.
</event>
<event>
 5   0  0.7348107E-06  0.2299662E+04  0.7818609E-02  0.8478055E-01
       -2   -1    0    0    0  501  0.00000000000E+00  0.00000000000E+00  0.14186168098E+04  0.14186168098E+04  0.25500000920E-02 0. -1.
        2   -1    0    0  501    0  0.00000000000E+00  0.00000000000E+00 -0.93197172677E+03  0.93197172677E+03  0.25500000920E-02 0.  1.
    10030    2    1    2    0    0  0.00000000000E+00  0.00000000000E+00  0.48664508299E+03  0.23505885365E+04  0.22996615036E+04 0.  0.
        3    1    3    3  502    0 -0.66673067680E+03 -0.62421422819E+03 -0.47067188075E+03  0.10274751713E+04  0.10100000352E+00 0.  1.
       -3    1    3    3    0  502  0.66673067680E+03  0.62421422819E+03  0.95731696374E+03  0.13231133653E+04  0.10100000352E+00 0. -1.
</event>
<event>
 5   0  0.7044981E-06  0.2301831E+04  0.7818609E-02  0.8477200E-01
       -2   -1    0    0    0  501  0.00000000000E+00  0.00000000000E+00  0.63458323190E+03  0.63458323191E+03  0.25500000920E-02 0. -1.
        2   -1    0    0  501    0  0.00000000000E+00  0.00000000000E+00 -0.20873645141E+04  0.20873645141E+04  0.25500000920E-02 0.  1.
    10030    2    1    2    0    0  0.00000000000E+00  0.00000000000E+00 -0.14527812822E+04  0.27219477460E+04  0.23018310273E+04 0.  0.
        4    1    3    3  502    0 -0.63631669897E+02 -0.11353196384E+04 -0.51616491480E+03  0.12487703964E+04  0.12699999809E+01 0.  1.
       -4    1    3    3    0  502  0.63631669897E+02  0.11353196384E+04 -0.93661636738E+03  0.14731773496E+04  0.12699999809E+01 0. -1.
</event>
<event>
 5   0  0.3184492E-06  0.2299043E+04  0.7818609E-02  0.8478298E-01
       -1   -1    0    0    0  501  0.00000000000E+00  0.00000000000E+00  0.25092877388E+04  0.25092877388E+04  0.50400001928E-02 0. -1.
        1   -1    0    0  501    0  0.00000000000E+00  0.00000000000E+00 -0.52660353564E+03  0.52660353567E+03  0.50400001928E-02 0.  1.
    10030    2    1    2    0    0  0.00000000000E+00  0.00000000000E+00  0.19826842032E+04  0.30358912745E+04  0.22990431012E+04 0.  0.
        1    1    3    3  502    0  0.10904476596E+04  0.24138672079E+03  0.13506937652E+04  0.17526315342E+04  0.50400001928E-02 0. -1.
       -1    1    3    3    0  502 -0.10904476596E+04 -0.24138672079E+03  0.63199043799E+03  0.12832597403E+04  0.50400001928E-02 0.  1.
</event>
<event>
 5   0  0.7497344E-06  0.2282809E+04  0.7818609E-02  0.8484730E-01
        2   -1    0    0  501    0  0.00000000000E+00  0.00000000000E+00  0.13105741602E+04  0.13105741602E+04  0.25500000920E-02 0. -1.
       -2   -1    0    0    0  501  0.00000000000E+00  0.00000000000E+00 -0.99407168834E+03  0.99407168835E+03  0.25500000920E-02 0.  1.
    10030    2    1    2    0    0  0.00000000000E+00  0.00000000000E+00  0.31650247185E+03  0.23046458485E+04  0.22828093816E+04 0.  0.
        5    1    3    3  502    0  0.19480673260E+03 -0.52433012397E+03 -0.84620862802E+03  0.10143780726E+04  0.46999998093E+01 0.  1.
       -5    1    3    3    0  502 -0.19480673260E+03  0.52433012397E+03  0.11627110999E+04  0.12902677760E+04  0.46999998093E+01 0. -1.
</event>
<event>
 5   0  0.7242214E-06  0.2299909E+04  0.7818609E-02  0.8477957E-01
       -2   -1    0    0    0  501  0.00000000000E+00  0.00000000000E+00  0.74958495765E+03  0.74958495765E+03  0.25500000920E-02 0.  1.
        2   -1    0    0  501    0  0.00000000000E+00  0.00000000000E+00 -0.17641695276E+04  0.17641695276E+04  0.25500000920E-02 0. -1.
    10030    2    1    2    0    0  0.00000000000E+00  0.00000000000E+00 -0.10145845700E+04  0.25137544853E+04  0.22999086422E+04 0.  0.
        1    1    3    3  502    0  0.82755718700E+03  0.34025839728E+03  0.28220584232E+03  0.93822535253E+03  0.50400001928E-02 0. -1.
       -1    1    3    3    0  502 -0.82755718700E+03 -0.34025839728E+03 -0.12967904123E+04  0.15755291327E+04  0.50400001928E-02 0.  1.
</event>
<event>
 5   0  0.7348107E-06  0.2302542E+04  0.7818609E-02  0.8476919E-01
        2   -1    0    0  501    0  0.00000000000E+00  0.00000000000E+00  0.14594376896E+04  0.14594376896E+04  0.25500000920E-02 0.  1.
       -2   -1    0    0    0  501  0.00000000000E+00  0.00000000000E+00 -0.90817523944E+03  0.90817523944E+03  0.25500000920E-02 0. -1.
    10030    2    1    2    0    0  0.00000000000E+00  0.00000000000E+00  0.55126245019E+03  0.23676129291E+04  0.23025422239E+04 0.  0.
        3    1    3    3  502    0  0.77139513975E+03 -0.82812994522E+03  0.49272690846E+03  0.12343538732E+04  0.10100000352E+00 0.  1.
       -3    1    3    3    0  502 -0.77139513975E+03  0.82812994522E+03  0.58535541723E+02  0.11332590558E+04  0.10100000352E+00 0. -1.
</event>
<event>
 5   0  0.3184492E-06  0.2300335E+04  0.7818609E-02  0.8477789E-01
       -1   -1    0    0    0  501  0.00000000000E+00  0.00000000000E+00  0.94064425439E+03  0.94064425441E+03  0.50400001928E-02 0. -1.
        1   -1    0    0  501    0  0.00000000000E+00  0.00000000000E+00 -0.14063612446E+04  0.14063612446E+04  0.50400001928E-02 0.  1.
    10030    2    1    2    0    0  0.00000000000E+00  0.00000000000E+00 -0.46571699020E+03  0.23470054990E+04  0.23003353011E+04 0.  0.
        1    1    3    3  502    0 -0.68892006455E+03 -0.76594088717E+03  0.28899617483E+03  0.10699509741E+04  0.50400001928E-02 0. -1.
       -1    1    3    3    0  502  0.68892006455E+03  0.76594088717E+03 -0.75471316503E+03  0.12770545249E+04  0.50400001928E-02 0.  1.
</event>
<event>
 5   0  0.3195296E-06  0.2299854E+04  0.7818609E-02  0.8477979E-01
       -1   -1    0    0    0  501  0.00000000000E+00  0.00000000000E+00  0.85868043291E+03  0.85868043292E+03  0.50400001928E-02 0. -1.
        1   -1    0    0  501    0  0.00000000000E+00  0.00000000000E+00 -0.15399579338E+04  0.15399579338E+04  0.50400001928E-02 0.  1.
    10030    2    1    2    0    0  0.00000000000E+00  0.00000000000E+00 -0.68127750084E+03  0.23986383667E+04  0.22998536869E+04 0.  0.
        2    1    3    3  502    0 -0.20111763174E+03 -0.42912564598E+03  0.75209221334E+03  0.88895434034E+03  0.25500000920E-02 0. -1.
       -2    1    3    3    0  502  0.20111763174E+03  0.42912564598E+03 -0.14333697142E+04  0.15096840263E+04  0.25500000920E-02 0.  1.
</event>
<event>
 5   0  0.7242214E-06  0.2298171E+04  0.7818609E-02  0.8478643E-01
       -2   -1    0    0    0  501  0.00000000000E+00  0.00000000000E+00  0.60365193403E+03  0.60365193403E+03  0.25500000920E-02 0. -1.
        2   -1    0    0  501    0  0.00000000000E+00  0.00000000000E+00 -0.21873491754E+04  0.21873491754E+04  0.25500000920E-02 0.  1.
    10030    2    1    2    0    0  0.00000000000E+00  0.00000000000E+00 -0.15836972413E+04  0.27910011094E+04  0.22981710642E+04 0.  0.
        1    1    3    3  502    0 -0.44010923213E+03 -0.18633160926E+02 -0.20807365424E+04  0.21268539888E+04  0.50400001928E-02 0.  1.
       -1    1    3    3    0  502  0.44010923213E+03  0.18633160926E+02  0.49703930108E+03  0.66414712055E+03  0.50400001928E-02 0. -1.
</event>
<event>
 5   0  0.7348107E-06  0.2304812E+04  0.7818609E-02  0.8476026E-01
        2   -1    0    0  501    0  0.00000000000E+00  0.00000000000E+00  0.17131776933E+04  0.17131776933E+04  0.25500000920E-02 0.  1.
       -2   -1    0    0    0  501  0.00000000000E+00  0.00000000000E+00 -0.77519095360E+03  0.77519095361E+03  0.25500000920E-02 0. -1.
    10030    2    1    2    0    0  0.00000000000E+00  0.00000000000E+00  0.93798673966E+03  0.24883686469E+04  0.23048122264E+04 0.  0.
        3    1    3    3  502    0 -0.81820294121E+03 -0.80269793612E+03  0.59791804309E+03  0.12927822810E+04  0.10100000352E+00 0. -1.
       -3    1    3    3    0  502  0.81820294121E+03  0.80269793612E+03  0.34006869657E+03  0.11955863659E+04  0.10100000352E+00 0.  1.
</event>
<event>
 5   0  0.3338758E-06  0.2264425E+04  0.7818609E-02  0.8492081E-01
       -1   -1    0    0    0  501  0.00000000000E+00  0.00000000000E+00  0.10094214877E+04  0.10094214877E+04  0.50400001928E-02 0.  1.
        1   -1    0    0  501    0  0.00000000000E+00  0.00000000000E+00 -0.12699408462E+04  0.12699408462E+04  0.50400001928E-02 0. -1.
    10030    2    1    2    0    0  0.00000000000E+00  0.00000000000E+00 -0.26051935846E+03  0.22793623339E+04  0.22644253826E+04 0.  0.
        5    1    3    3  502    0  0.57107509087E+03 -0.29146939033E+03 -0.10695830817E+04  0.12470409871E+04  0.46999998093E+01 0. -1.
       -5    1    3    3    0  502 -0.57107509087E+03  0.29146939033E+03  0.80906372320E+03  0.10323213468E+04  0.46999998093E+01 0.  1.
</event>
<event>
 5   0  0.7348107E-06  0.2297159E+04  0.7818609E-02  0.8479042E-01
        2   -1    0    0  501    0  0.00000000000E+00  0.00000000000E+00  0.15587480650E+04  0.15587480650E+04  0.25500000920E-02 0. -1.
       -2   -1    0    0    0  501  0.00000000000E+00  0.00000000000E+00 -0.84634261854E+03  0.84634261854E+03  0.25500000920E-02 0.  1.
    10030    2    1    2    0    0  0.00000000000E+00  0.00000000000E+00  0.71240544643E+03  0.24050906835E+04  0.22971590445E+04 0.  0.
        3    1    3    3  502    0  0.19404762566E+02  0.82793539611E+03  0.11894483152E+04  0.14493587788E+04  0.10100000352E+00 0. -1.
       -3    1    3    3    0  502 -0.19404762566E+02 -0.82793539611E+03 -0.47704286874E+03  0.95573190475E+03  0.10100000352E+00 0.  1.
</event>
<event>
 5   0  0.3226427E-06  0.2305020E+04  0.7818609E-02  0.8475944E-01
       -1   -1    0    0    0  501  0.00000000000E+00  0.00000000000E+00  0.81593494083E+03  0.81593494084E+03  0.50400001928E-02 0. -1.
        1   -1    0    0  501    0  0.00000000000E+00  0.00000000000E+00 -0.16279233290E+04  0.16279233291E+04  0.50400001928E-02 0.  1.
    10030    2    1    2    0    0  0.00000000000E+00  0.00000000000E+00 -0.81198838822E+03  0.24438582699E+04  0.23050201953E+04 0.  0.
        4    1    3    3  502    0 -0.60245163531E+03 -0.61830820327E+03 -0.12155463513E+04  0.14909082977E+04  0.12699999809E+01 0.  1.
       -4    1    3    3    0  502  0.60245163531E+03  0.61830820327E+03  0.40355796305E+03  0.95294997222E+03  0.12699999809E+01 0. -1.
</event>
<event>
 5   0  0.3226427E-06  0.2297691E+04  0.7818609E-02  0.8478832E-01
        1   -1    0    0  501    0  0.00000000000E+00  0.00000000000E+00  0.27334372600E+04  0.27334372600E+04  0.50400001928E-02 0.  1.
       -1   -1    0    0    0  501  0.00000000000E+00  0.00000000000E+00 -0.48285212690E+03  0.48285212693E+03  0.50400001928E-02 0. -1.
    10030    2    1    2    0    0  0.00000000000E+00  0.00000000000E+00  0.22505851331E+04  0.32162893869E+04  0.22976910104E+04 0.  0.
        4    1    3    3  502    0 -0.69574333076E+03  0.42532857028E+02  0.24036150093E+04  0.25026455107E+04  0.12699999809E+01 0.  1.
       -4    1    3    3    0  502  0.69574333076E+03 -0.42532857028E+02 -0.15302987620E+03  0.71364387627E+03  0.12699999809E+01 0. -1.
</event>
<event>
 5   0  0.7348107E-06  0.2304166E+04  0.7818609E-02  0.8476280E-01
        2   -1    0    0  501    0  0.00000000000E+00  0.00000000000E+00  0.22475070368E+04  0.22475070368E+04  0.25500000920E-02 0.  1.
       -2   -1    0    0    0  501  0.00000000000E+00  0.00000000000E+00 -0.59056341853E+03  0.59056341853E+03  0.25500000920E-02 0. -1.
    10030    2    1    2    0    0  0.00000000000E+00  0.00000000000E+00  0.16569436183E+04  0.28380704554E+04  0.23041661736E+04 0.  0.
        3    1    3    3  502    0  0.34516497119E+03 -0.99841956700E+02 -0.51978271721E+03  0.63188713942E+03  0.10100000352E+00 0. -1.
       -3    1    3    3    0  502 -0.34516497119E+03  0.99841956700E+02  0.21767263355E+04  0.22061833160E+04  0.10100000352E+00 0.  1.
</event>
<event>
 5   0  0.3238713E-06  0.2295603E+04  0.7818609E-02  0.8479657E-01
        1   -1    0    0  501    0  0.00000000000E+00  0.00000000000E+00  0.10032239648E+04  0.10032239648E+04  0.50400001928E-02 0.  1.
       -1   -1    0    0    0  501  0.00000000000E+00  0.00000000000E+00 -0.13132150005E+04  0.13132150005E+04  0.50400001928E-02 0. -1.
    10030    2    1    2    0    0  0.00000000000E+00  0.00000000000E+00 -0.30999103576E+03  0.23164389653E+04  0.22956034148E+04 0.  0.
        3    1    3    3  502    0 -0.87623974311E+03  0.16579719399E+03  0.57417221676E+03  0.10606406279E+04  0.10100000352E+00 0.  1.
       -3    1    3    3    0  502  0.87623974311E+03 -0.16579719399E+03 -0.88416325251E+03  0.12557983374E+04  0.10100000352E+00 0. -1.
</event>
<event>
 5   0  0.3184492E-06  0.2240925E+04  0.7818609E-02  0.8501585E-01
       -1   -1    0    0    0  501  0.00000000000E+00  0.00000000000E+00  0.48252304443E+03  0.48252304446E+03  0.50400001928E-02 0.  1.
        1   -1    0    0  501    0  0.00000000000E+00  0.00000000000E+00 -0.26018155917E+04  0.26018155917E+04  0.50400001928E-02 0. -1.
    10030    2    1    2    0    0  0.00000000000E+00  0.00000000000E+00 -0.21192925472E+04  0.30843386361E+04  0.22409247916E+04 0.  0.
        1    1    3    3  502    0 -0.88968294331E+03  0.40529783645E+02 -0.12385973769E+03  0.89917720035E+03  0.50400001928E-02 0.  1.
       -1    1    3    3    0  502  0.88968294331E+03 -0.40529783645E+02 -0.19954328096E+04  0.21851614358E+04  0.50400001928E-02 0. -1.
</event>
<event>
 5   0  0.3226427E-06  0.2239711E+04  0.7818609E-02  0.8502079E-01
        1   -1    0    0  501    0  0.00000000000E+00  0.00000000000E+00  0.20817088586E+04  0.20817088586E+04  0.50400001928E-02 0. -1.
       -1   -1    0    0    0  501  0.00000000000E+00  0.00000000000E+00 -0.60242657983E+03  0.60242657985E+03  0.50400001928E-02 0.  1.
    10030    2    1    2    0    0  0.00000000000E+00  0.00000000000E+00  0.14792822788E+04  0.26841354385E+04  0.22397113635E+04 0.  0.
        4    1    3    3  502    0  0.16465215934E+03 -0.94140999668E+03  0.40111532926E+02  0.95654255702E+03  0.12699999809E+01 0.  1.
       -4    1    3    3    0  502 -0.16465215934E+03  0.94140999668E+03  0.14391707459E+04  0.17275928815E+04  0.12699999809E+01 0. -1.
</event>
<event>
 5   0  0.7003852E-06  0.2300844E+04  0.7818609E-02  0.8477588E-01
       -2   -1    0    0    0  501  0.00000000000E+00  0.00000000000E+00  0.10532882415E+04  0.10532882415E+04  0.25500000920E-02 0.  1.
        2   -1    0    0  501    0  0.00000000000E+00  0.00000000000E+00 -0.12565135074E+04  0.12565135074E+04  0.25500000920E-02 0. -1.
    10030    2    1    2    0    0  0.00000000000E+00  0.00000000000E+00 -0.20322526590E+03  0.23098017489E+04  0.23008441083E+04 0.  0.
        2    1    3    3  502    0 -0.43067274733E+02  0.16162412430E+03 -0.12442414515E+04  0.12554337646E+04  0.25500000920E-02 0. -1.
       -2    1    3    3    0  502  0.43067274733E+02 -0.16162412430E+03  0.10410161856E+04  0.10543679843E+04  0.25500000920E-02 0.  1.
</event>
<event>
 5   0  0.7003852E-06  0.2296076E+04  0.7818609E-02  0.8479470E-01
       -2   -1    0    0    0  501  0.00000000000E+00  0.00000000000E+00  0.80615357625E+03  0.80615357625E+03  0.25500000920E-02 0. -1.
        2   -1    0    0  501    0  0.00000000000E+00  0.00000000000E+00 -0.16349140223E+04  0.16349140223E+04  0.25500000920E-02 0.  1.
    10030    2    1    2    0    0  0.00000000000E+00  0.00000000000E+00 -0.82876044601E+03  0.24410675985E+04  0.22960764673E+04 0.  0.
        2    1    3    3  502    0  0.46117486043E+03  0.94728250182E+03 -0.89920967836E+03  0.13851369737E+04  0.25500000920E-02 0.  1.
       -2    1    3    3    0  502 -0.46117486043E+03 -0.94728250182E+03  0.70449232353E+02  0.10559306248E+04  0.25500000920E-02 0. -1.
</event>
<event>
 5   0  0.7003852E-06  0.2298420E+04  0.7818609E-02  0.8478544E-01
       -2   -1    0    0    0  501  0.00000000000E+00  0.00000000000E+00  0.14047445793E+04  0.14047445793E+04  0.25500000920E-02 0. -1.
        2   -1    0    0  501    0  0.00000000000E+00  0.00000000000E+00 -0.94015913963E+03  0.94015913964E+03  0.25500000920E-02 0.  1.
    10030    2    1    2    0    0  0.00000000000E+00  0.00000000000E+00  0.46458543970E+03  0.23449037190E+04  0.22984198530E+04 0.  0.
        2    1    3    3  502    0  0.11476871388E+04 -0.27356844561E+02  0.28578682082E+03  0.11830504100E+04  0.25500000920E-02 0. -1.
       -2    1    3    3    0  502 -0.11476871388E+04  0.27356844561E+02  0.17879861888E+03  0.11618533090E+04  0.25500000920E-02 0.  1.
</event>
<event>
 5   0  0.3195296E-06  0.2294243E+04  0.7818609E-02  0.8480195E-01
        1   -1    0    0  501    0  0.00000000000E+00  0.00000000000E+00  0.13237907042E+04  0.13237907042E+04  0.50400001928E-02 0.  1.
       -1   -1    0    0    0  501  0.00000000000E+00  0.00000000000E+00 -0.99402978339E+03  0.99402978340E+03  0.50400001928E-02 0. -1.
    10030    2    1    2    0    0  0.00000000000E+00  0.00000000000E+00  0.32976092079E+03  0.23178204876E+04  0.22942426959E+04 0.  0.
        2    1    3    3  502    0 -0.76402298056E+03  0.83943981471E+03 -0.26460901286E+01  0.11350759090E+04  0.25500000920E-02 0.  1.
       -2    1    3    3    0  502  0.76402298056E+03 -0.83943981471E+03  0.33240701092E+03  0.11827445786E+04  0.25500000920E-02 0. -1.
</event>
<event>
 5   0  0.3226427E-06  0.2299778E+04  0.7818609E-02  0.8478009E-01
        1   -1    0    0  501    0  0.00000000000E+00  0.00000000000E+00  0.14283426495E+04  0.14283426495E+04  0.50400001928E-02 0. -1.
       -1   -1    0    0    0  501  0.00000000000E+00  0.00000000000E+00 -0.92571974302E+03  0.92571974303E+03  0.50400001928E-02 0.  1.
    10030    2    1    2    0    0  0.00000000000E+00  0.00000000000E+00  0.50262290650E+03  0.23540623926E+04  0.22997782419E+04 0.  0.
        4    1    3    3  502    0 -0.29687744663E+03  0.16614286327E+03 -0.87302512276E+03  0.93697072911E+03  0.12699999809E+01 0.  1.
       -4    1    3    3    0  502  0.29687744663E+03 -0.16614286327E+03  0.13756480293E+04  0.14170916635E+04  0.12699999809E+01 0. -1.
</event>
<event>
 5   0  0.3238713E-06  0.2297776E+04  0.7818609E-02  0.8478798E-01
        1   -1    0    0  501    0  0.00000000000E+00  0.00000000000E+00  0.20466295916E+04  0.20466295916E+04  0.50400001928E-02 0.  1.
       -1   -1    0    0    0  501  0.00000000000E+00  0.00000000000E+00 -0.64493535157E+03  0.64493535159E+03  0.50400001928E-02 0. -1.
    10030    2    1    2    0    0  0.00000000000E+00  0.00000000000E+00  0.14016942400E+04  0.26915649432E+04  0.22977761207E+04 0.  0.
        3    1    3    3  502    0 -0.16332551882E+03 -0.21602729128E+03  0.20087058726E+04  0.20268799442E+04  0.10100000352E+00 0.  1.
       -3    1    3    3    0  502  0.16332551882E+03  0.21602729128E+03 -0.60701163250E+03  0.66468499898E+03  0.10100000352E+00 0. -1.
</event>
<event>
 5   0  0.7497344E-06  0.2292931E+04  0.7818609E-02  0.8480713E-01
       -2   -1    0    0    0  501  0.00000000000E+00  0.00000000000E+00  0.10089611168E+04  0.10089611168E+04  0.25500000920E-02 0.  1.
        2   -1    0    0  501    0  0.00000000000E+00  0.00000000000E+00 -0.13027096021E+04  0.13027096021E+04  0.25500000920E-02 0. -1.
    10030    2    1    2    0    0  0.00000000000E+00  0.00000000000E+00 -0.29374848526E+03  0.23116707189E+04  0.22929311677E+04 0.  0.
        5    1    3    3  502    0  0.35148956185E+03  0.10909947229E+04 -0.17045013019E+03  0.11588311932E+04  0.46999998093E+01 0.  1.
       -5    1    3    3    0  502 -0.35148956185E+03 -0.10909947229E+04 -0.12329835507E+03  0.11528395256E+04  0.46999998093E+01 0. -1.
</event>
<event>
 5   0  0.3226427E-06  0.2298440E+04  0.7818609E-02  0.8478537E-01
       -1   -1    0    0    0  501  0.00000000000E+00  0.00000000000E+00  0.12533007685E+04  0.12533007685E+04  0.50400001928E-02 0.  1.
        1   -1    0    0  501    0  0.00000000000E+00  0.00000000000E+00 -0.10537823516E+04  0.10537823516E+04  0.50400001928E-02 0. -1.
    10030    2    1    2    0    0  0.00000000000E+00  0.00000000000E+00  0.19951841695E+03  0.23070831201E+04  0.22984396717E+04 0.  0.
        4    1    3    3  502    0  0.22280627141E+03  0.96665949669E+03  0.68214053982E+03  0.12039063693E+04  0.12699999809E+01 0.  1.
       -4    1    3    3    0  502 -0.22280627141E+03 -0.96665949669E+03 -0.48262212288E+03  0.11031767508E+04  0.12699999809E+01 0. -1.
</event>
<event>
 5   0  0.7497344E-06  0.2293212E+04  0.7818609E-02  0.8480602E-01
        2   -1    0    0  501    0  0.00000000000E+00  0.00000000000E+00  0.18200088164E+04  0.18200088164E+04  0.25500000920E-02 0. -1.
       -2   -1    0    0    0  501  0.00000000000E+00  0.00000000000E+00 -0.72236185534E+03  0.72236185535E+03  0.25500000920E-02 0.  1.
    10030    2    1    2    0    0  0.00000000000E+00  0.00000000000E+00  0.10976469610E+04  0.25423706717E+04  0.22932116739E+04 0.  0.
        5    1    3    3  502    0  0.47541165181E+03 -0.86841633658E+03 -0.92394311492E+02  0.99434499602E+03  0.46999998093E+01 0.  1.
       -5    1    3    3    0  502 -0.47541165181E+03  0.86841633658E+03  0.11900412725E+04  0.15480256757E+04  0.46999998093E+01 0. -1.
</event>
<event>
 5   0  0.3226427E-06  0.2300386E+04  0.7818609E-02  0.8477769E-01
       -1   -1    0    0    0  501  0.00000000000E+00  0.00000000000E+00  0.75548874346E+03  0.75548874348E+03  0.50400001928E-02 0. -1.
        1   -1    0    0  501    0  0.00000000000E+00  0.00000000000E+00 -0.17511094761E+04  0.17511094761E+04  0.50400001928E-02 0.  1.
    10030    2    1    2    0    0  0.00000000000E+00  0.00000000000E+00 -0.99562073265E+03  0.25065982196E+04  0.23003856179E+04 0.  0.
        4    1    3    3  502    0 -0.76383241232E+03 -0.35758155062E+03 -0.13499898762E+04  0.15917847839E+04  0.12699999809E+01 0.  1.
       -4    1    3    3    0  502  0.76383241232E+03  0.35758155062E+03  0.35436914352E+03  0.91481343575E+03  0.12699999809E+01 0. -1.
</event>
<event>
 5   0  0.2519625E-06  0.2333437E+04  0.7818609E-02  0.8464853E-01
        3   -1    0    0  501    0  0.00000000000E+00  0.00000000000E+00  0.68633140733E+03  0.68633141477E+03  0.10100000352E+00 0. -1.
       -3   -1    0    0    0  501  0.00000000000E+00  0.00000000000E+00 -0.19833448694E+04  0.19833448720E+04  0.10100000352E+00 0.  1.
    10030    2    1    2    0    0  0.00000000000E+00  0.00000000000E+00 -0.12970134620E+04  0.26696762867E+04  0.23334368548E+04 0.  0.
        2    1    3    3  502    0 -0.82533238498E+03 -0.41011950483E+03  0.17003021955E+03  0.93716691657E+03  0.25500000920E-02 0. -1.
       -2    1    3    3    0  502  0.82533238498E+03  0.41011950483E+03 -0.14670436816E+04  0.17325093702E+04  0.25500000920E-02 0.  1.
</event>
<event>
 5   0  0.3238713E-06  0.2296298E+04  0.7818609E-02  0.8479382E-01
        1   -1    0    0  501    0  0.00000000000E+00  0.00000000000E+00  0.16001942214E+04  0.16001942214E+04  0.50400001928E-02 0. -1.
       -1   -1    0    0    0  501  0.00000000000E+00  0.00000000000E+00 -0.82380371589E+03  0.82380371590E+03  0.50400001928E-02 0.  1.
    10030    2    1    2    0    0  0.00000000000E+00  0.00000000000E+00  0.77639050547E+03  0.24239979373E+04  0.22962978428E+04 0.  0.
        3    1    3    3  502    0  0.75950006640E+03  0.75556328664E+03  0.82411249547E+03  0.13516203781E+04  0.10100000352E+00 0.  1.
       -3    1    3    3    0  502 -0.75950006640E+03 -0.75556328664E+03 -0.47721990002E+02  0.10723775592E+04  0.10100000352E+00 0. -1.
</event>
<event>
 5   0  0.3238713E-06  0.2296558E+04  0.7818609E-02  0.8479280E-01
        1   -1    0    0  501    0  0.00000000000E+00  0.00000000000E+00  0.12565490546E+04  0.12565490546E+04  0.50400001928E-02 0.  1.
       -1   -1    0    0    0  501  0.00000000000E+00  0.00000000000E+00 -0.10493375937E+04  0.10493375937E+04  0.50400001928E-02 0. -1.
    10030    2    1    2    0    0  0.00000000000E+00  0.00000000000E+00  0.20721146091E+03  0.23058866484E+04  0.22965575642E+04 0.  0.
        3    1    3    3  502    0 -0.10050566075E+03 -0.97480727435E+03 -0.49731819325E+03  0.10989431312E+04  0.10100000352E+00 0. -1.
       -3    1    3    3    0  502  0.10050566075E+03  0.97480727435E+03  0.70452965416E+03  0.12069435172E+04  0.10100000352E+00 0.  1.
</event>
<event>
 5   0  0.7044981E-06  0.2300848E+04  0.7818609E-02  0.8477587E-01
       -2   -1    0    0    0  501  0.00000000000E+00  0.00000000000E+00  0.74487608070E+03  0.74487608071E+03  0.25500000920E-02 0.  1.
        2   -1    0    0  501    0  0.00000000000E+00  0.00000000000E+00 -0.17767724298E+04  0.17767724298E+04  0.25500000920E-02 0. -1.
    10030    2    1    2    0    0  0.00000000000E+00  0.00000000000E+00 -0.10318963491E+04  0.25216485105E+04  0.23008479166E+04 0.  0.
        4    1    3    3  502    0 -0.62011494600E+03  0.27537758654E+03  0.50223700302E+03  0.84416762644E+03  0.12699999809E+01 0.  1.
       -4    1    3    3    0  502  0.62011494600E+03 -0.27537758654E+03 -0.15341333521E+04  0.16774808840E+04  0.12699999809E+01 0. -1.
</event>
<event>
 5   0  0.7003852E-06  0.2266529E+04  0.7818609E-02  0.8491236E-01
        2   -1    0    0  501    0  0.00000000000E+00  0.00000000000E+00  0.14409497302E+04  0.14409497302E+04  0.25500000920E-02 0.  1.
       -2   -1    0    0    0  501  0.00000000000E+00  0.00000000000E+00 -0.89127932474E+03  0.89127932474E+03  0.25500000920E-02 0. -1.
    10030    2    1    2    0    0  0.00000000000E+00  0.00000000000E+00  0.54967040546E+03  0.23322290549E+04  0.22665292432E+04 0.  0.
        2    1    3    3  502    0  0.10085572219E+04 -0.45182083383E+03  0.53302475899E+03  0.12269658224E+04  0.25500000920E-02 0.  1.
       -2    1    3    3    0  502 -0.10085572219E+04  0.45182083383E+03  0.16645646469E+02  0.11052632325E+04  0.25500000920E-02 0. -1.
</event>
<event>
 5   0  0.3238713E-06  0.2277646E+04  0.7818609E-02  0.8486787E-01
        1   -1    0    0  501    0  0.00000000000E+00  0.00000000000E+00  0.10859217986E+04  0.10859217986E+04  0.50400001928E-02 0.  1.
       -1   -1    0    0    0  501  0.00000000000E+00  0.00000000000E+00 -0.11943015857E+04  0.11943015857E+04  0.50400001928E-02 0. -1.
    10030    2    1    2    0    0  0.00000000000E+00  0.00000000000E+00 -0.10837978715E+03  0.22802233843E+04  0.22776462640E+04 0.  0.
        3    1    3    3  502    0 -0.13902711735E+03 -0.40575045134E+03  0.10019711532E+04  0.10899120011E+04  0.10100000352E+00 0.  1.
       -3    1    3    3    0  502  0.13902711735E+03  0.40575045134E+03 -0.11103509403E+04  0.11903113832E+04  0.10100000352E+00 0. -1.
</event>
<event>
 5   0  0.7348107E-06  0.2296888E+04  0.7818609E-02  0.8479149E-01
        2   -1    0    0  501    0  0.00000000000E+00  0.00000000000E+00  0.10827632411E+04  0.10827632411E+04  0.25500000920E-02 0. -1.
       -2   -1    0    0    0  501  0.00000000000E+00  0.00000000000E+00 -0.12181088469E+04  0.12181088469E+04  0.25500000920E-02 0.  1.
    10030    2    1    2    0    0  0.00000000000E+00  0.00000000000E+00 -0.13534560581E+03  0.23008720879E+04  0.22968878797E+04 0.  0.
        3    1    3    3  502    0 -0.59291762816E+03  0.55393842223E+03  0.74646347393E+03  0.11025456079E+04  0.10100000352E+00 0. -1.
       -3    1    3    3    0  502  0.59291762816E+03 -0.55393842223E+03 -0.88180907974E+03  0.11983264800E+04  0.10100000352E+00 0.  1.
</event>
<event>
 5   0  0.3184492E-06  0.2297800E+04  0.7818609E-02  0.8478789E-01
       -1   -1    0    0    0  501  0.00000000000E+00  0.00000000000E+00  0.10439026086E+04  0.10439026086E+04  0.50400001928E-02 0.  1.
        1   -1    0    0  501    0  0.00000000000E+00  0.00000000000E+00 -0.12644587368E+04  0.12644587368E+04  0.50400001928E-02 0. -1.
    10030    2    1    2    0    0  0.00000000000E+00  0.00000000000E+00 -0.22055612816E+03  0.23083613454E+04  0.22978004908E+04 0.  0.
        1    1    3    3  502    0 -0.92160590619E+03 -0.65429205187E+03 -0.31742041072E+03  0.11739724241E+04  0.50400001928E-02 0. -1.
       -1    1    3    3    0  502  0.92160590619E+03  0.65429205187E+03  0.96864282553E+02  0.11343889213E+04  0.50400001928E-02 0.  1.
</event>
<event>
 5   0  0.3226427E-06  0.2296817E+04  0.7818609E-02  0.8479177E-01
        1   -1    0    0  501    0  0.00000000000E+00  0.00000000000E+00  0.12921393879E+04  0.12921393879E+04  0.50400001928E-02 0.  1.
       -1   -1    0    0    0  501  0.00000000000E+00  0.00000000000E+00 -0.10206658949E+04  0.10206658950E+04  0.50400001928E-02 0. -1.
    10030    2    1    2    0    0  0.00000000000E+00  0.00000000000E+00  0.27147349291E+03  0.23128052828E+04  0.22968174544E+04 0.  0.
        4    1    3    3  502    0  0.88616388257E+03  0.16984715090E+03 -0.57963542910E+03  0.10724333662E+04  0.12699999809E+01 0. -1.
       -4    1    3    3    0  502 -0.88616388257E+03 -0.16984715090E+03  0.85110892201E+03  0.12403719166E+04  0.12699999809E+01 0.  1.
</event>
<event>
 5   0  0.3338758E-06  0.2299711E+04  0.7818609E-02  0.8478035E-01
       -1   -1    0    0    0  501  0.00000000000E+00  0.00000000000E+00  0.90297828109E+03  0.90297828111E+03  0.50400001928E-02 0. -1.
        1   -1    0    0  501    0  0.00000000000E+00  0.00000000000E+00 -0.14642292473E+04  0.14642292473E+04  0.50400001928E-02 0.  1.
    10030    2    1    2    0    0  0.00000000000E+00  0.00000000000E+00 -0.56125096621E+03  0.23672075284E+04  0.22997105982E+04 0.  0.
        5    1    3    3  502    0 -0.98954838235E+03  0.20579586755E+03 -0.84497527965E+03  0.13174077779E+04  0.46999998093E+01 0.  1.
       -5    1    3    3    0  502  0.98954838235E+03 -0.20579586755E+03  0.28372431344E+03  0.10497997505E+04  0.46999998093E+01 0. -1.
</event>
<event>
 5   0  0.7348107E-06  0.2300064E+04  0.7818609E-02  0.8477896E-01
       -2   -1    0    0    0  501  0.00000000000E+00  0.00000000000E+00  0.11129892168E+04  0.11129892168E+04  0.25500000920E-02 0. -1.
        2   -1    0    0  501    0  0.00000000000E+00  0.00000000000E+00 -0.11883076931E+04  0.11883076931E+04  0.25500000920E-02 0.  1.
    10030    2    1    2    0    0  0.00000000000E+00  0.00000000000E+00 -0.75318476306E+02  0.23012969099E+04  0.23000640414E+04 0.  0.
        3    1    3    3  502    0 -0.88906323346E+03  0.51321254017E+03  0.48103265740E+03  0.11336723390E+04  0.10100000352E+00 0. -1.
       -3    1    3    3    0  502  0.88906323346E+03 -0.51321254017E+03 -0.55635113370E+03  0.11676245709E+04  0.10100000352E+00 0.  1.
</event>
<event>
 5   0  0.3184492E-06  0.2299754E+04  0.7818609E-02  0.8478018E-01
       -1   -1    0    0    0  501  0.00000000000E+00  0.00000000000E+00  0.13877036850E+04  0.13877036850E+04  0.50400001928E-02 0.  1.
        1   -1    0    0  501    0  0.00000000000E+00  0.00000000000E+00 -0.95280949618E+03  0.95280949620E+03  0.50400001928E-02 0. -1.
    10030    2    1    2    0    0  0.00000000000E+00  0.00000000000E+00  0.43489418882E+03  0.23405131812E+04  0.22997541164E+04 0.  0.
        1    1    3    3  502    0  0.65671152715E+03 -0.18554806603E+03  0.11593328329E+04  0.13452697619E+04  0.50400001928E-02 0.  1.
       -1    1    3    3    0  502 -0.65671152715E+03  0.18554806603E+03 -0.72443864408E+03  0.99524341935E+03  0.50400001928E-02 0. -1.
</event>
<event>
 5   0  0.7242214E-06  0.2300452E+04  0.7818609E-02  0.8477743E-01
        2   -1    0    0  501    0  0.00000000000E+00  0.00000000000E+00  0.12387199047E+04  0.12387199048E+04  0.25500000920E-02 0.  1.
       -2   -1    0    0    0  501  0.00000000000E+00  0.00000000000E+00 -0.10680539578E+04  0.10680539578E+04  0.25500000920E-02 0. -1.
    10030    2    1    2    0    0  0.00000000000E+00  0.00000000000E+00  0.17066594694E+03  0.23067738626E+04  0.23004518659E+04 0.  0.
        1    1    3    3  502    0 -0.11003375420E+04  0.25196237481E+02  0.42038013869E+03  0.11781752916E+04  0.50400001928E-02 0.  1.
       -1    1    3    3    0  502  0.11003375420E+04 -0.25196237481E+02 -0.24971419174E+03  0.11285985709E+04  0.50400001928E-02 0. -1.
</event>
<event>
 5   0  0.3226427E-06  0.2297878E+04  0.7818609E-02  0.8478758E-01
        1   -1    0    0  501    0  0.00000000000E+00  0.00000000000E+00  0.82446943532E+03  0.82446943534E+03  0.50400001928E-02 0. -1.
       -1   -1    0    0    0  501  0.00000000000E+00  0.00000000000E+00 -0.16011040590E+04  0.16011040590E+04  0.50400001928E-02 0.  1.
    10030    2    1    2    0    0  0.00000000000E+00  0.00000000000E+00 -0.77663462371E+03  0.24255734944E+04  0.22978784646E+04 0.  0.
        4    1    3    3  502    0 -0.10205377257E+04 -0.51729549878E+03 -0.49886468091E+03  0.12481824648E+04  0.12699999809E+01 0. -1.
       -4    1    3    3    0  502  0.10205377257E+04  0.51729549878E+03 -0.27776994279E+03  0.11773910296E+04  0.12699999809E+01 0.  1.
</event>
<event>
 5   0  0.3338758E-06  0.2301522E+04  0.7818609E-02  0.8477321E-01
       -1   -1    0    0    0  501  0.00000000000E+00  0.00000000000E+00  0.13705600660E+04  0.13705600660E+04  0.50400001928E-02 0. -1.
        1   -1    0    0  501    0  0.00000000000E+00  0.00000000000E+00 -0.96621116582E+03  0.96621116584E+03  0.50400001928E-02 0.  1.
    10030    2    1    2    0    0  0.00000000000E+00  0.00000000000E+00  0.40434890015E+03  0.23367712318E+04  0.23015216177E+04 0.  0.
        5    1    3    3  502    0 -0.76640860833E+03  0.84024987847E+03  0.38043781202E+03  0.11992318508E+04  0.46999998093E+01 0.  1.
       -5    1    3    3    0  502  0.76640860833E+03 -0.84024987847E+03  0.23911088129E+02  0.11375393810E+04  0.46999998093E+01 0. -1.
</event>
<event>
 5   0  0.3195296E-06  0.2300757E+04  0.7818609E-02  0.8477623E-01
        1   -1    0    0  501    0  0.00000000000E+00  0.00000000000E+00  0.19129222139E+04  0.19129222139E+04  0.50400001928E-02 0.  1.
       -1   -1    0    0    0  501  0.00000000000E+00  0.00000000000E+00 -0.69180578098E+03  0.69180578100E+03  0.50400001928E-02 0. -1.
    10030    2    1    2    0    0  0.00000000000E+00  0.00000000000E+00  0.12211164329E+04  0.26047279949E+04  0.23007569591E+04 0.  0.
        2    1    3    3  502    0  0.16816888245E+03  0.42852553095E+03  0.18041002557E+04  0.18619056464E+04  0.25500000920E-02 0.  1.
       -2    1    3    3    0  502 -0.16816888245E+03 -0.42852553095E+03 -0.58298382279E+03  0.74282234844E+03  0.25500000920E-02 0. -1.
</event>
<event>
 5   0  0.3226427E-06  0.2300834E+04  0.7818609E-02  0.8477592E-01
        1   -1    0    0  501    0  0.00000000000E+00  0.00000000000E+00  0.15178030867E+04  0.15178030867E+04  0.50400001928E-02 0.  1.
       -1   -1    0    0    0  501  0.00000000000E+00  0.00000000000E+00 -0.87195719587E+03  0.87195719589E+03  0.50400001928E-02 0. -1.
    10030    2    1    2    0    0  0.00000000000E+00  0.00000000000E+00  0.64584589086E+03  0.23897602826E+04  0.23008340431E+04 0.  0.
        4    1    3    3  502    0  0.99805601600E+03 -0.10881294091E+03  0.90632755636E+03  0.13525484537E+04  0.12699999809E+01 0.  1.
       -4    1    3    3    0  502 -0.99805601600E+03  0.10881294091E+03 -0.26048166551E+03  0.10372118290E+04  0.12699999809E+01 0. -1.
</event>
<event>
 5   0  0.3338758E-06  0.2297098E+04  0.7818609E-02  0.8479066E-01
       -1   -1    0    0    0  501  0.00000000000E+00  0.00000000000E+00  0.10108483272E+04  0.10108483272E+04  0.50400001928E-02 0. -1.
        1   -1    0    0  501    0  0.00000000000E+00  0.00000000000E+00 -0.13050080275E+04  0.13050080275E+04  0.50400001928E-02 0.  1.
    10030    2    1    2    0    0  0.00000000000E+00  0.00000000000E+00 -0.29415970027E+03  0.23158563547E+04  0.22970983275E+04 0.  0.
        5    1    3    3  502    0  0.33677671315E+03 -0.20456229684E+03  0.94056200475E+03  0.10197760845E+04  0.46999998093E+01 0. -1.
       -5    1    3    3    0  502 -0.33677671315E+03  0.20456229684E+03 -0.12347217050E+04  0.12960802701E+04  0.46999998093E+01 0.  1.
</event>
<event>
 5   0  0.7003852E-06  0.2299210E+04  0.7818609E-02  0.8478233E-01
       -2   -1    0    0    0  501  0.00000000000E+00  0.00000000000E+00  0.10146431587E+04  0.10146431587E+04  0.25500000920E-02 0. -1.
        2   -1    0    0  501    0  0.00000000000E+00  0.00000000000E+00 -0.13025188445E+04  0.13025188445E+04  0.25500000920E-02 0.  1.
    10030    2    1    2    0    0  0.00000000000E+00  0.00000000000E+00 -0.28787568576E+03  0.23171620032E+04  0.22992101554E+04 0.  0.
        2    1    3    3  502    0 -0.11041853357E+04 -0.20182779856E+03  0.10625868505E+03  0.11274975051E+04  0.25500000920E-02 0.  1.
       -2    1    3    3    0  502  0.11041853357E+04  0.20182779856E+03 -0.39413437081E+03  0.11896644981E+04  0.25500000920E-02 0. -1.
</event>
<event>
 5   0  0.3184492E-06  0.2304041E+04  0.7818609E-02  0.8476329E-01
        1   -1    0    0  501    0  0.00000000000E+00  0.00000000000E+00  0.18402109333E+04  0.18402109333E+04  0.50400001928E-02 0. -1.
       -1   -1    0    0    0  501  0.00000000000E+00  0.00000000000E+00 -0.72119520200E+03  0.72119520201E+03  0.50400001928E-02 0.  1.
    10030    2    1    2    0    0  0.00000000000E+00  0.00000000000E+00  0.11190157313E+04  0.25614061353E+04  0.23040410550E+04 0.  0.
        1    1    3    3  502    0  0.12108870313E+03  0.11104116301E+04  0.87291079049E+03  0.14176211449E+04  0.50400001928E-02 0.  1.
       -1    1    3    3    0  502 -0.12108870313E+03 -0.11104116301E+04  0.24610494083E+03  0.11437849904E+04  0.50400001928E-02 0. -1.
</event>
<event>
 5   0  0.3184492E-06  0.2301832E+04  0.7818609E-02  0.8477199E-01
        1   -1    0    0  501    0  0.00000000000E+00  0.00000000000E+00  0.12213706552E+04  0.12213706552E+04  0.50400001928E-02 0. -1.
       -1   -1    0    0    0  501  0.00000000000E+00  0.00000000000E+00 -0.10845251097E+04  0.10845251097E+04  0.50400001928E-02 0.  1.
    10030    2    1    2    0    0  0.00000000000E+00  0.00000000000E+00  0.13684554552E+03  0.23058957649E+04  0.23018315697E+04 0.  0.
        1    1    3    3  502    0 -0.76525765456E+03  0.48119077000E+03 -0.64518553044E+03  0.11105981288E+04  0.50400001928E-02 0.  1.
       -1    1    3    3    0  502  0.76525765456E+03 -0.48119077000E+03  0.78203107596E+03  0.11952976361E+04  0.50400001928E-02 0. -1.
</event>
<event>
 5   0  0.3184492E-06  0.2302101E+04  0.7818609E-02  0.8477093E-01
       -1   -1    0    0    0  501  0.00000000000E+00  0.00000000000E+00  0.10804645388E+04  0.10804645388E+04  0.50400001928E-02 0. -1.
        1   -1    0    0  501    0  0.00000000000E+00  0.00000000000E+00 -0.12262482768E+04  0.12262482768E+04  0.50400001928E-02 0.  1.
    10030    2    1    2    0    0  0.00000000000E+00  0.00000000000E+00 -0.14578373800E+03  0.23067128157E+04  0.23021014564E+04 0.  0.
        1    1    3    3  502    0  0.11085078267E+04 -0.24550914157E+03 -0.26262119986E+03  0.11653472594E+04  0.50400001928E-02 0.  1.
       -1    1    3    3    0  502 -0.11085078267E+04  0.24550914157E+03  0.11683746185E+03  0.11413655562E+04  0.50400001928E-02 0. -1.
</event>
<event>
 5   0  0.7044981E-06  0.2299197E+04  0.7818609E-02  0.8478238E-01
        2   -1    0    0  501    0  0.00000000000E+00  0.00000000000E+00  0.67011797908E+03  0.67011797909E+03  0.25500000920E-02 0. -1.
       -2   -1    0    0    0  501  0.00000000000E+00  0.00000000000E+00 -0.19721551237E+04  0.19721551237E+04  0.25500000920E-02 0.  1.
    10030    2    1    2    0    0  0.00000000000E+00  0.00000000000E+00 -0.13020371446E+04  0.26422731028E+04  0.22991969084E+04 0.  0.
        4    1    3    3  502    0  0.90249647106E+03  0.19408462041E+03 -0.14383833473E+04  0.17091275514E+04  0.12699999809E+01 0.  1.
       -4    1    3    3    0  502 -0.90249647106E+03 -0.19408462041E+03  0.13634620273E+03  0.93314555138E+03  0.12699999809E+01 0. -1.
</event>
<event>
 5   0  0.3238713E-06  0.2301087E+04  0.7818609E-02  0.8477493E-01
        1   -1    0    0  501    0  0.00000000000E+00  0.00000000000E+00  0.10423704297E+04  0.10423704297E+04  0.50400001928E-02 0.  1.
       -1   -1    0    0    0  501  0.00000000000E+00  0.00000000000E+00 -0.12699422191E+04  0.12699422192E+04  0.50400001928E-02 0. -1.
    10030    2    1    2    0    0  0.00000000000E+00  0.00000000000E+00 -0.22757178947E+03  0.23123126488E+04  0.23010868881E+04 0.  0.
        3    1    3    3  502    0 -0.19241303120E+03  0.89479978364E+03 -0.81436765537E+03  0.12251057569E+04  0.10100000352E+00 0. -1.
       -3    1    3    3    0  502  0.19241303120E+03 -0.89479978364E+03  0.58679586589E+03  0.10872068919E+04  0.10100000352E+00 0.  1.
</event>
<event>
 5   0  0.7044981E-06  0.2284048E+04  0.7818609E-02  0.8484237E-01
        2   -1    0    0  501    0  0.00000000000E+00  0.00000000000E+00  0.16226390402E+04  0.16226390402E+04  0.25500000920E-02 0. -1.
       -2   -1    0    0    0  501  0.00000000000E+00  0.00000000000E+00 -0.80376419328E+03  0.80376419329E+03  0.25500000920E-02 0.  1.
    10030    2    1    2    0    0  0.00000000000E+00  0.00000000000E+00  0.81887484693E+03  0.24264032335E+04  0.22840483000E+04 0.  0.
        4    1    3    3  502    0  0.14725280442E+03  0.11196571772E+04  0.22883591837E+03  0.11522513065E+04  0.12699999809E+01 0.  1.
       -4    1    3    3    0  502 -0.14725280442E+03 -0.11196571772E+04  0.59003892856E+03  0.12741519270E+04  0.12699999809E+01 0. -1.
</event>
<event>
 5   0  0.7348107E-06  0.2299284E+04  0.7818609E-02  0.8478204E-01
        2   -1    0    0  501    0  0.00000000000E+00  0.00000000000E+00  0.12461084982E+04  0.12461084982E+04  0.25500000920E-02 0. -1.
       -2   -1    0    0    0  501  0.00000000000E+00  0.00000000000E+00 -0.10606430036E+04  0.10606430036E+04  0.25500000920E-02 0.  1.
    10030    2    1    2    0    0  0.00000000000E+00  0.00000000000E+00  0.18546549459E+03  0.23067515018E+04  0.22992835931E+04 0.  0.
        3    1    3    3  502    0 -0.61185037054E+03  0.16000422198E+02 -0.88359778766E+03  0.10748776442E+04  0.10100000352E+00 0.  1.
       -3    1    3    3    0  502  0.61185037054E+03 -0.16000422198E+02  0.10690632823E+04  0.12318738576E+04  0.10100000352E+00 0. -1.
</event>
<event>
 5   0  0.7242214E-06  0.2298556E+04  0.7818609E-02  0.8478491E-01
        2   -1    0    0  501    0  0.00000000000E+00  0.00000000000E+00  0.11286597273E+04  0.11286597273E+04  0.25500000920E-02 0.  1.
       -2   -1    0    0    0  501  0.00000000000E+00  0.00000000000E+00 -0.11702727762E+04  0.11702727762E+04  0.25500000920E-02 0. -1.
    10030    2    1    2    0    0  0.00000000000E+00  0.00000000000E+00 -0.41613048835E+02  0.22989325035E+04  0.22985558531E+04 0.  0.
        1    1    3    3  502    0 -0.64388449833E+03 -0.59730238745E+03 -0.76219876785E+03  0.11628862158E+04  0.50400001928E-02 0. -1.
       -1    1    3    3    0  502  0.64388449833E+03  0.59730238745E+03  0.72058571902E+03  0.11360462877E+04  0.50400001928E-02 0.  1.
</event>
<event>
 5   0  0.7044981E-06  0.2300167E+04  0.7818609E-02  0.8477855E-01
        2   -1    0    0  501    0  0.00000000000E+00  0.00000000000E+00  0.13345034019E+04  0.13345034019E+04  0.25500000920E-02 0.  1.
       -2   -1    0    0    0  501  0.00000000000E+00  0.00000000000E+00 -0.99114919067E+03  0.99114919067E+03  0.25500000920E-02 0. -1.
    10030    2    1    2    0    0  0.00000000000E+00  0.00000000000E+00  0.34335421125E+03  0.23256525926E+04  0.23001669216E+04 0.  0.
        4    1    3    3  502    0 -0.82095073552E+03  0.28000668933E+03 -0.59189008872E+03  0.10500949225E+04  0.12699999809E+01 0. -1.
       -4    1    3    3    0  502  0.82095073552E+03 -0.28000668933E+03  0.93524429997E+03  0.12755576701E+04  0.12699999809E+01 0.  1.
</event>
<event>
 5   0  0.3238713E-06  0.2298681E+04  0.7818609E-02  0.8478441E-01
        1   -1    0    0  501    0  0.00000000000E+00  0.00000000000E+00  0.28496593480E+04  0.28496593480E+04  0.50400001928E-02 0. -1.
       -1   -1    0    0    0  501  0.00000000000E+00  0.00000000000E+00 -0.46355850840E+03  0.46355850842E+03  0.50400001928E-02 0.  1.
    10030    2    1    2    0    0  0.00000000000E+00  0.00000000000E+00  0.23861008396E+04  0.33132178565E+04  0.22986812192E+04 0.  0.
        3    1    3    3  502    0  0.84679874901E+03  0.47890100569E+03  0.20751903278E+04  0.22919051467E+04  0.10100000352E+00 0.  1.
       -3    1    3    3    0  502 -0.84679874901E+03 -0.47890100569E+03  0.31091051183E+03  0.10213127098E+04  0.10100000352E+00 0. -1.
</event>
<event>
 5   0  0.7348107E-06  0.2300754E+04  0.7818609E-02  0.8477624E-01
        2   -1    0    0  501    0  0.00000000000E+00  0.00000000000E+00  0.10589524838E+04  0.10589524838E+04  0.25500000920E-02 0.  1.
       -2   -1    0    0    0  501  0.00000000000E+00  0.00000000000E+00 -0.12496949322E+04  0.12496949322E+04  0.25500000920E-02 0. -1.
    10030    2    1    2    0    0  0.00000000000E+00  0.00000000000E+00 -0.19074244836E+03  0.23086474160E+04  0.23007542697E+04 0.  0.
        3    1    3    3  502    0 -0.68928569992E+03 -0.31817005035E+03 -0.96263989702E+03  0.12259781966E+04  0.10100000352E+00 0. -1.
       -3    1    3    3    0  502  0.68928569992E+03  0.31817005035E+03  0.77189744866E+03  0.10826692193E+04  0.10100000352E+00 0.  1.
</event>
<event>
 5   0  0.3238713E-06  0.2299588E+04  0.7818609E-02  0.8478083E-01
        1   -1    0    0  501    0  0.00000000000E+00  0.00000000000E+00  0.17307659899E+04  0.17307659899E+04  0.50400001928E-02 0. -1.
       -1   -1    0    0    0  501  0.00000000000E+00  0.00000000000E+00 -0.76383910899E+03  0.76383910900E+03  0.50400001928E-02 0.  1.
    10030    2    1    2    0    0  0.00000000000E+00  0.00000000000E+00  0.96692688088E+03  0.24946050989E+04  0.22995884428E+04 0.  0.
        3    1    3    3  502    0  0.13465197755E+03  0.75753265624E+03 -0.44341968428E+03  0.88803598291E+03  0.10100000352E+00 0.  1.
       -3    1    3    3    0  502 -0.13465197755E+03 -0.75753265624E+03  0.14103465652E+04  0.16065691160E+04  0.10100000352E+00 0. -1.
</event>
<event>
 5   0  0.7044981E-06  0.2299530E+04  0.7818609E-02  0.8478106E-01
       -2   -1    0    0    0  501  0.00000000000E+00  0.00000000000E+00  0.12798388530E+04  0.12798388530E+04  0.25500000920E-02 0.  1.
        2   -1    0    0  501    0  0.00000000000E+00  0.00000000000E+00 -0.10329111618E+04  0.10329111618E+04  0.25500000920E-02 0. -1.
    10030    2    1    2    0    0  0.00000000000E+00  0.00000000000E+00  0.24692769114E+03  0.23127500148E+04  0.22995302447E+04 0.  0.
        4    1    3    3  502    0  0.85349899190E+03  0.44890462652E+03  0.75314806833E+03  0.12236051318E+04  0.12699999809E+01 0.  1.
       -4    1    3    3    0  502 -0.85349899190E+03 -0.44890462652E+03 -0.50622037719E+03  0.10891448830E+04  0.12699999809E+01 0. -1.
</event>
<event>
 5   0  0.7003852E-06  0.2305421E+04  0.7818609E-02  0.8475787E-01
       -2   -1    0    0    0  501  0.00000000000E+00  0.00000000000E+00  0.12067406707E+04  0.12067406707E+04  0.25500000920E-02 0.  1.
        2   -1    0    0  501    0  0.00000000000E+00  0.00000000000E+00 -0.11010996286E+04  0.11010996286E+04  0.25500000920E-02 0. -1.
    10030    2    1    2    0    0  0.00000000000E+00  0.00000000000E+00  0.10564104203E+03  0.23078402993E+04  0.23054211800E+04 0.  0.
        2    1    3    3  502    0 -0.83627664503E+02 -0.32210487956E+03  0.11576073948E+04  0.12044916024E+04  0.25500000920E-02 0.  1.
       -2    1    3    3    0  502  0.83627664503E+02  0.32210487956E+03 -0.10519663528E+04  0.11033486969E+04  0.25500000920E-02 0. -1.
</event>
<event>
 5   0  0.7242214E-06  0.2298136E+04  0.7818609E-02  0.8478656E-01
        2   -1    0    0  501    0  0.00000000000E+00  0.00000000000E+00  0.14586666352E+04  0.14586666352E+04  0.25500000920E-02 0.  1.
       -2   -1    0    0    0  501  0.00000000000E+00  0.00000000000E+00 -0.90518080673E+03  0.90518080674E+03  0.25500000920E-02 0. -1.
    10030    2    1    2    0    0  0.00000000000E+00  0.00000000000E+00  0.55348582847E+03  0.23638474419E+04  0.22981358024E+04 0.  0.
        1    1    3    3  502    0 -0.85583750367E+03 -0.33424093148E+03 -0.43304784095E+03  0.10157289331E+04  0.50400001928E-02 0. -1.
       -1    1    3    3    0  502  0.85583750367E+03  0.33424093148E+03  0.98653366941E+03  0.13481185088E+04  0.50400001928E-02 0.  1.
</event>
<event>
 5   0  0.7242214E-06  0.2297151E+04  0.7818609E-02  0.8479045E-01
        2   -1    0    0  501    0  0.00000000000E+00  0.00000000000E+00  0.13467649050E+04  0.13467649050E+04  0.25500000920E-02 0.  1.
       -2   -1    0    0    0  501  0.00000000000E+00  0.00000000000E+00 -0.97955141419E+03  0.97955141419E+03  0.25500000920E-02 0. -1.
    10030    2    1    2    0    0  0.00000000000E+00  0.00000000000E+00  0.36721349079E+03  0.23263163192E+04  0.22971508155E+04 0.  0.
        1    1    3    3  502    0  0.75975688719E+03 -0.29414042591E+03  0.10035008647E+04  0.12925800181E+04  0.50400001928E-02 0.  1.
       -1    1    3    3    0  502 -0.75975688719E+03  0.29414042591E+03 -0.63628737394E+03  0.10337363010E+04  0.50400001928E-02 0. -1.
</event>
<event>
 5   0  0.7003852E-06  0.2303877E+04  0.7818609E-02  0.8476394E-01
       -2   -1    0    0    0  501  0.00000000000E+00  0.00000000000E+00  0.12623095372E+04  0.12623095372E+04  0.25500000920E-02 0.  1.
        2   -1    0    0  501    0  0.00000000000E+00  0.00000000000E+00 -0.10512181411E+04  0.10512181411E+04  0.25500000920E-02 0. -1.
    10030    2    1    2    0    0  0.00000000000E+00  0.00000000000E+00  0.21109139612E+03  0.23135276783E+04  0.23038773276E+04 0.  0.
        2    1    3    3  502    0 -0.92254588172E+02  0.79912695638E+03 -0.72243692767E+03  0.10812168681E+04  0.25500000920E-02 0. -1.
       -2    1    3    3    0  502  0.92254588172E+02 -0.79912695638E+03  0.93352832379E+03  0.12323108101E+04  0.25500000920E-02 0.  1.
</event>
<event>
 5   0  0.3195296E-06  0.2291594E+04  0.7818609E-02  0.8481243E-01
       -1   -1    0    0    0  501  0.00000000000E+00  0.00000000000E+00  0.13034768821E+04  0.13034768821E+04  0.50400001928E-02 0.  1.
        1   -1    0    0  501    0  0.00000000000E+00  0.00000000000E+00 -0.10071914651E+04  0.10071914651E+04  0.50400001928E-02 0. -1.
    10030    2    1    2    0    0  0.00000000000E+00  0.00000000000E+00  0.29628541697E+03  0.23106683472E+04  0.22915940222E+04 0.  0.
        2    1    3    3  502    0  0.51191364899E+03 -0.70889121706E+03  0.89475745191E+03  0.12510688388E+04  0.25500000920E-02 0.  1.
       -2    1    3    3    0  502 -0.51191364899E+03  0.70889121706E+03 -0.59847203494E+03  0.10595995084E+04  0.25500000920E-02 0. -1.
</event>
<event>
 5   0  0.3195296E-06  0.2301129E+04  0.7818609E-02  0.8477476E-01
        1   -1    0    0  501    0  0.00000000000E+00  0.00000000000E+00  0.20918525866E+04  0.20918525866E+04  0.50400001928E-02 0.  1.
       -1   -1    0    0    0  501  0.00000000000E+00  0.00000000000E+00 -0.63283529137E+03  0.63283529139E+03  0.50400001928E-02 0. -1.
    10030    2    1    2    0    0  0.00000000000E+00  0.00000000000E+00  0.14590172952E+04  0.27246878780E+04  0.23011285415E+04 0.  0.
        2    1    3    3  502    0 -0.18613711770E+03 -0.76327178737E+03  0.17248055342E+04  0.18953060383E+04  0.25500000920E-02 0.  1.
       -2    1    3    3    0  502  0.18613711770E+03  0.76327178737E+03 -0.26578823901E+03  0.82938183967E+03  0.25500000920E-02 0. -1.
</event>
<event>
 5   0  0.3226427E-06  0.2298809E+04  0.7818609E-02  0.8478391E-01
       -1   -1    0    0    0  501  0.00000000000E+00  0.00000000000E+00  0.59939954303E+03  0.59939954305E+03  0.50400001928E-02 0.  1.
        1   -1    0    0  501    0  0.00000000000E+00  0.00000000000E+00 -0.22040900849E+04  0.22040900849E+04  0.50400001928E-02 0. -1.
    10030    2    1    2    0    0  0.00000000000E+00  0.00000000000E+00 -0.16046905419E+04  0.28034896280E+04  0.22988089000E+04 0.  0.
        4    1    3    3  502    0 -0.95264372710E+03 -0.64098996262E+03 -0.86607454219E+03  0.14382228369E+04  0.12699999809E+01 0. -1.
       -4    1    3    3    0  502  0.95264372710E+03  0.64098996262E+03 -0.73861599969E+03  0.13652667911E+04  0.12699999809E+01 0.  1.
</event>
<event>
 5   0  0.3338758E-06  0.2300775E+04  0.7818609E-02  0.8477616E-01
       -1   -1    0    0    0  501  0.00000000000E+00  0.00000000000E+00  0.60272564836E+03  0.60272564839E+03  0.50400001928E-02 0.  1.
        1   -1    0    0  501    0  0.00000000000E+00  0.00000000000E+00 -0.21956775847E+04  0.21956775847E+04  0.50400001928E-02 0. -1.
    10030    2    1    2    0    0  0.00000000000E+00  0.00000000000E+00 -0.15929519363E+04  0.27984032331E+04  0.23007748224E+04 0.  0.
        5    1    3    3  502    0 -0.53579961091E+03 -0.10113060300E+04 -0.93804677817E+03  0.14797888219E+04  0.46999998093E+01 0. -1.
       -5    1    3    3    0  502  0.53579961091E+03  0.10113060300E+04 -0.65490515815E+03  0.13186144112E+04  0.46999998093E+01 0.  1.
</event>
<event>
 5   0  0.3338758E-06  0.2301271E+04  0.7818609E-02  0.8477420E-01
        1   -1    0    0  501    0  0.00000000000E+00  0.00000000000E+00  0.19821044624E+04  0.19821044624E+04  0.50400001928E-02 0.  1.
       -1   -1    0    0    0  501  0.00000000000E+00  0.00000000000E+00 -0.66795750079E+03  0.66795750080E+03  0.50400001928E-02 0. -1.
    10030    2    1    2    0    0  0.00000000000E+00  0.00000000000E+00  0.13141469616E+04  0.26500619632E+04  0.23012705561E+04 0.  0.
        5    1    3    3  502    0 -0.10011341991E+03  0.22403596874E+03 -0.63746383768E+03  0.68307909240E+03  0.46999998093E+01 0. -1.
       -5    1    3    3    0  502  0.10011341991E+03 -0.22403596874E+03  0.19516107993E+04  0.19669828708E+04  0.46999998093E+01 0.  1.
</event>
<event>
 5   0  0.7348107E-06  0.2295643E+04  0.7818609E-02  0.8479641E-01
        2   -1    0    0  501    0  0.00000000000E+00  0.00000000000E+00  0.11912170446E+04  0.11912170446E+04  0.25500000920E-02 0.  1.
       -2   -1    0    0    0  501  0.00000000000E+00  0.00000000000E+00 -0.11060069965E+04  0.11060069965E+04  0.25500000920E-02 0. -1.
    10030    2    1    2    0    0  0.00000000000E+00  0.00000000000E+00  0.85210048058E+02  0.22972240410E+04  0.22956431653E+04 0.  0.
        3    1    3    3  502    0  0.10259073696E+04  0.42691033383E+01 -0.47252147650E+03  0.11295046313E+04  0.10100000352E+00 0. -1.
       -3    1    3    3    0  502 -0.10259073696E+04 -0.42691033383E+01  0.55773152455E+03  0.11677194097E+04  0.10100000352E+00 0.  1.
</event>
<event>
 5   0  0.7348107E-06  0.2296951E+04  0.7818609E-02  0.8479124E-01
        2   -1    0    0  501    0  0.00000000000E+00  0.00000000000E+00  0.10423677937E+04  0.10423677937E+04  0.25500000920E-02 0.  1.
       -2   -1    0    0    0  501  0.00000000000E+00  0.00000000000E+00 -0.12653840686E+04  0.12653840687E+04  0.25500000920E-02 0. -1.
    10030    2    1    2    0    0  0.00000000000E+00  0.00000000000E+00 -0.22301627492E+03  0.23077518624E+04  0.22969506741E+04 0.  0.
        3    1    3    3  502    0 -0.95909411289E+03  0.46394356469E+03 -0.54234913061E+03  0.11955114965E+04  0.10100000352E+00 0. -1.
       -3    1    3    3    0  502  0.95909411289E+03 -0.46394356469E+03  0.31933285569E+03  0.11122403659E+04  0.10100000352E+00 0.  1.
</event>
<event>
 5   0  0.2519625E-06  0.2300302E+04  0.7818609E-02  0.8477802E-01
        3   -1    0    0  501    0  0.00000000000E+00  0.00000000000E+00  0.77402058233E+03  0.77402058892E+03  0.10100000352E+00 0. -1.
       -3   -1    0    0    0  501  0.00000000000E+00  0.00000000000E+00 -0.17090595968E+04  0.17090595998E+04  0.10100000352E+00 0.  1.
    10030    2    1    2    0    0  0.00000000000E+00  0.00000000000E+00 -0.93503901444E+03  0.24830801887E+04  0.23003019943E+04 0.  0.
        2    1    3    3  502    0  0.55211138770E+02 -0.57772629316E+03  0.60437305251E+03  0.83790376910E+03  0.25500000920E-02 0. -1.
       -2    1    3    3    0  502 -0.55211138770E+02  0.57772629316E+03 -0.15394120670E+04  0.16451764196E+04  0.25500000920E-02 0.  1.
</event>
<event>
 5   0  0.7242214E-06  0.2298166E+04  0.7818609E-02  0.8478644E-01
        2   -1    0    0  501    0  0.00000000000E+00  0.00000000000E+00  0.89473988340E+03  0.89473988341E+03  0.25500000920E-02 0. -1.
       -2   -1    0    0    0  501  0.00000000000E+00  0.00000000000E+00 -0.14757272681E+04  0.14757272681E+04  0.25500000920E-02 0.  1.
    10030    2    1    2    0    0  0.00000000000E+00  0.00000000000E+00 -0.58098738469E+03  0.23704671515E+04  0.22981662636E+04 0.  0.
        1    1    3    3  502    0 -0.89838507069E+02  0.10603612677E+04  0.15668336838E+03  0.10756331407E+04  0.50400001928E-02 0. -1.
       -1    1    3    3    0  502  0.89838507069E+02 -0.10603612677E+04 -0.73767075308E+03  0.12948340108E+04  0.50400001928E-02 0.  1.
</event>
<event>
 5   0  0.3195296E-06  0.2302777E+04  0.7818609E-02  0.8476827E-01
        1   -1    0    0  501    0  0.00000000000E+00  0.00000000000E+00  0.18011011883E+04  0.18011011883E+04  0.50400001928E-02 0.  1.
       -1   -1    0    0    0  501  0.00000000000E+00  0.00000000000E+00 -0.73604739972E+03  0.73604739974E+03  0.50400001928E-02 0. -1.
    10030    2    1    2    0    0  0.00000000000E+00  0.00000000000E+00  0.10650537886E+04  0.25371485880E+04  0.23027773199E+04 0.  0.
        2    1    3    3  502    0  0.18108822824E+03  0.91605999481E+03 -0.20963055302E+03  0.95702864600E+03  0.25500000920E-02 0.  1.
       -2    1    3    3    0  502 -0.18108822824E+03 -0.91605999481E+03  0.12746843416E+04  0.15801199420E+04  0.25500000920E-02 0. -1.
</event>
<event>
 5   0  0.7348107E-06  0.2228439E+04  0.7818609E-02  0.8506684E-01
       -2   -1    0    0    0  501  0.00000000000E+00  0.00000000000E+00  0.71662694003E+03  0.71662694003E+03  0.25500000920E-02 0. -1.
        2   -1    0    0  501    0  0.00000000000E+00  0.00000000000E+00 -0.17324005650E+04  0.17324005650E+04  0.25500000920E-02 0.  1.
    10030    2    1    2    0    0  0.00000000000E+00  0.00000000000E+00 -0.10157736250E+04  0.24490275051E+04  0.22284388399E+04 0.  0.
        3    1    3    3  502    0 -0.32528226834E+03  0.69655180218E+03  0.37848084912E+03  0.85687848063E+03  0.10100000352E+00 0. -1.
       -3    1    3    3    0  502  0.32528226834E+03 -0.69655180218E+03 -0.13942544741E+04  0.15921490244E+04  0.10100000352E+00 0.  1.
</event>
<event>
 5   0  0.7044981E-06  0.2300259E+04  0.7818609E-02  0.8477819E-01
        2   -1    0    0  501    0  0.00000000000E+00  0.00000000000E+00  0.19086189032E+04  0.19086189032E+04  0.25500000920E-02 0.  1.
       -2   -1    0    0    0  501  0.00000000000E+00  0.00000000000E+00 -0.69306557795E+03  0.69306557795E+03  0.25500000920E-02 0. -1.
    10030    2    1    2    0    0  0.00000000000E+00  0.00000000000E+00  0.12155533252E+04  0.26016844811E+04  0.23002591708E+04 0.  0.
        4    1    3    3  502    0 -0.23149648096E+03  0.51416469701E+03  0.17415504703E+04  0.18305615559E+04  0.12699999809E+01 0.  1.
       -4    1    3    3    0  502  0.23149648096E+03 -0.51416469701E+03 -0.52599714507E+03  0.77112292526E+03  0.12699999809E+01 0. -1.
</event>
<event>
 5   0  0.7497344E-06  0.2304970E+04  0.7818609E-02  0.8475964E-01
        2   -1    0    0  501    0  0.00000000000E+00  0.00000000000E+00  0.11350623984E+04  0.11350623984E+04  0.25500000920E-02 0.  1.
       -2   -1    0    0    0  501  0.00000000000E+00  0.00000000000E+00 -0.11701749673E+04  0.11701749673E+04  0.25500000920E-02 0. -1.
    10030    2    1    2    0    0  0.00000000000E+00  0.00000000000E+00 -0.35112568917E+02  0.23052373657E+04  0.23049699390E+04 0.  0.
        5    1    3    3  502    0 -0.51891450638E+03 -0.15811161336E+01  0.10116038007E+04  0.11369428765E+04  0.46999998093E+01 0.  1.
       -5    1    3    3    0  502  0.51891450638E+03  0.15811161336E+01 -0.10467163696E+04  0.11682944891E+04  0.46999998093E+01 0. -1.
</event>
<event>
 5   0  0.3184492E-06  0.2302140E+04  0.7818609E-02  0.8477078E-01
        1   -1    0    0  501    0  0.00000000000E+00  0.00000000000E+00  0.15468840885E+04  0.15468840885E+04  0.50400001928E-02 0.  1.
       -1   -1    0    0    0  501  0.00000000000E+00  0.00000000000E+00 -0.85653587025E+03  0.85653587027E+03  0.50400001928E-02 0. -1.
    10030    2    1    2    0    0  0.00000000000E+00  0.00000000000E+00  0.69034821826E+03  0.24034199588E+04  0.23021396213E+04 0.  0.
        1    1    3    3  502    0  0.61890299725E+03  0.99032790573E+02 -0.66276049445E+03  0.91219509242E+03  0.50400001928E-02 0. -1.
       -1    1    3    3    0  502 -0.61890299725E+03 -0.99032790573E+02  0.13531087127E+04  0.14912248664E+04  0.50400001928E-02 0.  1.
</event>
<event>
 5   0  0.3238713E-06  0.2300322E+04  0.7818609E-02  0.8477794E-01
        1   -1    0    0  501    0  0.00000000000E+00  0.00000000000E+00  0.13420184692E+04  0.13420184692E+04  0.50400001928E-02 0. -1.
       -1   -1    0    0    0  501  0.00000000000E+00  0.00000000000E+00 -0.98573167902E+03  0.98573167903E+03  0.50400001928E-02 0.  1.
    10030    2    1    2    0    0  0.00000000000E+00  0.00000000000E+00  0.35628679017E+03  0.23277501482E+04  0.23003218200E+04 0.  0.
        3    1    3    3  502    0  0.31278966599E+03 -0.77812317308E+03  0.97464823564E+03  0.12857885678E+04  0.10100000352E+00 0. -1.
       -3    1    3    3    0  502 -0.31278966599E+03  0.77812317308E+03 -0.61836144548E+03  0.10419615804E+04  0.10100000352E+00 0.  1.
</event>
<event>
 5   0  0.3226427E-06  0.2309363E+04  0.7818609E-02  0.8474239E-01
       -1   -1    0    0    0  501  0.00000000000E+00  0.00000000000E+00  0.43984658674E+03  0.43984658677E+03  0.50400001928E-02 0.  1.
        1   -1    0    0  501    0  0.00000000000E+00  0.00000000000E+00 -0.30312600411E+04  0.30312600411E+04  0.50400001928E-02 0. -1.
    10030    2    1    2    0    0  0.00000000000E+00  0.00000000000E+00 -0.25914134543E+04  0.34711066279E+04  0.23093630140E+04 0.  0.
        4    1    3    3  502    0  0.51256596641E+03  0.49424890400E+02 -0.28491163528E+04  0.28952775851E+04  0.12699999809E+01 0. -1.
       -4    1    3    3    0  502 -0.51256596641E+03 -0.49424890400E+02  0.25770289850E+03  0.57582904278E+03  0.12699999809E+01 0.  1.
</event>
<event>
 5   0  0.3338758E-06  0.2301477E+04  0.7818609E-02  0.8477339E-01
        1   -1    0    0  501    0  0.00000000000E+00  0.00000000000E+00  0.14898830319E+04  0.14898830319E+04  0.50400001928E-02 0. -1.
       -1   -1    0    0    0  501  0.00000000000E+00  0.00000000000E+00 -0.88879432916E+03  0.88879432917E+03  0.50400001928E-02 0.  1.
    10030    2    1    2    0    0  0.00000000000E+00  0.00000000000E+00  0.60108870278E+03  0.23786773611E+04  0.23014774298E+04 0.  0.
        5    1    3    3  502    0 -0.22314265786E+03 -0.10210483732E+04 -0.19710994213E+03  0.10635820821E+04  0.46999998093E+01 0.  1.
       -5    1    3    3    0  502  0.22314265786E+03  0.10210483732E+04  0.79819864491E+03  0.13150952790E+04  0.46999998093E+01 0. -1.
</event>
<event>
 5   0  0.7348107E-06  0.2305704E+04  0.7818609E-02  0.8475676E-01
       -2   -1    0    0    0  501  0.00000000000E+00  0.00000000000E+00  0.78348165977E+03  0.78348165978E+03  0.25500000920E-02 0. -1.
        2   -1    0    0  501    0  0.00000000000E+00  0.00000000000E+00 -0.16963606289E+04  0.16963606289E+04  0.25500000920E-02 0.  1.
    10030    2    1    2    0    0  0.00000000000E+00  0.00000000000E+00 -0.91287896913E+03  0.24798422887E+04  0.23057037460E+04 0.  0.
        3    1    3    3  502    0 -0.16996123061E+03  0.10399772044E+03 -0.16777005435E+04  0.16894914826E+04  0.10100000352E+00 0.  1.
       -3    1    3    3    0  502  0.16996123061E+03 -0.10399772044E+03  0.76482157442E+03  0.79035080608E+03  0.10100000352E+00 0. -1.
</event>
<event>
 5   0  0.3195296E-06  0.2303259E+04  0.7818609E-02  0.8476637E-01
        1   -1    0    0  501    0  0.00000000000E+00  0.00000000000E+00  0.11664016160E+04  0.11664016161E+04  0.50400001928E-02 0.  1.
       -1   -1    0    0    0  501  0.00000000000E+00  0.00000000000E+00 -0.11370447584E+04  0.11370447584E+04  0.50400001928E-02 0. -1.
    10030    2    1    2    0    0  0.00000000000E+00  0.00000000000E+00  0.29356857650E+02  0.23034463745E+04  0.23032592939E+04 0.  0.
        2    1    3    3  502    0  0.57686416637E+03  0.94508093937E+03  0.33140684511E+03  0.11557598130E+04  0.25500000920E-02 0.  1.
       -2    1    3    3    0  502 -0.57686416637E+03 -0.94508093937E+03 -0.30204998746E+03  0.11476865614E+04  0.25500000920E-02 0. -1.
</event>
<event>
 5   0  0.3226427E-06  0.2301160E+04  0.7818609E-02  0.8477464E-01
        1   -1    0    0  501    0  0.00000000000E+00  0.00000000000E+00  0.18400524797E+04  0.18400524797E+04  0.50400001928E-02 0.  1.
       -1   -1    0    0    0  501  0.00000000000E+00  0.00000000000E+00 -0.71945443175E+03  0.71945443177E+03  0.50400001928E-02 0. -1.
    10030    2    1    2    0    0  0.00000000000E+00  0.00000000000E+00  0.11205980480E+04  0.25595069115E+04  0.23011596305E+04 0.  0.
        4    1    3    3  502    0  0.10538040333E+04 -0.28018569171E+03  0.15189001312E+03  0.11009446632E+04  0.12699999809E+01 0. -1.
       -4    1    3    3    0  502 -0.10538040333E+04  0.28018569171E+03  0.96870803484E+03  0.14585622483E+04  0.12699999809E+01 0.  1.
</event>
<event>
 5   0  0.3238713E-06  0.2299034E+04  0.7818609E-02  0.8478302E-01
        1   -1    0    0  501    0  0.00000000000E+00  0.00000000000E+00  0.18236867338E+04  0.18236867338E+04  0.50400001928E-02 0. -1.
       -1   -1    0    0    0  501  0.00000000000E+00  0.00000000000E+00 -0.72457018741E+03  0.72457018743E+03  0.50400001928E-02 0.  1.
    10030    2    1    2    0    0  0.00000000000E+00  0.00000000000E+00  0.10991165464E+04  0.25482569212E+04  0.22990337436E+04 0.  0.
        3    1    3    3  502    0  0.89348985479E+03  0.59577485460E+03  0.10040269755E+04  0.14701503242E+04  0.10100000352E+00 0. -1.
       -3    1    3    3    0  502 -0.89348985479E+03 -0.59577485460E+03  0.95089570941E+02  0.10781065971E+04  0.10100000352E+00 0.  1.
</event>
<event>
 5   0  0.3226427E-06  0.2298766E+04  0.7818609E-02  0.8478408E-01
        1   -1    0    0  501    0  0.00000000000E+00  0.00000000000E+00  0.23208733072E+04  0.23208733072E+04  0.50400001928E-02 0.  1.
       -1   -1    0    0    0  501  0.00000000000E+00  0.00000000000E+00 -0.56921725444E+03  0.56921725446E+03  0.50400001928E-02 0. -1.
    10030    2    1    2    0    0  0.00000000000E+00  0.00000000000E+00  0.17516560527E+04  0.28900905616E+04  0.22987658705E+04 0.  0.
        4    1    3    3  502    0 -0.88757750874E+03 -0.65568381209E+03  0.12800335597E+04  0.16900303613E+04  0.12699999809E+01 0.  1.
       -4    1    3    3    0  502  0.88757750874E+03  0.65568381209E+03  0.47162249306E+03  0.12000602003E+04  0.12699999809E+01 0. -1.
</event>
<event>
 5   0  0.7003852E-06  0.2296195E+04  0.7818609E-02  0.8479423E-01
        2   -1    0    0  501    0  0.00000000000E+00  0.00000000000E+00  0.11456395922E+04  0.11456395922E+04  0.25500000920E-02 0.  1.
       -2   -1    0    0    0  501  0.00000000000E+00  0.00000000000E+00 -0.11505607818E+04  0.11505607818E+04  0.25500000920E-02 0. -1.
    10030    2    1    2    0    0  0.00000000000E+00  0.00000000000E+00 -0.49211895875E+01  0.22962003739E+04  0.22961951004E+04 0.  0.
        2    1    3    3  502    0  0.38656923138E+03 -0.10253153168E+04 -0.34512844363E+03  0.11488345887E+04  0.25500000920E-02 0. -1.
       -2    1    3    3    0  502 -0.38656923138E+03  0.10253153168E+04  0.34020725404E+03  0.11473657853E+04  0.25500000920E-02 0.  1.
</event>
<event>
 5   0  0.7497344E-06  0.2295268E+04  0.7818609E-02  0.8479789E-01
        2   -1    0    0  501    0  0.00000000000E+00  0.00000000000E+00  0.11844775900E+04  0.11844775900E+04  0.25500000920E-02 0. -1.
       -2   -1    0    0    0  501  0.00000000000E+00  0.00000000000E+00 -0.11119367934E+04  0.11119367934E+04  0.25500000920E-02 0.  1.
    10030    2    1    2    0    0  0.00000000000E+00  0.00000000000E+00  0.72540796570E+02  0.22964143833E+04  0.22952683618E+04 0.  0.
        5    1    3    3  502    0 -0.58896613798E+03  0.68718786452E+03  0.74226700498E+03  0.11705087225E+04  0.46999998093E+01 0. -1.
       -5    1    3    3    0  502  0.58896613798E+03 -0.68718786452E+03 -0.66972620841E+03  0.11259056608E+04  0.46999998093E+01 0.  1.
</event>
<event>
 5   0  0.7348107E-06  0.2302505E+04  0.7818609E-02  0.8476934E-01
        2   -1    0    0  501    0  0.00000000000E+00  0.00000000000E+00  0.14788641512E+04  0.14788641512E+04  0.25500000920E-02 0.  1.
       -2   -1    0    0    0  501  0.00000000000E+00  0.00000000000E+00 -0.89621606849E+03  0.89621606849E+03  0.25500000920E-02 0. -1.
    10030    2    1    2    0    0  0.00000000000E+00  0.00000000000E+00  0.58264808268E+03  0.23750802197E+04  0.23025045628E+04 0.  0.
        3    1    3    3  502    0 -0.10318232908E+04 -0.38147167538E+03  0.64143647444E+03  0.12734287195E+04  0.10100000352E+00 0. -1.
       -3    1    3    3    0  502  0.10318232908E+04  0.38147167538E+03 -0.58788391765E+02  0.11016515002E+04  0.10100000352E+00 0.  1.
</event>
<event>
 5   0  0.7497344E-06  0.2299811E+04  0.7818609E-02  0.8477996E-01
        2   -1    0    0  501    0  0.00000000000E+00  0.00000000000E+00  0.22482790618E+04  0.22482790618E+04  0.25500000920E-02 0.  1.
       -2   -1    0    0    0  501  0.00000000000E+00  0.00000000000E+00 -0.58813081243E+03  0.58813081244E+03  0.25500000920E-02 0. -1.
    10030    2    1    2    0    0  0.00000000000E+00  0.00000000000E+00  0.16601482493E+04  0.28364098742E+04  0.22998105932E+04 0.  0.
        5    1    3    3  502    0  0.61455505604E+03 -0.31111586460E+03  0.19656622266E+04  0.20828636723E+04  0.46999998093E+01 0.  1.
       -5    1    3    3    0  502 -0.61455505604E+03  0.31111586460E+03 -0.30551397730E+03  0.75354620192E+03  0.46999998093E+01 0. -1.
</event>
<event>
 5   0  0.3226427E-06  0.2299346E+04  0.7818609E-02  0.8478179E-01
        1   -1    0    0  501    0  0.00000000000E+00  0.00000000000E+00  0.16164930687E+04  0.16164930687E+04  0.50400001928E-02 0.  1.
       -1   -1    0    0    0  501  0.00000000000E+00  0.00000000000E+00 -0.81766380988E+03  0.81766380990E+03  0.50400001928E-02 0. -1.
    10030    2    1    2    0    0  0.00000000000E+00  0.00000000000E+00  0.79882925880E+03  0.24341568786E+04  0.22993458906E+04 0.  0.
        4    1    3    3  502    0 -0.48899406029E+02  0.10627949848E+03 -0.81134534177E+03  0.81973737271E+03  0.12699999809E+01 0. -1.
       -4    1    3    3    0  502  0.48899406029E+02 -0.10627949848E+03  0.16101746006E+04  0.16144195059E+04  0.12699999809E+01 0.  1.
</event>
<event>
 5   0  0.3338758E-06  0.2315276E+04  0.7818609E-02  0.8471922E-01
       -1   -1    0    0    0  501  0.00000000000E+00  0.00000000000E+00  0.44759571622E+03  0.44759571625E+03  0.50400001928E-02 0. -1.
        1   -1    0    0  501    0  0.00000000000E+00  0.00000000000E+00 -0.29940546214E+04  0.29940546214E+04  0.50400001928E-02 0.  1.
    10030    2    1    2    0    0  0.00000000000E+00  0.00000000000E+00 -0.25464589052E+04  0.34416503376E+04  0.23152762450E+04 0.  0.
        5    1    3    3  502    0  0.11255771639E+04 -0.72038574598E+02 -0.16608330562E+04  0.20076110277E+04  0.46999998093E+01 0.  1.
       -5    1    3    3    0  502 -0.11255771639E+04  0.72038574598E+02 -0.88562584893E+03  0.14340393099E+04  0.46999998093E+01 0. -1.
</event>
<event>
 5   0  0.3238713E-06  0.2297653E+04  0.7818609E-02  0.8478847E-01
        1   -1    0    0  501    0  0.00000000000E+00  0.00000000000E+00  0.10632492792E+04  0.10632492792E+04  0.50400001928E-02 0.  1.
       -1   -1    0    0    0  501  0.00000000000E+00  0.00000000000E+00 -0.12412913977E+04  0.12412913977E+04  0.50400001928E-02 0. -1.
    10030    2    1    2    0    0  0.00000000000E+00  0.00000000000E+00 -0.17804211854E+03  0.23045406769E+04  0.22976528753E+04 0.  0.
        3    1    3    3  502    0  0.10721389515E+04 -0.32353900827E+03 -0.34599752532E+03  0.11721235937E+04  0.10100000352E+00 0. -1.
       -3    1    3    3    0  502 -0.10721389515E+04  0.32353900827E+03  0.16795540678E+03  0.11324170831E+04  0.10100000352E+00 0.  1.
</event>
<event>
 5   0  0.3338758E-06  0.2296808E+04  0.7818609E-02  0.8479181E-01
       -1   -1    0    0    0  501  0.00000000000E+00  0.00000000000E+00  0.89139084540E+03  0.89139084542E+03  0.50400001928E-02 0.  1.
        1   -1    0    0  501    0  0.00000000000E+00  0.00000000000E+00 -0.14795214191E+04  0.14795214191E+04  0.50400001928E-02 0. -1.
    10030    2    1    2    0    0  0.00000000000E+00  0.00000000000E+00 -0.58813057371E+03  0.23709122645E+04  0.22968080883E+04 0.  0.
        5    1    3    3  502    0 -0.38146351588E+03 -0.59397159808E+03 -0.12291010824E+04  0.14174019310E+04  0.46999998093E+01 0. -1.
       -5    1    3    3    0  502  0.38146351588E+03  0.59397159808E+03  0.64097050865E+03  0.95351033357E+03  0.46999998093E+01 0.  1.
</event>
<event>
 5   0  0.7003852E-06  0.2293540E+04  0.7818609E-02  0.8480472E-01
       -2   -1    0    0    0  501  0.00000000000E+00  0.00000000000E+00  0.75348623363E+03  0.75348623364E+03  0.25500000920E-02 0.  1.
        2   -1    0    0  501    0  0.00000000000E+00  0.00000000000E+00 -0.17453293745E+04  0.17453293745E+04  0.25500000920E-02 0. -1.
    10030    2    1    2    0    0  0.00000000000E+00  0.00000000000E+00 -0.99184314087E+03  0.24988156081E+04  0.22935401953E+04 0.  0.
        2    1    3    3  502    0  0.45228540596E+03  0.10311139480E+04 -0.73293159615E+03  0.13434830802E+04  0.25500000920E-02 0. -1.
       -2    1    3    3    0  502 -0.45228540596E+03 -0.10311139480E+04 -0.25891154472E+03  0.11553325279E+04  0.25500000920E-02 0.  1.
</event>
<event>
 5   0  0.7348107E-06  0.2298259E+04  0.7818609E-02  0.8478608E-01
       -2   -1    0    0    0  501  0.00000000000E+00  0.00000000000E+00  0.65159306567E+03  0.65159306568E+03  0.25500000920E-02 0. -1.
        2   -1    0    0  501    0  0.00000000000E+00  0.00000000000E+00 -0.20265693146E+04  0.20265693146E+04  0.25500000920E-02 0.  1.
    10030    2    1    2    0    0  0.00000000000E+00  0.00000000000E+00 -0.13749762490E+04  0.26781623803E+04  0.22982589171E+04 0.  0.
        3    1    3    3  502    0 -0.78348195409E+03  0.27158731512E+03 -0.16145393574E+04  0.18150319526E+04  0.10100000352E+00 0.  1.
       -3    1    3    3    0  502  0.78348195409E+03 -0.27158731512E+03  0.23956310845E+03  0.86313042772E+03  0.10100000352E+00 0. -1.
</event>
<event>
 5   0  0.7348107E-06  0.2297610E+04  0.7818609E-02  0.8478864E-01
       -2   -1    0    0    0  501  0.00000000000E+00  0.00000000000E+00  0.18083953480E+04  0.18083953480E+04  0.25500000920E-02 0.  1.
        2   -1    0    0  501    0  0.00000000000E+00  0.00000000000E+00 -0.72979229798E+03  0.72979229798E+03  0.25500000920E-02 0. -1.
    10030    2    1    2    0    0  0.00000000000E+00  0.00000000000E+00  0.10786030501E+04  0.25381876460E+04  0.22976100598E+04 0.  0.
        3    1    3    3  502    0  0.99634046104E+03  0.51806508192E+03  0.27172670500E+03  0.11553878811E+04  0.10100000352E+00 0. -1.
       -3    1    3    3    0  502 -0.99634046104E+03 -0.51806508192E+03  0.80687634505E+03  0.13827997649E+04  0.10100000352E+00 0.  1.
</event>
<event>
 5   0  0.3195296E-06  0.2340720E+04  0.7818609E-02  0.8462037E-01
        1   -1    0    0  501    0  0.00000000000E+00  0.00000000000E+00  0.10524813060E+04  0.10524813061E+04  0.50400001928E-02 0.  1.
       -1   -1    0    0    0  501  0.00000000000E+00  0.00000000000E+00 -0.13014416121E+04  0.13014416121E+04  0.50400001928E-02 0. -1.
    10030    2    1    2    0    0  0.00000000000E+00  0.00000000000E+00 -0.24896030604E+03  0.23539229182E+04  0.23407203743E+04 0.  0.
        2    1    3    3  502    0 -0.96862113577E+03  0.65484486716E+03 -0.17667921398E+03  0.11824822406E+04  0.25500000920E-02 0. -1.
       -2    1    3    3    0  502  0.96862113577E+03 -0.65484486716E+03 -0.72281092067E+02  0.11714406775E+04  0.25500000920E-02 0.  1.
</event>
<event>
 5   0  0.7044981E-06  0.2302671E+04  0.7818609E-02  0.8476869E-01
        2   -1    0    0  501    0  0.00000000000E+00  0.00000000000E+00  0.20966618046E+04  0.20966618046E+04  0.25500000920E-02 0.  1.
       -2   -1    0    0    0  501  0.00000000000E+00  0.00000000000E+00 -0.63223070825E+03  0.63223070826E+03  0.25500000920E-02 0. -1.
    10030    2    1    2    0    0  0.00000000000E+00  0.00000000000E+00  0.14644310964E+04  0.27288925129E+04  0.23026714726E+04 0.  0.
        4    1    3    3  502    0 -0.10450142849E+03  0.56198910439E+03  0.19166146730E+04  0.20000414294E+04  0.12699999809E+01 0.  1.
       -4    1    3    3    0  502  0.10450142849E+03 -0.56198910439E+03 -0.45218357658E+03  0.72885108344E+03  0.12699999809E+01 0. -1.
</event>
<event>
 5   0  0.7242214E-06  0.2299451E+04  0.7818609E-02  0.8478137E-01
        2   -1    0    0  501    0  0.00000000000E+00  0.00000000000E+00  0.19935189459E+04  0.19935189459E+04  0.25500000920E-02 0. -1.
       -2   -1    0    0    0  501  0.00000000000E+00  0.00000000000E+00 -0.66308335154E+03  0.66308335154E+03  0.25500000920E-02 0.  1.
    10030    2    1    2    0    0  0.00000000000E+00  0.00000000000E+00  0.13304355943E+04  0.26566022974E+04  0.22994514337E+04 0.  0.
        1    1    3    3  502    0  0.57415156752E+03 -0.60268688372E+03  0.15814876264E+04  0.17871722398E+04  0.50400001928E-02 0. -1.
       -1    1    3    3    0  502 -0.57415156752E+03  0.60268688372E+03 -0.25105203204E+03  0.86943005763E+03  0.50400001928E-02 0.  1.
</event>
<event>
 5   0  0.7348107E-06  0.2301413E+04  0.7818609E-02  0.8477364E-01
        2   -1    0    0  501    0  0.00000000000E+00  0.00000000000E+00  0.16904612895E+04  0.16904612895E+04  0.25500000920E-02 0.  1.
       -2   -1    0    0    0  501  0.00000000000E+00  0.00000000000E+00 -0.78329227890E+03  0.78329227891E+03  0.25500000920E-02 0. -1.
    10030    2    1    2    0    0  0.00000000000E+00  0.00000000000E+00  0.90716901064E+03  0.24737535685E+04  0.23014128494E+04 0.  0.
        3    1    3    3  502    0 -0.52420750310E+03 -0.32092230069E+03 -0.59206381652E+03  0.85341912470E+03  0.10100000352E+00 0. -1.
       -3    1    3    3    0  502  0.52420750310E+03  0.32092230069E+03  0.14992328272E+04  0.16203344438E+04  0.10100000352E+00 0.  1.
</event>
<event>
 5   0  0.7348107E-06  0.2300365E+04  0.7818609E-02  0.8477777E-01
       -2   -1    0    0    0  501  0.00000000000E+00  0.00000000000E+00  0.86283076500E+03  0.86283076501E+03  0.25500000920E-02 0. -1.
        2   -1    0    0  501    0  0.00000000000E+00  0.00000000000E+00 -0.15332315247E+04  0.15332315247E+04  0.25500000920E-02 0.  1.
    10030    2    1    2    0    0  0.00000000000E+00  0.00000000000E+00 -0.67040075968E+03  0.23960622897E+04  0.23003646053E+04 0.  0.
        3    1    3    3  502    0 -0.63393981051E+03 -0.85760390083E+03 -0.78388168522E+03  0.13235689029E+04  0.10100000352E+00 0.  1.
       -3    1    3    3    0  502  0.63393981051E+03  0.85760390083E+03  0.11348092554E+03  0.10724933868E+04  0.10100000352E+00 0. -1.
</event>
<event>
 5   0  0.7497344E-06  0.2300730E+04  0.7818609E-02  0.8477633E-01
       -2   -1    0    0    0  501  0.00000000000E+00  0.00000000000E+00  0.77755581916E+03  0.77755581916E+03  0.25500000920E-02 0.  1.
        2   -1    0    0  501    0  0.00000000000E+00  0.00000000000E+00 -0.17019229080E+04  0.17019229080E+04  0.25500000920E-02 0. -1.
    10030    2    1    2    0    0  0.00000000000E+00  0.00000000000E+00 -0.92436708889E+03  0.24794787272E+04  0.23007303718E+04 0.  0.
        5    1    3    3  502    0 -0.56165155719E+03 -0.68449276885E+03  0.32926743908E+03  0.94468087667E+03  0.46999998093E+01 0.  1.
       -5    1    3    3    0  502  0.56165155719E+03  0.68449276885E+03 -0.12536345280E+04  0.15347978505E+04  0.46999998093E+01 0. -1.
</event>
<event>
 5   0  0.3238713E-06  0.2288456E+04  0.7818609E-02  0.8482487E-01
        1   -1    0    0  501    0  0.00000000000E+00  0.00000000000E+00  0.18877852040E+04  0.18877852040E+04  0.50400001928E-02 0.  1.
       -1   -1    0    0    0  501  0.00000000000E+00  0.00000000000E+00 -0.69354161695E+03  0.69354161697E+03  0.50400001928E-02 0. -1.
    10030    2    1    2    0    0  0.00000000000E+00  0.00000000000E+00  0.11942435870E+04  0.25813268210E+04  0.22884559011E+04 0.  0.
        3    1    3    3  502    0  0.39682082695E+03  0.73739109919E+03 -0.28244408848E+03  0.88373473123E+03  0.10100000352E+00 0. -1.
       -3    1    3    3    0  502 -0.39682082695E+03 -0.73739109919E+03  0.14766876755E+04  0.16975920897E+04  0.10100000352E+00 0.  1.
</event>
<event>
 5   0  0.3195296E-06  0.2309515E+04  0.7818609E-02  0.8474179E-01
       -1   -1    0    0    0  501  0.00000000000E+00  0.00000000000E+00  0.10560733622E+04  0.10560733623E+04  0.50400001928E-02 0. -1.
        1   -1    0    0  501    0  0.00000000000E+00  0.00000000000E+00 -0.12626627795E+04  0.12626627795E+04  0.50400001928E-02 0.  1.
    10030    2    1    2    0    0  0.00000000000E+00  0.00000000000E+00 -0.20658941722E+03  0.23187361417E+04  0.23095146909E+04 0.  0.
        2    1    3    3  502    0 -0.10366062417E+04  0.38156889996E+03 -0.44126499653E+03  0.11894797699E+04  0.25500000920E-02 0.  1.
       -2    1    3    3    0  502  0.10366062417E+04 -0.38156889996E+03  0.23467557931E+03  0.11292563718E+04  0.25500000920E-02 0. -1.
</event>
<event>
 5   0  0.3226427E-06  0.2299333E+04  0.7818609E-02  0.8478184E-01
       -1   -1    0    0    0  501  0.00000000000E+00  0.00000000000E+00  0.11454671938E+04  0.11454671938E+04  0.50400001928E-02 0. -1.
        1   -1    0    0  501    0  0.00000000000E+00  0.00000000000E+00 -0.11538809791E+04  0.11538809791E+04  0.50400001928E-02 0.  1.
    10030    2    1    2    0    0  0.00000000000E+00  0.00000000000E+00 -0.84137853275E+01  0.22993481730E+04  0.22993327790E+04 0.  0.
        4    1    3    3  502    0 -0.99245110025E+03 -0.57265611673E+03  0.89798948619E+02  0.11493300999E+04  0.12699999809E+01 0. -1.
       -4    1    3    3    0  502  0.99245110025E+03  0.57265611673E+03 -0.98212733947E+02  0.11500180731E+04  0.12699999809E+01 0.  1.
</event>
<event>
 5   0  0.7348107E-06  0.2299532E+04  0.7818609E-02  0.8478106E-01
        2   -1    0    0  501    0  0.00000000000E+00  0.00000000000E+00  0.12424659579E+04  0.12424659579E+04  0.25500000920E-02 0. -1.
       -2   -1    0    0    0  501  0.00000000000E+00  0.00000000000E+00 -0.10639825197E+04  0.10639825197E+04  0.25500000920E-02 0.  1.
    10030    2    1    2    0    0  0.00000000000E+00  0.00000000000E+00  0.17848343819E+03  0.23064484776E+04  0.22995321790E+04 0.  0.
        3    1    3    3  502    0  0.22192864723E+03 -0.10334807905E+04 -0.36447619585E+03  0.11181134899E+04  0.10100000352E+00 0.  1.
       -3    1    3    3    0  502 -0.22192864723E+03  0.10334807905E+04  0.54295963405E+03  0.11883349878E+04  0.10100000352E+00 0. -1.
</event>
<event>
 5   0  0.7348107E-06  0.2298968E+04  0.7818609E-02  0.8478328E-01
       -2   -1    0    0    0  501  0.00000000000E+00  0.00000000000E+00  0.74613939114E+03  0.74613939115E+03  0.25500000920E-02 0. -1.
        2   -1    0    0  501    0  0.00000000000E+00  0.00000000000E+00 -0.17708670452E+04  0.17708670452E+04  0.25500000920E-02 0.  1.
    10030    2    1    2    0    0  0.00000000000E+00  0.00000000000E+00 -0.10247276540E+04  0.25170064363E+04  0.22989681676E+04 0.  0.
        3    1    3    3  502    0 -0.43709579718E+03 -0.37969520410E+02 -0.16755883985E+04  0.17320770514E+04  0.10100000352E+00 0.  1.
       -3    1    3    3    0  502  0.43709579718E+03  0.37969520410E+02  0.65086074451E+03  0.78492938494E+03  0.10100000352E+00 0. -1.
</event>
<event>
 5   0  0.7242214E-06  0.2343285E+04  0.7818609E-02  0.8461048E-01
       -2   -1    0    0    0  501  0.00000000000E+00  0.00000000000E+00  0.82701381552E+03  0.82701381552E+03  0.25500000920E-02 0.  1.
        2   -1    0    0  501    0  0.00000000000E+00  0.00000000000E+00 -0.16598823858E+04  0.16598823858E+04  0.25500000920E-02 0. -1.
    10030    2    1    2    0    0  0.00000000000E+00  0.00000000000E+00 -0.83286857028E+03  0.24868962013E+04  0.23432845881E+04 0.  0.
        1    1    3    3  502    0  0.11123032933E+04  0.34545246923E+03 -0.28139776944E+03  0.11982239897E+04  0.50400001928E-02 0. -1.
       -1    1    3    3    0  502 -0.11123032933E+04 -0.34545246923E+03 -0.55147080083E+03  0.12886722116E+04  0.50400001928E-02 0.  1.
</event>
<event>
 5   0  0.3184492E-06  0.2301763E+04  0.7818609E-02  0.8477226E-01
       -1   -1    0    0    0  501  0.00000000000E+00  0.00000000000E+00  0.85471952223E+03  0.85471952225E+03  0.50400001928E-02 0.  1.
        1   -1    0    0  501    0  0.00000000000E+00  0.00000000000E+00 -0.15496646372E+04  0.15496646372E+04  0.50400001928E-02 0. -1.
    10030    2    1    2    0    0  0.00000000000E+00  0.00000000000E+00 -0.69494511499E+03  0.24043841595E+04  0.23017633400E+04 0.  0.
        1    1    3    3  502    0  0.80934847011E+03 -0.73704446353E+03 -0.71862932879E+03  0.13094684416E+04  0.50400001928E-02 0. -1.
       -1    1    3    3    0  502 -0.80934847011E+03  0.73704446353E+03  0.23684213806E+02  0.10949157179E+04  0.50400001928E-02 0.  1.
</event>
<event>
 5   0  0.7003852E-06  0.2299464E+04  0.7818609E-02  0.8478133E-01
        2   -1    0    0  501    0  0.00000000000E+00  0.00000000000E+00  0.17562354684E+04  0.17562354684E+04  0.25500000920E-02 0.  1.
       -2   -1    0    0    0  501  0.00000000000E+00  0.00000000000E+00 -0.75268014466E+03  0.75268014466E+03  0.25500000920E-02 0. -1.
    10030    2    1    2    0    0  0.00000000000E+00  0.00000000000E+00  0.10035553237E+04  0.25089156131E+04  0.22994639083E+04 0.  0.
        2    1    3    3  502    0 -0.26035554194E+03 -0.79076222866E+03 -0.36341640464E+03  0.90838394618E+03  0.25500000920E-02 0. -1.
       -2    1    3    3    0  502  0.26035554194E+03  0.79076222866E+03  0.13669717284E+04  0.16005316669E+04  0.25500000920E-02 0.  1.
</event>
<event>
 5   0  0.7348107E-06  0.2296377E+04  0.7818609E-02  0.8479351E-01
       -2   -1    0    0    0  501  0.00000000000E+00  0.00000000000E+00  0.39717053785E+03  0.39717053786E+03  0.25500000920E-02 0.  1.
        2   -1    0    0  501    0  0.00000000000E+00  0.00000000000E+00 -0.33193211477E+04  0.33193211477E+04  0.25500000920E-02 0. -1.
    10030    2    1    2    0    0  0.00000000000E+00  0.00000000000E+00 -0.29221506099E+04  0.37164916856E+04  0.22963767684E+04 0.  0.
        3    1    3    3  502    0 -0.44136788904E+03 -0.67073156216E+03 -0.13274153257E+03  0.81382231883E+03  0.10100000352E+00 0.  1.
       -3    1    3    3    0  502  0.44136788904E+03  0.67073156216E+03 -0.27894090773E+04  0.29026693668E+04  0.10100000352E+00 0. -1.
</event>
<event>
 5   0  0.3184492E-06  0.2286999E+04  0.7818609E-02  0.8483065E-01
       -1   -1    0    0    0  501  0.00000000000E+00  0.00000000000E+00  0.11450579212E+04  0.11450579212E+04  0.50400001928E-02 0.  1.
        1   -1    0    0  501    0  0.00000000000E+00  0.00000000000E+00 -0.11419431882E+04  0.11419431882E+04  0.50400001928E-02 0. -1.
    10030    2    1    2    0    0  0.00000000000E+00  0.00000000000E+00  0.31147330401E+01  0.22870011094E+04  0.22869989884E+04 0.  0.
        1    1    3    3  502    0  0.10729806478E+04  0.56761547184E+02  0.39281435801E+03  0.11440334189E+04  0.50400001928E-02 0.  1.
       -1    1    3    3    0  502 -0.10729806478E+04 -0.56761547184E+02 -0.38969962497E+03  0.11429676905E+04  0.50400001928E-02 0. -1.
</event>
<event>
 5   0  0.7044981E-06  0.2301480E+04  0.7818609E-02  0.8477338E-01
       -2   -1    0    0    0  501  0.00000000000E+00  0.00000000000E+00  0.76895849117E+03  0.76895849118E+03  0.25500000920E-02 0.  1.
        2   -1    0    0  501    0  0.00000000000E+00  0.00000000000E+00 -0.17220732684E+04  0.17220732684E+04  0.25500000920E-02 0. -1.
    10030    2    1    2    0    0  0.00000000000E+00  0.00000000000E+00 -0.95311477718E+03  0.24910317595E+04  0.23014802733E+04 0.  0.
        4    1    3    3  502    0  0.81637041286E+03  0.77210639462E+03 -0.20793929232E+03  0.11427376330E+04  0.12699999809E+01 0.  1.
       -4    1    3    3    0  502 -0.81637041286E+03 -0.77210639462E+03 -0.74517548486E+03  0.13482941266E+04  0.12699999809E+01 0. -1.
</event>
<event>
 5   0  0.2519625E-06  0.2301256E+04  0.7818609E-02  0.8477426E-01
        3   -1    0    0  501    0  0.00000000000E+00  0.00000000000E+00  0.54422494642E+03  0.54422495580E+03  0.10100000352E+00 0. -1.
       -3   -1    0    0    0  501  0.00000000000E+00  0.00000000000E+00 -0.24327162916E+04  0.24327162936E+04  0.10100000352E+00 0.  1.
    10030    2    1    2    0    0  0.00000000000E+00  0.00000000000E+00 -0.18884913451E+04  0.29769412494E+04  0.23012561009E+04 0.  0.
        4    1    3    3  502    0 -0.45340933690E+03  0.58541975910E+02  0.42169017015E+03  0.62195771740E+03  0.12699999809E+01 0. -1.
       -4    1    3    3    0  502  0.45340933690E+03 -0.58541975910E+02 -0.23101815153E+04  0.23549835320E+04  0.12699999809E+01 0.  1.
</event>
<event>
 5   0  0.7497344E-06  0.2304072E+04  0.7818609E-02  0.8476317E-01
        2   -1    0    0  501    0  0.00000000000E+00  0.00000000000E+00  0.42241069550E+03  0.42241069550E+03  0.25500000920E-02 0.  1.
       -2   -1    0    0    0  501  0.00000000000E+00  0.00000000000E+00 -0.31419356821E+04  0.31419356821E+04  0.25500000920E-02 0. -1.
    10030    2    1    2    0    0  0.00000000000E+00  0.00000000000E+00 -0.27195249866E+04  0.35643463776E+04  0.23040722530E+04 0.  0.
        5    1    3    3  502    0 -0.60893239672E+03  0.82334231760E+03 -0.21761118685E+04  0.24050314322E+04  0.46999998093E+01 0. -1.
       -5    1    3    3    0  502  0.60893239672E+03 -0.82334231760E+03 -0.54341311816E+03  0.11593149454E+04  0.46999998093E+01 0.  1.
</event>
<event>
 5   0  0.7003852E-06  0.2310585E+04  0.7818609E-02  0.8473759E-01
        2   -1    0    0  501    0  0.00000000000E+00  0.00000000000E+00  0.17894469422E+04  0.17894469422E+04  0.25500000920E-02 0. -1.
       -2   -1    0    0    0  501  0.00000000000E+00  0.00000000000E+00 -0.74587354229E+03  0.74587354229E+03  0.25500000920E-02 0.  1.
    10030    2    1    2    0    0  0.00000000000E+00  0.00000000000E+00  0.10435733999E+04  0.25353204845E+04  0.23105853194E+04 0.  0.
        2    1    3    3  502    0 -0.23064667371E+03  0.57356259226E+02 -0.71875839508E+03  0.75703451643E+03  0.25500000920E-02 0.  1.
       -2    1    3    3    0  502  0.23064667371E+03 -0.57356259226E+02  0.17623317950E+04  0.17782859681E+04  0.25500000920E-02 0. -1.
</event>
<event>
 5   0  0.7348107E-06  0.2298251E+04  0.7818609E-02  0.8478611E-01
        2   -1    0    0  501    0  0.00000000000E+00  0.00000000000E+00  0.14719205788E+04  0.14719205788E+04  0.25500000920E-02 0.  1.
       -2   -1    0    0    0  501  0.00000000000E+00  0.00000000000E+00 -0.89711999073E+03  0.89711999073E+03  0.25500000920E-02 0. -1.
    10030    2    1    2    0    0  0.00000000000E+00  0.00000000000E+00  0.57480058809E+03  0.23690405696E+04  0.22982509663E+04 0.  0.
        3    1    3    3  502    0  0.26870101436E+03  0.27447342928E+03  0.14037890105E+04  0.14553898085E+04  0.10100000352E+00 0.  1.
       -3    1    3    3    0  502 -0.26870101436E+03 -0.27447342928E+03 -0.82898842240E+03  0.91365076106E+03  0.10100000352E+00 0. -1.
</event>
<event>
 5   0  0.7348107E-06  0.2302510E+04  0.7818609E-02  0.8476932E-01
        2   -1    0    0  501    0  0.00000000000E+00  0.00000000000E+00  0.12665187660E+04  0.12665187661E+04  0.25500000920E-02 0. -1.
       -2   -1    0    0    0  501  0.00000000000E+00  0.00000000000E+00 -0.10464808702E+04  0.10464808702E+04  0.25500000920E-02 0.  1.
    10030    2    1    2    0    0  0.00000000000E+00  0.00000000000E+00  0.22003789581E+03  0.23129996363E+04  0.23025096399E+04 0.  0.
        3    1    3    3  502    0  0.23310510956E+03  0.38144508168E+03  0.11757714722E+04  0.12578858881E+04  0.10100000352E+00 0. -1.
       -3    1    3    3    0  502 -0.23310510956E+03 -0.38144508168E+03 -0.95573357637E+03  0.10551137482E+04  0.10100000352E+00 0.  1.
</event>
<event>
 5   0  0.7003852E-06  0.2313875E+04  0.7818609E-02  0.8472470E-01
       -2   -1    0    0    0  501  0.00000000000E+00  0.00000000000E+00  0.60397466060E+03  0.60397466061E+03  0.25500000920E-02 0. -1.
        2   -1    0    0  501    0  0.00000000000E+00  0.00000000000E+00 -0.22161600838E+04  0.22161600838E+04  0.25500000920E-02 0.  1.
    10030    2    1    2    0    0  0.00000000000E+00  0.00000000000E+00 -0.16121854232E+04  0.28201347444E+04  0.23138751345E+04 0.  0.
        2    1    3    3  502    0  0.79818780911E+03 -0.58144468526E+03 -0.15407356131E+04  0.18300404176E+04  0.25500000920E-02 0.  1.
       -2    1    3    3    0  502 -0.79818780911E+03  0.58144468526E+03 -0.71449810131E+02  0.99009432683E+03  0.25500000920E-02 0. -1.
</event>
<event>
 5   0  0.7348107E-06  0.2299632E+04  0.7818609E-02  0.8478066E-01
        2   -1    0    0  501    0  0.00000000000E+00  0.00000000000E+00  0.24121112454E+04  0.24121112454E+04  0.25500000920E-02 0. -1.
       -2   -1    0    0    0  501  0.00000000000E+00  0.00000000000E+00 -0.54809941977E+03  0.54809941978E+03  0.25500000920E-02 0.  1.
    10030    2    1    2    0    0  0.00000000000E+00  0.00000000000E+00  0.18640118257E+04  0.29602106652E+04  0.22996319480E+04 0.  0.
        3    1    3    3  502    0 -0.10992043460E+04  0.23313102953E+02  0.49874771580E+03  0.12072874510E+04  0.10100000352E+00 0.  1.
       -3    1    3    3    0  502  0.10992043460E+04 -0.23313102953E+02  0.13652641099E+04  0.17529232142E+04  0.10100000352E+00 0. -1.
</event>
<event>
 5   0  0.3338758E-06  0.2299360E+04  0.7818609E-02  0.8478174E-01
       -1   -1    0    0    0  501  0.00000000000E+00  0.00000000000E+00  0.10249844601E+04  0.10249844601E+04  0.50400001928E-02 0.  1.
        1   -1    0    0  501    0  0.00000000000E+00  0.00000000000E+00 -0.12895449875E+04  0.12895449875E+04  0.50400001928E-02 0. -1.
    10030    2    1    2    0    0  0.00000000000E+00  0.00000000000E+00 -0.26456052737E+03  0.23145294476E+04  0.22993595393E+04 0.  0.
        5    1    3    3  502    0  0.61851988157E+03 -0.81651149642E+03 -0.65772376112E+03  0.12173251429E+04  0.46999998093E+01 0. -1.
       -5    1    3    3    0  502 -0.61851988157E+03  0.81651149642E+03  0.39316323375E+03  0.10972043046E+04  0.46999998093E+01 0.  1.
</event>
<event>
 5   0  0.7242214E-06  0.2299302E+04  0.7818609E-02  0.8478197E-01
        2   -1    0    0  501    0  0.00000000000E+00  0.00000000000E+00  0.75656676281E+03  0.75656676282E+03  0.25500000920E-02 0. -1.
       -2   -1    0    0    0  501  0.00000000000E+00  0.00000000000E+00 -0.17469667808E+04  0.17469667808E+04  0.25500000920E-02 0.  1.
    10030    2    1    2    0    0  0.00000000000E+00  0.00000000000E+00 -0.99040001796E+03  0.25035335436E+04  0.22993016349E+04 0.  0.
        1    1    3    3  502    0 -0.14255120955E+03 -0.72467795795E+03 -0.14544887001E+04  0.16312622011E+04  0.50400001928E-02 0.  1.
       -1    1    3    3    0  502  0.14255120955E+03  0.72467795795E+03  0.46408868210E+03  0.87227134251E+03  0.50400001928E-02 0. -1.
</event>
<event>
 5   0  0.3238713E-06  0.2299630E+04  0.7818609E-02  0.8478067E-01
       -1   -1    0    0    0  501  0.00000000000E+00  0.00000000000E+00  0.17280324330E+04  0.17280324331E+04  0.50400001928E-02 0.  1.
        1   -1    0    0  501    0  0.00000000000E+00  0.00000000000E+00 -0.76507507833E+03  0.76507507835E+03  0.50400001928E-02 0. -1.
    10030    2    1    2    0    0  0.00000000000E+00  0.00000000000E+00  0.96295735471E+03  0.24931075114E+04  0.22996300129E+04 0.  0.
        3    1    3    3  502    0  0.11594516556E+03 -0.11152768807E+04  0.20552715438E+03  0.11399680800E+04  0.10100000352E+00 0.  1.
       -3    1    3    3    0  502 -0.11594516556E+03  0.11152768807E+04  0.75743020034E+03  0.13531394314E+04  0.10100000352E+00 0. -1.
</event>
<event>
 5   0  0.7044981E-06  0.2290151E+04  0.7818609E-02  0.8481815E-01
        2   -1    0    0  501    0  0.00000000000E+00  0.00000000000E+00  0.15035619980E+04  0.15035619980E+04  0.25500000920E-02 0. -1.
       -2   -1    0    0    0  501  0.00000000000E+00  0.00000000000E+00 -0.87206073953E+03  0.87206073953E+03  0.25500000920E-02 0.  1.
    10030    2    1    2    0    0  0.00000000000E+00  0.00000000000E+00  0.63150125849E+03  0.23756227376E+04  0.22901505522E+04 0.  0.
        4    1    3    3  502    0 -0.79637500629E+03  0.80728225012E+03  0.48067496168E+03  0.12316524728E+04  0.12699999809E+01 0.  1.
       -4    1    3    3    0  502  0.79637500629E+03 -0.80728225012E+03  0.15082629681E+03  0.11439702648E+04  0.12699999809E+01 0. -1.
</event>
<event>
 5   0  0.7044981E-06  0.2300712E+04  0.7818609E-02  0.8477641E-01
        2   -1    0    0  501    0  0.00000000000E+00  0.00000000000E+00  0.15321524618E+04  0.15321524618E+04  0.25500000920E-02 0. -1.
       -2   -1    0    0    0  501  0.00000000000E+00  0.00000000000E+00 -0.86369906843E+03  0.86369906844E+03  0.25500000920E-02 0.  1.
    10030    2    1    2    0    0  0.00000000000E+00  0.00000000000E+00  0.66845339339E+03  0.23958515303E+04  0.23007117629E+04 0.  0.
        4    1    3    3  502    0 -0.37648804304E+02  0.52130096075E+03 -0.73291553166E+03  0.90018826564E+03  0.12699999809E+01 0.  1.
       -4    1    3    3    0  502  0.37648804304E+02 -0.52130096075E+03  0.14013689250E+04  0.14956632646E+04  0.12699999809E+01 0. -1.
</event>
<event>
 5   0  0.7044981E-06  0.2295233E+04  0.7818609E-02  0.8479803E-01
        2   -1    0    0  501    0  0.00000000000E+00  0.00000000000E+00  0.21300013806E+04  0.21300013806E+04  0.25500000920E-02 0.  1.
       -2   -1    0    0    0  501  0.00000000000E+00  0.00000000000E+00 -0.61832064518E+03  0.61832064519E+03  0.25500000920E-02 0. -1.
    10030    2    1    2    0    0  0.00000000000E+00  0.00000000000E+00  0.15116807354E+04  0.27483220258E+04  0.22952331715E+04 0.  0.
        4    1    3    3  502    0 -0.65203321479E+03  0.31860287952E+03  0.18203638242E+04  0.19596890502E+04  0.12699999809E+01 0.  1.
       -4    1    3    3    0  502  0.65203321479E+03 -0.31860287952E+03 -0.30868308877E+03  0.78863297561E+03  0.12699999809E+01 0. -1.
</event>
<event>
 5   0  0.7242214E-06  0.2299918E+04  0.7818609E-02  0.8477954E-01
       -2   -1    0    0    0  501  0.00000000000E+00  0.00000000000E+00  0.87760888999E+03  0.87760889000E+03  0.25500000920E-02 0.  1.
        2   -1    0    0  501    0  0.00000000000E+00  0.00000000000E+00 -0.15068276595E+04  0.15068276595E+04  0.25500000920E-02 0. -1.
    10030    2    1    2    0    0  0.00000000000E+00  0.00000000000E+00 -0.62921876956E+03  0.23844365495E+04  0.22999176939E+04 0.  0.
        1    1    3    3  502    0  0.67884335180E+03 -0.57881716611E+03 -0.10669116215E+04  0.13907400965E+04  0.50400001928E-02 0. -1.
       -1    1    3    3    0  502 -0.67884335180E+03  0.57881716611E+03  0.43769285192E+03  0.99369645300E+03  0.50400001928E-02 0.  1.
</event>
<event>
 5   0  0.3226427E-06  0.2300358E+04  0.7818609E-02  0.8477780E-01
       -1   -1    0    0    0  501  0.00000000000E+00  0.00000000000E+00  0.11414392440E+04  0.11414392440E+04  0.50400001928E-02 0. -1.
        1   -1    0    0  501    0  0.00000000000E+00  0.00000000000E+00 -0.11589852141E+04  0.11589852141E+04  0.50400001928E-02 0.  1.
    10030    2    1    2    0    0  0.00000000000E+00  0.00000000000E+00 -0.17545970122E+02  0.23004244581E+04  0.23003575431E+04 0.  0.
        4    1    3    3  502    0 -0.60341824930E+02 -0.54205553481E+03  0.10038986863E+04  0.11424883036E+04  0.12699999809E+01 0. -1.
       -4    1    3    3    0  502  0.60341824930E+02  0.54205553481E+03 -0.10214446564E+04  0.11579361544E+04  0.12699999809E+01 0.  1.
</event>
<event>
 5   0  0.3338758E-06  0.2306367E+04  0.7818609E-02  0.8475415E-01
        1   -1    0    0  501    0  0.00000000000E+00  0.00000000000E+00  0.17102402209E+04  0.17102402209E+04  0.50400001928E-02 0.  1.
       -1   -1    0    0    0  501  0.00000000000E+00  0.00000000000E+00 -0.77757013243E+03  0.77757013245E+03  0.50400001928E-02 0. -1.
    10030    2    1    2    0    0  0.00000000000E+00  0.00000000000E+00  0.93267008848E+03  0.24878103534E+04  0.23063665928E+04 0.  0.
        5    1    3    3  502    0  0.82611941937E+03 -0.11543055564E+03 -0.39255528159E+03  0.92191065041E+03  0.46999998093E+01 0. -1.
       -5    1    3    3    0  502 -0.82611941937E+03  0.11543055564E+03  0.13252253701E+04  0.15658997030E+04  0.46999998093E+01 0.  1.
</event>
<event>
 5   0  0.7044981E-06  0.2297867E+04  0.7818609E-02  0.8478763E-01
        2   -1    0    0  501    0  0.00000000000E+00  0.00000000000E+00  0.93653799363E+03  0.93653799363E+03  0.25500000920E-02 0.  1.
       -2   -1    0    0    0  501  0.00000000000E+00  0.00000000000E+00 -0.14094973526E+04  0.14094973526E+04  0.25500000920E-02 0. -1.
    10030    2    1    2    0    0  0.00000000000E+00  0.00000000000E+00 -0.47295935898E+03  0.23460353462E+04  0.22978666825E+04 0.  0.
        4    1    3    3  502    0  0.86239635935E+03 -0.75206756588E+03 -0.13080585794E+03  0.11517138923E+04  0.12699999809E+01 0. -1.
       -4    1    3    3    0  502 -0.86239635935E+03  0.75206756588E+03 -0.34215350104E+03  0.11943214540E+04  0.12699999809E+01 0.  1.
</event>
<event>
 5   0  0.7242214E-06  0.2227833E+04  0.7818609E-02  0.8506932E-01
        2   -1    0    0  501    0  0.00000000000E+00  0.00000000000E+00  0.14934462214E+04  0.14934462214E+04  0.25500000920E-02 0.  1.
       -2   -1    0    0    0  501  0.00000000000E+00  0.00000000000E+00 -0.83083691106E+03  0.83083691107E+03  0.25500000920E-02 0. -1.
    10030    2    1    2    0    0  0.00000000000E+00  0.00000000000E+00  0.66260931036E+03  0.23242831325E+04  0.22278332482E+04 0.  0.
        1    1    3    3  502    0  0.10274604427E+04 -0.59990420357E+02  0.77582152665E+03  0.12888649475E+04  0.50400001928E-02 0.  1.
       -1    1    3    3    0  502 -0.10274604427E+04  0.59990420357E+02 -0.11321221629E+03  0.10354181849E+04  0.50400001928E-02 0. -1.
</event>
<event>
 5   0  0.7003852E-06  0.2293744E+04  0.7818609E-02  0.8480392E-01
       -2   -1    0    0    0  501  0.00000000000E+00  0.00000000000E+00  0.44956601534E+03  0.44956601534E+03  0.25500000920E-02 0. -1.
        2   -1    0    0  501    0  0.00000000000E+00  0.00000000000E+00 -0.29257448695E+04  0.29257448695E+04  0.25500000920E-02 0.  1.
    10030    2    1    2    0    0  0.00000000000E+00  0.00000000000E+00 -0.24761788542E+04  0.33753108849E+04  0.22937440685E+04 0.  0.
        2    1    3    3  502    0  0.27916743817E+03  0.98147040161E+03 -0.46768131386E+03  0.11224724581E+04  0.25500000920E-02 0. -1.
       -2    1    3    3    0  502 -0.27916743817E+03 -0.98147040161E+03 -0.20084975403E+04  0.22528384268E+04  0.25500000920E-02 0.  1.
</event>
<event>
 5   0  0.7497344E-06  0.2300703E+04  0.7818609E-02  0.8477644E-01
       -2   -1    0    0    0  501  0.00000000000E+00  0.00000000000E+00  0.12247151326E+04  0.12247151326E+04  0.25500000920E-02 0.  1.
        2   -1    0    0  501    0  0.00000000000E+00  0.00000000000E+00 -0.10805032817E+04  0.10805032817E+04  0.25500000920E-02 0. -1.
    10030    2    1    2    0    0  0.00000000000E+00  0.00000000000E+00  0.14421185083E+03  0.23052184143E+04  0.23007031272E+04 0.  0.
        5    1    3    3  502    0 -0.20296187240E+03 -0.24494662058E+02  0.12063581422E+04  0.12235667400E+04  0.46999998093E+01 0.  1.
       -5    1    3    3    0  502  0.20296187240E+03  0.24494662058E+02 -0.10621462914E+04  0.10816516742E+04  0.46999998093E+01 0. -1.
</event>
<event>
 5   0  0.7003852E-06  0.2299515E+04  0.7818609E-02  0.8478112E-01
       -2   -1    0    0    0  501  0.00000000000E+00  0.00000000000E+00  0.81512052591E+03  0.81512052592E+03  0.25500000920E-02 0.  1.
        2   -1    0    0  501    0  0.00000000000E+00  0.00000000000E+00 -0.16217755184E+04  0.16217755184E+04  0.25500000920E-02 0. -1.
    10030    2    1    2    0    0  0.00000000000E+00  0.00000000000E+00 -0.80665499246E+03  0.24368960443E+04  0.22995151780E+04 0.  0.
        2    1    3    3  502    0  0.77213360657E+03 -0.63324261224E+02  0.49698190584E+03  0.92042994475E+03  0.25500000920E-02 0.  1.
       -2    1    3    3    0  502 -0.77213360657E+03  0.63324261224E+02 -0.13036368983E+04  0.15164660995E+04  0.25500000920E-02 0. -1.
</event>
<event>
 5   0  0.3238713E-06  0.2295788E+04  0.7818609E-02  0.8479583E-01
       -1   -1    0    0    0  501  0.00000000000E+00  0.00000000000E+00  0.59899340138E+03  0.59899340140E+03  0.50400001928E-02 0.  1.
        1   -1    0    0  501    0  0.00000000000E+00  0.00000000000E+00 -0.21997925055E+04  0.21997925055E+04  0.50400001928E-02 0. -1.
    10030    2    1    2    0    0  0.00000000000E+00  0.00000000000E+00 -0.16007991041E+04  0.27987859069E+04  0.22957884878E+04 0.  0.
        3    1    3    3  502    0  0.13445667435E+03 -0.11036957119E+04 -0.45250123876E+03  0.12004083484E+04  0.10100000352E+00 0.  1.
       -3    1    3    3    0  502 -0.13445667435E+03  0.11036957119E+04 -0.11482978653E+04  0.15983775584E+04  0.10100000352E+00 0. -1.
</event>
<event>
 5   0  0.7242214E-06  0.2303191E+04  0.7818609E-02  0.8476664E-01
       -2   -1    0    0    0  501  0.00000000000E+00  0.00000000000E+00  0.71284803333E+03  0.71284803334E+03  0.25500000920E-02 0.  1.
        2   -1    0    0  501    0  0.00000000000E+00  0.00000000000E+00 -0.18603857782E+04  0.18603857782E+04  0.25500000920E-02 0. -1.
    10030    2    1    2    0    0  0.00000000000E+00  0.00000000000E+00 -0.11475377449E+04  0.25732338116E+04  0.23031911282E+04 0.  0.
        1    1    3    3  502    0  0.82634024350E+03 -0.20607202787E+03  0.29227317089E+03  0.90040406770E+03  0.50400001928E-02 0.  1.
       -1    1    3    3    0  502 -0.82634024350E+03  0.20607202787E+03 -0.14398109158E+04  0.16728297439E+04  0.50400001928E-02 0. -1.
</event>
<event>
 5   0  0.3195296E-06  0.2300955E+04  0.7818609E-02  0.8477545E-01
        1   -1    0    0  501    0  0.00000000000E+00  0.00000000000E+00  0.13147878095E+04  0.13147878095E+04  0.50400001928E-02 0.  1.
       -1   -1    0    0    0  501  0.00000000000E+00  0.00000000000E+00 -0.10067010096E+04  0.10067010097E+04  0.50400001928E-02 0. -1.
    10030    2    1    2    0    0  0.00000000000E+00  0.00000000000E+00  0.30808679982E+03  0.23214888191E+04  0.23009547716E+04 0.  0.
        2    1    3    3  502    0 -0.37740919055E+03  0.50066852812E+02 -0.94130341523E+03  0.10153799813E+04  0.25500000920E-02 0. -1.
       -2    1    3    3    0  502  0.37740919055E+03 -0.50066852812E+02  0.12493902150E+04  0.13061088379E+04  0.25500000920E-02 0.  1.
</event>
<event>
 5   0  0.3226427E-06  0.2301476E+04  0.7818609E-02  0.8477339E-01
       -1   -1    0    0    0  501  0.00000000000E+00  0.00000000000E+00  0.11119273909E+04  0.11119273909E+04  0.50400001928E-02 0.  1.
        1   -1    0    0  501    0  0.00000000000E+00  0.00000000000E+00 -0.11909033784E+04  0.11909033784E+04  0.50400001928E-02 0. -1.
    10030    2    1    2    0    0  0.00000000000E+00  0.00000000000E+00 -0.78975987534E+02  0.23028307693E+04  0.23014761231E+04 0.  0.
        4    1    3    3  502    0 -0.35152464263E+03 -0.95722996618E+03 -0.57303509671E+03  0.11697134767E+04  0.12699999809E+01 0. -1.
       -4    1    3    3    0  502  0.35152464263E+03  0.95722996618E+03  0.49405910918E+03  0.11331172926E+04  0.12699999809E+01 0.  1.
</event>
<event>
 5   0  0.7348107E-06  0.2297345E+04  0.7818609E-02  0.8478969E-01
        2   -1    0    0  501    0  0.00000000000E+00  0.00000000000E+00  0.13152787860E+04  0.13152787860E+04  0.25500000920E-02 0.  1.
       -2   -1    0    0    0  501  0.00000000000E+00  0.00000000000E+00 -0.10031703843E+04  0.10031703844E+04  0.25500000920E-02 0. -1.
    10030    2    1    2    0    0  0.00000000000E+00  0.00000000000E+00  0.31210840166E+03  0.23184491704E+04  0.22973451855E+04 0.  0.
        3    1    3    3  502    0 -0.93039693606E+03 -0.97053277729E+01 -0.52371800245E+03  0.10677140105E+04  0.10100000352E+00 0. -1.
       -3    1    3    3    0  502  0.93039693606E+03  0.97053277729E+01  0.83582640412E+03  0.12507351598E+04  0.10100000352E+00 0.  1.
</event>
<event>
 5   0  0.7497344E-06  0.2296050E+04  0.7818609E-02  0.8479480E-01
       -2   -1    0    0    0  501  0.00000000000E+00  0.00000000000E+00  0.66023424417E+03  0.66023424417E+03  0.25500000920E-02 0. -1.
        2   -1    0    0  501    0  0.00000000000E+00  0.00000000000E+00 -0.19962035468E+04  0.19962035468E+04  0.25500000920E-02 0.  1.
    10030    2    1    2    0    0  0.00000000000E+00  0.00000000000E+00 -0.13359693027E+04  0.26564377910E+04  0.22960504698E+04 0.  0.
        5    1    3    3  502    0 -0.83897009236E+03 -0.77955909533E+03 -0.76022743542E+03  0.13746094145E+04  0.46999998093E+01 0. -1.
       -5    1    3    3    0  502  0.83897009236E+03  0.77955909533E+03 -0.57574186724E+03  0.12818283765E+04  0.46999998093E+01 0.  1.
</event>
<event>
 5   0  0.7497344E-06  0.2300620E+04  0.7818609E-02  0.8477677E-01
        2   -1    0    0  501    0  0.00000000000E+00  0.00000000000E+00  0.15524075519E+04  0.15524075519E+04  0.25500000920E-02 0. -1.
       -2   -1    0    0    0  501  0.00000000000E+00  0.00000000000E+00 -0.85236173268E+03  0.85236173268E+03  0.25500000920E-02 0.  1.
    10030    2    1    2    0    0  0.00000000000E+00  0.00000000000E+00  0.70004581920E+03  0.24047692846E+04  0.23006197345E+04 0.  0.
        5    1    3    3  502    0  0.10910123451E+04  0.85762627943E+02 -0.20314919205E+02  0.10945766083E+04  0.46999998093E+01 0.  1.
       -5    1    3    3    0  502 -0.10910123451E+04 -0.85762627943E+02  0.72036073841E+03  0.13101926763E+04  0.46999998093E+01 0. -1.
</event>
<event>
 5   0  0.7242214E-06  0.2293616E+04  0.7818609E-02  0.8480443E-01
       -2   -1    0    0    0  501  0.00000000000E+00  0.00000000000E+00  0.98766195098E+03  0.98766195098E+03  0.25500000920E-02 0.  1.
        2   -1    0    0  501    0  0.00000000000E+00  0.00000000000E+00 -0.13315973962E+04  0.13315973962E+04  0.25500000920E-02 0. -1.
    10030    2    1    2    0    0  0.00000000000E+00  0.00000000000E+00 -0.34393544521E+03  0.23192593472E+04  0.22936155582E+04 0.  0.
        1    1    3    3  502    0  0.58541639839E+03 -0.85890064127E+03 -0.66189006489E+03  0.12322828933E+04  0.50400001928E-02 0. -1.
       -1    1    3    3    0  502 -0.58541639839E+03  0.85890064127E+03  0.31795461968E+03  0.10869764539E+04  0.50400001928E-02 0.  1.
</event>
<event>
 5   0  0.3226427E-06  0.2298739E+04  0.7818609E-02  0.8478418E-01
        1   -1    0    0  501    0  0.00000000000E+00  0.00000000000E+00  0.14744981543E+04  0.14744981543E+04  0.50400001928E-02 0.  1.
       -1   -1    0    0    0  501  0.00000000000E+00  0.00000000000E+00 -0.89593244976E+03  0.89593244978E+03  0.50400001928E-02 0. -1.
    10030    2    1    2    0    0  0.00000000000E+00  0.00000000000E+00  0.57856570454E+03  0.23704306041E+04  0.22987394316E+04 0.  0.
        4    1    3    3  502    0 -0.27285014484E+03 -0.70969116978E+03 -0.59953850099E+03  0.96827515979E+03  0.12699999809E+01 0. -1.
       -4    1    3    3    0  502  0.27285014484E+03  0.70969116978E+03  0.11781042055E+04  0.14021554443E+04  0.12699999809E+01 0.  1.
</event>
<event>
 5   0  0.2519625E-06  0.2314720E+04  0.7818609E-02  0.8472140E-01
        3   -1    0    0  501    0  0.00000000000E+00  0.00000000000E+00  0.10995138352E+04  0.10995138398E+04  0.10100000352E+00 0.  1.
       -3   -1    0    0    0  501  0.00000000000E+00  0.00000000000E+00 -0.12182494121E+04  0.12182494162E+04  0.10100000352E+00 0. -1.
    10030    2    1    2    0    0  0.00000000000E+00  0.00000000000E+00 -0.11873557685E+03  0.23177632561E+04  0.23147199343E+04 0.  0.
        4    1    3    3  502    0  0.80508890147E+02  0.25978600045E+03  0.10670601619E+04  0.11011763934E+04  0.12699999809E+01 0.  1.
       -4    1    3    3    0  502 -0.80508890147E+02 -0.25978600045E+03 -0.11857957388E+04  0.12165868627E+04  0.12699999809E+01 0. -1.
</event>
<event>
 5   0  0.7497344E-06  0.2300491E+04  0.7818609E-02  0.8477728E-01
       -2   -1    0    0    0  501  0.00000000000E+00  0.00000000000E+00  0.10220550441E+04  0.10220550441E+04  0.25500000920E-02 0. -1.
        2   -1    0    0  501    0  0.00000000000E+00  0.00000000000E+00 -0.12945138601E+04  0.12945138601E+04  0.25500000920E-02 0.  1.
    10030    2    1    2    0    0  0.00000000000E+00  0.00000000000E+00 -0.27245881609E+03  0.23165689042E+04  0.23004907480E+04 0.  0.
        5    1    3    3  502    0 -0.46333831488E+03  0.33852964595E+03 -0.11400704927E+04  0.12763492992E+04  0.46999998093E+01 0.  1.
       -5    1    3    3    0  502  0.46333831488E+03 -0.33852964595E+03  0.86761167662E+03  0.10402196050E+04  0.46999998093E+01 0. -1.
</event>
<event>
 5   0  0.7003852E-06  0.2307088E+04  0.7818609E-02  0.8475132E-01
        2   -1    0    0  501    0  0.00000000000E+00  0.00000000000E+00  0.18473014049E+04  0.18473014049E+04  0.25500000920E-02 0.  1.
       -2   -1    0    0    0  501  0.00000000000E+00  0.00000000000E+00 -0.72032855096E+03  0.72032855096E+03  0.25500000920E-02 0. -1.
    10030    2    1    2    0    0  0.00000000000E+00  0.00000000000E+00  0.11269728540E+04  0.25676299559E+04  0.23070881597E+04 0.  0.
        2    1    3    3  502    0  0.22974299957E+03 -0.11304307600E+04  0.56026178607E+03  0.12823996327E+04  0.25500000920E-02 0. -1.
       -2    1    3    3    0  502 -0.22974299957E+03  0.11304307600E+04  0.56671106791E+03  0.12852303232E+04  0.25500000920E-02 0.  1.
</event>
<event>
 5   0  0.7348107E-06  0.2307388E+04  0.7818609E-02  0.8475014E-01
       -2   -1    0    0    0  501  0.00000000000E+00  0.00000000000E+00  0.22882474387E+04  0.22882474387E+04  0.25500000920E-02 0.  1.
        2   -1    0    0  501    0  0.00000000000E+00  0.00000000000E+00 -0.58167207017E+03  0.58167207017E+03  0.25500000920E-02 0. -1.
    10030    2    1    2    0    0  0.00000000000E+00  0.00000000000E+00  0.17065753685E+04  0.28699195088E+04  0.23073878085E+04 0.  0.
        3    1    3    3  502    0 -0.83524213484E+03  0.63880020700E+03  0.26289131195E+03  0.10838851325E+04  0.10100000352E+00 0. -1.
       -3    1    3    3    0  502  0.83524213484E+03 -0.63880020700E+03  0.14436840565E+04  0.17860343764E+04  0.10100000352E+00 0.  1.
</event>
<event>
 5   0  0.3184492E-06  0.2282135E+04  0.7818609E-02  0.8484999E-01
       -1   -1    0    0    0  501  0.00000000000E+00  0.00000000000E+00  0.79449555564E+03  0.79449555565E+03  0.50400001928E-02 0. -1.
        1   -1    0    0  501    0  0.00000000000E+00  0.00000000000E+00 -0.16388192451E+04  0.16388192451E+04  0.50400001928E-02 0.  1.
    10030    2    1    2    0    0  0.00000000000E+00  0.00000000000E+00 -0.84432368942E+03  0.24333148007E+04  0.22821346207E+04 0.  0.
        1    1    3    3  502    0  0.10908512487E+04 -0.33241667301E+03 -0.37981546146E+03  0.12019638414E+04  0.50400001928E-02 0. -1.
       -1    1    3    3    0  502 -0.10908512487E+04  0.33241667301E+03 -0.46450822796E+03  0.12313509593E+04  0.50400001928E-02 0.  1.
</event>
<event>
 5   0  0.7348107E-06  0.2299708E+04  0.7818609E-02  0.8478036E-01
       -2   -1    0    0    0  501  0.00000000000E+00  0.00000000000E+00  0.13246862256E+04  0.13246862256E+04  0.25500000920E-02 0. -1.
        2   -1    0    0  501    0  0.00000000000E+00  0.00000000000E+00 -0.99809602921E+03  0.99809602921E+03  0.25500000920E-02 0.  1.
    10030    2    1    2    0    0  0.00000000000E+00  0.00000000000E+00  0.32659019638E+03  0.23227822548E+04  0.22997078612E+04 0.  0.
        3    1    3    3  502    0 -0.37339983038E+03 -0.38726841108E+03  0.11897396438E+04  0.13057123288E+04  0.10100000352E+00 0. -1.
       -3    1    3    3    0  502  0.37339983038E+03  0.38726841108E+03 -0.86314944739E+03  0.10170699260E+04  0.10100000352E+00 0.  1.
</event>
<event>
 5   0  0.7497344E-06  0.2297095E+04  0.7818609E-02  0.8479067E-01
        2   -1    0    0  501    0  0.00000000000E+00  0.00000000000E+00  0.13315681006E+04  0.13315681006E+04  0.25500000920E-02 0.  1.
       -2   -1    0    0    0  501  0.00000000000E+00  0.00000000000E+00 -0.99068280453E+03  0.99068280453E+03  0.25500000920E-02 0. -1.
    10030    2    1    2    0    0  0.00000000000E+00  0.00000000000E+00  0.34088529603E+03  0.23222509051E+04  0.22970952268E+04 0.  0.
        5    1    3    3  502    0 -0.63397587430E+03  0.82502623397E+03 -0.32124329654E+03  0.10889504311E+04  0.46999998093E+01 0. -1.
       -5    1    3    3    0  502  0.63397587430E+03 -0.82502623397E+03  0.66212859257E+03  0.12333004739E+04  0.46999998093E+01 0.  1.
</event>
<event>
 5   0  0.3184492E-06  0.2302999E+04  0.7818609E-02  0.8476739E-01
       -1   -1    0    0    0  501  0.00000000000E+00  0.00000000000E+00  0.12237221641E+04  0.12237221641E+04  0.50400001928E-02 0.  1.
        1   -1    0    0  501    0  0.00000000000E+00  0.00000000000E+00 -0.10835397050E+04  0.10835397050E+04  0.50400001928E-02 0. -1.
    10030    2    1    2    0    0  0.00000000000E+00  0.00000000000E+00  0.14018245908E+03  0.23072618691E+04  0.23029993945E+04 0.  0.
        1    1    3    3  502    0 -0.98726899453E+03  0.45746533450E+03  0.44758691349E+03  0.11765664643E+04  0.50400001928E-02 0.  1.
       -1    1    3    3    0  502  0.98726899453E+03 -0.45746533450E+03 -0.30740445440E+03  0.11306954048E+04  0.50400001928E-02 0. -1.
</event>
<event>
 5   0  0.3195296E-06  0.2294279E+04  0.7818609E-02  0.8480180E-01
       -1   -1    0    0    0  501  0.00000000000E+00  0.00000000000E+00  0.63112563541E+03  0.63112563543E+03  0.50400001928E-02 0.  1.
        1   -1    0    0  501    0  0.00000000000E+00  0.00000000000E+00 -0.20850511815E+04  0.20850511815E+04  0.50400001928E-02 0. -1.
    10030    2    1    2    0    0  0.00000000000E+00  0.00000000000E+00 -0.14539255461E+04  0.27161768169E+04  0.22942791912E+04 0.  0.
        2    1    3    3  502    0 -0.23736193573E+03 -0.57560272146E+03 -0.18676036886E+04  0.19686550533E+04  0.25500000920E-02 0. -1.
       -2    1    3    3    0  502  0.23736193573E+03  0.57560272146E+03  0.41367814248E+03  0.74752176360E+03  0.25500000920E-02 0.  1.
</event>
<event>
 5   0  0.7044981E-06  0.2304204E+04  0.7818609E-02  0.8476265E-01
       -2   -1    0    0    0  501  0.00000000000E+00  0.00000000000E+00  0.18449647667E+04  0.18449647667E+04  0.25500000920E-02 0. -1.
        2   -1    0    0  501    0  0.00000000000E+00  0.00000000000E+00 -0.71943861102E+03  0.71943861102E+03  0.25500000920E-02 0.  1.
    10030    2    1    2    0    0  0.00000000000E+00  0.00000000000E+00  0.11255261557E+04  0.25644033777E+04  0.23042038878E+04 0.  0.
        4    1    3    3  502    0 -0.77864774509E+02 -0.94669451949E+03  0.12883380576E+04  0.16006592391E+04  0.12699999809E+01 0. -1.
       -4    1    3    3    0  502  0.77864774509E+02  0.94669451949E+03 -0.16281190191E+03  0.96374413857E+03  0.12699999809E+01 0.  1.
</event>
<event>
 5   0  0.7044981E-06  0.2315944E+04  0.7818609E-02  0.8471661E-01
       -2   -1    0    0    0  501  0.00000000000E+00  0.00000000000E+00  0.64952325711E+03  0.64952325712E+03  0.25500000920E-02 0.  1.
        2   -1    0    0  501    0  0.00000000000E+00  0.00000000000E+00 -0.20644362134E+04  0.20644362134E+04  0.25500000920E-02 0. -1.
    10030    2    1    2    0    0  0.00000000000E+00  0.00000000000E+00 -0.14149129563E+04  0.27139594706E+04  0.23159441560E+04 0.  0.
        4    1    3    3  502    0 -0.25056485728E+03 -0.63648854312E+03 -0.18023748091E+04  0.19278114479E+04  0.12699999809E+01 0. -1.
       -4    1    3    3    0  502  0.25056485728E+03  0.63648854312E+03  0.38746185281E+03  0.78614802264E+03  0.12699999809E+01 0.  1.
</event>
<event>
 5   0  0.7003852E-06  0.2288970E+04  0.7818609E-02  0.8482283E-01
       -2   -1    0    0    0  501  0.00000000000E+00  0.00000000000E+00  0.13198396520E+04  0.13198396520E+04  0.25500000920E-02 0.  1.
        2   -1    0    0  501    0  0.00000000000E+00  0.00000000000E+00 -0.99242784212E+03  0.99242784213E+03  0.25500000920E-02 0. -1.
    10030    2    1    2    0    0  0.00000000000E+00  0.00000000000E+00  0.32741180983E+03  0.23122674941E+04  0.22889697401E+04 0.  0.
        2    1    3    3  502    0  0.78058151737E+03  0.18764666079E+03  0.98768377040E+03  0.12728071358E+04  0.25500000920E-02 0.  1.
       -2    1    3    3    0  502 -0.78058151737E+03 -0.18764666079E+03 -0.66027196057E+03  0.10394603583E+04  0.25500000920E-02 0. -1.
</event>
<event>
 5   0  0.7242214E-06  0.2298229E+04  0.7818609E-02  0.8478620E-01
       -2   -1    0    0    0  501  0.00000000000E+00  0.00000000000E+00  0.68316007266E+03  0.68316007267E+03  0.25500000920E-02 0.  1.
        2   -1    0    0  501    0  0.00000000000E+00  0.00000000000E+00 -0.19328772200E+04  0.19328772200E+04  0.25500000920E-02 0. -1.
    10030    2    1    2    0    0  0.00000000000E+00  0.00000000000E+00 -0.12497171474E+04  0.26160372927E+04  0.22982293551E+04 0.  0.
        1    1    3    3  502    0  0.20864585863E+02  0.93119254034E+03  0.14119008585E+03  0.94206662105E+03  0.50400001928E-02 0.  1.
       -1    1    3    3    0  502 -0.20864585863E+02 -0.93119254034E+03 -0.13909072332E+04  0.16739706717E+04  0.50400001928E-02 0. -1.
</event>
<event>
 5   0  0.7044981E-06  0.2311725E+04  0.7818609E-02  0.8473312E-01
       -2   -1    0    0    0  501  0.00000000000E+00  0.00000000000E+00  0.11990808467E+04  0.11990808467E+04  0.25500000920E-02 0.  1.
        2   -1    0    0  501    0  0.00000000000E+00  0.00000000000E+00 -0.11142023250E+04  0.11142023250E+04  0.25500000920E-02 0. -1.
    10030    2    1    2    0    0  0.00000000000E+00  0.00000000000E+00  0.84878521654E+02  0.23132831717E+04  0.23117254744E+04 0.  0.
        4    1    3    3  502    0 -0.32031619190E+03  0.23477918325E+03 -0.10437843752E+04  0.11167860863E+04  0.12699999809E+01 0. -1.
       -4    1    3    3    0  502  0.32031619190E+03 -0.23477918325E+03  0.11286628969E+04  0.11964970854E+04  0.12699999809E+01 0.  1.
</event>
<event>
 5   0  0.7348107E-06  0.2297011E+04  0.7818609E-02  0.8479100E-01
        2   -1    0    0  501    0  0.00000000000E+00  0.00000000000E+00  0.14067688520E+04  0.14067688521E+04  0.25500000920E-02 0.  1.
       -2   -1    0    0    0  501  0.00000000000E+00  0.00000000000E+00 -0.93765597851E+03  0.93765597851E+03  0.25500000920E-02 0. -1.
    10030    2    1    2    0    0  0.00000000000E+00  0.00000000000E+00  0.46911287354E+03  0.23444248306E+04  0.22970112969E+04 0.  0.
        3    1    3    3  502    0  0.66266023708E+03  0.89891310594E+03  0.50823653761E+03  0.12269750406E+04  0.10100000352E+00 0.  1.
       -3    1    3    3    0  502 -0.66266023708E+03 -0.89891310594E+03 -0.39123664074E+02  0.11174497900E+04  0.10100000352E+00 0. -1.
</event>
<event>
 5   0  0.3238713E-06  0.2294754E+04  0.7818609E-02  0.8479992E-01
       -1   -1    0    0    0  501  0.00000000000E+00  0.00000000000E+00  0.66769357360E+03  0.66769357362E+03  0.50400001928E-02 0.  1.
        1   -1    0    0  501    0  0.00000000000E+00  0.00000000000E+00 -0.19716739873E+04  0.19716739873E+04  0.50400001928E-02 0. -1.
    10030    2    1    2    0    0  0.00000000000E+00  0.00000000000E+00 -0.13039804137E+04  0.26393675609E+04  0.22947540614E+04 0.  0.
        3    1    3    3  502    0 -0.39066257259E+03  0.20795352370E+03  0.56557263740E+03  0.71814645582E+03  0.10100000352E+00 0.  1.
       -3    1    3    3    0  502  0.39066257259E+03 -0.20795352370E+03 -0.18695530511E+04  0.19212211051E+04  0.10100000352E+00 0. -1.
</event>
<event>
 5   0  0.3238713E-06  0.2300946E+04  0.7818609E-02  0.8477548E-01
       -1   -1    0    0    0  501  0.00000000000E+00  0.00000000000E+00  0.63553933091E+03  0.63553933093E+03  0.50400001928E-02 0. -1.
        1   -1    0    0  501    0  0.00000000000E+00  0.00000000000E+00 -0.20826225008E+04  0.20826225008E+04  0.50400001928E-02 0.  1.
    10030    2    1    2    0    0  0.00000000000E+00  0.00000000000E+00 -0.14470831698E+04  0.27181618317E+04  0.23009463364E+04 0.  0.
        3    1    3    3  502    0 -0.74333410237E+03  0.43906402147E+03  0.17478144863E+03  0.88083560764E+03  0.10100000352E+00 0. -1.
       -3    1    3    3    0  502  0.74333410237E+03 -0.43906402147E+03 -0.16218646185E+04  0.18373262240E+04  0.10100000352E+00 0.  1.
</event>
<event>
 5   0  0.3226427E-06  0.2299346E+04  0.7818609E-02  0.8478179E-01
       -1   -1    0    0    0  501  0.00000000000E+00  0.00000000000E+00  0.16421686394E+04  0.16421686394E+04  0.50400001928E-02 0.  1.
        1   -1    0    0  501    0  0.00000000000E+00  0.00000000000E+00 -0.80487958556E+03  0.80487958558E+03  0.50400001928E-02 0. -1.
    10030    2    1    2    0    0  0.00000000000E+00  0.00000000000E+00  0.83728905380E+03  0.24470482250E+04  0.22993460061E+04 0.  0.
        4    1    3    3  502    0 -0.98104078916E+03  0.44097237103E+03 -0.13452237273E+02  0.10756766417E+04  0.12699999809E+01 0. -1.
       -4    1    3    3    0  502  0.98104078916E+03 -0.44097237103E+03  0.85074129108E+03  0.13713715832E+04  0.12699999809E+01 0.  1.
</event>
<event>
 5   0  0.3184492E-06  0.2327486E+04  0.7818609E-02  0.8467162E-01
       -1   -1    0    0    0  501  0.00000000000E+00  0.00000000000E+00  0.88052433306E+03  0.88052433307E+03  0.50400001928E-02 0.  1.
        1   -1    0    0  501    0  0.00000000000E+00  0.00000000000E+00 -0.15380582441E+04  0.15380582441E+04  0.50400001928E-02 0. -1.
    10030    2    1    2    0    0  0.00000000000E+00  0.00000000000E+00 -0.65753391103E+03  0.24185825772E+04  0.23274859481E+04 0.  0.
        1    1    3    3  502    0  0.33709174930E+02 -0.72021898707E+03 -0.12780002746E+04  0.14673569435E+04  0.50400001928E-02 0.  1.
       -1    1    3    3    0  502 -0.33709174930E+02  0.72021898707E+03  0.62046636355E+03  0.95122563366E+03  0.50400001928E-02 0. -1.
</event>
<event>
 5   0  0.7242214E-06  0.2300174E+04  0.7818609E-02  0.8477853E-01
        2   -1    0    0  501    0  0.00000000000E+00  0.00000000000E+00  0.18642574610E+04  0.18642574610E+04  0.25500000920E-02 0.  1.
       -2   -1    0    0    0  501  0.00000000000E+00  0.00000000000E+00 -0.70950507201E+03  0.70950507202E+03  0.25500000920E-02 0. -1.
    10030    2    1    2    0    0  0.00000000000E+00  0.00000000000E+00  0.11547523890E+04  0.25737625330E+04  0.23001740144E+04 0.  0.
        1    1    3    3  502    0  0.77727842213E+03  0.80073976340E+02  0.15216248313E+04  0.17105308283E+04  0.50400001928E-02 0.  1.
       -1    1    3    3    0  502 -0.77727842213E+03 -0.80073976340E+02 -0.36687244229E+03  0.86323170477E+03  0.50400001928E-02 0. -1.
</event>
<event>
 5   0  0.7044981E-06  0.2301165E+04  0.7818609E-02  0.8477462E-01
        2   -1    0    0  501    0  0.00000000000E+00  0.00000000000E+00  0.20324771000E+04  0.20324771000E+04  0.25500000920E-02 0. -1.
       -2   -1    0    0    0  501  0.00000000000E+00  0.00000000000E+00 -0.65134311986E+03  0.65134311987E+03  0.25500000920E-02 0.  1.
    10030    2    1    2    0    0  0.00000000000E+00  0.00000000000E+00  0.13811339801E+04  0.26838202198E+04  0.23011649010E+04 0.  0.
        4    1    3    3  502    0  0.10078308348E+04 -0.52153941795E+03  0.91219849160E+03  0.14559649917E+04  0.12699999809E+01 0. -1.
       -4    1    3    3    0  502 -0.10078308348E+04  0.52153941795E+03  0.46893548850E+03  0.12278552281E+04  0.12699999809E+01 0.  1.
</event>
<event>
 5   0  0.7003852E-06  0.2300253E+04  0.7818609E-02  0.8477821E-01
        2   -1    0    0  501    0  0.00000000000E+00  0.00000000000E+00  0.10384573870E+04  0.10384573870E+04  0.25500000920E-02 0.  1.
       -2   -1    0    0    0  501  0.00000000000E+00  0.00000000000E+00 -0.12738035216E+04  0.12738035216E+04  0.25500000920E-02 0. -1.
    10030    2    1    2    0    0  0.00000000000E+00  0.00000000000E+00 -0.23534613462E+03  0.23122609087E+04  0.23002527484E+04 0.  0.
        2    1    3    3  502    0  0.30291312741E+03 -0.62934290947E+03  0.80085955738E+03  0.10626405277E+04  0.25500000920E-02 0.  1.
       -2    1    3    3    0  502 -0.30291312741E+03  0.62934290947E+03 -0.10362056920E+04  0.12496203810E+04  0.25500000920E-02 0. -1.
</event>
<event>
 5   0  0.3338758E-06  0.2298588E+04  0.7818609E-02  0.8478478E-01
        1   -1    0    0  501    0  0.00000000000E+00  0.00000000000E+00  0.98782867485E+03  0.98782867486E+03  0.50400001928E-02 0. -1.
       -1   -1    0    0    0  501  0.00000000000E+00  0.00000000000E+00 -0.13371512271E+04  0.13371512271E+04  0.50400001928E-02 0.  1.
    10030    2    1    2    0    0  0.00000000000E+00  0.00000000000E+00 -0.34932255224E+03  0.23249799019E+04  0.22985876748E+04 0.  0.
        5    1    3    3  502    0  0.72413902373E+03  0.86562122576E+03 -0.39435739302E+03  0.11954987560E+04  0.46999998093E+01 0.  1.
       -5    1    3    3    0  502 -0.72413902373E+03 -0.86562122576E+03  0.45034840779E+02  0.11294811459E+04  0.46999998093E+01 0. -1.
</event>
<event>
 5   0  0.3238713E-06  0.2298438E+04  0.7818609E-02  0.8478537E-01
       -1   -1    0    0    0  501  0.00000000000E+00  0.00000000000E+00  0.61122369425E+03  0.61122369427E+03  0.50400001928E-02 0. -1.
        1   -1    0    0  501    0  0.00000000000E+00  0.00000000000E+00 -0.21607536607E+04  0.21607536607E+04  0.50400001928E-02 0.  1.
    10030    2    1    2    0    0  0.00000000000E+00  0.00000000000E+00 -0.15495299664E+04  0.27719773549E+04  0.22984375866E+04 0.  0.
        3    1    3    3  502    0  0.44648215524E+03  0.23325914834E+03  0.47097821493E+03  0.68962064527E+03  0.10100000352E+00 0. -1.
       -3    1    3    3    0  502 -0.44648215524E+03 -0.23325914834E+03 -0.20205081813E+04  0.20823567097E+04  0.10100000352E+00 0.  1.
</event>
<event>
 5   0  0.7242214E-06  0.2299274E+04  0.7818609E-02  0.8478208E-01
        2   -1    0    0  501    0  0.00000000000E+00  0.00000000000E+00  0.18620296792E+04  0.18620296792E+04  0.25500000920E-02 0. -1.
       -2   -1    0    0    0  501  0.00000000000E+00  0.00000000000E+00 -0.70979791210E+03  0.70979791211E+03  0.25500000920E-02 0.  1.
    10030    2    1    2    0    0  0.00000000000E+00  0.00000000000E+00  0.11522317671E+04  0.25718275913E+04  0.22992736058E+04 0.  0.
        1    1    3    3  502    0 -0.88910409120E+03 -0.74791318813E+02  0.13870104594E+04  0.16492112785E+04  0.50400001928E-02 0. -1.
       -1    1    3    3    0  502  0.88910409120E+03  0.74791318813E+02 -0.23477869234E+03  0.92261631286E+03  0.50400001928E-02 0.  1.
</event>
<event>
 5   0  0.3226427E-06  0.2297744E+04  0.7818609E-02  0.8478811E-01
        1   -1    0    0  501    0  0.00000000000E+00  0.00000000000E+00  0.14657754757E+04  0.14657754757E+04  0.50400001928E-02 0.  1.
       -1   -1    0    0    0  501  0.00000000000E+00  0.00000000000E+00 -0.90048399808E+03  0.90048399809E+03  0.50400001928E-02 0. -1.
    10030    2    1    2    0    0  0.00000000000E+00  0.00000000000E+00  0.56529147759E+03  0.23662594738E+04  0.22977444250E+04 0.  0.
        4    1    3    3  502    0 -0.88049380966E+03 -0.60990520223E+03  0.71054989602E+03  0.12853546095E+04  0.12699999809E+01 0.  1.
       -4    1    3    3    0  502  0.88049380966E+03  0.60990520223E+03 -0.14525841843E+03  0.10809048643E+04  0.12699999809E+01 0. -1.
</event>
<event>
 5   0  0.3238713E-06  0.2305024E+04  0.7818609E-02  0.8475943E-01
       -1   -1    0    0    0  501  0.00000000000E+00  0.00000000000E+00  0.89885198544E+03  0.89885198546E+03  0.50400001928E-02 0. -1.
        1   -1    0    0  501    0  0.00000000000E+00  0.00000000000E+00 -0.14777555468E+04  0.14777555468E+04  0.50400001928E-02 0.  1.
    10030    2    1    2    0    0  0.00000000000E+00  0.00000000000E+00 -0.57890356138E+03  0.23766075323E+04  0.23050236504E+04 0.  0.
        3    1    3    3  502    0  0.21024349764E+03  0.69712600606E+03  0.63165459135E+03  0.96393699462E+03  0.10100000352E+00 0. -1.
       -3    1    3    3    0  502 -0.21024349764E+03 -0.69712600606E+03 -0.12105581527E+04  0.14126705377E+04  0.10100000352E+00 0.  1.
</event>
<event>
 5   0  0.3184492E-06  0.2299041E+04  0.7818609E-02  0.8478299E-01
        1   -1    0    0  501    0  0.00000000000E+00  0.00000000000E+00  0.15429051679E+04  0.15429051679E+04  0.50400001928E-02 0.  1.
       -1   -1    0    0    0  501  0.00000000000E+00  0.00000000000E+00 -0.85643435030E+03  0.85643435032E+03  0.50400001928E-02 0. -1.
    10030    2    1    2    0    0  0.00000000000E+00  0.00000000000E+00  0.68647081758E+03  0.23993395182E+04  0.22990406565E+04 0.  0.
        1    1    3    3  502    0  0.31254403910E+03 -0.51481187471E+02 -0.80998965598E+03  0.86972256028E+03  0.50400001928E-02 0. -1.
       -1    1    3    3    0  502 -0.31254403910E+03  0.51481187471E+02  0.14964604736E+04  0.15296169579E+04  0.50400001928E-02 0.  1.
</event>
<event>
 5   0  0.3338758E-06  0.2292630E+04  0.7818609E-02  0.8480833E-01
       -1   -1    0    0    0  501  0.00000000000E+00  0.00000000000E+00  0.82922102367E+03  0.82922102369E+03  0.50400001928E-02 0.  1.
        1   -1    0    0  501    0  0.00000000000E+00  0.00000000000E+00 -0.15846650531E+04  0.15846650531E+04  0.50400001928E-02 0. -1.
    10030    2    1    2    0    0  0.00000000000E+00  0.00000000000E+00 -0.75544402939E+03  0.24138860768E+04  0.22926295623E+04 0.  0.
        5    1    3    3  502    0  0.76927126925E+03  0.26185408926E+03  0.47353761552E+03  0.94053485478E+03  0.46999998093E+01 0.  1.
       -5    1    3    3    0  502 -0.76927126925E+03 -0.26185408926E+03 -0.12289816449E+04  0.14733512220E+04  0.46999998093E+01 0. -1.
</event>
<event>
 5   0  0.3238713E-06  0.2301468E+04  0.7818609E-02  0.8477342E-01
        1   -1    0    0  501    0  0.00000000000E+00  0.00000000000E+00  0.12277187509E+04  0.12277187509E+04  0.50400001928E-02 0.  1.
       -1   -1    0    0    0  501  0.00000000000E+00  0.00000000000E+00 -0.10785769632E+04  0.10785769632E+04  0.50400001928E-02 0. -1.
    10030    2    1    2    0    0  0.00000000000E+00  0.00000000000E+00  0.14914178769E+03  0.23062957141E+04  0.23014683679E+04 0.  0.
        3    1    3    3  502    0 -0.83597680478E+03 -0.31100050378E+03  0.80315203216E+03  0.12002631913E+04  0.10100000352E+00 0.  1.
       -3    1    3    3    0  502  0.83597680478E+03  0.31100050378E+03 -0.65401024447E+03  0.11060325228E+04  0.10100000352E+00 0. -1.
</event>
<event>
 5   0  0.7044981E-06  0.2289479E+04  0.7818609E-02  0.8482081E-01
       -2   -1    0    0    0  501  0.00000000000E+00  0.00000000000E+00  0.80008709832E+03  0.80008709832E+03  0.25500000920E-02 0. -1.
        2   -1    0    0  501    0  0.00000000000E+00  0.00000000000E+00 -0.16378576085E+04  0.16378576085E+04  0.25500000920E-02 0.  1.
    10030    2    1    2    0    0  0.00000000000E+00  0.00000000000E+00 -0.83777051014E+03  0.24379447068E+04  0.22894791909E+04 0.  0.
        4    1    3    3  502    0 -0.75888231293E+02  0.96255712424E+03 -0.10737027697E+04  0.14439925525E+04  0.12699999809E+01 0.  1.
       -4    1    3    3    0  502  0.75888231293E+02 -0.96255712424E+03  0.23593225953E+03  0.99395215432E+03  0.12699999809E+01 0. -1.
</event>
<event>
 5   0  0.7242214E-06  0.2300512E+04  0.7818609E-02  0.8477719E-01
        2   -1    0    0  501    0  0.00000000000E+00  0.00000000000E+00  0.13105008378E+04  0.13105008378E+04  0.25500000920E-02 0. -1.
       -2   -1    0    0    0  501  0.00000000000E+00  0.00000000000E+00 -0.10096051567E+04  0.10096051567E+04  0.25500000920E-02 0.  1.
    10030    2    1    2    0    0  0.00000000000E+00  0.00000000000E+00  0.30089568113E+03  0.23201059945E+04  0.23005115985E+04 0.  0.
        1    1    3    3  502    0 -0.10556541553E+04 -0.30614106587E+02  0.61012105245E+03  0.12196682409E+04  0.50400001928E-02 0. -1.
       -1    1    3    3    0  502  0.10556541553E+04  0.30614106587E+02 -0.30922537132E+03  0.11004377536E+04  0.50400001928E-02 0.  1.
</event>
<event>
 5   0  0.3226427E-06  0.2293788E+04  0.7818609E-02  0.8480374E-01
        1   -1    0    0  501    0  0.00000000000E+00  0.00000000000E+00  0.13251735659E+04  0.13251735659E+04  0.50400001928E-02 0.  1.
       -1   -1    0    0    0  501  0.00000000000E+00  0.00000000000E+00 -0.99259897629E+03  0.99259897630E+03  0.50400001928E-02 0. -1.
    10030    2    1    2    0    0  0.00000000000E+00  0.00000000000E+00  0.33257458959E+03  0.23177725422E+04  0.22937880677E+04 0.  0.
        4    1    3    3  502    0 -0.36860049429E+03  0.10308909257E+03  0.12587352270E+04  0.13156404030E+04  0.12699999809E+01 0.  1.
       -4    1    3    3    0  502  0.36860049429E+03 -0.10308909257E+03 -0.92616063736E+03  0.10021321392E+04  0.12699999809E+01 0. -1.
</event>
<event>
 5   0  0.7497344E-06  0.2336104E+04  0.7818609E-02  0.8463820E-01
       -2   -1    0    0    0  501  0.00000000000E+00  0.00000000000E+00  0.82393591012E+03  0.82393591013E+03  0.25500000920E-02 0.  1.
        2   -1    0    0  501    0  0.00000000000E+00  0.00000000000E+00 -0.16558875277E+04  0.16558875277E+04  0.25500000920E-02 0. -1.
    10030    2    1    2    0    0  0.00000000000E+00  0.00000000000E+00 -0.83195161755E+03  0.24798234378E+04  0.23361037624E+04 0.  0.
        5    1    3    3  502    0  0.77116917773E+03 -0.68548991050E+02 -0.13443803930E+04  0.15513805452E+04  0.46999998093E+01 0. -1.
       -5    1    3    3    0  502 -0.77116917773E+03  0.68548991050E+02  0.51242877549E+03  0.92844289259E+03  0.46999998093E+01 0.  1.
</event>
<event>
 5   0  0.3226427E-06  0.2302114E+04  0.7818609E-02  0.8477088E-01
        1   -1    0    0  501    0  0.00000000000E+00  0.00000000000E+00  0.12169781011E+04  0.12169781011E+04  0.50400001928E-02 0. -1.
       -1   -1    0    0    0  501  0.00000000000E+00  0.00000000000E+00 -0.10887065993E+04  0.10887065993E+04  0.50400001928E-02 0.  1.
    10030    2    1    2    0    0  0.00000000000E+00  0.00000000000E+00  0.12827150181E+03  0.23056847004E+04  0.23021138894E+04 0.  0.
        4    1    3    3  502    0 -0.68605980952E+03 -0.71479900081E+03  0.65097530398E+03  0.11854898283E+04  0.12699999809E+01 0. -1.
       -4    1    3    3    0  502  0.68605980952E+03  0.71479900081E+03 -0.52270380216E+03  0.11201948721E+04  0.12699999809E+01 0.  1.
</event>
<event>
 5   0  0.3184492E-06  0.2300018E+04  0.7818609E-02  0.8477914E-01
        1   -1    0    0  501    0  0.00000000000E+00  0.00000000000E+00  0.43241866242E+03  0.43241866245E+03  0.50400001928E-02 0. -1.
       -1   -1    0    0    0  501  0.00000000000E+00  0.00000000000E+00 -0.30584256896E+04  0.30584256896E+04  0.50400001928E-02 0.  1.
    10030    2    1    2    0    0  0.00000000000E+00  0.00000000000E+00 -0.26260070272E+04  0.34908443521E+04  0.23000176920E+04 0.  0.
        1    1    3    3  502    0 -0.77543585696E+03 -0.76082712239E+03 -0.18856621852E+04  0.21762078382E+04  0.50400001928E-02 0.  1.
       -1    1    3    3    0  502  0.77543585696E+03  0.76082712239E+03 -0.74034484198E+03  0.13146365138E+04  0.50400001928E-02 0. -1.
</event>
<event>
 5   0  0.3184492E-06  0.2302239E+04  0.7818609E-02  0.8477039E-01
        1   -1    0    0  501    0  0.00000000000E+00  0.00000000000E+00  0.24556374888E+04  0.24556374888E+04  0.50400001928E-02 0. -1.
       -1   -1    0    0    0  501  0.00000000000E+00  0.00000000000E+00 -0.53960554807E+03  0.53960554810E+03  0.50400001928E-02 0.  1.
    10030    2    1    2    0    0  0.00000000000E+00  0.00000000000E+00  0.19160319407E+04  0.29952430369E+04  0.23022385741E+04 0.  0.
        1    1    3    3  502    0  0.76341145108E+03 -0.69201822851E+02 -0.15925808461E+03  0.78291064207E+03  0.50400001928E-02 0.  1.
       -1    1    3    3    0  502 -0.76341145108E+03  0.69201822851E+02  0.20752900254E+04  0.22123323949E+04  0.50400001928E-02 0. -1.
</event>
<event>
 5   0  0.3238713E-06  0.2366086E+04  0.7818609E-02  0.8452311E-01
        1   -1    0    0  501    0  0.00000000000E+00  0.00000000000E+00  0.15451652027E+04  0.15451652027E+04  0.50400001928E-02 0. -1.
       -1   -1    0    0    0  501  0.00000000000E+00  0.00000000000E+00 -0.90578680406E+03  0.90578680407E+03  0.50400001928E-02 0.  1.
    10030    2    1    2    0    0  0.00000000000E+00  0.00000000000E+00  0.63937839866E+03  0.24509520068E+04  0.23660855866E+04 0.  0.
        3    1    3    3  502    0  0.20608757292E+03  0.22543594891E+03  0.15036171846E+04  0.15343265958E+04  0.10100000352E+00 0. -1.
       -3    1    3    3    0  502 -0.20608757292E+03 -0.22543594891E+03 -0.86423878590E+03  0.91662541097E+03  0.10100000352E+00 0.  1.
</event>
<event>
 5   0  0.7497344E-06  0.2301250E+04  0.7818609E-02  0.8477429E-01
        2   -1    0    0  501    0  0.00000000000E+00  0.00000000000E+00  0.14801569699E+04  0.14801569699E+04  0.25500000920E-02 0. -1.
       -2   -1    0    0    0  501  0.00000000000E+00  0.00000000000E+00 -0.89445755016E+03  0.89445755017E+03  0.25500000920E-02 0.  1.
    10030    2    1    2    0    0  0.00000000000E+00  0.00000000000E+00  0.58569941978E+03  0.23746145201E+04  0.23012497276E+04 0.  0.
        5    1    3    3  502    0 -0.60339295596E+03 -0.56685870328E+03 -0.53168901466E+03  0.98393452378E+03  0.46999998093E+01 0.  1.
       -5    1    3    3    0  502  0.60339295596E+03  0.56685870328E+03  0.11173884344E+04  0.13906799963E+04  0.46999998093E+01 0. -1.
</event>
<event>
 5   0  0.7242214E-06  0.2299702E+04  0.7818609E-02  0.8478038E-01
        2   -1    0    0  501    0  0.00000000000E+00  0.00000000000E+00  0.27734113316E+04  0.27734113316E+04  0.25500000920E-02 0. -1.
       -2   -1    0    0    0  501  0.00000000000E+00  0.00000000000E+00 -0.47672616032E+03  0.47672616032E+03  0.25500000920E-02 0.  1.
    10030    2    1    2    0    0  0.00000000000E+00  0.00000000000E+00  0.22966851713E+04  0.32501374919E+04  0.22997023591E+04 0.  0.
        1    1    3    3  502    0 -0.93110495628E+03 -0.67245895124E+03  0.10709304336E+04  0.15703660320E+04  0.50400001928E-02 0.  1.
       -1    1    3    3    0  502  0.93110495628E+03  0.67245895124E+03  0.12257547376E+04  0.16797714599E+04  0.50400001928E-02 0. -1.
</event>
<event>
 5   0  0.3226427E-06  0.2296647E+04  0.7818609E-02  0.8479244E-01
       -1   -1    0    0    0  501  0.00000000000E+00  0.00000000000E+00  0.13703940302E+04  0.13703940302E+04  0.50400001928E-02 0. -1.
        1   -1    0    0  501    0  0.00000000000E+00  0.00000000000E+00 -0.96223890513E+03  0.96223890514E+03  0.50400001928E-02 0.  1.
    10030    2    1    2    0    0  0.00000000000E+00  0.00000000000E+00  0.40815512504E+03  0.23326329353E+04  0.22966466434E+04 0.  0.
        4    1    3    3  502    0 -0.39649369543E+02  0.58431759299E+02  0.13681860665E+04  0.13700076892E+04  0.12699999809E+01 0. -1.
       -4    1    3    3    0  502  0.39649369543E+02 -0.58431759299E+02 -0.96003094146E+03  0.96262524611E+03  0.12699999809E+01 0.  1.
</event>
<event>
 5   0  0.3238713E-06  0.2299627E+04  0.7818609E-02  0.8478068E-01
       -1   -1    0    0    0  501  0.00000000000E+00  0.00000000000E+00  0.91020292729E+03  0.91020292731E+03  0.50400001928E-02 0. -1.
        1   -1    0    0  501    0  0.00000000000E+00  0.00000000000E+00 -0.14525014826E+04  0.14525014826E+04  0.50400001928E-02 0.  1.
    10030    2    1    2    0    0  0.00000000000E+00  0.00000000000E+00 -0.54229855531E+03  0.23627044099E+04  0.22996270144E+04 0.  0.
        3    1    3    3  502    0  0.67065672216E+03 -0.87760234904E+03  0.57153837782E+02  0.11059985956E+04  0.10100000352E+00 0. -1.
       -3    1    3    3    0  502 -0.67065672216E+03  0.87760234904E+03 -0.59945239310E+03  0.12567058144E+04  0.10100000352E+00 0.  1.
</event>
<event>
 5   0  0.7497344E-06  0.2300071E+04  0.7818609E-02  0.8477893E-01
       -2   -1    0    0    0  501  0.00000000000E+00  0.00000000000E+00  0.20338195218E+04  0.20338195218E+04  0.25500000920E-02 0. -1.
        2   -1    0    0  501    0  0.00000000000E+00  0.00000000000E+00 -0.65029461603E+03  0.65029461603E+03  0.25500000920E-02 0.  1.
    10030    2    1    2    0    0  0.00000000000E+00  0.00000000000E+00  0.13835249058E+04  0.26841141379E+04  0.23000712033E+04 0.  0.
        5    1    3    3  502    0 -0.10349959334E+04  0.46099905994E+03  0.92169724451E+03  0.14605768094E+04  0.46999998093E+01 0. -1.
       -5    1    3    3    0  502  0.10349959334E+04 -0.46099905994E+03  0.46182766130E+03  0.12235373285E+04  0.46999998093E+01 0.  1.
</event>
<event>
 5   0  0.3238713E-06  0.2299715E+04  0.7818609E-02  0.8478034E-01
       -1   -1    0    0    0  501  0.00000000000E+00  0.00000000000E+00  0.73930532188E+03  0.73930532189E+03  0.50400001928E-02 0. -1.
        1   -1    0    0  501    0  0.00000000000E+00  0.00000000000E+00 -0.17883975843E+04  0.17883975843E+04  0.50400001928E-02 0.  1.
    10030    2    1    2    0    0  0.00000000000E+00  0.00000000000E+00 -0.10490922624E+04  0.25277029062E+04  0.22997146360E+04 0.  0.
        3    1    3    3  502    0 -0.70497087294E+03 -0.50263860363E+03 -0.13562254162E+04  0.16090297969E+04  0.10100000352E+00 0.  1.
       -3    1    3    3    0  502  0.70497087294E+03  0.50263860363E+03  0.30713315371E+03  0.91867310936E+03  0.10100000352E+00 0. -1.
</event>
<event>
 5   0  0.3238713E-06  0.2299528E+04  0.7818609E-02  0.8478107E-01
        1   -1    0    0  501    0  0.00000000000E+00  0.00000000000E+00  0.13318242585E+04  0.13318242586E+04  0.50400001928E-02 0. -1.
       -1   -1    0    0    0  501  0.00000000000E+00  0.00000000000E+00 -0.99259161410E+03  0.99259161411E+03  0.50400001928E-02 0.  1.
    10030    2    1    2    0    0  0.00000000000E+00  0.00000000000E+00  0.33923264445E+03  0.23244158727E+04  0.22995282912E+04 0.  0.
        3    1    3    3  502    0  0.89471666169E+03 -0.61120074541E+03  0.55832120277E+03  0.12189367627E+04  0.10100000352E+00 0. -1.
       -3    1    3    3    0  502 -0.89471666169E+03  0.61120074541E+03 -0.21908855833E+03  0.11054791099E+04  0.10100000352E+00 0.  1.
</event>
<event>
 5   0  0.7044981E-06  0.2301131E+04  0.7818609E-02  0.8477475E-01
        2   -1    0    0  501    0  0.00000000000E+00  0.00000000000E+00  0.19324310634E+04  0.19324310634E+04  0.25500000920E-02 0.  1.
       -2   -1    0    0    0  501  0.00000000000E+00  0.00000000000E+00 -0.68504416394E+03  0.68504416394E+03  0.25500000920E-02 0. -1.
    10030    2    1    2    0    0  0.00000000000E+00  0.00000000000E+00  0.12473868995E+04  0.26174752274E+04  0.23011306979E+04 0.  0.
        4    1    3    3  502    0 -0.66101311526E+03 -0.62093606903E+03  0.14290528700E+04  0.16925405929E+04  0.12699999809E+01 0.  1.
       -4    1    3    3    0  502  0.66101311526E+03  0.62093606903E+03 -0.18166597050E+03  0.92493463451E+03  0.12699999809E+01 0. -1.
</event>
<event>
 5   0  0.7003852E-06  0.2301475E+04  0.7818609E-02  0.8477340E-01
       -2   -1    0    0    0  501  0.00000000000E+00  0.00000000000E+00  0.86462915453E+03  0.86462915453E+03  0.25500000920E-02 0. -1.
        2   -1    0    0  501    0  0.00000000000E+00  0.00000000000E+00 -0.15315199238E+04  0.15315199238E+04  0.25500000920E-02 0.  1.
    10030    2    1    2    0    0  0.00000000000E+00  0.00000000000E+00 -0.66689076932E+03  0.23961490784E+04  0.23014749852E+04 0.  0.
        2    1    3    3  502    0 -0.82268168498E+03  0.69392361432E+03  0.90568963376E+02  0.10800638289E+04  0.25500000920E-02 0.  1.
       -2    1    3    3    0  502  0.82268168498E+03 -0.69392361432E+03 -0.75745973269E+03  0.13160852495E+04  0.25500000920E-02 0. -1.
</event>
<event>
 5   0  0.3195296E-06  0.2302661E+04  0.7818609E-02  0.8476873E-01
        1   -1    0    0  501    0  0.00000000000E+00  0.00000000000E+00  0.18319274467E+04  0.18319274467E+04  0.50400001928E-02 0.  1.
       -1   -1    0    0    0  501  0.00000000000E+00  0.00000000000E+00 -0.72358876241E+03  0.72358876243E+03  0.50400001928E-02 0. -1.
    10030    2    1    2    0    0  0.00000000000E+00  0.00000000000E+00  0.11083386843E+04  0.25555162091E+04  0.23026611683E+04 0.  0.
        2    1    3    3  502    0 -0.10941098419E+03 -0.57484947199E+03  0.16545834791E+04  0.17550125835E+04  0.25500000920E-02 0.  1.
       -2    1    3    3    0  502  0.10941098419E+03  0.57484947199E+03 -0.54624479477E+03  0.80050362568E+03  0.25500000920E-02 0. -1.
</event>
<event>
 5   0  0.7003852E-06  0.2303226E+04  0.7818609E-02  0.8476650E-01
       -2   -1    0    0    0  501  0.00000000000E+00  0.00000000000E+00  0.97499406990E+03  0.97499406990E+03  0.25500000920E-02 0.  1.
        2   -1    0    0  501    0  0.00000000000E+00  0.00000000000E+00 -0.13602265213E+04  0.13602265213E+04  0.25500000920E-02 0. -1.
    10030    2    1    2    0    0  0.00000000000E+00  0.00000000000E+00 -0.38523245139E+03  0.23352205912E+04  0.23032262520E+04 0.  0.
        2    1    3    3  502    0 -0.41082532747E+03  0.18240122715E+02 -0.12832457538E+04  0.13475272971E+04  0.25500000920E-02 0. -1.
       -2    1    3    3    0  502  0.41082532747E+03 -0.18240122715E+02  0.89801330245E+03  0.98769329407E+03  0.25500000920E-02 0.  1.
</event>
<event>
 5   0  0.3195296E-06  0.2274647E+04  0.7818609E-02  0.8487985E-01
        1   -1    0    0  501    0  0.00000000000E+00  0.00000000000E+00  0.14709021320E+04  0.14709021320E+04  0.50400001928E-02 0. -1.
       -1   -1    0    0    0  501  0.00000000000E+00  0.00000000000E+00 -0.87939569110E+03  0.87939569112E+03  0.50400001928E-02 0.  1.
    10030    2    1    2    0    0  0.00000000000E+00  0.00000000000E+00  0.59150644091E+03  0.23502978231E+04  0.22746472227E+04 0.  0.
        2    1    3    3  502    0 -0.15347176306E+03  0.78853811941E+03 -0.53610563008E+03  0.96579252142E+03  0.25500000920E-02 0.  1.
       -2    1    3    3    0  502  0.15347176306E+03 -0.78853811941E+03  0.11276120710E+04  0.13845053017E+04  0.25500000920E-02 0. -1.
</event>
<event>
 5   0  0.3184492E-06  0.2295760E+04  0.7818609E-02  0.8479595E-01
       -1   -1    0    0    0  501  0.00000000000E+00  0.00000000000E+00  0.86566219565E+03  0.86566219566E+03  0.50400001928E-02 0.  1.
        1   -1    0    0  501    0  0.00000000000E+00  0.00000000000E+00 -0.15221044638E+04  0.15221044638E+04  0.50400001928E-02 0. -1.
    10030    2    1    2    0    0  0.00000000000E+00  0.00000000000E+00 -0.65644226818E+03  0.23877666595E+04  0.22957598238E+04 0.  0.
        1    1    3    3  502    0 -0.27885407342E+03  0.52181570305E+03 -0.13512978867E+04  0.14751465015E+04  0.50400001928E-02 0. -1.
       -1    1    3    3    0  502  0.27885407342E+03 -0.52181570305E+03  0.69485561852E+03  0.91262015802E+03  0.50400001928E-02 0.  1.
</event>
<event>
 5   0  0.7003852E-06  0.2298880E+04  0.7818609E-02  0.8478363E-01
        2   -1    0    0  501    0  0.00000000000E+00  0.00000000000E+00  0.17419260731E+04  0.17419260731E+04  0.25500000920E-02 0.  1.
       -2   -1    0    0    0  501  0.00000000000E+00  0.00000000000E+00 -0.75847787024E+03  0.75847787024E+03  0.25500000920E-02 0. -1.
    10030    2    1    2    0    0  0.00000000000E+00  0.00000000000E+00  0.98344820284E+03  0.25004039433E+04  0.22988800561E+04 0.  0.
        2    1    3    3  502    0 -0.97328006741E+03 -0.37287591051E+03 -0.35429375561E+02  0.10428642169E+04  0.25500000920E-02 0. -1.
       -2    1    3    3    0  502  0.97328006741E+03  0.37287591051E+03  0.10188775784E+04  0.14575397264E+04  0.25500000920E-02 0.  1.
</event>
<event>
 5   0  0.7044981E-06  0.2286891E+04  0.7818609E-02  0.8483108E-01
       -2   -1    0    0    0  501  0.00000000000E+00  0.00000000000E+00  0.12641679362E+04  0.12641679362E+04  0.25500000920E-02 0. -1.
        2   -1    0    0  501    0  0.00000000000E+00  0.00000000000E+00 -0.10342517793E+04  0.10342517793E+04  0.25500000920E-02 0.  1.
    10030    2    1    2    0    0  0.00000000000E+00  0.00000000000E+00  0.22991615693E+03  0.22984197155E+04  0.22868912850E+04 0.  0.
        4    1    3    3  502    0 -0.78855984321E+03  0.82801292363E+03  0.10907223818E+03  0.11486210838E+04  0.12699999809E+01 0. -1.
       -4    1    3    3    0  502  0.78855984321E+03 -0.82801292363E+03  0.12084391875E+03  0.11497986318E+04  0.12699999809E+01 0.  1.
</event>
<event>
 5   0  0.7242214E-06  0.2299190E+04  0.7818609E-02  0.8478241E-01
        2   -1    0    0  501    0  0.00000000000E+00  0.00000000000E+00  0.89505964347E+03  0.89505964347E+03  0.25500000920E-02 0.  1.
       -2   -1    0    0    0  501  0.00000000000E+00  0.00000000000E+00 -0.14765147742E+04  0.14765147742E+04  0.25500000920E-02 0. -1.
    10030    2    1    2    0    0  0.00000000000E+00  0.00000000000E+00 -0.58145513070E+03  0.23715744176E+04  0.22991901073E+04 0.  0.
        1    1    3    3  502    0 -0.25905163595E+03 -0.38194477266E+02  0.86388902871E+03  0.90270195642E+03  0.50400001928E-02 0.  1.
       -1    1    3    3    0  502  0.25905163595E+03  0.38194477266E+02 -0.14453441594E+04  0.14688724612E+04  0.50400001928E-02 0. -1.
</event>
<event>
 5   0  0.7242214E-06  0.2310894E+04  0.7818609E-02  0.8473638E-01
       -2   -1    0    0    0  501  0.00000000000E+00  0.00000000000E+00  0.75780265727E+03  0.75780265727E+03  0.25500000920E-02 0. -1.
        2   -1    0    0  501    0  0.00000000000E+00  0.00000000000E+00 -0.17617480148E+04  0.17617480148E+04  0.25500000920E-02 0.  1.
    10030    2    1    2    0    0  0.00000000000E+00  0.00000000000E+00 -0.10039453575E+04  0.25195506721E+04  0.23108936168E+04 0.  0.
        1    1    3    3  502    0  0.56196527564E+03 -0.10047367078E+04 -0.39427898882E+03  0.12168634862E+04  0.50400001928E-02 0.  1.
       -1    1    3    3    0  502 -0.56196527564E+03  0.10047367078E+04 -0.60966636870E+03  0.13026871859E+04  0.50400001928E-02 0. -1.
</event>
<event>
 5   0  0.3195296E-06  0.2299022E+04  0.7818609E-02  0.8478307E-01
        1   -1    0    0  501    0  0.00000000000E+00  0.00000000000E+00  0.16208970726E+04  0.16208970726E+04  0.50400001928E-02 0.  1.
       -1   -1    0    0    0  501  0.00000000000E+00  0.00000000000E+00 -0.81521257074E+03  0.81521257075E+03  0.50400001928E-02 0. -1.
    10030    2    1    2    0    0  0.00000000000E+00  0.00000000000E+00  0.80568450184E+03  0.24361096433E+04  0.22990221134E+04 0.  0.
        2    1    3    3  502    0 -0.61227311339E+03 -0.44570103647E+03  0.13191900028E+04  0.15211147369E+04  0.25500000920E-02 0.  1.
       -2    1    3    3    0  502  0.61227311339E+03  0.44570103647E+03 -0.51350550097E+03  0.91499490644E+03  0.25500000920E-02 0. -1.
</event>
<event>
 5   0  0.2519625E-06  0.2302018E+04  0.7818609E-02  0.8477126E-01
       -4   -1    0    0    0  501  0.00000000000E+00  0.00000000000E+00  0.11207631983E+04  0.11207639179E+04  0.12699999809E+01 0. -1.
        4   -1    0    0  501    0  0.00000000000E+00  0.00000000000E+00 -0.11820691041E+04  0.11820697863E+04  0.12699999809E+01 0.  1.
    10030    2    1    2    0    0  0.00000000000E+00  0.00000000000E+00 -0.61305905722E+02  0.23028337042E+04  0.23020175184E+04 0.  0.
        3    1    3    3  502    0  0.86671303870E+03 -0.66940726705E+02 -0.78533981425E+03  0.11715080821E+04  0.10100000352E+00 0.  1.
       -3    1    3    3    0  502 -0.86671303870E+03  0.66940726705E+02  0.72403390852E+03  0.11313256221E+04  0.10100000352E+00 0. -1.
</event>
<event>
 5   0  0.7242214E-06  0.2296847E+04  0.7818609E-02  0.8479165E-01
        2   -1    0    0  501    0  0.00000000000E+00  0.00000000000E+00  0.14936846181E+04  0.14936846181E+04  0.25500000920E-02 0. -1.
       -2   -1    0    0    0  501  0.00000000000E+00  0.00000000000E+00 -0.88296890324E+03  0.88296890325E+03  0.25500000920E-02 0.  1.
    10030    2    1    2    0    0  0.00000000000E+00  0.00000000000E+00  0.61071571481E+03  0.23766535213E+04  0.22968474647E+04 0.  0.
        1    1    3    3  502    0  0.10351128036E+04 -0.49719731143E+03  0.29024254997E+03  0.11844426624E+04  0.50400001928E-02 0.  1.
       -1    1    3    3    0  502 -0.10351128036E+04  0.49719731143E+03  0.32047316484E+03  0.11922108589E+04  0.50400001928E-02 0. -1.
</event>
<event>
 5   0  0.7497344E-06  0.2295128E+04  0.7818609E-02  0.8479845E-01
       -2   -1    0    0    0  501  0.00000000000E+00  0.00000000000E+00  0.95759301391E+03  0.95759301391E+03  0.25500000920E-02 0.  1.
        2   -1    0    0  501    0  0.00000000000E+00  0.00000000000E+00 -0.13752216835E+04  0.13752216835E+04  0.25500000920E-02 0. -1.
    10030    2    1    2    0    0  0.00000000000E+00  0.00000000000E+00 -0.41762866958E+03  0.23328146974E+04  0.22951276014E+04 0.  0.
        5    1    3    3  502    0 -0.41177967391E+03 -0.74076841670E+03 -0.99519820123E+03  0.13071885467E+04  0.46999998093E+01 0. -1.
       -5    1    3    3    0  502  0.41177967391E+03  0.74076841670E+03  0.57756953164E+03  0.10256261507E+04  0.46999998093E+01 0.  1.
</event>
<event>
 5   0  0.7044981E-06  0.2294136E+04  0.7818609E-02  0.8480237E-01
        2   -1    0    0  501    0  0.00000000000E+00  0.00000000000E+00  0.20004705495E+04  0.20004705495E+04  0.25500000920E-02 0.  1.
       -2   -1    0    0    0  501  0.00000000000E+00  0.00000000000E+00 -0.65772761492E+03  0.65772761493E+03  0.25500000920E-02 0. -1.
    10030    2    1    2    0    0  0.00000000000E+00  0.00000000000E+00  0.13427429345E+04  0.26581981644E+04  0.22941357617E+04 0.  0.
        4    1    3    3  502    0 -0.10907651806E+04 -0.34836210960E+03  0.75028406308E+03  0.13689604183E+04  0.12699999809E+01 0. -1.
       -4    1    3    3    0  502  0.10907651806E+04  0.34836210960E+03  0.59245887147E+03  0.12892377461E+04  0.12699999809E+01 0.  1.
</event>
<event>
 5   0  0.3184492E-06  0.2300265E+04  0.7818609E-02  0.8477817E-01
        1   -1    0    0  501    0  0.00000000000E+00  0.00000000000E+00  0.10905130906E+04  0.10905130906E+04  0.50400001928E-02 0. -1.
       -1   -1    0    0    0  501  0.00000000000E+00  0.00000000000E+00 -0.12130114690E+04  0.12130114691E+04  0.50400001928E-02 0.  1.
    10030    2    1    2    0    0  0.00000000000E+00  0.00000000000E+00 -0.12249837845E+03  0.23035245597E+04  0.23002651030E+04 0.  0.
        1    1    3    3  502    0 -0.68865879894E+03  0.58405993323E+03 -0.77459833256E+03  0.11896972404E+04  0.50400001928E-02 0.  1.
       -1    1    3    3    0  502  0.68865879894E+03 -0.58405993323E+03  0.65209995412E+03  0.11138273193E+04  0.50400001928E-02 0. -1.
</event>
<event>
 5   0  0.7348107E-06  0.2299973E+04  0.7818609E-02  0.8477932E-01
       -2   -1    0    0    0  501  0.00000000000E+00  0.00000000000E+00  0.18090865495E+04  0.18090865495E+04  0.25500000920E-02 0.  1.
        2   -1    0    0  501    0  0.00000000000E+00  0.00000000000E+00 -0.73101447996E+03  0.73101447996E+03  0.25500000920E-02 0. -1.
    10030    2    1    2    0    0  0.00000000000E+00  0.00000000000E+00  0.10780720695E+04  0.25401010295E+04  0.22999725765E+04 0.  0.
        3    1    3    3  502    0 -0.94129308723E+03 -0.67587420178E+02 -0.18674180451E+03  0.96201520112E+03  0.10100000352E+00 0. -1.
       -3    1    3    3    0  502  0.94129308723E+03  0.67587420178E+02  0.12648138741E+04  0.15780858283E+04  0.10100000352E+00 0.  1.
</event>
<event>
 5   0  0.7242214E-06  0.2300764E+04  0.7818609E-02  0.8477620E-01
       -2   -1    0    0    0  501  0.00000000000E+00  0.00000000000E+00  0.12916431020E+04  0.12916431020E+04  0.25500000920E-02 0.  1.
        2   -1    0    0  501    0  0.00000000000E+00  0.00000000000E+00 -0.10245697527E+04  0.10245697527E+04  0.25500000920E-02 0. -1.
    10030    2    1    2    0    0  0.00000000000E+00  0.00000000000E+00  0.26707334936E+03  0.23162128547E+04  0.23007637459E+04 0.  0.
        1    1    3    3  502    0 -0.29462104369E+03  0.76525302969E+03  0.94577814573E+03  0.12517627810E+04  0.50400001928E-02 0.  1.
       -1    1    3    3    0  502  0.29462104369E+03 -0.76525302969E+03 -0.67870479638E+03  0.10644500737E+04  0.50400001928E-02 0. -1.
</event>
<event>
 5   0  0.3226427E-06  0.2300346E+04  0.7818609E-02  0.8477785E-01
       -1   -1    0    0    0  501  0.00000000000E+00  0.00000000000E+00  0.63403987261E+03  0.63403987263E+03  0.50400001928E-02 0.  1.
        1   -1    0    0  501    0  0.00000000000E+00  0.00000000000E+00 -0.20864592680E+04  0.20864592680E+04  0.50400001928E-02 0. -1.
    10030    2    1    2    0    0  0.00000000000E+00  0.00000000000E+00 -0.14524193954E+04  0.27204991406E+04  0.23003463813E+04 0.  0.
        4    1    3    3  502    0  0.58191288987E+03  0.39382721736E+03  0.35069746304E+03  0.78531064682E+03  0.12699999809E+01 0.  1.
       -4    1    3    3    0  502 -0.58191288987E+03 -0.39382721736E+03 -0.18031168584E+04  0.19351884938E+04  0.12699999809E+01 0. -1.
</event>
<event>
 5   0  0.7348107E-06  0.2293480E+04  0.7818609E-02  0.8480496E-01
        2   -1    0    0  501    0  0.00000000000E+00  0.00000000000E+00  0.23285420457E+04  0.23285420457E+04  0.25500000920E-02 0. -1.
       -2   -1    0    0    0  501  0.00000000000E+00  0.00000000000E+00 -0.56473646765E+03  0.56473646766E+03  0.25500000920E-02 0.  1.
    10030    2    1    2    0    0  0.00000000000E+00  0.00000000000E+00  0.17638055781E+04  0.28932785134E+04  0.22934799844E+04 0.  0.
        3    1    3    3  502    0  0.75864842263E+02 -0.14068690483E+02 -0.56145809220E+03  0.56673503672E+03  0.10100000352E+00 0.  1.
       -3    1    3    3    0  502 -0.75864842263E+02  0.14068690483E+02  0.23252636703E+04  0.23265434767E+04  0.10100000352E+00 0. -1.
</event>
<event>
 5   0  0.7242214E-06  0.2301756E+04  0.7818609E-02  0.8477229E-01
        2   -1    0    0  501    0  0.00000000000E+00  0.00000000000E+00  0.21884175552E+04  0.21884175552E+04  0.25500000920E-02 0. -1.
       -2   -1    0    0    0  501  0.00000000000E+00  0.00000000000E+00 -0.60524105650E+03  0.60524105651E+03  0.25500000920E-02 0.  1.
    10030    2    1    2    0    0  0.00000000000E+00  0.00000000000E+00  0.15831764987E+04  0.27936586117E+04  0.23017559846E+04 0.  0.
        1    1    3    3  502    0  0.39884990186E+03  0.10392735586E+04  0.43700824867E+03  0.11958875295E+04  0.50400001928E-02 0.  1.
       -1    1    3    3    0  502 -0.39884990186E+03 -0.10392735586E+04  0.11461682500E+04  0.15977710822E+04  0.50400001928E-02 0. -1.
</event>
<event>
 5   0  0.3195296E-06  0.2314490E+04  0.7818609E-02  0.8472230E-01
        1   -1    0    0  501    0  0.00000000000E+00  0.00000000000E+00  0.88957214497E+03  0.88957214498E+03  0.50400001928E-02 0.  1.
       -1   -1    0    0    0  501  0.00000000000E+00  0.00000000000E+00 -0.15054604763E+04  0.15054604763E+04  0.50400001928E-02 0. -1.
    10030    2    1    2    0    0  0.00000000000E+00  0.00000000000E+00 -0.61588833132E+03  0.23950326213E+04  0.23144897538E+04 0.  0.
        2    1    3    3  502    0  0.10364607308E+03 -0.87747362085E+03  0.46540016750E+03  0.99864897721E+03  0.25500000920E-02 0.  1.
       -2    1    3    3    0  502 -0.10364607308E+03  0.87747362085E+03 -0.10812884988E+04  0.13963836441E+04  0.25500000920E-02 0. -1.
</event>
<event>
 5   0  0.7497344E-06  0.2302483E+04  0.7818609E-02  0.8476943E-01
       -2   -1    0    0    0  501  0.00000000000E+00  0.00000000000E+00  0.68993305075E+03  0.68993305076E+03  0.25500000920E-02 0.  1.
        2   -1    0    0  501    0  0.00000000000E+00  0.00000000000E+00 -0.19209929260E+04  0.19209929260E+04  0.25500000920E-02 0. -1.
    10030    2    1    2    0    0  0.00000000000E+00  0.00000000000E+00 -0.12310598752E+04  0.26109259767E+04  0.23024825818E+04 0.  0.
        5    1    3    3  502    0  0.15215256894E+03 -0.11135307864E+04 -0.33264535142E+03  0.11720820092E+04  0.46999998093E+01 0.  1.
       -5    1    3    3    0  502 -0.15215256894E+03  0.11135307864E+04 -0.89841452379E+03  0.14388439676E+04  0.46999998093E+01 0. -1.
</event>
<event>
 5   0  0.3184492E-06  0.2299322E+04  0.7818609E-02  0.8478189E-01
        1   -1    0    0  501    0  0.00000000000E+00  0.00000000000E+00  0.15931061905E+04  0.15931061905E+04  0.50400001928E-02 0.  1.
       -1   -1    0    0    0  501  0.00000000000E+00  0.00000000000E+00 -0.82964987981E+03  0.82964987983E+03  0.50400001928E-02 0. -1.
    10030    2    1    2    0    0  0.00000000000E+00  0.00000000000E+00  0.76345631066E+03  0.24227560703E+04  0.22993219518E+04 0.  0.
        1    1    3    3  502    0  0.88741818495E+03  0.70733371718E+03  0.18775794638E+03  0.11502543496E+04  0.50400001928E-02 0. -1.
       -1    1    3    3    0  502 -0.88741818495E+03 -0.70733371718E+03  0.57569836428E+03  0.12725017207E+04  0.50400001928E-02 0.  1.
</event>
<event>
 5   0  0.7242214E-06  0.2302575E+04  0.7818609E-02  0.8476907E-01
       -2   -1    0    0    0  501  0.00000000000E+00  0.00000000000E+00  0.12177388553E+04  0.12177388553E+04  0.25500000920E-02 0. -1.
        2   -1    0    0  501    0  0.00000000000E+00  0.00000000000E+00 -0.10884621320E+04  0.10884621320E+04  0.25500000920E-02 0.  1.
    10030    2    1    2    0    0  0.00000000000E+00  0.00000000000E+00  0.12927672328E+03  0.23062009873E+04  0.23025747594E+04 0.  0.
        1    1    3    3  502    0 -0.62700723106E+02 -0.30228542207E+03 -0.10462317759E+04  0.10908294027E+04  0.50400001928E-02 0.  1.
       -1    1    3    3    0  502  0.62700723106E+02  0.30228542207E+03  0.11755084991E+04  0.12153715846E+04  0.50400001928E-02 0. -1.
</event>
<event>
 5   0  0.7003852E-06  0.2267902E+04  0.7818609E-02  0.8490685E-01
        2   -1    0    0  501    0  0.00000000000E+00  0.00000000000E+00  0.15791630387E+04  0.15791630387E+04  0.25500000920E-02 0. -1.
       -2   -1    0    0    0  501  0.00000000000E+00  0.00000000000E+00 -0.81425752915E+03  0.81425752915E+03  0.25500000920E-02 0.  1.
    10030    2    1    2    0    0  0.00000000000E+00  0.00000000000E+00  0.76490550954E+03  0.23934205678E+04  0.22679024618E+04 0.  0.
        2    1    3    3  502    0  0.10415798189E+04 -0.26772442037E+02 -0.89795308354E+02  0.10457860585E+04  0.25500000920E-02 0.  1.
       -2    1    3    3    0  502 -0.10415798189E+04  0.26772442037E+02  0.85470081790E+03  0.13476345094E+04  0.25500000920E-02 0. -1.
</event>
<event>
 5   0  0.3338758E-06  0.2302032E+04  0.7818609E-02  0.8477120E-01
        1   -1    0    0  501    0  0.00000000000E+00  0.00000000000E+00  0.23561097690E+04  0.23561097690E+04  0.50400001928E-02 0.  1.
       -1   -1    0    0    0  501  0.00000000000E+00  0.00000000000E+00 -0.56229896582E+03  0.56229896584E+03  0.50400001928E-02 0. -1.
    10030    2    1    2    0    0  0.00000000000E+00  0.00000000000E+00  0.17938108032E+04  0.29184087348E+04  0.23020322209E+04 0.  0.
        5    1    3    3  502    0 -0.15203238431E+03 -0.12184181972E+03  0.23350409323E+04  0.23431597300E+04  0.46999998093E+01 0.  1.
       -5    1    3    3    0  502  0.15203238431E+03  0.12184181972E+03 -0.54123012910E+03  0.57524900483E+03  0.46999998093E+01 0. -1.
</event>
<event>
 5   0  0.3238713E-06  0.2319062E+04  0.7818609E-02  0.8470443E-01
        1   -1    0    0  501    0  0.00000000000E+00  0.00000000000E+00  0.17895315967E+04  0.17895315967E+04  0.50400001928E-02 0.  1.
       -1   -1    0    0    0  501  0.00000000000E+00  0.00000000000E+00 -0.75132069964E+03  0.75132069965E+03  0.50400001928E-02 0. -1.
    10030    2    1    2    0    0  0.00000000000E+00  0.00000000000E+00  0.10382108971E+04  0.25408522964E+04  0.23190619925E+04 0.  0.
        3    1    3    3  502    0 -0.10433581154E+04 -0.10432115767E+03 -0.23244250355E+02  0.10488180806E+04  0.10100000352E+00 0. -1.
       -3    1    3    3    0  502  0.10433581154E+04  0.10432115767E+03  0.10614551474E+04  0.14920342158E+04  0.10100000352E+00 0.  1.
</event>
<event>
 5   0  0.7242214E-06  0.2299609E+04  0.7818609E-02  0.8478075E-01
        2   -1    0    0  501    0  0.00000000000E+00  0.00000000000E+00  0.13314637060E+04  0.13314637060E+04  0.25500000920E-02 0.  1.
       -2   -1    0    0    0  501  0.00000000000E+00  0.00000000000E+00 -0.99292981076E+03  0.99292981077E+03  0.25500000920E-02 0. -1.
    10030    2    1    2    0    0  0.00000000000E+00  0.00000000000E+00  0.33853389522E+03  0.23243935168E+04  0.22996086673E+04 0.  0.
        1    1    3    3  502    0 -0.51794320399E+03 -0.79729415384E+03  0.82284787934E+03  0.12573868788E+04  0.50400001928E-02 0.  1.
       -1    1    3    3    0  502  0.51794320399E+03  0.79729415384E+03 -0.48431398412E+03  0.10670066380E+04  0.50400001928E-02 0. -1.
</event>
<event>
 5   0  0.7497344E-06  0.2306780E+04  0.7818609E-02  0.8475253E-01
        2   -1    0    0  501    0  0.00000000000E+00  0.00000000000E+00  0.11539902316E+04  0.11539902316E+04  0.25500000920E-02 0.  1.
       -2   -1    0    0    0  501  0.00000000000E+00  0.00000000000E+00 -0.11527898702E+04  0.11527898702E+04  0.25500000920E-02 0. -1.
    10030    2    1    2    0    0  0.00000000000E+00  0.00000000000E+00  0.12003613494E+01  0.23067801018E+04  0.23067797895E+04 0.  0.
        5    1    3    3  502    0 -0.89467125806E+03 -0.71168899198E+03 -0.15220127338E+03  0.11533105388E+04  0.46999998093E+01 0. -1.
       -5    1    3    3    0  502  0.89467125806E+03  0.71168899198E+03  0.15340163473E+03  0.11534695630E+04  0.46999998093E+01 0.  1.
</event>
<event>
 5   0  0.3338758E-06  0.2301364E+04  0.7818609E-02  0.8477384E-01
        1   -1    0    0  501    0  0.00000000000E+00  0.00000000000E+00  0.13618614077E+04  0.13618614077E+04  0.50400001928E-02 0.  1.
       -1   -1    0    0    0  501  0.00000000000E+00  0.00000000000E+00 -0.97224931190E+03  0.97224931192E+03  0.50400001928E-02 0. -1.
    10030    2    1    2    0    0  0.00000000000E+00  0.00000000000E+00  0.38961209581E+03  0.23341107196E+04  0.23013637840E+04 0.  0.
        5    1    3    3  502    0 -0.34558877686E+03 -0.25591049274E+03  0.12772909796E+04  0.13477448273E+04  0.46999998093E+01 0.  1.
       -5    1    3    3    0  502  0.34558877686E+03  0.25591049274E+03 -0.88767888374E+03  0.98636589237E+03  0.46999998093E+01 0. -1.
</event>
<event>
 5   0  0.7242214E-06  0.2301977E+04  0.7818609E-02  0.8477142E-01
       -2   -1    0    0    0  501  0.00000000000E+00  0.00000000000E+00  0.15457142037E+04  0.15457142037E+04  0.25500000920E-02 0. -1.
        2   -1    0    0  501    0  0.00000000000E+00  0.00000000000E+00 -0.85706341108E+03  0.85706341108E+03  0.25500000920E-02 0.  1.
    10030    2    1    2    0    0  0.00000000000E+00  0.00000000000E+00  0.68865079259E+03  0.24027776148E+04  0.23019774873E+04 0.  0.
        1    1    3    3  502    0  0.21094179814E+03 -0.78295235332E+03  0.11969570202E+04  0.14457582571E+04  0.50400001928E-02 0. -1.
       -1    1    3    3    0  502 -0.21094179814E+03  0.78295235332E+03 -0.50830622764E+03  0.95701935762E+03  0.50400001928E-02 0.  1.
</event>
<event>
 5   0  0.3184492E-06  0.2298575E+04  0.7818609E-02  0.8478483E-01
        1   -1    0    0  501    0  0.00000000000E+00  0.00000000000E+00  0.18973047730E+04  0.18973047730E+04  0.50400001928E-02 0. -1.
       -1   -1    0    0    0  501  0.00000000000E+00  0.00000000000E+00 -0.69617824213E+03  0.69617824215E+03  0.50400001928E-02 0.  1.
    10030    2    1    2    0    0  0.00000000000E+00  0.00000000000E+00  0.12011265309E+04  0.25934830152E+04  0.22985754734E+04 0.  0.
        1    1    3    3  502    0  0.98381444181E+03 -0.16211014732E+03 -0.44338730009E+02  0.99806636993E+03  0.50400001928E-02 0.  1.
       -1    1    3    3    0  502 -0.98381444181E+03  0.16211014732E+03  0.12454652609E+04  0.15954166452E+04  0.50400001928E-02 0. -1.
</event>
<event>
 5   0  0.7348107E-06  0.2273737E+04  0.7818609E-02  0.8488349E-01
       -2   -1    0    0    0  501  0.00000000000E+00  0.00000000000E+00  0.45984838256E+03  0.45984838257E+03  0.25500000920E-02 0.  1.
        2   -1    0    0  501    0  0.00000000000E+00  0.00000000000E+00 -0.28106430525E+04  0.28106430525E+04  0.25500000920E-02 0. -1.
    10030    2    1    2    0    0  0.00000000000E+00  0.00000000000E+00 -0.23507946699E+04  0.32704914351E+04  0.22737367145E+04 0.  0.
        3    1    3    3  502    0 -0.99121079329E+03 -0.38919745498E+03 -0.60275663990E+03  0.12236376395E+04  0.10100000352E+00 0.  1.
       -3    1    3    3    0  502  0.99121079329E+03  0.38919745498E+03 -0.17480380300E+04  0.20468537955E+04  0.10100000352E+00 0. -1.
</event>
<event>
 5   0  0.7044981E-06  0.2299837E+04  0.7818609E-02  0.8477985E-01
       -2   -1    0    0    0  501  0.00000000000E+00  0.00000000000E+00  0.13517120749E+04  0.13517120749E+04  0.25500000920E-02 0. -1.
        2   -1    0    0  501    0  0.00000000000E+00  0.00000000000E+00 -0.97825038604E+03  0.97825038604E+03  0.25500000920E-02 0.  1.
    10030    2    1    2    0    0  0.00000000000E+00  0.00000000000E+00  0.37346168888E+03  0.23299624610E+04  0.22998372630E+04 0.  0.
        4    1    3    3  502    0 -0.55350578672E+03  0.93030781628E+03  0.57971651630E+03  0.12279715555E+04  0.12699999809E+01 0. -1.
       -4    1    3    3    0  502  0.55350578672E+03 -0.93030781628E+03 -0.20625482742E+03  0.11019909055E+04  0.12699999809E+01 0.  1.
</event>
<event>
 5   0  0.7003852E-06  0.2291523E+04  0.7818609E-02  0.8481271E-01
        2   -1    0    0  501    0  0.00000000000E+00  0.00000000000E+00  0.19372706326E+04  0.19372706326E+04  0.25500000920E-02 0.  1.
       -2   -1    0    0    0  501  0.00000000000E+00  0.00000000000E+00 -0.67763834077E+03  0.67763834077E+03  0.25500000920E-02 0. -1.
    10030    2    1    2    0    0  0.00000000000E+00  0.00000000000E+00  0.12596322919E+04  0.26149089734E+04  0.22915225132E+04 0.  0.
        2    1    3    3  502    0 -0.92737468212E+03 -0.61160846419E+02  0.13944574412E+04  0.16757911581E+04  0.25500000920E-02 0.  1.
       -2    1    3    3    0  502  0.92737468212E+03  0.61160846419E+02 -0.13482514934E+03  0.93911781533E+03  0.25500000920E-02 0. -1.
</event>
<event>
 5   0  0.7003852E-06  0.2301767E+04  0.7818609E-02  0.8477225E-01
       -2   -1    0    0    0  501  0.00000000000E+00  0.00000000000E+00  0.79870676485E+03  0.79870676485E+03  0.25500000920E-02 0. -1.
        2   -1    0    0  501    0  0.00000000000E+00  0.00000000000E+00 -0.16583464632E+04  0.16583464632E+04  0.25500000920E-02 0.  1.
    10030    2    1    2    0    0  0.00000000000E+00  0.00000000000E+00 -0.85963969834E+03  0.24570532280E+04  0.23017667463E+04 0.  0.
        2    1    3    3  502    0  0.12415261633E+03 -0.28326819473E+03 -0.16131545549E+04  0.16425353452E+04  0.25500000920E-02 0.  1.
       -2    1    3    3    0  502 -0.12415261633E+03  0.28326819473E+03  0.75351485659E+03  0.81451788279E+03  0.25500000920E-02 0. -1.
</event>
<event>
 5   0  0.7242214E-06  0.2296293E+04  0.7818609E-02  0.8479384E-01
       -2   -1    0    0    0  501  0.00000000000E+00  0.00000000000E+00  0.86726143123E+03  0.86726143123E+03  0.25500000920E-02 0.  1.
        2   -1    0    0  501    0  0.00000000000E+00  0.00000000000E+00 -0.15200034181E+04  0.15200034181E+04  0.25500000920E-02 0. -1.
    10030    2    1    2    0    0  0.00000000000E+00  0.00000000000E+00 -0.65274198690E+03  0.23872648494E+04  0.22962929603E+04 0.  0.
        1    1    3    3  502    0 -0.10963037323E+04 -0.26990120500E+02 -0.67988658376E+03  0.12902930314E+04  0.50400001928E-02 0. -1.
       -1    1    3    3    0  502  0.10963037323E+04  0.26990120500E+02  0.27144596861E+02  0.10969718179E+04  0.50400001928E-02 0.  1.
</event>
<event>
 5   0  0.3338758E-06  0.2328250E+04  0.7818609E-02  0.8466865E-01
        1   -1    0    0  501    0  0.00000000000E+00  0.00000000000E+00  0.98726564698E+03  0.98726564700E+03  0.50400001928E-02 0. -1.
       -1   -1    0    0    0  501  0.00000000000E+00  0.00000000000E+00 -0.13726669307E+04  0.13726669307E+04  0.50400001928E-02 0.  1.
    10030    2    1    2    0    0  0.00000000000E+00  0.00000000000E+00 -0.38540128367E+03  0.23599325777E+04  0.23282499053E+04 0.  0.
        5    1    3    3  502    0  0.21547321651E+03 -0.24617230023E+03  0.93970190085E+03  0.99503329637E+03  0.46999998093E+01 0. -1.
       -5    1    3    3    0  502 -0.21547321651E+03  0.24617230023E+03 -0.13251031845E+04  0.13648992813E+04  0.46999998093E+01 0.  1.
</event>
<event>
 5   0  0.3184492E-06  0.2303812E+04  0.7818609E-02  0.8476420E-01
        1   -1    0    0  501    0  0.00000000000E+00  0.00000000000E+00  0.18503847202E+04  0.18503847202E+04  0.50400001928E-02 0.  1.
       -1   -1    0    0    0  501  0.00000000000E+00  0.00000000000E+00 -0.71708711757E+03  0.71708711759E+03  0.50400001928E-02 0. -1.
    10030    2    1    2    0    0  0.00000000000E+00  0.00000000000E+00  0.11332976027E+04  0.25674718378E+04  0.23038116637E+04 0.  0.
        1    1    3    3  502    0  0.22020208530E+03 -0.50507811666E+03 -0.56070171637E+03  0.78611657982E+03  0.50400001928E-02 0. -1.
       -1    1    3    3    0  502 -0.22020208530E+03  0.50507811666E+03  0.16939993190E+04  0.17813552580E+04  0.50400001928E-02 0.  1.
</event>
<event>
 5   0  0.7242214E-06  0.2299662E+04  0.7818609E-02  0.8478055E-01
        2   -1    0    0  501    0  0.00000000000E+00  0.00000000000E+00  0.16596108170E+04  0.16596108170E+04  0.25500000920E-02 0. -1.
       -2   -1    0    0    0  501  0.00000000000E+00  0.00000000000E+00 -0.79663906183E+03  0.79663906183E+03  0.25500000920E-02 0.  1.
    10030    2    1    2    0    0  0.00000000000E+00  0.00000000000E+00  0.86297175522E+03  0.24562498789E+04  0.22996615440E+04 0.  0.
        1    1    3    3  502    0  0.25681276935E+03  0.44914501633E+03  0.15282590860E+04  0.16134620783E+04  0.50400001928E-02 0. -1.
       -1    1    3    3    0  502 -0.25681276935E+03 -0.44914501633E+03 -0.66528733080E+03  0.84278780054E+03  0.50400001928E-02 0.  1.
</event>
<event>
 5   0  0.3195296E-06  0.2305110E+04  0.7818609E-02  0.8475909E-01
        1   -1    0    0  501    0  0.00000000000E+00  0.00000000000E+00  0.99309447822E+03  0.99309447823E+03  0.50400001928E-02 0.  1.
       -1   -1    0    0    0  501  0.00000000000E+00  0.00000000000E+00 -0.13376194478E+04  0.13376194479E+04  0.50400001928E-02 0. -1.
    10030    2    1    2    0    0  0.00000000000E+00  0.00000000000E+00 -0.34452496963E+03  0.23307139261E+04  0.23051095311E+04 0.  0.
        2    1    3    3  502    0 -0.50075766670E+03  0.59503204930E+03 -0.10323348863E+04  0.12924924363E+04  0.25500000920E-02 0. -1.
       -2    1    3    3    0  502  0.50075766670E+03 -0.59503204930E+03  0.68780991664E+03  0.10382214898E+04  0.25500000920E-02 0.  1.
</event>
<event>
 5   0  0.3238713E-06  0.2301190E+04  0.7818609E-02  0.8477452E-01
       -1   -1    0    0    0  501  0.00000000000E+00  0.00000000000E+00  0.64879298280E+03  0.64879298282E+03  0.50400001928E-02 0.  1.
        1   -1    0    0  501    0  0.00000000000E+00  0.00000000000E+00 -0.20405111646E+04  0.20405111646E+04  0.50400001928E-02 0. -1.
    10030    2    1    2    0    0  0.00000000000E+00  0.00000000000E+00 -0.13917181818E+04  0.26893041474E+04  0.23011904093E+04 0.  0.
        3    1    3    3  502    0  0.50998699020E+03 -0.58448135851E+03  0.29726912692E+03  0.83070700769E+03  0.10100000352E+00 0.  1.
       -3    1    3    3    0  502 -0.50998699020E+03  0.58448135851E+03 -0.16889873087E+04  0.18585971397E+04  0.10100000352E+00 0. -1.
</event>
<event>
 5   0  0.3226427E-06  0.2293863E+04  0.7818609E-02  0.8480345E-01
        1   -1    0    0  501    0  0.00000000000E+00  0.00000000000E+00  0.19924009601E+04  0.19924009601E+04  0.50400001928E-02 0.  1.
       -1   -1    0    0    0  501  0.00000000000E+00  0.00000000000E+00 -0.66023445426E+03  0.66023445428E+03  0.50400001928E-02 0. -1.
    10030    2    1    2    0    0  0.00000000000E+00  0.00000000000E+00  0.13321665059E+04  0.26526354144E+04  0.22938629084E+04 0.  0.
        4    1    3    3  502    0 -0.95104768903E+03  0.54547571671E+03  0.27663949539E+03  0.11307371435E+04  0.12699999809E+01 0. -1.
       -4    1    3    3    0  502  0.95104768903E+03 -0.54547571671E+03  0.10555270105E+04  0.15218982709E+04  0.12699999809E+01 0.  1.
</event>
<event>
 5   0  0.7242214E-06  0.2297391E+04  0.7818609E-02  0.8478950E-01
        2   -1    0    0  501    0  0.00000000000E+00  0.00000000000E+00  0.10226893710E+04  0.10226893710E+04  0.25500000920E-02 0.  1.
       -2   -1    0    0    0  501  0.00000000000E+00  0.00000000000E+00 -0.12902274023E+04  0.12902274023E+04  0.25500000920E-02 0. -1.
    10030    2    1    2    0    0  0.00000000000E+00  0.00000000000E+00 -0.26753803131E+03  0.23129167733E+04  0.22973914342E+04 0.  0.
        1    1    3    3  502    0  0.41600928972E+01  0.20421375727E+02  0.10224990203E+04  0.10227113891E+04  0.50400001928E-02 0.  1.
       -1    1    3    3    0  502 -0.41600928972E+01 -0.20421375727E+02 -0.12900370516E+04  0.12902053842E+04  0.50400001928E-02 0. -1.
</event>
<event>
 5   0  0.3195296E-06  0.2304324E+04  0.7818609E-02  0.8476218E-01
       -1   -1    0    0    0  501  0.00000000000E+00  0.00000000000E+00  0.91589350482E+03  0.91589350484E+03  0.50400001928E-02 0.  1.
        1   -1    0    0  501    0  0.00000000000E+00  0.00000000000E+00 -0.14493799537E+04  0.14493799537E+04  0.50400001928E-02 0. -1.
    10030    2    1    2    0    0  0.00000000000E+00  0.00000000000E+00 -0.53348644886E+03  0.23652734585E+04  0.23043243571E+04 0.  0.
        2    1    3    3  502    0 -0.58506992948E+03 -0.20791843876E+03 -0.12629501330E+04  0.14073307849E+04  0.25500000920E-02 0. -1.
       -2    1    3    3    0  502  0.58506992948E+03  0.20791843876E+03  0.72946368414E+03  0.95794267367E+03  0.25500000920E-02 0.  1.
</event>
<event>
 5   0  0.3338758E-06  0.2296753E+04  0.7818609E-02  0.8479202E-01
        1   -1    0    0  501    0  0.00000000000E+00  0.00000000000E+00  0.68575060679E+03  0.68575060680E+03  0.50400001928E-02 0. -1.
       -1   -1    0    0    0  501  0.00000000000E+00  0.00000000000E+00 -0.19231029532E+04  0.19231029532E+04  0.50400001928E-02 0.  1.
    10030    2    1    2    0    0  0.00000000000E+00  0.00000000000E+00 -0.12373523464E+04  0.26088535600E+04  0.22967533756E+04 0.  0.
        5    1    3    3  502    0 -0.19341121846E+03  0.41079395609E+03 -0.18168019124E+04  0.18726854655E+04  0.46999998093E+01 0.  1.
       -5    1    3    3    0  502  0.19341121846E+03 -0.41079395609E+03  0.57944956601E+03  0.73616809449E+03  0.46999998093E+01 0. -1.
</event>
<event>
 5   0  0.3338758E-06  0.2326532E+04  0.7818609E-02  0.8467533E-01
        1   -1    0    0  501    0  0.00000000000E+00  0.00000000000E+00  0.11070526943E+04  0.11070526943E+04  0.50400001928E-02 0.  1.
       -1   -1    0    0    0  501  0.00000000000E+00  0.00000000000E+00 -0.12223334632E+04  0.12223334632E+04  0.50400001928E-02 0. -1.
    10030    2    1    2    0    0  0.00000000000E+00  0.00000000000E+00 -0.11528076886E+03  0.23293861575E+04  0.23265317997E+04 0.  0.
        5    1    3    3  502    0 -0.95154076389E+03 -0.89115465429E+02  0.60634295626E+03  0.11318327006E+04  0.46999998093E+01 0.  1.
       -5    1    3    3    0  502  0.95154076389E+03  0.89115465429E+02 -0.72162372512E+03  0.11975534569E+04  0.46999998093E+01 0. -1.
</event>
<event>
 5   0  0.7242214E-06  0.2299693E+04  0.7818609E-02  0.8478042E-01
        2   -1    0    0  501    0  0.00000000000E+00  0.00000000000E+00  0.23543879454E+04  0.23543879454E+04  0.25500000920E-02 0.  1.
       -2   -1    0    0    0  501  0.00000000000E+00  0.00000000000E+00 -0.56156719250E+03  0.56156719250E+03  0.25500000920E-02 0. -1.
    10030    2    1    2    0    0  0.00000000000E+00  0.00000000000E+00  0.17928207529E+04  0.29159551379E+04  0.22996930478E+04 0.  0.
        1    1    3    3  502    0 -0.38132846577E+03  0.10323961659E+04  0.13186554314E+04  0.17175870834E+04  0.50400001928E-02 0.  1.
       -1    1    3    3    0  502  0.38132846577E+03 -0.10323961659E+04  0.47416532151E+03  0.11983680546E+04  0.50400001928E-02 0. -1.
</event>
<event>
 5   0  0.3338758E-06  0.2297863E+04  0.7818609E-02  0.8478764E-01
       -1   -1    0    0    0  501  0.00000000000E+00  0.00000000000E+00  0.11779636496E+04  0.11779636496E+04  0.50400001928E-02 0. -1.
        1   -1    0    0  501    0  0.00000000000E+00  0.00000000000E+00 -0.11206151250E+04  0.11206151250E+04  0.50400001928E-02 0.  1.
    10030    2    1    2    0    0  0.00000000000E+00  0.00000000000E+00  0.57348524579E+02  0.22985787747E+04  0.22978632531E+04 0.  0.
        5    1    3    3  502    0 -0.24592235907E+03  0.55036629853E+03  0.10070590457E+04  0.11736996553E+04  0.46999998093E+01 0. -1.
       -5    1    3    3    0  502  0.24592235907E+03 -0.55036629853E+03 -0.94971052115E+03  0.11248791194E+04  0.46999998093E+01 0.  1.
</event>
<event>
 5   0  0.7003852E-06  0.2325458E+04  0.7818609E-02  0.8467950E-01
       -2   -1    0    0    0  501  0.00000000000E+00  0.00000000000E+00  0.48059314603E+03  0.48059314603E+03  0.25500000920E-02 0.  1.
        2   -1    0    0  501    0  0.00000000000E+00  0.00000000000E+00 -0.28130638312E+04  0.28130638312E+04  0.25500000920E-02 0. -1.
    10030    2    1    2    0    0  0.00000000000E+00  0.00000000000E+00 -0.23324706852E+04  0.32936569772E+04  0.23254584035E+04 0.  0.
        2    1    3    3  502    0 -0.54206656613E+03 -0.15287118547E+03  0.27449941212E+03  0.62654264717E+03  0.25500000920E-02 0.  1.
       -2    1    3    3    0  502  0.54206656613E+03  0.15287118547E+03 -0.26069700973E+04  0.26671143301E+04  0.25500000920E-02 0. -1.
</event>
<event>
 5   0  0.3195296E-06  0.2332171E+04  0.7818609E-02  0.8465343E-01
       -1   -1    0    0    0  501  0.00000000000E+00  0.00000000000E+00  0.97903706849E+03  0.97903706850E+03  0.50400001928E-02 0.  1.
        1   -1    0    0  501    0  0.00000000000E+00  0.00000000000E+00 -0.13888706734E+04  0.13888706734E+04  0.50400001928E-02 0. -1.
    10030    2    1    2    0    0  0.00000000000E+00  0.00000000000E+00 -0.40983360490E+03  0.23679077419E+04  0.23321714110E+04 0.  0.
        2    1    3    3  502    0 -0.33521315036E+03 -0.72382989946E+03 -0.10685136730E+04  0.13334238070E+04  0.25500000920E-02 0. -1.
       -2    1    3    3    0  502  0.33521315036E+03  0.72382989946E+03  0.65868006811E+03  0.10344839349E+04  0.25500000920E-02 0.  1.
</event>
<event>
 5   0  0.7497344E-06  0.2298763E+04  0.7818609E-02  0.8478409E-01
        2   -1    0    0  501    0  0.00000000000E+00  0.00000000000E+00  0.20900417715E+04  0.20900417715E+04  0.25500000920E-02 0.  1.
       -2   -1    0    0    0  501  0.00000000000E+00  0.00000000000E+00 -0.63208211884E+03  0.63208211884E+03  0.25500000920E-02 0. -1.
    10030    2    1    2    0    0  0.00000000000E+00  0.00000000000E+00  0.14579596527E+04  0.27221238903E+04  0.22987631730E+04 0.  0.
        5    1    3    3  502    0  0.59238361153E+02  0.15841197001E+03  0.20752150074E+04  0.20821006106E+04  0.46999998093E+01 0.  1.
       -5    1    3    3    0  502 -0.59238361153E+02 -0.15841197001E+03 -0.61725535474E+03  0.64002327975E+03  0.46999998093E+01 0. -1.
</event>
<event>
 5   0  0.7044981E-06  0.2300557E+04  0.7818609E-02  0.8477702E-01
        2   -1    0    0  501    0  0.00000000000E+00  0.00000000000E+00  0.10341022516E+04  0.10341022516E+04  0.25500000920E-02 0.  1.
       -2   -1    0    0    0  501  0.00000000000E+00  0.00000000000E+00 -0.12795065878E+04  0.12795065878E+04  0.25500000920E-02 0. -1.
    10030    2    1    2    0    0  0.00000000000E+00  0.00000000000E+00 -0.24540433622E+03  0.23136088393E+04  0.23005570137E+04 0.  0.
        4    1    3    3  502    0  0.49378811989E+03  0.10302378395E+04 -0.25733593964E+03  0.11710850149E+04  0.12699999809E+01 0. -1.
       -4    1    3    3    0  502 -0.49378811989E+03 -0.10302378395E+04  0.11931603418E+02  0.11425238245E+04  0.12699999809E+01 0.  1.
</event>
<event>
 5   0  0.7044981E-06  0.2335738E+04  0.7818609E-02  0.8463962E-01
        2   -1    0    0  501    0  0.00000000000E+00  0.00000000000E+00  0.11331330678E+04  0.11331330678E+04  0.25500000920E-02 0.  1.
       -2   -1    0    0    0  501  0.00000000000E+00  0.00000000000E+00 -0.12036702372E+04  0.12036702372E+04  0.25500000920E-02 0. -1.
    10030    2    1    2    0    0  0.00000000000E+00  0.00000000000E+00 -0.70537169375E+02  0.23368033049E+04  0.23357384686E+04 0.  0.
        4    1    3    3  502    0 -0.66578706055E+03  0.62669771174E+03  0.69162613631E+03  0.11464600984E+04  0.12699999809E+01 0.  1.
       -4    1    3    3    0  502  0.66578706055E+03 -0.62669771174E+03 -0.76216330569E+03  0.11903432065E+04  0.12699999809E+01 0. -1.
</event>
<event>
 5   0  0.2519625E-06  0.2284799E+04  0.7818609E-02  0.8483939E-01
       -3   -1    0    0    0  501  0.00000000000E+00  0.00000000000E+00  0.15111569632E+04  0.15111569665E+04  0.10100000352E+00 0. -1.
        3   -1    0    0  501    0  0.00000000000E+00  0.00000000000E+00 -0.86362714496E+03  0.86362715086E+03  0.10100000352E+00 0.  1.
    10030    2    1    2    0    0  0.00000000000E+00  0.00000000000E+00  0.64752981821E+03  0.23747841174E+04  0.22847986211E+04 0.  0.
        2    1    3    3  502    0 -0.11354979301E+04 -0.92299160335E+02  0.23556102626E+03  0.11633416013E+04  0.25500000920E-02 0.  1.
       -2    1    3    3    0  502  0.11354979301E+04  0.92299160335E+02  0.41196879195E+03  0.12114425161E+04  0.25500000920E-02 0. -1.
</event>
<event>
 5   0  0.2519625E-06  0.2296717E+04  0.7818609E-02  0.8479217E-01
       -3   -1    0    0    0  501  0.00000000000E+00  0.00000000000E+00  0.17240837275E+04  0.17240837305E+04  0.10100000352E+00 0.  1.
        3   -1    0    0  501    0  0.00000000000E+00  0.00000000000E+00 -0.76488609296E+03  0.76488609963E+03  0.10100000352E+00 0. -1.
    10030    2    1    2    0    0  0.00000000000E+00  0.00000000000E+00  0.95919763458E+03  0.24889698301E+04  0.22967173777E+04 0.  0.
        1    1    3    3  502    0 -0.11193614428E+04  0.25453191485E+03  0.44582706077E+03  0.12314699767E+04  0.50400001928E-02 0. -1.
       -1    1    3    3    0  502  0.11193614428E+04 -0.25453191485E+03  0.51337057381E+03  0.12574998534E+04  0.50400001928E-02 0.  1.
</event>
<event>
 5   0  0.3338758E-06  0.2295377E+04  0.7818609E-02  0.8479746E-01
        1   -1    0    0  501    0  0.00000000000E+00  0.00000000000E+00  0.11945623757E+04  0.11945623758E+04  0.50400001928E-02 0. -1.
       -1   -1    0    0    0  501  0.00000000000E+00  0.00000000000E+00 -0.11026536821E+04  0.11026536821E+04  0.50400001928E-02 0.  1.
    10030    2    1    2    0    0  0.00000000000E+00  0.00000000000E+00  0.91908693649E+02  0.22972160579E+04  0.22953767465E+04 0.  0.
        5    1    3    3  502    0  0.34405623038E+03 -0.10722837779E+04  0.26748962854E+03  0.11574713739E+04  0.46999998093E+01 0.  1.
       -5    1    3    3    0  502 -0.34405623038E+03  0.10722837779E+04 -0.17558093489E+03  0.11397446840E+04  0.46999998093E+01 0. -1.
</event>
<event>
 5   0  0.7044981E-06  0.2301097E+04  0.7818609E-02  0.8477489E-01
        2   -1    0    0  501    0  0.00000000000E+00  0.00000000000E+00  0.13546679676E+04  0.13546679677E+04  0.25500000920E-02 0.  1.
       -2   -1    0    0    0  501  0.00000000000E+00  0.00000000000E+00 -0.97718521305E+03  0.97718521306E+03  0.25500000920E-02 0. -1.
    10030    2    1    2    0    0  0.00000000000E+00  0.00000000000E+00  0.37748275460E+03  0.23318531807E+04  0.23010967008E+04 0.  0.
        4    1    3    3  502    0 -0.96709043097E+03  0.57075025253E+03 -0.65086360385E+02  0.11248366991E+04  0.12699999809E+01 0. -1.
       -4    1    3    3    0  502  0.96709043097E+03 -0.57075025253E+03  0.44256911498E+03  0.12070164816E+04  0.12699999809E+01 0.  1.
</event>
<event>
 5   0  0.7497344E-06  0.2302573E+04  0.7818609E-02  0.8476907E-01
       -2   -1    0    0    0  501  0.00000000000E+00  0.00000000000E+00  0.92036416646E+03  0.92036416647E+03  0.25500000920E-02 0.  1.
        2   -1    0    0  501    0  0.00000000000E+00  0.00000000000E+00 -0.14401474613E+04  0.14401474613E+04  0.25500000920E-02 0. -1.
    10030    2    1    2    0    0  0.00000000000E+00  0.00000000000E+00 -0.51978329483E+03  0.23605116278E+04  0.23025725768E+04 0.  0.
        5    1    3    3  502    0 -0.30043056475E+03  0.42651250770E+03  0.79222034076E+03  0.94858136276E+03  0.46999998093E+01 0.  1.
       -5    1    3    3    0  502  0.30043056475E+03 -0.42651250770E+03 -0.13120036356E+04  0.14119302650E+04  0.46999998093E+01 0. -1.
</event>
<event>
 5   0  0.3238713E-06  0.2304030E+04  0.7818609E-02  0.8476334E-01
       -1   -1    0    0    0  501  0.00000000000E+00  0.00000000000E+00  0.88220074742E+03  0.88220074744E+03  0.50400001928E-02 0. -1.
        1   -1    0    0  501    0  0.00000000000E+00  0.00000000000E+00 -0.15043500781E+04  0.15043500781E+04  0.50400001928E-02 0.  1.
    10030    2    1    2    0    0  0.00000000000E+00  0.00000000000E+00 -0.62214933064E+03  0.23865508255E+04  0.23040301763E+04 0.  0.
        3    1    3    3  502    0  0.34494335071E+02  0.12628768451E+03  0.87447083081E+03  0.88421585744E+03  0.10100000352E+00 0. -1.
       -3    1    3    3    0  502 -0.34494335071E+02 -0.12628768451E+03 -0.14966201615E+04  0.15023349681E+04  0.10100000352E+00 0.  1.
</event>
<event>
 5   0  0.7044981E-06  0.2300335E+04  0.7818609E-02  0.8477789E-01
        2   -1    0    0  501    0  0.00000000000E+00  0.00000000000E+00  0.11197112649E+04  0.11197112649E+04  0.25500000920E-02 0.  1.
       -2   -1    0    0    0  501  0.00000000000E+00  0.00000000000E+00 -0.11814522556E+04  0.11814522556E+04  0.25500000920E-02 0. -1.
    10030    2    1    2    0    0  0.00000000000E+00  0.00000000000E+00 -0.61740990680E+02  0.23011635206E+04  0.23003351057E+04 0.  0.
        4    1    3    3  502    0 -0.33522866633E+03  0.27370189333E+03 -0.10968962296E+04  0.11791835890E+04  0.12699999809E+01 0. -1.
       -4    1    3    3    0  502  0.33522866633E+03 -0.27370189333E+03  0.10351552390E+04  0.11219799315E+04  0.12699999809E+01 0.  1.
</event>
<event>
 5   0  0.7242214E-06  0.2294654E+04  0.7818609E-02  0.8480032E-01
        2   -1    0    0  501    0  0.00000000000E+00  0.00000000000E+00  0.14251438071E+04  0.14251438071E+04  0.25500000920E-02 0.  1.
       -2   -1    0    0    0  501  0.00000000000E+00  0.00000000000E+00 -0.92366790007E+03  0.92366790008E+03  0.25500000920E-02 0. -1.
    10030    2    1    2    0    0  0.00000000000E+00  0.00000000000E+00  0.50147590704E+03  0.23488117072E+04  0.22946542987E+04 0.  0.
        1    1    3    3  502    0 -0.10620548408E+04  0.37348242159E+03  0.47711359539E+03  0.12227374972E+04  0.50400001928E-02 0.  1.
       -1    1    3    3    0  502  0.10620548408E+04 -0.37348242159E+03  0.24362311643E+02  0.11260742100E+04  0.50400001928E-02 0. -1.
</event>
<event>
 5   0  0.3238713E-06  0.2299322E+04  0.7818609E-02  0.8478189E-01
       -1   -1    0    0    0  501  0.00000000000E+00  0.00000000000E+00  0.48179128756E+03  0.48179128758E+03  0.50400001928E-02 0.  1.
        1   -1    0    0  501    0  0.00000000000E+00  0.00000000000E+00 -0.27433452789E+04  0.27433452789E+04  0.50400001928E-02 0. -1.
    10030    2    1    2    0    0  0.00000000000E+00  0.00000000000E+00 -0.22615539914E+04  0.32251365665E+04  0.22993215123E+04 0.  0.
        3    1    3    3  502    0  0.92182580288E+02 -0.84226099906E+03 -0.40839334372E+02  0.84827417742E+03  0.10100000352E+00 0.  1.
       -3    1    3    3    0  502 -0.92182580288E+02  0.84226099906E+03 -0.22207146570E+04  0.23768623891E+04  0.10100000352E+00 0. -1.
</event>
<event>
 5   0  0.7348107E-06  0.2296737E+04  0.7818609E-02  0.8479209E-01
       -2   -1    0    0    0  501  0.00000000000E+00  0.00000000000E+00  0.15018796224E+04  0.15018796224E+04  0.25500000920E-02 0. -1.
        2   -1    0    0  501    0  0.00000000000E+00  0.00000000000E+00 -0.87806623225E+03  0.87806623225E+03  0.25500000920E-02 0.  1.
    10030    2    1    2    0    0  0.00000000000E+00  0.00000000000E+00  0.62381339016E+03  0.23799458547E+04  0.22967366252E+04 0.  0.
        3    1    3    3  502    0 -0.10271705660E+04 -0.49376971719E+03  0.45794470415E+03  0.12282513047E+04  0.10100000352E+00 0.  1.
       -3    1    3    3    0  502  0.10271705660E+04  0.49376971719E+03  0.16586868600E+03  0.11516945500E+04  0.10100000352E+00 0. -1.
</event>
<event>
 5   0  0.3238713E-06  0.2290952E+04  0.7818609E-02  0.8481497E-01
        1   -1    0    0  501    0  0.00000000000E+00  0.00000000000E+00  0.19684534825E+04  0.19684534825E+04  0.50400001928E-02 0.  1.
       -1   -1    0    0    0  501  0.00000000000E+00  0.00000000000E+00 -0.66657177123E+03  0.66657177125E+03  0.50400001928E-02 0. -1.
    10030    2    1    2    0    0  0.00000000000E+00  0.00000000000E+00  0.13018817113E+04  0.26350252538E+04  0.22909522251E+04 0.  0.
        3    1    3    3  502    0  0.80467045479E+03 -0.20948072227E+02 -0.28643194920E+03  0.85438670066E+03  0.10100000352E+00 0. -1.
       -3    1    3    3    0  502 -0.80467045479E+03  0.20948072227E+02  0.15883136605E+04  0.17806385531E+04  0.10100000352E+00 0.  1.
</event>
<event>
 5   0  0.3338758E-06  0.2298621E+04  0.7818609E-02  0.8478465E-01
       -1   -1    0    0    0  501  0.00000000000E+00  0.00000000000E+00  0.81117122927E+03  0.81117122929E+03  0.50400001928E-02 0.  1.
        1   -1    0    0  501    0  0.00000000000E+00  0.00000000000E+00 -0.16284035656E+04  0.16284035656E+04  0.50400001928E-02 0. -1.
    10030    2    1    2    0    0  0.00000000000E+00  0.00000000000E+00 -0.81723233637E+03  0.24395747949E+04  0.22986205621E+04 0.  0.
        5    1    3    3  502    0  0.14523719760E+02 -0.77815357721E+03 -0.13061439129E+04  0.15204499134E+04  0.46999998093E+01 0. -1.
       -5    1    3    3    0  502 -0.14523719760E+02  0.77815357721E+03  0.48891157650E+03  0.91912488150E+03  0.46999998093E+01 0.  1.
</event>
<event>
 5   0  0.3184492E-06  0.2323757E+04  0.7818609E-02  0.8468613E-01
       -1   -1    0    0    0  501  0.00000000000E+00  0.00000000000E+00  0.12759493247E+04  0.12759493247E+04  0.50400001928E-02 0. -1.
        1   -1    0    0  501    0  0.00000000000E+00  0.00000000000E+00 -0.10580054942E+04  0.10580054942E+04  0.50400001928E-02 0.  1.
    10030    2    1    2    0    0  0.00000000000E+00  0.00000000000E+00  0.21794383054E+03  0.23339548189E+04  0.23237567823E+04 0.  0.
        1    1    3    3  502    0 -0.63645281509E+03  0.32007561368E+03 -0.81290188654E+03  0.10808931776E+04  0.50400001928E-02 0.  1.
       -1    1    3    3    0  502  0.63645281509E+03 -0.32007561368E+03  0.10308457171E+04  0.12530616412E+04  0.50400001928E-02 0. -1.
</event>
<event>
 5   0  0.3184492E-06  0.2296987E+04  0.7818609E-02  0.8479110E-01
       -1   -1    0    0    0  501  0.00000000000E+00  0.00000000000E+00  0.70267501137E+03  0.70267501139E+03  0.50400001928E-02 0.  1.
        1   -1    0    0  501    0  0.00000000000E+00  0.00000000000E+00 -0.18771650685E+04  0.18771650685E+04  0.50400001928E-02 0. -1.
    10030    2    1    2    0    0  0.00000000000E+00  0.00000000000E+00 -0.11744900571E+04  0.25798400799E+04  0.22969867095E+04 0.  0.
        1    1    3    3  502    0 -0.67747054810E+02 -0.78843469515E+03  0.34760920988E+03  0.86432117571E+03  0.50400001928E-02 0.  1.
       -1    1    3    3    0  502  0.67747054810E+02  0.78843469515E+03 -0.15220992670E+04  0.17155189042E+04  0.50400001928E-02 0. -1.
</event>
<event>
 5   0  0.7348107E-06  0.2319247E+04  0.7818609E-02  0.8470371E-01
       -2   -1    0    0    0  501  0.00000000000E+00  0.00000000000E+00  0.10025997635E+04  0.10025997635E+04  0.25500000920E-02 0. -1.
        2   -1    0    0  501    0  0.00000000000E+00  0.00000000000E+00 -0.13412401448E+04  0.13412401448E+04  0.25500000920E-02 0.  1.
    10030    2    1    2    0    0  0.00000000000E+00  0.00000000000E+00 -0.33864038129E+03  0.23438399082E+04  0.23192473365E+04 0.  0.
        3    1    3    3  502    0  0.68744708142E+03 -0.91378926470E+03  0.25421675734E+02  0.11437834506E+04  0.10100000352E+00 0.  1.
       -3    1    3    3    0  502 -0.68744708142E+03  0.91378926470E+03 -0.36406205702E+03  0.12000564577E+04  0.10100000352E+00 0. -1.
</event>
<event>
 5   0  0.3184492E-06  0.2308862E+04  0.7818609E-02  0.8474435E-01
        1   -1    0    0  501    0  0.00000000000E+00  0.00000000000E+00  0.16615403222E+04  0.16615403222E+04  0.50400001928E-02 0.  1.
       -1   -1    0    0    0  501  0.00000000000E+00  0.00000000000E+00 -0.80209338593E+03  0.80209338594E+03  0.50400001928E-02 0. -1.
    10030    2    1    2    0    0  0.00000000000E+00  0.00000000000E+00  0.85944693629E+03  0.24636337082E+04  0.23088616268E+04 0.  0.
        1    1    3    3  502    0  0.71088786594E+03  0.56252456554E+02  0.13984261031E+04  0.15697520386E+04  0.50400001928E-02 0.  1.
       -1    1    3    3    0  502 -0.71088786594E+03 -0.56252456554E+02 -0.53897916685E+03  0.89388166954E+03  0.50400001928E-02 0. -1.
</event>
<event>
 5   0  0.3195296E-06  0.2297262E+04  0.7818609E-02  0.8479002E-01
        1   -1    0    0  501    0  0.00000000000E+00  0.00000000000E+00  0.12959819335E+04  0.12959819335E+04  0.50400001928E-02 0.  1.
       -1   -1    0    0    0  501  0.00000000000E+00  0.00000000000E+00 -0.10180333839E+04  0.10180333839E+04  0.50400001928E-02 0. -1.
    10030    2    1    2    0    0  0.00000000000E+00  0.00000000000E+00  0.27794854962E+03  0.23140153174E+04  0.22972617380E+04 0.  0.
        2    1    3    3  502    0  0.86250884201E+03 -0.61910310158E+03  0.58051190017E+03  0.12100430650E+04  0.25500000920E-02 0.  1.
       -2    1    3    3    0  502 -0.86250884201E+03  0.61910310158E+03 -0.30256335055E+03  0.11039722524E+04  0.25500000920E-02 0. -1.
</event>
<event>
 5   0  0.3338758E-06  0.2298068E+04  0.7818609E-02  0.8478683E-01
       -1   -1    0    0    0  501  0.00000000000E+00  0.00000000000E+00  0.61565186737E+03  0.61565186740E+03  0.50400001928E-02 0. -1.
        1   -1    0    0  501    0  0.00000000000E+00  0.00000000000E+00 -0.21445224682E+04  0.21445224682E+04  0.50400001928E-02 0.  1.
    10030    2    1    2    0    0  0.00000000000E+00  0.00000000000E+00 -0.15288706008E+04  0.27601743356E+04  0.22980681123E+04 0.  0.
        5    1    3    3  502    0  0.28859643233E+03  0.98260497541E+03 -0.13902185390E+04  0.17267107791E+04  0.46999998093E+01 0.  1.
       -5    1    3    3    0  502 -0.28859643233E+03 -0.98260497541E+03 -0.13865206187E+03  0.10334635565E+04  0.46999998093E+01 0. -1.
</event>
<event>
 5   0  0.7044981E-06  0.2301149E+04  0.7818609E-02  0.8477468E-01
       -2   -1    0    0    0  501  0.00000000000E+00  0.00000000000E+00  0.14695681506E+04  0.14695681506E+04  0.25500000920E-02 0. -1.
        2   -1    0    0  501    0  0.00000000000E+00  0.00000000000E+00 -0.90082353459E+03  0.90082353459E+03  0.25500000920E-02 0.  1.
    10030    2    1    2    0    0  0.00000000000E+00  0.00000000000E+00  0.56874461599E+03  0.23703916852E+04  0.23011489093E+04 0.  0.
        4    1    3    3  502    0 -0.61898098605E+01  0.91708120959E+03 -0.43133211503E+03  0.10134718867E+04  0.12699999809E+01 0. -1.
       -4    1    3    3    0  502  0.61898098605E+01 -0.91708120959E+03  0.10000767310E+04  0.13569197985E+04  0.12699999809E+01 0.  1.
</event>
<event>
 5   0  0.7348107E-06  0.2303437E+04  0.7818609E-02  0.8476567E-01
        2   -1    0    0  501    0  0.00000000000E+00  0.00000000000E+00  0.16556817538E+04  0.16556817538E+04  0.25500000920E-02 0.  1.
       -2   -1    0    0    0  501  0.00000000000E+00  0.00000000000E+00 -0.80115333903E+03  0.80115333903E+03  0.25500000920E-02 0. -1.
    10030    2    1    2    0    0  0.00000000000E+00  0.00000000000E+00  0.85452841480E+03  0.24568350929E+04  0.23034365331E+04 0.  0.
        3    1    3    3  502    0 -0.80431797784E+02  0.49326395433E+03 -0.67946747726E+03  0.84347772086E+03  0.10100000352E+00 0. -1.
       -3    1    3    3    0  502  0.80431797784E+02 -0.49326395433E+03  0.15339958921E+04  0.16133573720E+04  0.10100000352E+00 0.  1.
</event>
<event>
 5   0  0.3226427E-06  0.2297418E+04  0.7818609E-02  0.8478940E-01
        1   -1    0    0  501    0  0.00000000000E+00  0.00000000000E+00  0.10953165104E+04  0.10953165105E+04  0.50400001928E-02 0.  1.
       -1   -1    0    0    0  501  0.00000000000E+00  0.00000000000E+00 -0.12047044360E+04  0.12047044360E+04  0.50400001928E-02 0. -1.
    10030    2    1    2    0    0  0.00000000000E+00  0.00000000000E+00 -0.10938792556E+03  0.23000209465E+04  0.22974182545E+04 0.  0.
        4    1    3    3  502    0 -0.63525535839E+03 -0.92734334343E+03 -0.29163908188E+03  0.11612794728E+04  0.12699999809E+01 0. -1.
       -4    1    3    3    0  502  0.63525535839E+03  0.92734334343E+03  0.18225115631E+03  0.11387414737E+04  0.12699999809E+01 0.  1.
</event>
<event>
 5   0  0.3195296E-06  0.2304052E+04  0.7818609E-02  0.8476325E-01
        1   -1    0    0  501    0  0.00000000000E+00  0.00000000000E+00  0.10255417252E+04  0.10255417252E+04  0.50400001928E-02 0. -1.
       -1   -1    0    0    0  501  0.00000000000E+00  0.00000000000E+00 -0.12941105831E+04  0.12941105831E+04  0.50400001928E-02 0.  1.
    10030    2    1    2    0    0  0.00000000000E+00  0.00000000000E+00 -0.26856885793E+03  0.23196523083E+04  0.23040524299E+04 0.  0.
        2    1    3    3  502    0  0.32987304516E+03 -0.33988826500E+03  0.92298011550E+03  0.10374162868E+04  0.25500000920E-02 0. -1.
       -2    1    3    3    0  502 -0.32987304516E+03  0.33988826500E+03 -0.11915489734E+04  0.12822360214E+04  0.25500000920E-02 0.  1.
</event>
<event>
 5   0  0.3226427E-06  0.2299808E+04  0.7818609E-02  0.8477997E-01
        1   -1    0    0  501    0  0.00000000000E+00  0.00000000000E+00  0.85321244886E+03  0.85321244887E+03  0.50400001928E-02 0. -1.
       -1   -1    0    0    0  501  0.00000000000E+00  0.00000000000E+00 -0.15497659593E+04  0.15497659593E+04  0.50400001928E-02 0.  1.
    10030    2    1    2    0    0  0.00000000000E+00  0.00000000000E+00 -0.69655351044E+03  0.24029784082E+04  0.22998083480E+04 0.  0.
        4    1    3    3  502    0 -0.38519898755E+03  0.10416414255E+04 -0.65978337105E+03  0.12917859067E+04  0.12699999809E+01 0.  1.
       -4    1    3    3    0  502  0.38519898755E+03 -0.10416414255E+04 -0.36770139395E+02  0.11111925015E+04  0.12699999809E+01 0. -1.
</event>
<event>
 5   0  0.3184492E-06  0.2292891E+04  0.7818609E-02  0.8480730E-01
       -1   -1    0    0    0  501  0.00000000000E+00  0.00000000000E+00  0.76456614097E+03  0.76456614099E+03  0.50400001928E-02 0. -1.
        1   -1    0    0  501    0  0.00000000000E+00  0.00000000000E+00 -0.17190622876E+04  0.17190622876E+04  0.50400001928E-02 0.  1.
    10030    2    1    2    0    0  0.00000000000E+00  0.00000000000E+00 -0.95449614659E+03  0.24836284286E+04  0.22928905943E+04 0.  0.
        1    1    3    3  502    0  0.78041455055E+03 -0.75452005052E+03 -0.77804088696E+02  0.10883018210E+04  0.50400001928E-02 0. -1.
       -1    1    3    3    0  502 -0.78041455055E+03  0.75452005052E+03 -0.87669205789E+03  0.13953266076E+04  0.50400001928E-02 0.  1.
</event>
<event>
 5   0  0.3184492E-06  0.2306413E+04  0.7818609E-02  0.8475397E-01
        1   -1    0    0  501    0  0.00000000000E+00  0.00000000000E+00  0.14421320692E+04  0.14421320692E+04  0.50400001928E-02 0. -1.
       -1   -1    0    0    0  501  0.00000000000E+00  0.00000000000E+00 -0.92216595118E+03  0.92216595120E+03  0.50400001928E-02 0.  1.
    10030    2    1    2    0    0  0.00000000000E+00  0.00000000000E+00  0.51996611800E+03  0.23642980204E+04  0.23064128783E+04 0.  0.
        1    1    3    3  502    0 -0.23950490306E+03 -0.53140994186E+03 -0.76004093864E+03  0.95782114893E+03  0.50400001928E-02 0.  1.
       -1    1    3    3    0  502  0.23950490306E+03  0.53140994186E+03  0.12800070566E+04  0.14064768715E+04  0.50400001928E-02 0. -1.
</event>
<event>
 5   0  0.7044981E-06  0.2298405E+04  0.7818609E-02  0.8478550E-01
       -2   -1    0    0    0  501  0.00000000000E+00  0.00000000000E+00  0.10145937423E+04  0.10145937423E+04  0.25500000920E-02 0. -1.
        2   -1    0    0  501    0  0.00000000000E+00  0.00000000000E+00 -0.13016699744E+04  0.13016699744E+04  0.25500000920E-02 0.  1.
    10030    2    1    2    0    0  0.00000000000E+00  0.00000000000E+00 -0.28707623203E+03  0.23162637167E+04  0.22984048474E+04 0.  0.
        4    1    3    3  502    0 -0.47814989119E+03  0.89532004618E+03 -0.68664981964E+03  0.12254447728E+04  0.12699999809E+01 0.  1.
       -4    1    3    3    0  502  0.47814989119E+03 -0.89532004618E+03  0.39957358761E+03  0.10908189439E+04  0.12699999809E+01 0. -1.
</event>
<event>
 5   0  0.7044981E-06  0.2302043E+04  0.7818609E-02  0.8477116E-01
        2   -1    0    0  501    0  0.00000000000E+00  0.00000000000E+00  0.99459451370E+03  0.99459451370E+03  0.25500000920E-02 0.  1.
       -2   -1    0    0    0  501  0.00000000000E+00  0.00000000000E+00 -0.13320503790E+04  0.13320503790E+04  0.25500000920E-02 0. -1.
    10030    2    1    2    0    0  0.00000000000E+00  0.00000000000E+00 -0.33745586534E+03  0.23266448927E+04  0.23020425704E+04 0.  0.
        4    1    3    3  502    0 -0.31430098755E+03 -0.61454918054E+03  0.76219811845E+03  0.10283012160E+04  0.12699999809E+01 0.  1.
       -4    1    3    3    0  502  0.31430098755E+03  0.61454918054E+03 -0.10996539838E+04  0.12983436768E+04  0.12699999809E+01 0. -1.
</event>
<event>
 5   0  0.3184492E-06  0.2299667E+04  0.7818609E-02  0.8478052E-01
       -1   -1    0    0    0  501  0.00000000000E+00  0.00000000000E+00  0.11260635480E+04  0.11260635480E+04  0.50400001928E-02 0. -1.
        1   -1    0    0  501    0  0.00000000000E+00  0.00000000000E+00 -0.11741051933E+04  0.11741051933E+04  0.50400001928E-02 0.  1.
    10030    2    1    2    0    0  0.00000000000E+00  0.00000000000E+00 -0.48041645273E+02  0.23001687414E+04  0.22996669844E+04 0.  0.
        1    1    3    3  502    0  0.10807176592E+04  0.38772331075E+03 -0.85978145020E+02  0.11513784200E+04  0.50400001928E-02 0. -1.
       -1    1    3    3    0  502 -0.10807176592E+04 -0.38772331075E+03  0.37936499746E+02  0.11487903214E+04  0.50400001928E-02 0.  1.
</event>
<event>
 5   0  0.3226427E-06  0.2301447E+04  0.7818609E-02  0.8477351E-01
       -1   -1    0    0    0  501  0.00000000000E+00  0.00000000000E+00  0.90136164777E+03  0.90136164778E+03  0.50400001928E-02 0. -1.
        1   -1    0    0  501    0  0.00000000000E+00  0.00000000000E+00 -0.14690709319E+04  0.14690709319E+04  0.50400001928E-02 0.  1.
    10030    2    1    2    0    0  0.00000000000E+00  0.00000000000E+00 -0.56770928417E+03  0.23704325797E+04  0.23014466719E+04 0.  0.
        4    1    3    3  502    0  0.41620066879E+03 -0.91554925247E+03  0.29211154439E+03  0.10472746524E+04  0.12699999809E+01 0. -1.
       -4    1    3    3    0  502 -0.41620066879E+03  0.91554925247E+03 -0.85982082856E+03  0.13231579273E+04  0.12699999809E+01 0.  1.
</event>
<event>
 5   0  0.7044981E-06  0.2304203E+04  0.7818609E-02  0.8476266E-01
        2   -1    0    0  501    0  0.00000000000E+00  0.00000000000E+00  0.15639902961E+04  0.15639902961E+04  0.25500000920E-02 0. -1.
       -2   -1    0    0    0  501  0.00000000000E+00  0.00000000000E+00 -0.84868699432E+03  0.84868699433E+03  0.25500000920E-02 0.  1.
    10030    2    1    2    0    0  0.00000000000E+00  0.00000000000E+00  0.71530330181E+03  0.24126772905E+04  0.23042033101E+04 0.  0.
        4    1    3    3  502    0 -0.68643339293E+03 -0.47625409342E+03 -0.47299614028E+03  0.96007068804E+03  0.12699999809E+01 0.  1.
       -4    1    3    3    0  502  0.68643339293E+03  0.47625409342E+03  0.11882994421E+04  0.14526066024E+04  0.12699999809E+01 0. -1.
</event>
<event>
 5   0  0.7044981E-06  0.2312213E+04  0.7818609E-02  0.8473121E-01
        2   -1    0    0  501    0  0.00000000000E+00  0.00000000000E+00  0.15018784873E+04  0.15018784873E+04  0.25500000920E-02 0.  1.
       -2   -1    0    0    0  501  0.00000000000E+00  0.00000000000E+00 -0.88994000149E+03  0.88994000150E+03  0.25500000920E-02 0. -1.
    10030    2    1    2    0    0  0.00000000000E+00  0.00000000000E+00  0.61193848579E+03  0.23918184888E+04  0.23122125709E+04 0.  0.
        4    1    3    3  502    0 -0.10489922108E+04 -0.24540599337E+03 -0.12796254799E+03  0.10848892969E+04  0.12699999809E+01 0. -1.
       -4    1    3    3    0  502  0.10489922108E+04  0.24540599337E+03  0.73990103378E+03  0.13069291919E+04  0.12699999809E+01 0.  1.
</event>
<event>
 5   0  0.7497344E-06  0.2293518E+04  0.7818609E-02  0.8480481E-01
        2   -1    0    0  501    0  0.00000000000E+00  0.00000000000E+00  0.11877424038E+04  0.11877424038E+04  0.25500000920E-02 0.  1.
       -2   -1    0    0    0  501  0.00000000000E+00  0.00000000000E+00 -0.11071899048E+04  0.11071899048E+04  0.25500000920E-02 0. -1.
    10030    2    1    2    0    0  0.00000000000E+00  0.00000000000E+00  0.80552499055E+02  0.22949323086E+04  0.22935181700E+04 0.  0.
        5    1    3    3  502    0  0.57431600221E+03 -0.71678895889E+03  0.72729191854E+03  0.11715805165E+04  0.46999998093E+01 0.  1.
       -5    1    3    3    0  502 -0.57431600221E+03  0.71678895889E+03 -0.64673941949E+03  0.11233517920E+04  0.46999998093E+01 0. -1.
</event>
<event>
 5   0  0.7242214E-06  0.2296241E+04  0.7818609E-02  0.8479405E-01
        2   -1    0    0  501    0  0.00000000000E+00  0.00000000000E+00  0.96403270301E+03  0.96403270301E+03  0.25500000920E-02 0.  1.
       -2   -1    0    0    0  501  0.00000000000E+00  0.00000000000E+00 -0.13673613803E+04  0.13673613803E+04  0.25500000920E-02 0. -1.
    10030    2    1    2    0    0  0.00000000000E+00  0.00000000000E+00 -0.40332867726E+03  0.23313940833E+04  0.22962413527E+04 0.  0.
        1    1    3    3  502    0 -0.30015489969E+03  0.81251205469E+03 -0.96680060549E+03  0.12980647956E+04  0.50400001928E-02 0. -1.
       -1    1    3    3    0  502  0.30015489969E+03 -0.81251205469E+03  0.56347192823E+03  0.10333292877E+04  0.50400001928E-02 0.  1.
</event>
<event>
 5   0  0.3338758E-06  0.2310799E+04  0.7818609E-02  0.8473676E-01
        1   -1    0    0  501    0  0.00000000000E+00  0.00000000000E+00  0.94382359425E+03  0.94382359426E+03  0.50400001928E-02 0.  1.
       -1   -1    0    0    0  501  0.00000000000E+00  0.00000000000E+00 -0.14144035430E+04  0.14144035430E+04  0.50400001928E-02 0. -1.
    10030    2    1    2    0    0  0.00000000000E+00  0.00000000000E+00 -0.47057994872E+03  0.23582271372E+04  0.23107985076E+04 0.  0.
        5    1    3    3  502    0 -0.84417286032E+02 -0.11521747721E+04 -0.25273951614E+03  0.11825955930E+04  0.46999998093E+01 0.  1.
       -5    1    3    3    0  502  0.84417286032E+02  0.11521747721E+04 -0.21784043258E+03  0.11756315442E+04  0.46999998093E+01 0. -1.
</event>
<event>
 5   0  0.7497344E-06  0.2299377E+04  0.7818609E-02  0.8478167E-01
        2   -1    0    0  501    0  0.00000000000E+00  0.00000000000E+00  0.15800875844E+04  0.15800875844E+04  0.25500000920E-02 0. -1.
       -2   -1    0    0    0  501  0.00000000000E+00  0.00000000000E+00 -0.83652572238E+03  0.83652572239E+03  0.25500000920E-02 0.  1.
    10030    2    1    2    0    0  0.00000000000E+00  0.00000000000E+00  0.74356186201E+03  0.24166133068E+04  0.22993772270E+04 0.  0.
        5    1    3    3  502    0 -0.77257722906E+03  0.78950556582E+03  0.70672607570E+03  0.13113651091E+04  0.46999998093E+01 0. -1.
       -5    1    3    3    0  502  0.77257722906E+03 -0.78950556582E+03  0.36835786309E+02  0.11052481977E+04  0.46999998093E+01 0.  1.
</event>
<event>
 5   0  0.3195296E-06  0.2301432E+04  0.7818609E-02  0.8477357E-01
       -1   -1    0    0    0  501  0.00000000000E+00  0.00000000000E+00  0.98458478423E+03  0.98458478424E+03  0.50400001928E-02 0. -1.
        1   -1    0    0  501    0  0.00000000000E+00  0.00000000000E+00 -0.13448790464E+04  0.13448790464E+04  0.50400001928E-02 0.  1.
    10030    2    1    2    0    0  0.00000000000E+00  0.00000000000E+00 -0.36029426215E+03  0.23294638306E+04  0.23014321156E+04 0.  0.
        2    1    3    3  502    0  0.91533051970E+03  0.46079638110E+03  0.34966335104E+03  0.10827870170E+04  0.25500000920E-02 0. -1.
       -2    1    3    3    0  502 -0.91533051970E+03 -0.46079638110E+03 -0.70995761319E+03  0.12466768136E+04  0.25500000920E-02 0.  1.
</event>
<event>
 5   0  0.7497344E-06  0.2298659E+04  0.7818609E-02  0.8478450E-01
        2   -1    0    0  501    0  0.00000000000E+00  0.00000000000E+00  0.10585294738E+04  0.10585294738E+04  0.25500000920E-02 0.  1.
       -2   -1    0    0    0  501  0.00000000000E+00  0.00000000000E+00 -0.12479180556E+04  0.12479180556E+04  0.25500000920E-02 0. -1.
    10030    2    1    2    0    0  0.00000000000E+00  0.00000000000E+00 -0.18938858184E+03  0.23064475294E+04  0.22986587766E+04 0.  0.
        5    1    3    3  502    0 -0.76746619776E+03 -0.16031874207E+03  0.74852783849E+03  0.10839845381E+04  0.46999998093E+01 0.  1.
       -5    1    3    3    0  502  0.76746619776E+03  0.16031874207E+03 -0.93791642033E+03  0.12224629914E+04  0.46999998093E+01 0. -1.
</event>
<event>
 5   0  0.3238713E-06  0.2299005E+04  0.7818609E-02  0.8478314E-01
       -1   -1    0    0    0  501  0.00000000000E+00  0.00000000000E+00  0.98804635011E+03  0.98804635012E+03  0.50400001928E-02 0.  1.
        1   -1    0    0  501    0  0.00000000000E+00  0.00000000000E+00 -0.13373416107E+04  0.13373416107E+04  0.50400001928E-02 0. -1.
    10030    2    1    2    0    0  0.00000000000E+00  0.00000000000E+00 -0.34929526056E+03  0.23253879608E+04  0.22990045648E+04 0.  0.
        3    1    3    3  502    0 -0.45135239665E+03  0.10206445294E+04 -0.45334781007E+03  0.12045573828E+04  0.10100000352E+00 0.  1.
       -3    1    3    3    0  502  0.45135239665E+03 -0.10206445294E+04  0.10405254951E+03  0.11208305780E+04  0.10100000352E+00 0. -1.
</event>
<event>
 5   0  0.3226427E-06  0.2301594E+04  0.7818609E-02  0.8477293E-01
       -1   -1    0    0    0  501  0.00000000000E+00  0.00000000000E+00  0.18293916632E+04  0.18293916632E+04  0.50400001928E-02 0.  1.
        1   -1    0    0  501    0  0.00000000000E+00  0.00000000000E+00 -0.72392048772E+03  0.72392048774E+03  0.50400001928E-02 0. -1.
    10030    2    1    2    0    0  0.00000000000E+00  0.00000000000E+00  0.11054711755E+04  0.25533121510E+04  0.23015943214E+04 0.  0.
        4    1    3    3  502    0 -0.55398906495E+03  0.94801254815E+03  0.17052563833E+03  0.11111760804E+04  0.12699999809E+01 0.  1.
       -4    1    3    3    0  502  0.55398906495E+03 -0.94801254815E+03  0.93494553716E+03  0.14421360705E+04  0.12699999809E+01 0. -1.
</event>
<event>
 5   0  0.3238713E-06  0.2302290E+04  0.7818609E-02  0.8477019E-01
       -1   -1    0    0    0  501  0.00000000000E+00  0.00000000000E+00  0.57067962318E+03  0.57067962320E+03  0.50400001928E-02 0.  1.
        1   -1    0    0  501    0  0.00000000000E+00  0.00000000000E+00 -0.23220300959E+04  0.23220300959E+04  0.50400001928E-02 0. -1.
    10030    2    1    2    0    0  0.00000000000E+00  0.00000000000E+00 -0.17513504727E+04  0.28927097191E+04  0.23022903902E+04 0.  0.
        3    1    3    3  502    0 -0.28223299241E+03 -0.33526122121E+03  0.46176684503E+03  0.63661933510E+03  0.10100000352E+00 0.  1.
       -3    1    3    3    0  502  0.28223299241E+03  0.33526122121E+03 -0.22131173178E+04  0.22560903840E+04  0.10100000352E+00 0. -1.
</event>
<event>
 5   0  0.3238713E-06  0.2296672E+04  0.7818609E-02  0.8479234E-01
        1   -1    0    0  501    0  0.00000000000E+00  0.00000000000E+00  0.20749368258E+04  0.20749368258E+04  0.50400001928E-02 0. -1.
       -1   -1    0    0    0  501  0.00000000000E+00  0.00000000000E+00 -0.63552575619E+03  0.63552575621E+03  0.50400001928E-02 0.  1.
    10030    2    1    2    0    0  0.00000000000E+00  0.00000000000E+00  0.14394110696E+04  0.27104625820E+04  0.22966721971E+04 0.  0.
        3    1    3    3  502    0 -0.18974296583E+03  0.47301052130E+03  0.19341535783E+04  0.20001728478E+04  0.10100000352E+00 0. -1.
       -3    1    3    3    0  502  0.18974296583E+03 -0.47301052130E+03 -0.49474250873E+03  0.71028973419E+03  0.10100000352E+00 0.  1.
</event>
<event>
 5   0  0.7003852E-06  0.2299751E+04  0.7818609E-02  0.8478019E-01
        2   -1    0    0  501    0  0.00000000000E+00  0.00000000000E+00  0.20254321502E+04  0.20254321502E+04  0.25500000920E-02 0. -1.
       -2   -1    0    0    0  501  0.00000000000E+00  0.00000000000E+00 -0.65280584020E+03  0.65280584020E+03  0.25500000920E-02 0.  1.
    10030    2    1    2    0    0  0.00000000000E+00  0.00000000000E+00  0.13726263100E+04  0.26782379904E+04  0.22997512358E+04 0.  0.
        2    1    3    3  502    0 -0.63218482109E+03  0.78245295910E+03  0.13350607284E+04  0.16716092335E+04  0.25500000920E-02 0.  1.
       -2    1    3    3    0  502  0.63218482109E+03 -0.78245295910E+03  0.37565581643E+02  0.10066287569E+04  0.25500000920E-02 0. -1.
</event>
<event>
 5   0  0.3338758E-06  0.2301430E+04  0.7818609E-02  0.8477358E-01
       -1   -1    0    0    0  501  0.00000000000E+00  0.00000000000E+00  0.87259498803E+03  0.87259498805E+03  0.50400001928E-02 0. -1.
        1   -1    0    0  501    0  0.00000000000E+00  0.00000000000E+00 -0.15174790270E+04  0.15174790271E+04  0.50400001928E-02 0.  1.
    10030    2    1    2    0    0  0.00000000000E+00  0.00000000000E+00 -0.64488403902E+03  0.23900740151E+04  0.23014296370E+04 0.  0.
        5    1    3    3  502    0 -0.61001962512E+03 -0.88698484247E+03  0.99733316689E+02  0.10811266708E+04  0.46999998093E+01 0.  1.
       -5    1    3    3    0  502  0.61001962512E+03  0.88698484247E+03 -0.74461735571E+03  0.13089473443E+04  0.46999998093E+01 0. -1.
</event>
<event>
 5   0  0.3195296E-06  0.2305578E+04  0.7818609E-02  0.8475725E-01
        1   -1    0    0  501    0  0.00000000000E+00  0.00000000000E+00  0.20761718964E+04  0.20761718964E+04  0.50400001928E-02 0. -1.
       -1   -1    0    0    0  501  0.00000000000E+00  0.00000000000E+00 -0.64008284398E+03  0.64008284400E+03  0.50400001928E-02 0.  1.
    10030    2    1    2    0    0  0.00000000000E+00  0.00000000000E+00  0.14360890524E+04  0.27162547404E+04  0.23055775954E+04 0.  0.
        2    1    3    3  502    0  0.61667877185E+03  0.47339773559E+03 -0.28476190073E+03  0.82794170316E+03  0.25500000920E-02 0.  1.
       -2    1    3    3    0  502 -0.61667877185E+03 -0.47339773559E+03  0.17208509532E+04  0.18883130373E+04  0.25500000920E-02 0. -1.
</event>
<event>
 5   0  0.3238713E-06  0.2299260E+04  0.7818609E-02  0.8478213E-01
       -1   -1    0    0    0  501  0.00000000000E+00  0.00000000000E+00  0.10469294367E+04  0.10469294367E+04  0.50400001928E-02 0. -1.
        1   -1    0    0  501    0  0.00000000000E+00  0.00000000000E+00 -0.12624055874E+04  0.12624055875E+04  0.50400001928E-02 0.  1.
    10030    2    1    2    0    0  0.00000000000E+00  0.00000000000E+00 -0.21547615071E+03  0.23093350242E+04  0.22992603773E+04 0.  0.
        3    1    3    3  502    0 -0.97347669320E+03 -0.38037596713E+03  0.37322004885E+03  0.11097909549E+04  0.10100000352E+00 0. -1.
       -3    1    3    3    0  502  0.97347669320E+03  0.38037596713E+03 -0.58869619955E+03  0.11995440693E+04  0.10100000352E+00 0.  1.
</event>
<event>
 5   0  0.7242214E-06  0.2299283E+04  0.7818609E-02  0.8478204E-01
        2   -1    0    0  501    0  0.00000000000E+00  0.00000000000E+00  0.15214131549E+04  0.15214131549E+04  0.25500000920E-02 0. -1.
       -2   -1    0    0    0  501  0.00000000000E+00  0.00000000000E+00 -0.86871563504E+03  0.86871563504E+03  0.25500000920E-02 0.  1.
    10030    2    1    2    0    0  0.00000000000E+00  0.00000000000E+00  0.65269751990E+03  0.23901287900E+04  0.22992828404E+04 0.  0.
        1    1    3    3  502    0  0.94721572453E+02 -0.53187652381E+03 -0.72854222309E+03  0.90699425782E+03  0.50400001928E-02 0.  1.
       -1    1    3    3    0  502 -0.94721572453E+02  0.53187652381E+03  0.13812397430E+04  0.14831345322E+04  0.50400001928E-02 0. -1.
</event>
<event>
 5   0  0.7003852E-06  0.2299712E+04  0.7818609E-02  0.8478035E-01
       -2   -1    0    0    0  501  0.00000000000E+00  0.00000000000E+00  0.49501730821E+03  0.49501730821E+03  0.25500000920E-02 0. -1.
        2   -1    0    0  501    0  0.00000000000E+00  0.00000000000E+00 -0.26709537629E+04  0.26709537629E+04  0.25500000920E-02 0.  1.
    10030    2    1    2    0    0  0.00000000000E+00  0.00000000000E+00 -0.21759364547E+04  0.31659710711E+04  0.22997115837E+04 0.  0.
        2    1    3    3  502    0  0.11345141934E+04  0.24558529248E+01 -0.13456684092E+04  0.17600999840E+04  0.25500000920E-02 0. -1.
       -2    1    3    3    0  502 -0.11345141934E+04 -0.24558529248E+01 -0.83026804554E+03  0.14058710871E+04  0.25500000920E-02 0.  1.
</event>
<event>
 5   0  0.3238713E-06  0.2299441E+04  0.7818609E-02  0.8478142E-01
        1   -1    0    0  501    0  0.00000000000E+00  0.00000000000E+00  0.13437392011E+04  0.13437392011E+04  0.50400001928E-02 0.  1.
       -1   -1    0    0    0  501  0.00000000000E+00  0.00000000000E+00 -0.98371522126E+03  0.98371522127E+03  0.50400001928E-02 0. -1.
    10030    2    1    2    0    0  0.00000000000E+00  0.00000000000E+00  0.36002397979E+03  0.23274544223E+04  0.22994405454E+04 0.  0.
        3    1    3    3  502    0 -0.92325186316E+02  0.10549156504E+04  0.63322328902E+03  0.12338325305E+04  0.10100000352E+00 0.  1.
       -3    1    3    3    0  502  0.92325186316E+02 -0.10549156504E+04 -0.27319930923E+03  0.10936218918E+04  0.10100000352E+00 0. -1.
</event>
<event>
 5   0  0.7242214E-06  0.2280682E+04  0.7818609E-02  0.8485577E-01
        2   -1    0    0  501    0  0.00000000000E+00  0.00000000000E+00  0.15465348968E+04  0.15465348968E+04  0.25500000920E-02 0.  1.
       -2   -1    0    0    0  501  0.00000000000E+00  0.00000000000E+00 -0.84083298162E+03  0.84083298162E+03  0.25500000920E-02 0. -1.
    10030    2    1    2    0    0  0.00000000000E+00  0.00000000000E+00  0.70570191521E+03  0.23873678785E+04  0.22806819581E+04 0.  0.
        1    1    3    3  502    0 -0.25801648421E+03 -0.50297612754E+03 -0.68383994747E+03  0.88723985753E+03  0.50400001928E-02 0. -1.
       -1    1    3    3    0  502  0.25801648421E+03  0.50297612754E+03  0.13895418627E+04  0.15001280209E+04  0.50400001928E-02 0.  1.
</event>
<event>
 5   0  0.3184492E-06  0.2299179E+04  0.7818609E-02  0.8478245E-01
        1   -1    0    0  501    0  0.00000000000E+00  0.00000000000E+00  0.47912987589E+03  0.47912987592E+03  0.50400001928E-02 0. -1.
       -1   -1    0    0    0  501  0.00000000000E+00  0.00000000000E+00 -0.27582408242E+04  0.27582408242E+04  0.50400001928E-02 0.  1.
    10030    2    1    2    0    0  0.00000000000E+00  0.00000000000E+00 -0.22791109483E+04  0.32373707001E+04  0.22991786219E+04 0.  0.
        1    1    3    3  502    0 -0.90476932627E+02  0.24758521853E+03 -0.27151127997E+04  0.27278786686E+04  0.50400001928E-02 0.  1.
       -1    1    3    3    0  502  0.90476932627E+02 -0.24758521853E+03  0.43600185135E+03  0.50949203151E+03  0.50400001928E-02 0. -1.
</event>
<event>
 5   0  0.3238713E-06  0.2299600E+04  0.7818609E-02  0.8478079E-01
        1   -1    0    0  501    0  0.00000000000E+00  0.00000000000E+00  0.14603823293E+04  0.14603823293E+04  0.50400001928E-02 0.  1.
       -1   -1    0    0    0  501  0.00000000000E+00  0.00000000000E+00 -0.90526943465E+03  0.90526943466E+03  0.50400001928E-02 0. -1.
    10030    2    1    2    0    0  0.00000000000E+00  0.00000000000E+00  0.55511289465E+03  0.23656517640E+04  0.22995995179E+04 0.  0.
        3    1    3    3  502    0 -0.27177941944E+03 -0.77937978985E+03 -0.54589954392E+03  0.98959751005E+03  0.10100000352E+00 0. -1.
       -3    1    3    3    0  502  0.27177941944E+03  0.77937978985E+03  0.11010124386E+04  0.13760542539E+04  0.10100000352E+00 0.  1.
</event>
<event>
 5   0  0.7044981E-06  0.2311681E+04  0.7818609E-02  0.8473330E-01
        2   -1    0    0  501    0  0.00000000000E+00  0.00000000000E+00  0.14432057914E+04  0.14432057914E+04  0.25500000920E-02 0. -1.
       -2   -1    0    0    0  501  0.00000000000E+00  0.00000000000E+00 -0.92569386770E+03  0.92569386771E+03  0.25500000920E-02 0.  1.
    10030    2    1    2    0    0  0.00000000000E+00  0.00000000000E+00  0.51751192371E+03  0.23688996591E+04  0.23116805583E+04 0.  0.
        4    1    3    3  502    0 -0.61546336020E+03 -0.28661109089E+03  0.12173370256E+04  0.13938623002E+04  0.12699999809E+01 0. -1.
       -4    1    3    3    0  502  0.61546336020E+03  0.28661109089E+03 -0.69982510188E+03  0.97503735892E+03  0.12699999809E+01 0.  1.
</event>
<event>
 5   0  0.7497344E-06  0.2301323E+04  0.7818609E-02  0.8477400E-01
        2   -1    0    0  501    0  0.00000000000E+00  0.00000000000E+00  0.70635109518E+03  0.70635109519E+03  0.25500000920E-02 0.  1.
       -2   -1    0    0    0  501  0.00000000000E+00  0.00000000000E+00 -0.18744530547E+04  0.18744530547E+04  0.25500000920E-02 0. -1.
    10030    2    1    2    0    0  0.00000000000E+00  0.00000000000E+00 -0.11681019595E+04  0.25808041499E+04  0.23013230699E+04 0.  0.
        5    1    3    3  502    0  0.50887107960E+03  0.25120573896E+03 -0.17065851432E+04  0.17984740865E+04  0.46999998093E+01 0. -1.
       -5    1    3    3    0  502 -0.50887107960E+03 -0.25120573896E+03  0.53848318368E+03  0.78233006336E+03  0.46999998093E+01 0.  1.
</event>
<event>
 5   0  0.7242214E-06  0.2301206E+04  0.7818609E-02  0.8477446E-01
       -2   -1    0    0    0  501  0.00000000000E+00  0.00000000000E+00  0.13877371438E+04  0.13877371438E+04  0.25500000920E-02 0.  1.
        2   -1    0    0  501    0  0.00000000000E+00  0.00000000000E+00 -0.95398984560E+03  0.95398984560E+03  0.25500000920E-02 0. -1.
    10030    2    1    2    0    0  0.00000000000E+00  0.00000000000E+00  0.43374729815E+03  0.23417269894E+04  0.23012058956E+04 0.  0.
        1    1    3    3  502    0 -0.97554386003E+03  0.55287503269E+03 -0.45603341862E+02  0.11222460913E+04  0.50400001928E-02 0.  1.
       -1    1    3    3    0  502  0.97554386003E+03 -0.55287503269E+03  0.47935064002E+03  0.12194808981E+04  0.50400001928E-02 0. -1.
</event>
<event>
 5   0  0.7497344E-06  0.2299944E+04  0.7818609E-02  0.8477943E-01
       -2   -1    0    0    0  501  0.00000000000E+00  0.00000000000E+00  0.80374879925E+03  0.80374879926E+03  0.25500000920E-02 0.  1.
        2   -1    0    0  501    0  0.00000000000E+00  0.00000000000E+00 -0.16453340826E+04  0.16453340826E+04  0.25500000920E-02 0. -1.
    10030    2    1    2    0    0  0.00000000000E+00  0.00000000000E+00 -0.84158528333E+03  0.24490828818E+04  0.22999437326E+04 0.  0.
        5    1    3    3  502    0  0.24312984930E+03  0.72119229345E+03 -0.13387744682E+04  0.15399901345E+04  0.46999998093E+01 0. -1.
       -5    1    3    3    0  502 -0.24312984930E+03 -0.72119229345E+03  0.49718918483E+03  0.90909274734E+03  0.46999998093E+01 0.  1.
</event>
<event>
 5   0  0.7044981E-06  0.2301284E+04  0.7818609E-02  0.8477415E-01
       -2   -1    0    0    0  501  0.00000000000E+00  0.00000000000E+00  0.91316125983E+03  0.91316125984E+03  0.25500000920E-02 0. -1.
        2   -1    0    0  501    0  0.00000000000E+00  0.00000000000E+00 -0.14498834917E+04  0.14498834917E+04  0.25500000920E-02 0.  1.
    10030    2    1    2    0    0  0.00000000000E+00  0.00000000000E+00 -0.53672223189E+03  0.23630447516E+04  0.23012843683E+04 0.  0.
        4    1    3    3  502    0  0.10221310740E+03 -0.51864055175E+03 -0.13178171655E+04  0.14198870503E+04  0.12699999809E+01 0.  1.
       -4    1    3    3    0  502 -0.10221310740E+03  0.51864055175E+03  0.78109493356E+03  0.94315770123E+03  0.12699999809E+01 0. -1.
</event>
<event>
 5   0  0.3238713E-06  0.2303566E+04  0.7818609E-02  0.8476516E-01
        1   -1    0    0  501    0  0.00000000000E+00  0.00000000000E+00  0.11522435015E+04  0.11522435015E+04  0.50400001928E-02 0. -1.
       -1   -1    0    0    0  501  0.00000000000E+00  0.00000000000E+00 -0.11513228284E+04  0.11513228284E+04  0.50400001928E-02 0.  1.
    10030    2    1    2    0    0  0.00000000000E+00  0.00000000000E+00  0.92067306140E+00  0.23035663299E+04  0.23035661459E+04 0.  0.
        3    1    3    3  502    0  0.73666623792E+03  0.41192991766E+03  0.78419558005E+03  0.11520964027E+04  0.10100000352E+00 0. -1.
       -3    1    3    3    0  502 -0.73666623792E+03 -0.41192991766E+03 -0.78327490699E+03  0.11514699272E+04  0.10100000352E+00 0.  1.
</event>
<event>
 5   0  0.3238713E-06  0.2318698E+04  0.7818609E-02  0.8470585E-01
       -1   -1    0    0    0  501  0.00000000000E+00  0.00000000000E+00  0.13087579856E+04  0.13087579856E+04  0.50400001928E-02 0.  1.
        1   -1    0    0  501    0  0.00000000000E+00  0.00000000000E+00 -0.10269965596E+04  0.10269965596E+04  0.50400001928E-02 0. -1.
    10030    2    1    2    0    0  0.00000000000E+00  0.00000000000E+00  0.28176142598E+03  0.23357545452E+04  0.23186978661E+04 0.  0.
        3    1    3    3  502    0  0.93223035437E+03 -0.66619056609E+03 -0.37129790750E+02  0.11464039147E+04  0.10100000352E+00 0. -1.
       -3    1    3    3    0  502 -0.93223035437E+03  0.66619056609E+03  0.31889121673E+03  0.11893506305E+04  0.10100000352E+00 0.  1.
</event>
<event>
 5   0  0.7348107E-06  0.2302598E+04  0.7818609E-02  0.8476897E-01
        2   -1    0    0  501    0  0.00000000000E+00  0.00000000000E+00  0.22606192691E+04  0.22606192691E+04  0.25500000920E-02 0. -1.
       -2   -1    0    0    0  501  0.00000000000E+00  0.00000000000E+00 -0.58633918367E+03  0.58633918368E+03  0.25500000920E-02 0.  1.
    10030    2    1    2    0    0  0.00000000000E+00  0.00000000000E+00  0.16742800854E+04  0.28469584528E+04  0.23025982340E+04 0.  0.
        3    1    3    3  502    0 -0.38573757967E+03 -0.96509658615E+02 -0.49874617117E+03  0.63785213650E+03  0.10100000352E+00 0.  1.
       -3    1    3    3    0  502  0.38573757967E+03  0.96509658615E+02  0.21730262566E+04  0.22091063163E+04  0.10100000352E+00 0. -1.
</event>
<event>
 5   0  0.7044981E-06  0.2278457E+04  0.7818609E-02  0.8486464E-01
       -2   -1    0    0    0  501  0.00000000000E+00  0.00000000000E+00  0.13829562750E+04  0.13829562750E+04  0.25500000920E-02 0. -1.
        2   -1    0    0  501    0  0.00000000000E+00  0.00000000000E+00 -0.93845471643E+03  0.93845471643E+03  0.25500000920E-02 0.  1.
    10030    2    1    2    0    0  0.00000000000E+00  0.00000000000E+00  0.44450155856E+03  0.23214109914E+04  0.22784572314E+04 0.  0.
        4    1    3    3  502    0 -0.66688963921E+03 -0.63872644169E+03  0.90200687181E+03  0.12908645428E+04  0.12699999809E+01 0. -1.
       -4    1    3    3    0  502  0.66688963921E+03  0.63872644169E+03 -0.45750531325E+03  0.10305464486E+04  0.12699999809E+01 0.  1.
</event>
<event>
 5   0  0.3195296E-06  0.2303332E+04  0.7818609E-02  0.8476609E-01
        1   -1    0    0  501    0  0.00000000000E+00  0.00000000000E+00  0.96367466962E+03  0.96367466963E+03  0.50400001928E-02 0.  1.
       -1   -1    0    0    0  501  0.00000000000E+00  0.00000000000E+00 -0.13763297302E+04  0.13763297303E+04  0.50400001928E-02 0. -1.
    10030    2    1    2    0    0  0.00000000000E+00  0.00000000000E+00 -0.41265506063E+03  0.23400043999E+04  0.23033315854E+04 0.  0.
        2    1    3    3  502    0  0.10319429931E+04  0.22606767783E+03  0.25958211069E+03  0.10878399736E+04  0.25500000920E-02 0.  1.
       -2    1    3    3    0  502 -0.10319429931E+04 -0.22606767783E+03 -0.67223717131E+03  0.12521644263E+04  0.25500000920E-02 0. -1.
</event>
<event>
 5   0  0.3184492E-06  0.2303037E+04  0.7818609E-02  0.8476725E-01
        1   -1    0    0  501    0  0.00000000000E+00  0.00000000000E+00  0.32523978503E+04  0.32523978503E+04  0.50400001928E-02 0.  1.
       -1   -1    0    0    0  501  0.00000000000E+00  0.00000000000E+00 -0.40769755578E+03  0.40769755581E+03  0.50400001928E-02 0. -1.
    10030    2    1    2    0    0  0.00000000000E+00  0.00000000000E+00  0.28447002945E+04  0.36600954061E+04  0.23030368248E+04 0.  0.
        1    1    3    3  502    0  0.22064872145E+03 -0.20337503602E+03 -0.34446663715E+03  0.45684190667E+03  0.50400001928E-02 0. -1.
       -1    1    3    3    0  502 -0.22064872145E+03  0.20337503602E+03  0.31891669317E+04  0.32032534994E+04  0.50400001928E-02 0.  1.
</event>
<event>
 5   0  0.3195296E-06  0.2303430E+04  0.7818609E-02  0.8476570E-01
        1   -1    0    0  501    0  0.00000000000E+00  0.00000000000E+00  0.18674081518E+04  0.18674081518E+04  0.50400001928E-02 0.  1.
       -1   -1    0    0    0  501  0.00000000000E+00  0.00000000000E+00 -0.71031468206E+03  0.71031468208E+03  0.50400001928E-02 0. -1.
    10030    2    1    2    0    0  0.00000000000E+00  0.00000000000E+00  0.11570934698E+04  0.25777228339E+04  0.23034299882E+04 0.  0.
        2    1    3    3  502    0 -0.95387148919E+03 -0.54077558987E+03  0.18425813234E+03  0.11118723469E+04  0.25500000920E-02 0. -1.
       -2    1    3    3    0  502  0.95387148919E+03  0.54077558987E+03  0.97283533744E+03  0.14658504870E+04  0.25500000920E-02 0.  1.
</event>
<event>
 5   0  0.7044981E-06  0.2298317E+04  0.7818609E-02  0.8478585E-01
        2   -1    0    0  501    0  0.00000000000E+00  0.00000000000E+00  0.12308064540E+04  0.12308064540E+04  0.25500000920E-02 0.  1.
       -2   -1    0    0    0  501  0.00000000000E+00  0.00000000000E+00 -0.10729265714E+04  0.10729265714E+04  0.25500000920E-02 0. -1.
    10030    2    1    2    0    0  0.00000000000E+00  0.00000000000E+00  0.15787988261E+03  0.23037330254E+04  0.22983167307E+04 0.  0.
        4    1    3    3  502    0 -0.22012457014E+03 -0.41731817422E+03 -0.97136244537E+03  0.10798869839E+04  0.12699999809E+01 0. -1.
       -4    1    3    3    0  502  0.22012457014E+03  0.41731817422E+03  0.11292423280E+04  0.12238460414E+04  0.12699999809E+01 0.  1.
</event>
<event>
 5   0  0.7044981E-06  0.2301842E+04  0.7818609E-02  0.8477195E-01
       -2   -1    0    0    0  501  0.00000000000E+00  0.00000000000E+00  0.87507102287E+03  0.87507102288E+03  0.25500000920E-02 0. -1.
        2   -1    0    0  501    0  0.00000000000E+00  0.00000000000E+00 -0.15137278570E+04  0.15137278570E+04  0.25500000920E-02 0.  1.
    10030    2    1    2    0    0  0.00000000000E+00  0.00000000000E+00 -0.63865683418E+03  0.23887988799E+04  0.23018422050E+04 0.  0.
        4    1    3    3  502    0  0.79271089953E+03  0.49428250482E+03 -0.10169677819E+04  0.13809166691E+04  0.12699999809E+01 0.  1.
       -4    1    3    3    0  502 -0.79271089953E+03 -0.49428250482E+03  0.37831094769E+03  0.10078822108E+04  0.12699999809E+01 0. -1.
</event>
<event>
 5   0  0.7497344E-06  0.2299325E+04  0.7818609E-02  0.8478187E-01
        2   -1    0    0  501    0  0.00000000000E+00  0.00000000000E+00  0.12983658868E+04  0.12983658868E+04  0.25500000920E-02 0. -1.
       -2   -1    0    0    0  501  0.00000000000E+00  0.00000000000E+00 -0.10179904798E+04  0.10179904798E+04  0.25500000920E-02 0.  1.
    10030    2    1    2    0    0  0.00000000000E+00  0.00000000000E+00  0.28037540695E+03  0.23163563666E+04  0.22993252158E+04 0.  0.
        5    1    3    3  502    0  0.49141018466E+03 -0.10096602632E+04 -0.10822384499E+03  0.11281100599E+04  0.46999998093E+01 0. -1.
       -5    1    3    3    0  502 -0.49141018466E+03  0.10096602632E+04  0.38859925195E+03  0.11882463067E+04  0.46999998093E+01 0.  1.
</event>
<event>
 5   0  0.3238713E-06  0.2298924E+04  0.7818609E-02  0.8478346E-01
       -1   -1    0    0    0  501  0.00000000000E+00  0.00000000000E+00  0.16235207494E+04  0.16235207494E+04  0.50400001928E-02 0.  1.
        1   -1    0    0  501    0  0.00000000000E+00  0.00000000000E+00 -0.81382561745E+03  0.81382561746E+03  0.50400001928E-02 0. -1.
    10030    2    1    2    0    0  0.00000000000E+00  0.00000000000E+00  0.80969513200E+03  0.24373463669E+04  0.22989239016E+04 0.  0.
        3    1    3    3  502    0 -0.43624675143E+03  0.16505396534E+03  0.15186800843E+04  0.15886923076E+04  0.10100000352E+00 0.  1.
       -3    1    3    3    0  502  0.43624675143E+03 -0.16505396534E+03 -0.70898495229E+03  0.84865405931E+03  0.10100000352E+00 0. -1.
</event>
<event>
 5   0  0.3195296E-06  0.2299616E+04  0.7818609E-02  0.8478073E-01
        1   -1    0    0  501    0  0.00000000000E+00  0.00000000000E+00  0.12927828628E+04  0.12927828628E+04  0.50400001928E-02 0. -1.
       -1   -1    0    0    0  501  0.00000000000E+00  0.00000000000E+00 -0.10226453707E+04  0.10226453707E+04  0.50400001928E-02 0.  1.
    10030    2    1    2    0    0  0.00000000000E+00  0.00000000000E+00  0.27013749209E+03  0.23154282335E+04  0.22996159766E+04 0.  0.
        2    1    3    3  502    0  0.60857273305E+03  0.22424385408E+03 -0.82088692762E+03  0.10461842216E+04  0.25500000920E-02 0.  1.
       -2    1    3    3    0  502 -0.60857273305E+03 -0.22424385408E+03  0.10910244197E+04  0.12692440120E+04  0.25500000920E-02 0. -1.
</event>
<event>
 5   0  0.7242214E-06  0.2301174E+04  0.7818609E-02  0.8477458E-01
       -2   -1    0    0    0  501  0.00000000000E+00  0.00000000000E+00  0.83352125420E+03  0.83352125420E+03  0.25500000920E-02 0.  1.
        2   -1    0    0  501    0  0.00000000000E+00  0.00000000000E+00 -0.15882622034E+04  0.15882622034E+04  0.25500000920E-02 0. -1.
    10030    2    1    2    0    0  0.00000000000E+00  0.00000000000E+00 -0.75474094924E+03  0.24217834576E+04  0.23011738777E+04 0.  0.
        1    1    3    3  502    0  0.17605768781E+03 -0.41978034384E+03  0.73472523034E+03  0.86431071417E+03  0.50400001928E-02 0.  1.
       -1    1    3    3    0  502 -0.17605768781E+03  0.41978034384E+03 -0.14894661796E+04  0.15574727435E+04  0.50400001928E-02 0. -1.
</event>
<event>
 5   0  0.3226427E-06  0.2304736E+04  0.7818609E-02  0.8476056E-01
        1   -1    0    0  501    0  0.00000000000E+00  0.00000000000E+00  0.13048194655E+04  0.13048194655E+04  0.50400001928E-02 0. -1.
       -1   -1    0    0    0  501  0.00000000000E+00  0.00000000000E+00 -0.10177282757E+04  0.10177282757E+04  0.50400001928E-02 0.  1.
    10030    2    1    2    0    0  0.00000000000E+00  0.00000000000E+00  0.28709118982E+03  0.23225477412E+04  0.23047357026E+04 0.  0.
        4    1    3    3  502    0 -0.24609369322E+03  0.74419163330E+03 -0.70771165879E+03  0.10560495717E+04  0.12699999809E+01 0.  1.
       -4    1    3    3    0  502  0.24609369322E+03 -0.74419163330E+03  0.99480284861E+03  0.12664981695E+04  0.12699999809E+01 0. -1.
</event>
<event>
 5   0  0.7044981E-06  0.2297126E+04  0.7818609E-02  0.8479055E-01
       -2   -1    0    0    0  501  0.00000000000E+00  0.00000000000E+00  0.54908886223E+03  0.54908886224E+03  0.25500000920E-02 0.  1.
        2   -1    0    0  501    0  0.00000000000E+00  0.00000000000E+00 -0.24025209804E+04  0.24025209804E+04  0.25500000920E-02 0. -1.
    10030    2    1    2    0    0  0.00000000000E+00  0.00000000000E+00 -0.18534321181E+04  0.29516098426E+04  0.22971264759E+04 0.  0.
        4    1    3    3  502    0 -0.93953049297E+03  0.10328128112E+03 -0.17651766372E+04  0.20023073550E+04  0.12699999809E+01 0. -1.
       -4    1    3    3    0  502  0.93953049297E+03 -0.10328128112E+03 -0.88255480931E+02  0.94930248765E+03  0.12699999809E+01 0.  1.
</event>
<event>
 5   0  0.7003852E-06  0.2299278E+04  0.7818609E-02  0.8478206E-01
        2   -1    0    0  501    0  0.00000000000E+00  0.00000000000E+00  0.19043377100E+04  0.19043377100E+04  0.25500000920E-02 0. -1.
       -2   -1    0    0    0  501  0.00000000000E+00  0.00000000000E+00 -0.69403122217E+03  0.69403122218E+03  0.25500000920E-02 0.  1.
    10030    2    1    2    0    0  0.00000000000E+00  0.00000000000E+00  0.12103064879E+04  0.25983689322E+04  0.22992779983E+04 0.  0.
        2    1    3    3  502    0  0.14458082160E+03  0.73147436823E+03 -0.38372291304E+03  0.83857118920E+03  0.25500000920E-02 0.  1.
       -2    1    3    3    0  502 -0.14458082160E+03 -0.73147436823E+03  0.15940294009E+04  0.17597977430E+04  0.25500000920E-02 0. -1.
</event>
<event>
 5   0  0.3226427E-06  0.2297686E+04  0.7818609E-02  0.8478834E-01
       -1   -1    0    0    0  501  0.00000000000E+00  0.00000000000E+00  0.56942710982E+03  0.56942710984E+03  0.50400001928E-02 0.  1.
        1   -1    0    0  501    0  0.00000000000E+00  0.00000000000E+00 -0.23178397107E+04  0.23178397107E+04  0.50400001928E-02 0. -1.
    10030    2    1    2    0    0  0.00000000000E+00  0.00000000000E+00 -0.17484126009E+04  0.28872668205E+04  0.22976864603E+04 0.  0.
        4    1    3    3  502    0 -0.24673260519E+03 -0.58268662370E+03  0.33071169793E+03  0.71398355720E+03  0.12699999809E+01 0.  1.
       -4    1    3    3    0  502  0.24673260519E+03  0.58268662370E+03 -0.20791242988E+04  0.21732832633E+04  0.12699999809E+01 0. -1.
</event>
<event>
 5   0  0.7044981E-06  0.2302083E+04  0.7818609E-02  0.8477100E-01
       -2   -1    0    0    0  501  0.00000000000E+00  0.00000000000E+00  0.17787718236E+04  0.17787718236E+04  0.25500000920E-02 0. -1.
        2   -1    0    0  501    0  0.00000000000E+00  0.00000000000E+00 -0.74483781903E+03  0.74483781903E+03  0.25500000920E-02 0.  1.
    10030    2    1    2    0    0  0.00000000000E+00  0.00000000000E+00  0.10339340046E+04  0.25236096427E+04  0.23020829921E+04 0.  0.
        4    1    3    3  502    0  0.32470639160E+03 -0.10792901327E+04  0.26083042769E+03  0.11568645367E+04  0.12699999809E+01 0.  1.
       -4    1    3    3    0  502 -0.32470639160E+03  0.10792901327E+04  0.77310357693E+03  0.13667451060E+04  0.12699999809E+01 0. -1.
</event>
<event>
 5   0  0.3238713E-06  0.2305742E+04  0.7818609E-02  0.8475660E-01
       -1   -1    0    0    0  501  0.00000000000E+00  0.00000000000E+00  0.78614114046E+03  0.78614114048E+03  0.50400001928E-02 0. -1.
        1   -1    0    0  501    0  0.00000000000E+00  0.00000000000E+00 -0.16906783734E+04  0.16906783734E+04  0.50400001928E-02 0.  1.
    10030    2    1    2    0    0  0.00000000000E+00  0.00000000000E+00 -0.90453723291E+03  0.24768195139E+04  0.23057422446E+04 0.  0.
        3    1    3    3  502    0  0.68381522913E+03  0.19301716687E+03  0.52297665055E+03  0.88224910401E+03  0.10100000352E+00 0. -1.
       -3    1    3    3    0  502 -0.68381522913E+03 -0.19301716687E+03 -0.14275138835E+04  0.15945704099E+04  0.10100000352E+00 0.  1.
</event>
<event>
 5   0  0.7497344E-06  0.2302110E+04  0.7818609E-02  0.8477090E-01
       -2   -1    0    0    0  501  0.00000000000E+00  0.00000000000E+00  0.59159493146E+03  0.59159493147E+03  0.25500000920E-02 0.  1.
        2   -1    0    0  501    0  0.00000000000E+00  0.00000000000E+00 -0.22395858313E+04  0.22395858313E+04  0.25500000920E-02 0. -1.
    10030    2    1    2    0    0  0.00000000000E+00  0.00000000000E+00 -0.16479908999E+04  0.28311807628E+04  0.23021100116E+04 0.  0.
        5    1    3    3  502    0 -0.69773954338E+03  0.91106726959E+03 -0.71384932603E+03  0.13514758564E+04  0.46999998093E+01 0. -1.
       -5    1    3    3    0  502  0.69773954338E+03 -0.91106726959E+03 -0.93414157384E+03  0.14797049064E+04  0.46999998093E+01 0.  1.
</event>
<event>
 5   0  0.7497344E-06  0.2297399E+04  0.7818609E-02  0.8478947E-01
        2   -1    0    0  501    0  0.00000000000E+00  0.00000000000E+00  0.22719613929E+04  0.22719613929E+04  0.25500000920E-02 0. -1.
       -2   -1    0    0    0  501  0.00000000000E+00  0.00000000000E+00 -0.58078039723E+03  0.58078039723E+03  0.25500000920E-02 0.  1.
    10030    2    1    2    0    0  0.00000000000E+00  0.00000000000E+00  0.16911809956E+04  0.28527417901E+04  0.22973990861E+04 0.  0.
        5    1    3    3  502    0 -0.40972813175E+03  0.72758127207E+03 -0.13390828707E+03  0.84569803639E+03  0.46999998093E+01 0.  1.
       -5    1    3    3    0  502  0.40972813175E+03 -0.72758127207E+03  0.18250892827E+04  0.20070437537E+04  0.46999998093E+01 0. -1.
</event>
<event>
 5   0  0.7242214E-06  0.2300560E+04  0.7818609E-02  0.8477700E-01
       -2   -1    0    0    0  501  0.00000000000E+00  0.00000000000E+00  0.55576787954E+03  0.55576787954E+03  0.25500000920E-02 0.  1.
        2   -1    0    0  501    0  0.00000000000E+00  0.00000000000E+00 -0.23807493474E+04  0.23807493474E+04  0.25500000920E-02 0. -1.
    10030    2    1    2    0    0  0.00000000000E+00  0.00000000000E+00 -0.18249814678E+04  0.29365172269E+04  0.23005599462E+04 0.  0.
        1    1    3    3  502    0 -0.24033387582E+03  0.41459483025E+03  0.42228208469E+03  0.63872639230E+03  0.50400001928E-02 0.  1.
       -1    1    3    3    0  502  0.24033387582E+03 -0.41459483025E+03 -0.22472635525E+04  0.22977908346E+04  0.50400001928E-02 0. -1.
</event>
<event>
 5   0  0.3226427E-06  0.2301486E+04  0.7818609E-02  0.8477335E-01
        1   -1    0    0  501    0  0.00000000000E+00  0.00000000000E+00  0.19590553540E+04  0.19590553540E+04  0.50400001928E-02 0.  1.
       -1   -1    0    0    0  501  0.00000000000E+00  0.00000000000E+00 -0.67594312867E+03  0.67594312869E+03  0.50400001928E-02 0. -1.
    10030    2    1    2    0    0  0.00000000000E+00  0.00000000000E+00  0.12831122253E+04  0.26349984827E+04  0.23014864807E+04 0.  0.
        4    1    3    3  502    0  0.91085527678E+03 -0.30870777147E+01 -0.16358744837E+03  0.92543467163E+03  0.12699999809E+01 0. -1.
       -4    1    3    3    0  502 -0.91085527678E+03  0.30870777147E+01  0.14466996737E+04  0.17095638110E+04  0.12699999809E+01 0.  1.
</event>
<event>
 5   0  0.3238713E-06  0.2298703E+04  0.7818609E-02  0.8478433E-01
       -1   -1    0    0    0  501  0.00000000000E+00  0.00000000000E+00  0.12092917329E+04  0.12092917329E+04  0.50400001928E-02 0.  1.
        1   -1    0    0  501    0  0.00000000000E+00  0.00000000000E+00 -0.10923819148E+04  0.10923819148E+04  0.50400001928E-02 0. -1.
    10030    2    1    2    0    0  0.00000000000E+00  0.00000000000E+00  0.11690981811E+03  0.23016736477E+04  0.22987026068E+04 0.  0.
        3    1    3    3  502    0 -0.96097644965E+03 -0.57020786952E+03 -0.21095726384E+03  0.11371524650E+04  0.10100000352E+00 0. -1.
       -3    1    3    3    0  502  0.96097644965E+03  0.57020786952E+03  0.32786708195E+03  0.11645211827E+04  0.10100000352E+00 0.  1.
</event>
<event>
 5   0  0.3238713E-06  0.2300786E+04  0.7818609E-02  0.8477611E-01
        1   -1    0    0  501    0  0.00000000000E+00  0.00000000000E+00  0.16837463265E+04  0.16837463265E+04  0.50400001928E-02 0. -1.
       -1   -1    0    0    0  501  0.00000000000E+00  0.00000000000E+00 -0.78598755058E+03  0.78598755059E+03  0.50400001928E-02 0.  1.
    10030    2    1    2    0    0  0.00000000000E+00  0.00000000000E+00  0.89775877595E+03  0.24697338771E+04  0.23007856493E+04 0.  0.
        3    1    3    3  502    0  0.38798278678E+03 -0.72338994092E+03  0.13140272097E+04  0.15493518540E+04  0.10100000352E+00 0. -1.
       -3    1    3    3    0  502 -0.38798278678E+03  0.72338994092E+03 -0.41626843371E+03  0.92038202316E+03  0.10100000352E+00 0.  1.
</event>
<event>
 5   0  0.7044981E-06  0.2299095E+04  0.7818609E-02  0.8478278E-01
       -2   -1    0    0    0  501  0.00000000000E+00  0.00000000000E+00  0.55377158045E+03  0.55377158046E+03  0.25500000920E-02 0. -1.
        2   -1    0    0  501    0  0.00000000000E+00  0.00000000000E+00 -0.23862899393E+04  0.23862899393E+04  0.25500000920E-02 0.  1.
    10030    2    1    2    0    0  0.00000000000E+00  0.00000000000E+00 -0.18325183588E+04  0.29400615198E+04  0.22990950838E+04 0.  0.
        4    1    3    3  502    0  0.11069757615E+04  0.30644594275E+03 -0.97560231514E+03  0.15070188926E+04  0.12699999809E+01 0.  1.
       -4    1    3    3    0  502 -0.11069757615E+04 -0.30644594275E+03 -0.85691604371E+03  0.14330426272E+04  0.12699999809E+01 0. -1.
</event>
<event>
 5   0  0.3338758E-06  0.2300937E+04  0.7818609E-02  0.8477552E-01
       -1   -1    0    0    0  501  0.00000000000E+00  0.00000000000E+00  0.82465726606E+03  0.82465726608E+03  0.50400001928E-02 0.  1.
        1   -1    0    0  501    0  0.00000000000E+00  0.00000000000E+00 -0.16050027806E+04  0.16050027806E+04  0.50400001928E-02 0. -1.
    10030    2    1    2    0    0  0.00000000000E+00  0.00000000000E+00 -0.78034551453E+03  0.24296600467E+04  0.23009365094E+04 0.  0.
        5    1    3    3  502    0 -0.46492368645E+03 -0.91346019858E+03 -0.94188862711E+03  0.13920272427E+04  0.46999998093E+01 0. -1.
       -5    1    3    3    0  502  0.46492368645E+03  0.91346019858E+03  0.16154311258E+03  0.10376328040E+04  0.46999998093E+01 0.  1.
</event>
<event>
 5   0  0.3226427E-06  0.2316024E+04  0.7818609E-02  0.8471630E-01
        1   -1    0    0  501    0  0.00000000000E+00  0.00000000000E+00  0.15707872290E+04  0.15707872290E+04  0.50400001928E-02 0.  1.
       -1   -1    0    0    0  501  0.00000000000E+00  0.00000000000E+00 -0.85370658386E+03  0.85370658387E+03  0.50400001928E-02 0. -1.
    10030    2    1    2    0    0  0.00000000000E+00  0.00000000000E+00  0.71708064509E+03  0.24244938128E+04  0.23160236607E+04 0.  0.
        4    1    3    3  502    0 -0.17997290639E+03 -0.75864427195E+02 -0.83633974985E+03  0.85884308720E+03  0.12699999809E+01 0. -1.
       -4    1    3    3    0  502  0.17997290639E+03  0.75864427195E+02  0.15534203949E+04  0.15656507256E+04  0.12699999809E+01 0.  1.
</event>
<event>
 5   0  0.3195296E-06  0.2299079E+04  0.7818609E-02  0.8478284E-01
        1   -1    0    0  501    0  0.00000000000E+00  0.00000000000E+00  0.13247649503E+04  0.13247649504E+04  0.50400001928E-02 0. -1.
       -1   -1    0    0    0  501  0.00000000000E+00  0.00000000000E+00 -0.99749130300E+03  0.99749130301E+03  0.50400001928E-02 0.  1.
    10030    2    1    2    0    0  0.00000000000E+00  0.00000000000E+00  0.32727364735E+03  0.23222562534E+04  0.22990793953E+04 0.  0.
        2    1    3    3  502    0 -0.11084029979E+04 -0.30404352267E+03  0.18486888463E+03  0.11641203434E+04  0.25500000920E-02 0. -1.
       -2    1    3    3    0  502  0.11084029979E+04  0.30404352267E+03  0.14240476272E+03  0.11581359099E+04  0.25500000920E-02 0.  1.
</event>
<event>
 5   0  0.7348107E-06  0.2299406E+04  0.7818609E-02  0.8478155E-01
        2   -1    0    0  501    0  0.00000000000E+00  0.00000000000E+00  0.12940712625E+04  0.12940712625E+04  0.25500000920E-02 0. -1.
       -2   -1    0    0    0  501  0.00000000000E+00  0.00000000000E+00 -0.10214410725E+04  0.10214410725E+04  0.25500000920E-02 0.  1.
    10030    2    1    2    0    0  0.00000000000E+00  0.00000000000E+00  0.27263019002E+03  0.23155123350E+04  0.22994064784E+04 0.  0.
        3    1    3    3  502    0 -0.60592858074E+03  0.51412235387E+03 -0.70037541930E+03  0.10592435876E+04  0.10100000352E+00 0.  1.
       -3    1    3    3    0  502  0.60592858074E+03 -0.51412235387E+03  0.97300560932E+03  0.12562687474E+04  0.10100000352E+00 0. -1.
</event>
<event>
 5   0  0.7044981E-06  0.2298494E+04  0.7818609E-02  0.8478515E-01
       -2   -1    0    0    0  501  0.00000000000E+00  0.00000000000E+00  0.13836507123E+04  0.13836507124E+04  0.25500000920E-02 0.  1.
        2   -1    0    0  501    0  0.00000000000E+00  0.00000000000E+00 -0.95455319178E+03  0.95455319178E+03  0.25500000920E-02 0. -1.
    10030    2    1    2    0    0  0.00000000000E+00  0.00000000000E+00  0.42909752057E+03  0.23382039041E+04  0.22984935969E+04 0.  0.
        4    1    3    3  502    0 -0.10363039559E+04  0.10075646576E+02 -0.29076153227E+03  0.10763694948E+04  0.12699999809E+01 0.  1.
       -4    1    3    3    0  502  0.10363039559E+04 -0.10075646576E+02  0.71985905284E+03  0.12618344093E+04  0.12699999809E+01 0. -1.
</event>
<event>
 5   0  0.7242214E-06  0.2300706E+04  0.7818609E-02  0.8477643E-01
        2   -1    0    0  501    0  0.00000000000E+00  0.00000000000E+00  0.16899987238E+04  0.16899987238E+04  0.25500000920E-02 0.  1.
       -2   -1    0    0    0  501  0.00000000000E+00  0.00000000000E+00 -0.78302552652E+03  0.78302552653E+03  0.25500000920E-02 0. -1.
    10030    2    1    2    0    0  0.00000000000E+00  0.00000000000E+00  0.90697319731E+03  0.24730242504E+04  0.23007061008E+04 0.  0.
        1    1    3    3  502    0 -0.68593235213E+03  0.14930592963E+03  0.14330699890E+04  0.15957709879E+04  0.50400001928E-02 0.  1.
       -1    1    3    3    0  502  0.68593235213E+03 -0.14930592963E+03 -0.52609679168E+03  0.87725326250E+03  0.50400001928E-02 0. -1.
</event>
<event>
 5   0  0.7348107E-06  0.2305104E+04  0.7818609E-02  0.8475911E-01
       -2   -1    0    0    0  501  0.00000000000E+00  0.00000000000E+00  0.17545650908E+04  0.17545650908E+04  0.25500000920E-02 0.  1.
        2   -1    0    0  501    0  0.00000000000E+00  0.00000000000E+00 -0.75709700601E+03  0.75709700601E+03  0.25500000920E-02 0. -1.
    10030    2    1    2    0    0  0.00000000000E+00  0.00000000000E+00  0.99746808477E+03  0.25116620968E+04  0.23051038823E+04 0.  0.
        3    1    3    3  502    0  0.27004697061E+03  0.94099902711E+02 -0.71782597960E+03  0.77269289192E+03  0.10100000352E+00 0. -1.
       -3    1    3    3    0  502 -0.27004697061E+03 -0.94099902711E+02  0.17152940644E+04  0.17389692049E+04  0.10100000352E+00 0.  1.
</event>
<event>
 5   0  0.3338758E-06  0.2302101E+04  0.7818609E-02  0.8477093E-01
        1   -1    0    0  501    0  0.00000000000E+00  0.00000000000E+00  0.11480808665E+04  0.11480808665E+04  0.50400001928E-02 0. -1.
       -1   -1    0    0    0  501  0.00000000000E+00  0.00000000000E+00 -0.11540277377E+04  0.11540277378E+04  0.50400001928E-02 0.  1.
    10030    2    1    2    0    0  0.00000000000E+00  0.00000000000E+00 -0.59468712651E+01  0.23021086042E+04  0.23021009232E+04 0.  0.
        5    1    3    3  502    0  0.89793620778E+03  0.42261339788E+03 -0.58607362142E+03  0.11525605828E+04  0.46999998093E+01 0.  1.
       -5    1    3    3    0  502 -0.89793620778E+03 -0.42261339788E+03  0.58012675016E+03  0.11495480214E+04  0.46999998093E+01 0. -1.
</event>
<event>
 5   0  0.3226427E-06  0.2305605E+04  0.7818609E-02  0.8475714E-01
        1   -1    0    0  501    0  0.00000000000E+00  0.00000000000E+00  0.10808080674E+04  0.10808080674E+04  0.50400001928E-02 0. -1.
       -1   -1    0    0    0  501  0.00000000000E+00  0.00000000000E+00 -0.12295928012E+04  0.12295928012E+04  0.50400001928E-02 0.  1.
    10030    2    1    2    0    0  0.00000000000E+00  0.00000000000E+00 -0.14878473376E+03  0.23104008686E+04  0.23056051867E+04 0.  0.
        4    1    3    3  502    0  0.95397188802E+03  0.51626163550E+03  0.31675755632E+03  0.11300112397E+04  0.12699999809E+01 0. -1.
       -4    1    3    3    0  502 -0.95397188802E+03 -0.51626163550E+03 -0.46554229008E+03  0.11803896290E+04  0.12699999809E+01 0.  1.
</event>
<event>
 5   0  0.3338758E-06  0.2300667E+04  0.7818609E-02  0.8477658E-01
        1   -1    0    0  501    0  0.00000000000E+00  0.00000000000E+00  0.21834681569E+04  0.21834681569E+04  0.50400001928E-02 0.  1.
       -1   -1    0    0    0  501  0.00000000000E+00  0.00000000000E+00 -0.60603925008E+03  0.60603925010E+03  0.50400001928E-02 0. -1.
    10030    2    1    2    0    0  0.00000000000E+00  0.00000000000E+00  0.15774289068E+04  0.27895074070E+04  0.23006672114E+04 0.  0.
        5    1    3    3  502    0  0.55918754889E+03 -0.30219807174E+03  0.19511958972E+04  0.20521213192E+04  0.46999998093E+01 0.  1.
       -5    1    3    3    0  502 -0.55918754889E+03  0.30219807174E+03 -0.37376699039E+03  0.73738608781E+03  0.46999998093E+01 0. -1.
</event>
<event>
 5   0  0.3184492E-06  0.2299511E+04  0.7818609E-02  0.8478114E-01
       -1   -1    0    0    0  501  0.00000000000E+00  0.00000000000E+00  0.15920274561E+04  0.15920274561E+04  0.50400001928E-02 0.  1.
        1   -1    0    0  501    0  0.00000000000E+00  0.00000000000E+00 -0.83034831772E+03  0.83034831773E+03  0.50400001928E-02 0. -1.
    10030    2    1    2    0    0  0.00000000000E+00  0.00000000000E+00  0.76167913839E+03  0.24223757738E+04  0.22995106610E+04 0.  0.
        1    1    3    3  502    0 -0.10118984260E+04  0.51903346932E+03  0.20267840497E+03  0.11551678245E+04  0.50400001928E-02 0.  1.
       -1    1    3    3    0  502  0.10118984260E+04 -0.51903346932E+03  0.55900073342E+03  0.12672079493E+04  0.50400001928E-02 0. -1.
</event>
<event>
 5   0  0.7044981E-06  0.2299732E+04  0.7818609E-02  0.8478027E-01
        2   -1    0    0  501    0  0.00000000000E+00  0.00000000000E+00  0.99881250839E+03  0.99881250839E+03  0.25500000920E-02 0.  1.
       -2   -1    0    0    0  501  0.00000000000E+00  0.00000000000E+00 -0.13237637524E+04  0.13237637524E+04  0.25500000920E-02 0. -1.
    10030    2    1    2    0    0  0.00000000000E+00  0.00000000000E+00 -0.32495124399E+03  0.23225762608E+04  0.22997319792E+04 0.  0.
        4    1    3    3  502    0 -0.16041803458E+03 -0.51844999109E+03  0.86133285031E+03  0.10180472636E+04  0.12699999809E+01 0.  1.
       -4    1    3    3    0  502  0.16041803458E+03  0.51844999109E+03 -0.11862840943E+04  0.13045289971E+04  0.12699999809E+01 0. -1.
</event>
<event>
 5   0  0.7242214E-06  0.2299467E+04  0.7818609E-02  0.8478131E-01
       -2   -1    0    0    0  501  0.00000000000E+00  0.00000000000E+00  0.10305599565E+04  0.10305599565E+04  0.25500000920E-02 0. -1.
        2   -1    0    0  501    0  0.00000000000E+00  0.00000000000E+00 -0.12826879643E+04  0.12826879643E+04  0.25500000920E-02 0.  1.
    10030    2    1    2    0    0  0.00000000000E+00  0.00000000000E+00 -0.25212800788E+03  0.23132479208E+04  0.22994667666E+04 0.  0.
        1    1    3    3  502    0 -0.23884991838E+03  0.26635241242E+03  0.97313903666E+03  0.10368184392E+04  0.50400001928E-02 0. -1.
       -1    1    3    3    0  502  0.23884991838E+03 -0.26635241242E+03 -0.12252670445E+04  0.12764294816E+04  0.50400001928E-02 0.  1.
</event>
<event>
 5   0  0.7003852E-06  0.2300741E+04  0.7818609E-02  0.8477629E-01
       -2   -1    0    0    0  501  0.00000000000E+00  0.00000000000E+00  0.18682008898E+04  0.18682008898E+04  0.25500000920E-02 0. -1.
        2   -1    0    0  501    0  0.00000000000E+00  0.00000000000E+00 -0.70835674307E+03  0.70835674307E+03  0.25500000920E-02 0.  1.
    10030    2    1    2    0    0  0.00000000000E+00  0.00000000000E+00  0.11598441468E+04  0.25765576329E+04  0.23007413568E+04 0.  0.
        2    1    3    3  502    0 -0.59693671422E+03 -0.42927996693E+03 -0.41086484090E+03  0.84227349969E+03  0.25500000920E-02 0.  1.
       -2    1    3    3    0  502  0.59693671422E+03  0.42927996693E+03  0.15707089877E+04  0.17342841332E+04  0.25500000920E-02 0. -1.
</event>
<event>
 5   0  0.3238713E-06  0.2303627E+04  0.7818609E-02  0.8476493E-01
        1   -1    0    0  501    0  0.00000000000E+00  0.00000000000E+00  0.13367096316E+04  0.13367096316E+04  0.50400001928E-02 0. -1.
       -1   -1    0    0    0  501  0.00000000000E+00  0.00000000000E+00 -0.99249225686E+03  0.99249225688E+03  0.50400001928E-02 0.  1.
    10030    2    1    2    0    0  0.00000000000E+00  0.00000000000E+00  0.34421737476E+03  0.23292018885E+04  0.23036266703E+04 0.  0.
        3    1    3    3  502    0 -0.10020249277E+04  0.21265883609E+03  0.70464018385E+03  0.12433002595E+04  0.10100000352E+00 0. -1.
       -3    1    3    3    0  502  0.10020249277E+04 -0.21265883609E+03 -0.36042280910E+03  0.10859016290E+04  0.10100000352E+00 0.  1.
</event>
<event>
 5   0  0.7348107E-06  0.2292280E+04  0.7818609E-02  0.8480971E-01
        2   -1    0    0  501    0  0.00000000000E+00  0.00000000000E+00  0.91804860374E+03  0.91804860375E+03  0.25500000920E-02 0. -1.
       -2   -1    0    0    0  501  0.00000000000E+00  0.00000000000E+00 -0.14309012096E+04  0.14309012096E+04  0.25500000920E-02 0.  1.
    10030    2    1    2    0    0  0.00000000000E+00  0.00000000000E+00 -0.51285260589E+03  0.23489498134E+04  0.22922799634E+04 0.  0.
        3    1    3    3  502    0  0.38242888242E+03 -0.67349744882E+03 -0.11221716145E+04  0.13634954369E+04  0.10100000352E+00 0.  1.
       -3    1    3    3    0  502 -0.38242888242E+03  0.67349744882E+03  0.60931900865E+03  0.98545437651E+03  0.10100000352E+00 0. -1.
</event>
<event>
 5   0  0.7497344E-06  0.2298723E+04  0.7818609E-02  0.8478425E-01
        2   -1    0    0  501    0  0.00000000000E+00  0.00000000000E+00  0.12439230451E+04  0.12439230451E+04  0.25500000920E-02 0.  1.
       -2   -1    0    0    0  501  0.00000000000E+00  0.00000000000E+00 -0.10619880079E+04  0.10619880079E+04  0.25500000920E-02 0. -1.
    10030    2    1    2    0    0  0.00000000000E+00  0.00000000000E+00  0.18193503723E+03  0.23059110530E+04  0.22987225641E+04 0.  0.
        5    1    3    3  502    0  0.61438103803E+03  0.40092446201E+03 -0.79656183866E+03  0.10829299779E+04  0.46999998093E+01 0. -1.
       -5    1    3    3    0  502 -0.61438103803E+03 -0.40092446201E+03  0.97849687589E+03  0.12229810752E+04  0.46999998093E+01 0.  1.
</event>
<event>
 5   0  0.7242214E-06  0.2297720E+04  0.7818609E-02  0.8478821E-01
       -2   -1    0    0    0  501  0.00000000000E+00  0.00000000000E+00  0.15933657879E+04  0.15933657879E+04  0.25500000920E-02 0. -1.
        2   -1    0    0  501    0  0.00000000000E+00  0.00000000000E+00 -0.82835938996E+03  0.82835938996E+03  0.25500000920E-02 0.  1.
    10030    2    1    2    0    0  0.00000000000E+00  0.00000000000E+00  0.76500639794E+03  0.24217251779E+04  0.22977201849E+04 0.  0.
        1    1    3    3  502    0 -0.44553871062E+03 -0.29139999928E+03 -0.69050776668E+03  0.87190577365E+03  0.50400001928E-02 0.  1.
       -1    1    3    3    0  502  0.44553871062E+03  0.29139999928E+03  0.14555141646E+04  0.15498194042E+04  0.50400001928E-02 0. -1.
</event>
<event>
 5   0  0.3238713E-06  0.2299726E+04  0.7818609E-02  0.8478029E-01
        1   -1    0    0  501    0  0.00000000000E+00  0.00000000000E+00  0.17018924730E+04  0.17018924730E+04  0.50400001928E-02 0. -1.
       -1   -1    0    0    0  501  0.00000000000E+00  0.00000000000E+00 -0.77689120803E+03  0.77689120804E+03  0.50400001928E-02 0.  1.
    10030    2    1    2    0    0  0.00000000000E+00  0.00000000000E+00  0.92500126495E+03  0.24787836810E+04  0.22997263309E+04 0.  0.
        3    1    3    3  502    0 -0.39504319542E+03  0.95396092994E+03 -0.82948546640E+02  0.10358479877E+04  0.10100000352E+00 0.  1.
       -3    1    3    3    0  502  0.39504319542E+03 -0.95396092994E+03  0.10079498116E+04  0.14429356933E+04  0.10100000352E+00 0. -1.
</event>
<event>
 5   0  0.3226427E-06  0.2300326E+04  0.7818609E-02  0.8477792E-01
       -1   -1    0    0    0  501  0.00000000000E+00  0.00000000000E+00  0.12543171770E+04  0.12543171770E+04  0.50400001928E-02 0.  1.
        1   -1    0    0  501    0  0.00000000000E+00  0.00000000000E+00 -0.10546576414E+04  0.10546576414E+04  0.50400001928E-02 0. -1.
    10030    2    1    2    0    0  0.00000000000E+00  0.00000000000E+00  0.19965953559E+03  0.23089748184E+04  0.23003262338E+04 0.  0.
        4    1    3    3  502    0  0.38524213847E+03 -0.83378448189E+03 -0.59506310087E+03  0.10943992756E+04  0.12699999809E+01 0. -1.
       -4    1    3    3    0  502 -0.38524213847E+03  0.83378448189E+03  0.79472263646E+03  0.12145755429E+04  0.12699999809E+01 0.  1.
</event>
<event>
 5   0  0.3238713E-06  0.2301100E+04  0.7818609E-02  0.8477487E-01
        1   -1    0    0  501    0  0.00000000000E+00  0.00000000000E+00  0.32763412375E+04  0.32763412375E+04  0.50400001928E-02 0.  1.
       -1   -1    0    0    0  501  0.00000000000E+00  0.00000000000E+00 -0.40403776836E+03  0.40403776840E+03  0.50400001928E-02 0. -1.
    10030    2    1    2    0    0  0.00000000000E+00  0.00000000000E+00  0.28723034692E+04  0.36803790059E+04  0.23011002604E+04 0.  0.
        3    1    3    3  502    0 -0.98124634126E+03 -0.23997891411E+03  0.23170294801E+04  0.25276589729E+04  0.10100000352E+00 0.  1.
       -3    1    3    3    0  502  0.98124634126E+03  0.23997891411E+03  0.55527398913E+03  0.11527200331E+04  0.10100000352E+00 0. -1.
</event>
<event>
 5   0  0.7044981E-06  0.2300681E+04  0.7818609E-02  0.8477653E-01
       -2   -1    0    0    0  501  0.00000000000E+00  0.00000000000E+00  0.11699565316E+04  0.11699565316E+04  0.25500000920E-02 0.  1.
        2   -1    0    0  501    0  0.00000000000E+00  0.00000000000E+00 -0.11310536176E+04  0.11310536176E+04  0.25500000920E-02 0. -1.
    10030    2    1    2    0    0  0.00000000000E+00  0.00000000000E+00  0.38902913946E+02  0.23010101492E+04  0.23006812621E+04 0.  0.
        4    1    3    3  502    0  0.35383828171E+03  0.10123681745E+04  0.43567330134E+03  0.11575420894E+04  0.12699999809E+01 0.  1.
       -4    1    3    3    0  502 -0.35383828171E+03 -0.10123681745E+04 -0.39677038740E+03  0.11434680597E+04  0.12699999809E+01 0. -1.
</event>
<event>
 5   0  0.7497344E-06  0.2306209E+04  0.7818609E-02  0.8475477E-01
        2   -1    0    0  501    0  0.00000000000E+00  0.00000000000E+00  0.10812372436E+04  0.10812372436E+04  0.25500000920E-02 0.  1.
       -2   -1    0    0    0  501  0.00000000000E+00  0.00000000000E+00 -0.12297482167E+04  0.12297482167E+04  0.25500000920E-02 0. -1.
    10030    2    1    2    0    0  0.00000000000E+00  0.00000000000E+00 -0.14851097307E+03  0.23109854603E+04  0.23062086394E+04 0.  0.
        5    1    3    3  502    0  0.95406137120E+03 -0.31890768811E+02 -0.72241620379E+03  0.11971455144E+04  0.46999998093E+01 0. -1.
       -5    1    3    3    0  502 -0.95406137120E+03  0.31890768811E+02  0.57390523071E+03  0.11138399459E+04  0.46999998093E+01 0.  1.
</event>
<event>
 5   0  0.7003852E-06  0.2300660E+04  0.7818609E-02  0.8477661E-01
        2   -1    0    0  501    0  0.00000000000E+00  0.00000000000E+00  0.25129078848E+04  0.25129078848E+04  0.25500000920E-02 0. -1.
       -2   -1    0    0    0  501  0.00000000000E+00  0.00000000000E+00 -0.52658474893E+03  0.52658474893E+03  0.25500000920E-02 0.  1.
    10030    2    1    2    0    0  0.00000000000E+00  0.00000000000E+00  0.19863231359E+04  0.30394926337E+04  0.23006598772E+04 0.  0.
        2    1    3    3  502    0  0.99999735834E+03  0.48256581190E+02  0.17416026054E+04  0.20088561545E+04  0.25500000920E-02 0. -1.
       -2    1    3    3    0  502 -0.99999735834E+03 -0.48256581190E+02  0.24472053050E+03  0.10306364793E+04  0.25500000920E-02 0.  1.
</event>
<event>
 5   0  0.7348107E-06  0.2307797E+04  0.7818609E-02  0.8474853E-01
        2   -1    0    0  501    0  0.00000000000E+00  0.00000000000E+00  0.19502390932E+04  0.19502390932E+04  0.25500000920E-02 0.  1.
       -2   -1    0    0    0  501  0.00000000000E+00  0.00000000000E+00 -0.68272752175E+03  0.68272752176E+03  0.25500000920E-02 0. -1.
    10030    2    1    2    0    0  0.00000000000E+00  0.00000000000E+00  0.12675115715E+04  0.26329666150E+04  0.23077971340E+04 0.  0.
        3    1    3    3  502    0  0.27590411984E+03 -0.93173441322E+03  0.13437128822E+04  0.16582570428E+04  0.10100000352E+00 0.  1.
       -3    1    3    3    0  502 -0.27590411984E+03  0.93173441322E+03 -0.76201310709E+02  0.97470957217E+03  0.10100000352E+00 0. -1.
</event>
<event>
 5   0  0.7003852E-06  0.2319187E+04  0.7818609E-02  0.8470394E-01
       -2   -1    0    0    0  501  0.00000000000E+00  0.00000000000E+00  0.11117271266E+04  0.11117271267E+04  0.25500000920E-02 0. -1.
        2   -1    0    0  501    0  0.00000000000E+00  0.00000000000E+00 -0.12095212549E+04  0.12095212549E+04  0.25500000920E-02 0.  1.
    10030    2    1    2    0    0  0.00000000000E+00  0.00000000000E+00 -0.97794128216E+02  0.23212483815E+04  0.23191874347E+04 0.  0.
        2    1    3    3  502    0  0.87253500248E+02  0.14411944815E+03  0.10994123258E+04  0.11122459489E+04  0.25500000920E-02 0. -1.
       -2    1    3    3    0  502 -0.87253500248E+02 -0.14411944815E+03 -0.11972064540E+04  0.12090024327E+04  0.25500000920E-02 0.  1.
</event>
<event>
 5   0  0.7348107E-06  0.2298444E+04  0.7818609E-02  0.8478535E-01
       -2   -1    0    0    0  501  0.00000000000E+00  0.00000000000E+00  0.11659343370E+04  0.11659343371E+04  0.25500000920E-02 0.  1.
        2   -1    0    0  501    0  0.00000000000E+00  0.00000000000E+00 -0.11327493561E+04  0.11327493561E+04  0.25500000920E-02 0. -1.
    10030    2    1    2    0    0  0.00000000000E+00  0.00000000000E+00  0.33184980933E+02  0.22986836932E+04  0.22984441430E+04 0.  0.
        3    1    3    3  502    0 -0.11299531864E+03 -0.11312361653E+04 -0.15149690274E+03  0.11469152216E+04  0.10100000352E+00 0. -1.
       -3    1    3    3    0  502  0.11299531864E+03  0.11312361653E+04  0.18468188367E+03  0.11517684716E+04  0.10100000352E+00 0.  1.
</event>
<event>
 5   0  0.7348107E-06  0.2307948E+04  0.7818609E-02  0.8474794E-01
        2   -1    0    0  501    0  0.00000000000E+00  0.00000000000E+00  0.22422827154E+04  0.22422827154E+04  0.25500000920E-02 0. -1.
       -2   -1    0    0    0  501  0.00000000000E+00  0.00000000000E+00 -0.59388387303E+03  0.59388387304E+03  0.25500000920E-02 0.  1.
    10030    2    1    2    0    0  0.00000000000E+00  0.00000000000E+00  0.16483988423E+04  0.28361665884E+04  0.23079476107E+04 0.  0.
        3    1    3    3  502    0  0.53264563985E+03 -0.14893333497E+03  0.20687980228E+04  0.21414522607E+04  0.10100000352E+00 0. -1.
       -3    1    3    3    0  502 -0.53264563985E+03  0.14893333497E+03 -0.42039918044E+03  0.69471432764E+03  0.10100000352E+00 0.  1.
</event>
<event>
 5   0  0.7003852E-06  0.2298535E+04  0.7818609E-02  0.8478499E-01
       -2   -1    0    0    0  501  0.00000000000E+00  0.00000000000E+00  0.77637379951E+03  0.77637379952E+03  0.25500000920E-02 0.  1.
        2   -1    0    0  501    0  0.00000000000E+00  0.00000000000E+00 -0.17012633138E+04  0.17012633138E+04  0.25500000920E-02 0. -1.
    10030    2    1    2    0    0  0.00000000000E+00  0.00000000000E+00 -0.92488951430E+03  0.24776371133E+04  0.22985354145E+04 0.  0.
        2    1    3    3  502    0  0.62706671372E+03  0.83431239544E+03 -0.98110956618E+03  0.14324335299E+04  0.25500000920E-02 0. -1.
       -2    1    3    3    0  502 -0.62706671372E+03 -0.83431239544E+03  0.56220051873E+02  0.10452035835E+04  0.25500000920E-02 0.  1.
</event>
<event>
 5   0  0.3338758E-06  0.2285262E+04  0.7818609E-02  0.8483755E-01
       -1   -1    0    0    0  501  0.00000000000E+00  0.00000000000E+00  0.15888366974E+04  0.15888366974E+04  0.50400001928E-02 0.  1.
        1   -1    0    0  501    0  0.00000000000E+00  0.00000000000E+00 -0.82173665949E+03  0.82173665951E+03  0.50400001928E-02 0. -1.
    10030    2    1    2    0    0  0.00000000000E+00  0.00000000000E+00  0.76710003791E+03  0.24105733569E+04  0.22852617883E+04 0.  0.
        5    1    3    3  502    0 -0.62901213880E+03  0.40498707579E+02 -0.62175050426E+03  0.88537686644E+03  0.46999998093E+01 0. -1.
       -5    1    3    3    0  502  0.62901213880E+03 -0.40498707579E+02  0.13888505422E+04  0.15251964905E+04  0.46999998093E+01 0.  1.
</event>
<event>
 5   0  0.3195296E-06  0.2299834E+04  0.7818609E-02  0.8477986E-01
       -1   -1    0    0    0  501  0.00000000000E+00  0.00000000000E+00  0.13053475451E+04  0.13053475451E+04  0.50400001928E-02 0. -1.
        1   -1    0    0  501    0  0.00000000000E+00  0.00000000000E+00 -0.10129941825E+04  0.10129941825E+04  0.50400001928E-02 0.  1.
    10030    2    1    2    0    0  0.00000000000E+00  0.00000000000E+00  0.29235336265E+03  0.23183417276E+04  0.22998343152E+04 0.  0.
        2    1    3    3  502    0 -0.54317615728E+03  0.71875256737E+03 -0.57418146536E+03  0.10683304480E+04  0.25500000920E-02 0.  1.
       -2    1    3    3    0  502  0.54317615728E+03 -0.71875256737E+03  0.86653482801E+03  0.12500112796E+04  0.25500000920E-02 0. -1.
</event>
<event>
 5   0  0.3195296E-06  0.2294306E+04  0.7818609E-02  0.8480169E-01
        1   -1    0    0  501    0  0.00000000000E+00  0.00000000000E+00  0.16575008932E+04  0.16575008932E+04  0.50400001928E-02 0. -1.
       -1   -1    0    0    0  501  0.00000000000E+00  0.00000000000E+00 -0.79394249913E+03  0.79394249915E+03  0.50400001928E-02 0.  1.
    10030    2    1    2    0    0  0.00000000000E+00  0.00000000000E+00  0.86355839406E+03  0.24514433923E+04  0.22943063453E+04 0.  0.
        2    1    3    3  502    0 -0.90212530005E+03 -0.70325775530E+03  0.33888276832E+03  0.11929975097E+04  0.25500000920E-02 0. -1.
       -2    1    3    3    0  502  0.90212530005E+03  0.70325775530E+03  0.52467562574E+03  0.12584458827E+04  0.25500000920E-02 0.  1.
</event>
<event>
 5   0  0.3238713E-06  0.2301484E+04  0.7818609E-02  0.8477336E-01
        1   -1    0    0  501    0  0.00000000000E+00  0.00000000000E+00  0.81074387021E+03  0.81074387022E+03  0.50400001928E-02 0. -1.
       -1   -1    0    0    0  501  0.00000000000E+00  0.00000000000E+00 -0.16333237268E+04  0.16333237268E+04  0.50400001928E-02 0.  1.
    10030    2    1    2    0    0  0.00000000000E+00  0.00000000000E+00 -0.82257985657E+03  0.24440675970E+04  0.23014840426E+04 0.  0.
        3    1    3    3  502    0  0.31954961191E+03 -0.33721206596E+03 -0.15293116045E+04  0.15983172168E+04  0.10100000352E+00 0.  1.
       -3    1    3    3    0  502 -0.31954961191E+03  0.33721206596E+03  0.70673174788E+03  0.84575038018E+03  0.10100000352E+00 0. -1.
</event>
<event>
 5   0  0.7242214E-06  0.2298827E+04  0.7818609E-02  0.8478384E-01
       -2   -1    0    0    0  501  0.00000000000E+00  0.00000000000E+00  0.56202522589E+03  0.56202522590E+03  0.25500000920E-02 0.  1.
        2   -1    0    0  501    0  0.00000000000E+00  0.00000000000E+00 -0.23506971887E+04  0.23506971887E+04  0.25500000920E-02 0. -1.
    10030    2    1    2    0    0  0.00000000000E+00  0.00000000000E+00 -0.17886719628E+04  0.29127224145E+04  0.22988267603E+04 0.  0.
        1    1    3    3  502    0 -0.16829646768E+03 -0.18015511158E+03 -0.23168028181E+04  0.23298830150E+04  0.50400001928E-02 0. -1.
       -1    1    3    3    0  502  0.16829646768E+03  0.18015511158E+03  0.52813085539E+03  0.58283939957E+03  0.50400001928E-02 0.  1.
</event>
<event>
 5   0  0.3238713E-06  0.2281055E+04  0.7818609E-02  0.8485428E-01
       -1   -1    0    0    0  501  0.00000000000E+00  0.00000000000E+00  0.16447933327E+04  0.16447933327E+04  0.50400001928E-02 0.  1.
        1   -1    0    0  501    0  0.00000000000E+00  0.00000000000E+00 -0.79086128452E+03  0.79086128454E+03  0.50400001928E-02 0. -1.
    10030    2    1    2    0    0  0.00000000000E+00  0.00000000000E+00  0.85393204817E+03  0.24356546172E+04  0.22810553416E+04 0.  0.
        3    1    3    3  502    0 -0.10759416961E+04  0.34840809802E+03  0.58449318325E+03  0.12730557834E+04  0.10100000352E+00 0.  1.
       -3    1    3    3    0  502  0.10759416961E+04 -0.34840809802E+03  0.26943886492E+03  0.11625988338E+04  0.10100000352E+00 0. -1.
</event>
<event>
 5   0  0.7348107E-06  0.2302211E+04  0.7818609E-02  0.8477050E-01
       -2   -1    0    0    0  501  0.00000000000E+00  0.00000000000E+00  0.82027813012E+03  0.82027813013E+03  0.25500000920E-02 0. -1.
        2   -1    0    0  501    0  0.00000000000E+00  0.00000000000E+00 -0.16153586381E+04  0.16153586381E+04  0.25500000920E-02 0.  1.
    10030    2    1    2    0    0  0.00000000000E+00  0.00000000000E+00 -0.79508050799E+03  0.24356367682E+04  0.23022105578E+04 0.  0.
        3    1    3    3  502    0  0.75266446101E+03 -0.67396115482E+02  0.52111461887E+03  0.91793599094E+03  0.10100000352E+00 0. -1.
       -3    1    3    3    0  502 -0.75266446101E+03  0.67396115482E+02 -0.13161951269E+04  0.15177007773E+04  0.10100000352E+00 0.  1.
</event>
<event>
 5   0  0.3184492E-06  0.2314514E+04  0.7818609E-02  0.8472220E-01
        1   -1    0    0  501    0  0.00000000000E+00  0.00000000000E+00  0.10214816875E+04  0.10214816875E+04  0.50400001928E-02 0.  1.
       -1   -1    0    0    0  501  0.00000000000E+00  0.00000000000E+00 -0.13110792057E+04  0.13110792057E+04  0.50400001928E-02 0. -1.
    10030    2    1    2    0    0  0.00000000000E+00  0.00000000000E+00 -0.28959751813E+03  0.23325608932E+04  0.23145136850E+04 0.  0.
        1    1    3    3  502    0  0.47950448762E+03  0.48296655279E+03  0.79848139421E+03  0.10491681379E+04  0.50400001928E-02 0.  1.
       -1    1    3    3    0  502 -0.47950448762E+03 -0.48296655279E+03 -0.10880789123E+04  0.12833927553E+04  0.50400001928E-02 0. -1.
</event>
<event>
 5   0  0.7044981E-06  0.2299295E+04  0.7818609E-02  0.8478199E-01
       -2   -1    0    0    0  501  0.00000000000E+00  0.00000000000E+00  0.10794917074E+04  0.10794917074E+04  0.25500000920E-02 0.  1.
        2   -1    0    0  501    0  0.00000000000E+00  0.00000000000E+00 -0.12243631804E+04  0.12243631804E+04  0.25500000920E-02 0. -1.
    10030    2    1    2    0    0  0.00000000000E+00  0.00000000000E+00 -0.14487147300E+03  0.23038548878E+04  0.22992954573E+04 0.  0.
        4    1    3    3  502    0  0.97271486533E+03 -0.13443169388E+03  0.52661450874E+03  0.11142578442E+04  0.12699999809E+01 0.  1.
       -4    1    3    3    0  502 -0.97271486533E+03  0.13443169388E+03 -0.67148598174E+03  0.11895970436E+04  0.12699999809E+01 0. -1.
</event>
<event>
 5   0  0.7044981E-06  0.2318907E+04  0.7818609E-02  0.8470503E-01
        2   -1    0    0  501    0  0.00000000000E+00  0.00000000000E+00  0.13890589416E+04  0.13890589416E+04  0.25500000920E-02 0.  1.
       -2   -1    0    0    0  501  0.00000000000E+00  0.00000000000E+00 -0.96780091186E+03  0.96780091186E+03  0.25500000920E-02 0. -1.
    10030    2    1    2    0    0  0.00000000000E+00  0.00000000000E+00  0.42125802974E+03  0.23568598535E+04  0.23189070790E+04 0.  0.
        4    1    3    3  502    0 -0.67173507701E+03 -0.90513258610E+03 -0.65549593823E+02  0.11290665943E+04  0.12699999809E+01 0.  1.
       -4    1    3    3    0  502  0.67173507701E+03  0.90513258610E+03  0.48680762357E+03  0.12277932592E+04  0.12699999809E+01 0. -1.
</event>
<event>
 5   0  0.3338758E-06  0.2296100E+04  0.7818609E-02  0.8479460E-01
       -1   -1    0    0    0  501  0.00000000000E+00  0.00000000000E+00  0.48705367343E+03  0.48705367346E+03  0.50400001928E-02 0. -1.
        1   -1    0    0  501    0  0.00000000000E+00  0.00000000000E+00 -0.27061065490E+04  0.27061065490E+04  0.50400001928E-02 0.  1.
    10030    2    1    2    0    0  0.00000000000E+00  0.00000000000E+00 -0.22190528756E+04  0.31931602225E+04  0.22961002900E+04 0.  0.
        5    1    3    3  502    0  0.66089243189E+03 -0.60106115993E+03 -0.21123118928E+04  0.22934552420E+04  0.46999998093E+01 0.  1.
       -5    1    3    3    0  502 -0.66089243189E+03  0.60106115993E+03 -0.10674098277E+03  0.89970498049E+03  0.46999998093E+01 0. -1.
</event>
<event>
 5   0  0.3238713E-06  0.2305797E+04  0.7818609E-02  0.8475639E-01
       -1   -1    0    0    0  501  0.00000000000E+00  0.00000000000E+00  0.56536300897E+03  0.56536300899E+03  0.50400001928E-02 0.  1.
        1   -1    0    0  501    0  0.00000000000E+00  0.00000000000E+00 -0.23510113065E+04  0.23510113065E+04  0.50400001928E-02 0. -1.
    10030    2    1    2    0    0  0.00000000000E+00  0.00000000000E+00 -0.17856482975E+04  0.29163743155E+04  0.23057968916E+04 0.  0.
        3    1    3    3  502    0  0.73504155960E+03  0.47181988242E+03 -0.18446024566E+04  0.20409454498E+04  0.10100000352E+00 0. -1.
       -3    1    3    3    0  502 -0.73504155960E+03 -0.47181988242E+03  0.58954159129E+02  0.87542886568E+03  0.10100000352E+00 0.  1.
</event>
<event>
 5   0  0.3195296E-06  0.2300014E+04  0.7818609E-02  0.8477916E-01
       -1   -1    0    0    0  501  0.00000000000E+00  0.00000000000E+00  0.72024198724E+03  0.72024198726E+03  0.50400001928E-02 0. -1.
        1   -1    0    0  501    0  0.00000000000E+00  0.00000000000E+00 -0.18362110355E+04  0.18362110355E+04  0.50400001928E-02 0.  1.
    10030    2    1    2    0    0  0.00000000000E+00  0.00000000000E+00 -0.11159690483E+04  0.25564530228E+04  0.23000141610E+04 0.  0.
        2    1    3    3  502    0 -0.42577034083E+03  0.60932802528E+03 -0.15332886281E+04  0.17039762447E+04  0.25500000920E-02 0.  1.
       -2    1    3    3    0  502  0.42577034083E+03 -0.60932802528E+03  0.41731957978E+03  0.85247677810E+03  0.25500000920E-02 0. -1.
</event>
<event>
 5   0  0.7044981E-06  0.2302112E+04  0.7818609E-02  0.8477089E-01
       -2   -1    0    0    0  501  0.00000000000E+00  0.00000000000E+00  0.11477525811E+04  0.11477525811E+04  0.25500000920E-02 0.  1.
        2   -1    0    0  501    0  0.00000000000E+00  0.00000000000E+00 -0.11543685911E+04  0.11543685911E+04  0.25500000920E-02 0. -1.
    10030    2    1    2    0    0  0.00000000000E+00  0.00000000000E+00 -0.66160099944E+01  0.23021211722E+04  0.23021116654E+04 0.  0.
        4    1    3    3  502    0  0.72068345318E+03 -0.71947010948E+03  0.53326297525E+03  0.11495185478E+04  0.12699999809E+01 0.  1.
       -4    1    3    3    0  502 -0.72068345318E+03  0.71947010948E+03 -0.53987898525E+03  0.11526026244E+04  0.12699999809E+01 0. -1.
</event>
<event>
 5   0  0.3238713E-06  0.2308109E+04  0.7818609E-02  0.8474731E-01
       -1   -1    0    0    0  501  0.00000000000E+00  0.00000000000E+00  0.90852434192E+03  0.90852434193E+03  0.50400001928E-02 0. -1.
        1   -1    0    0  501    0  0.00000000000E+00  0.00000000000E+00 -0.14659402094E+04  0.14659402094E+04  0.50400001928E-02 0.  1.
    10030    2    1    2    0    0  0.00000000000E+00  0.00000000000E+00 -0.55741586749E+03  0.23744645513E+04  0.23081094983E+04 0.  0.
        3    1    3    3  502    0 -0.23514431412E+02  0.47648401447E+03 -0.13597521557E+04  0.14410121026E+04  0.10100000352E+00 0.  1.
       -3    1    3    3    0  502  0.23514431412E+02 -0.47648401447E+03  0.80233628823E+03  0.93345244879E+03  0.10100000352E+00 0. -1.
</event>
<event>
 5   0  0.7003852E-06  0.2302129E+04  0.7818609E-02  0.8477082E-01
        2   -1    0    0  501    0  0.00000000000E+00  0.00000000000E+00  0.21116233349E+04  0.21116233349E+04  0.25500000920E-02 0. -1.
       -2   -1    0    0    0  501  0.00000000000E+00  0.00000000000E+00 -0.62745563042E+03  0.62745563043E+03  0.25500000920E-02 0.  1.
    10030    2    1    2    0    0  0.00000000000E+00  0.00000000000E+00  0.14841677045E+04  0.27390789653E+04  0.23021294063E+04 0.  0.
        2    1    3    3  502    0 -0.96158779505E+01  0.54468836905E+03 -0.46436168358E+03  0.71582795257E+03  0.25500000920E-02 0.  1.
       -2    1    3    3    0  502  0.96158779505E+01 -0.54468836905E+03  0.19485293880E+04  0.20232510127E+04  0.25500000920E-02 0. -1.
</event>
<event>
 5   0  0.7044981E-06  0.2300683E+04  0.7818609E-02  0.8477652E-01
       -2   -1    0    0    0  501  0.00000000000E+00  0.00000000000E+00  0.90291862588E+03  0.90291862589E+03  0.25500000920E-02 0.  1.
        2   -1    0    0  501    0  0.00000000000E+00  0.00000000000E+00 -0.14655643764E+04  0.14655643764E+04  0.25500000920E-02 0. -1.
    10030    2    1    2    0    0  0.00000000000E+00  0.00000000000E+00 -0.56264575053E+03  0.23684830023E+04  0.23006828316E+04 0.  0.
        4    1    3    3  502    0 -0.98964666457E+03 -0.14370855621E+03 -0.86661150080E+03  0.13232799311E+04  0.12699999809E+01 0. -1.
       -4    1    3    3    0  502  0.98964666457E+03  0.14370855621E+03  0.30396575027E+03  0.10452030712E+04  0.12699999809E+01 0.  1.
</event>
<event>
 5   0  0.3338758E-06  0.2298733E+04  0.7818609E-02  0.8478421E-01
       -1   -1    0    0    0  501  0.00000000000E+00  0.00000000000E+00  0.44365522315E+03  0.44365522318E+03  0.50400001928E-02 0. -1.
        1   -1    0    0  501    0  0.00000000000E+00  0.00000000000E+00 -0.29776363465E+04  0.29776363465E+04  0.50400001928E-02 0.  1.
    10030    2    1    2    0    0  0.00000000000E+00  0.00000000000E+00 -0.25339811234E+04  0.34212915697E+04  0.22987334929E+04 0.  0.
        5    1    3    3  502    0 -0.74752524572E+03  0.61821611693E+03 -0.34947336189E+03  0.10310862626E+04  0.46999998093E+01 0. -1.
       -5    1    3    3    0  502  0.74752524572E+03 -0.61821611693E+03 -0.21845077615E+04  0.23902053071E+04  0.46999998093E+01 0.  1.
</event>
<event>
 5   0  0.3195296E-06  0.2311335E+04  0.7818609E-02  0.8473465E-01
       -1   -1    0    0    0  501  0.00000000000E+00  0.00000000000E+00  0.93043176590E+03  0.93043176591E+03  0.50400001928E-02 0. -1.
        1   -1    0    0  501    0  0.00000000000E+00  0.00000000000E+00 -0.14354269253E+04  0.14354269253E+04  0.50400001928E-02 0.  1.
    10030    2    1    2    0    0  0.00000000000E+00  0.00000000000E+00 -0.50499515941E+03  0.23658586912E+04  0.23113345141E+04 0.  0.
        2    1    3    3  502    0 -0.15328590707E+03 -0.11140377296E+04 -0.52522268970E+03  0.12411428226E+04  0.25500000920E-02 0. -1.
       -2    1    3    3    0  502  0.15328590707E+03  0.11140377296E+04  0.20227530284E+02  0.11247158687E+04  0.25500000920E-02 0.  1.
</event>
<event>
 5   0  0.7003852E-06  0.2271261E+04  0.7818609E-02  0.8489340E-01
        2   -1    0    0  501    0  0.00000000000E+00  0.00000000000E+00  0.80442755468E+03  0.80442755468E+03  0.25500000920E-02 0.  1.
       -2   -1    0    0    0  501  0.00000000000E+00  0.00000000000E+00 -0.16031975709E+04  0.16031975709E+04  0.25500000920E-02 0. -1.
    10030    2    1    2    0    0  0.00000000000E+00  0.00000000000E+00 -0.79877001622E+03  0.24076251256E+04  0.22712607086E+04 0.  0.
        2    1    3    3  502    0  0.57318382455E+03 -0.60162950012E+03 -0.12199117869E+04  0.14760360836E+04  0.25500000920E-02 0. -1.
       -2    1    3    3    0  502 -0.57318382455E+03  0.60162950012E+03  0.42114177071E+03  0.93158904200E+03  0.25500000920E-02 0.  1.
</event>
<event>
 5   0  0.7348107E-06  0.2258105E+04  0.7818609E-02  0.8494625E-01
        2   -1    0    0  501    0  0.00000000000E+00  0.00000000000E+00  0.21079833386E+04  0.21079833386E+04  0.25500000920E-02 0.  1.
       -2   -1    0    0    0  501  0.00000000000E+00  0.00000000000E+00 -0.60472942226E+03  0.60472942226E+03  0.25500000920E-02 0. -1.
    10030    2    1    2    0    0  0.00000000000E+00  0.00000000000E+00  0.15032539164E+04  0.27127127609E+04  0.22581049989E+04 0.  0.
        3    1    3    3  502    0 -0.55463392725E+03  0.98105572307E+03  0.66952807651E+03  0.13108611599E+04  0.10100000352E+00 0.  1.
       -3    1    3    3    0  502  0.55463392725E+03 -0.98105572307E+03  0.83372583987E+03  0.14018516010E+04  0.10100000352E+00 0. -1.
</event>
<event>
 5   0  0.7497344E-06  0.2300050E+04  0.7818609E-02  0.8477901E-01
        2   -1    0    0  501    0  0.00000000000E+00  0.00000000000E+00  0.11083786108E+04  0.11083786108E+04  0.25500000920E-02 0. -1.
       -2   -1    0    0    0  501  0.00000000000E+00  0.00000000000E+00 -0.11932362414E+04  0.11932362414E+04  0.25500000920E-02 0.  1.
    10030    2    1    2    0    0  0.00000000000E+00  0.00000000000E+00 -0.84857630649E+02  0.23016148522E+04  0.23000500235E+04 0.  0.
        5    1    3    3  502    0 -0.30912659536E+03 -0.89196163040E+03  0.61481376624E+03  0.11265757228E+04  0.46999998093E+01 0. -1.
       -5    1    3    3    0  502  0.30912659536E+03  0.89196163040E+03 -0.69967139688E+03  0.11750391294E+04  0.46999998093E+01 0.  1.
</event>
<event>
 5   0  0.3195296E-06  0.2294974E+04  0.7818609E-02  0.8479905E-01
        1   -1    0    0  501    0  0.00000000000E+00  0.00000000000E+00  0.16028016964E+04  0.16028016964E+04  0.50400001928E-02 0.  1.
       -1   -1    0    0    0  501  0.00000000000E+00  0.00000000000E+00 -0.82151560037E+03  0.82151560038E+03  0.50400001928E-02 0. -1.
    10030    2    1    2    0    0  0.00000000000E+00  0.00000000000E+00  0.78128609600E+03  0.24243172968E+04  0.22949741592E+04 0.  0.
        2    1    3    3  502    0 -0.52557701730E+02  0.33391114025E+03 -0.76772977117E+03  0.83884918975E+03  0.25500000920E-02 0. -1.
       -2    1    3    3    0  502  0.52557701730E+02 -0.33391114025E+03  0.15490158672E+04  0.15854681070E+04  0.25500000920E-02 0.  1.
</event>
<event>
 5   0  0.7003852E-06  0.2296575E+04  0.7818609E-02  0.8479273E-01
        2   -1    0    0  501    0  0.00000000000E+00  0.00000000000E+00  0.16177841593E+04  0.16177841593E+04  0.25500000920E-02 0. -1.
       -2   -1    0    0    0  501  0.00000000000E+00  0.00000000000E+00 -0.81504354838E+03  0.81504354838E+03  0.25500000920E-02 0.  1.
    10030    2    1    2    0    0  0.00000000000E+00  0.00000000000E+00  0.80274061096E+03  0.24328277077E+04  0.22965753127E+04 0.  0.
        2    1    3    3  502    0 -0.10197260984E+04  0.38652614543E+03  0.20423098639E+02  0.10907157649E+04  0.25500000920E-02 0. -1.
       -2    1    3    3    0  502  0.10197260984E+04 -0.38652614543E+03  0.78231751232E+03  0.13421119428E+04  0.25500000920E-02 0.  1.
</event>
<event>
 5   0  0.3195296E-06  0.2296356E+04  0.7818609E-02  0.8479359E-01
        1   -1    0    0  501    0  0.00000000000E+00  0.00000000000E+00  0.13028828450E+04  0.13028828450E+04  0.50400001928E-02 0.  1.
       -1   -1    0    0    0  501  0.00000000000E+00  0.00000000000E+00 -0.10118432461E+04  0.10118432461E+04  0.50400001928E-02 0. -1.
    10030    2    1    2    0    0  0.00000000000E+00  0.00000000000E+00  0.29103959888E+03  0.23147260911E+04  0.22963564245E+04 0.  0.
        2    1    3    3  502    0  0.51875329668E+03  0.14548817168E+03  0.11675544388E+04  0.12858674732E+04  0.25500000920E-02 0.  1.
       -2    1    3    3    0  502 -0.51875329668E+03 -0.14548817168E+03 -0.87651483996E+03  0.10288586179E+04  0.25500000920E-02 0. -1.
</event>
<event>
 5   0  0.7497344E-06  0.2301327E+04  0.7818609E-02  0.8477398E-01
        2   -1    0    0  501    0  0.00000000000E+00  0.00000000000E+00  0.12029071587E+04  0.12029071587E+04  0.25500000920E-02 0.  1.
       -2   -1    0    0    0  501  0.00000000000E+00  0.00000000000E+00 -0.11006891707E+04  0.11006891707E+04  0.25500000920E-02 0. -1.
    10030    2    1    2    0    0  0.00000000000E+00  0.00000000000E+00  0.10221798801E+03  0.23035963294E+04  0.23013273413E+04 0.  0.
        5    1    3    3  502    0  0.24123542172E+03 -0.10996786955E+04  0.28907649512E+03  0.11623575491E+04  0.46999998093E+01 0. -1.
       -5    1    3    3    0  502 -0.24123542172E+03  0.10996786955E+04 -0.18685850711E+03  0.11412387803E+04  0.46999998093E+01 0.  1.
</event>
<event>
 5   0  0.3184492E-06  0.2301837E+04  0.7818609E-02  0.8477197E-01
       -1   -1    0    0    0  501  0.00000000000E+00  0.00000000000E+00  0.57187590768E+03  0.57187590770E+03  0.50400001928E-02 0. -1.
        1   -1    0    0  501    0  0.00000000000E+00  0.00000000000E+00 -0.23162604424E+04  0.23162604424E+04  0.50400001928E-02 0.  1.
    10030    2    1    2    0    0  0.00000000000E+00  0.00000000000E+00 -0.17443845347E+04  0.28881363501E+04  0.23018371297E+04 0.  0.
        1    1    3    3  502    0 -0.19248475702E+03  0.80244661649E+03  0.13442757745E+03  0.83608715312E+03  0.50400001928E-02 0. -1.
       -1    1    3    3    0  502  0.19248475702E+03 -0.80244661649E+03 -0.18788121121E+04  0.20520491970E+04  0.50400001928E-02 0.  1.
</event>
<event>
 5   0  0.3195296E-06  0.2301841E+04  0.7818609E-02  0.8477196E-01
        1   -1    0    0  501    0  0.00000000000E+00  0.00000000000E+00  0.11009548083E+04  0.11009548083E+04  0.50400001928E-02 0.  1.
       -1   -1    0    0    0  501  0.00000000000E+00  0.00000000000E+00 -0.12031538610E+04  0.12031538610E+04  0.50400001928E-02 0. -1.
    10030    2    1    2    0    0  0.00000000000E+00  0.00000000000E+00 -0.10219905270E+03  0.23041086694E+04  0.23018410271E+04 0.  0.
        2    1    3    3  502    0 -0.77633405727E+02  0.96214551080E+03  0.57630906505E+03  0.11242255415E+04  0.25500000920E-02 0.  1.
       -2    1    3    3    0  502  0.77633405727E+02 -0.96214551080E+03 -0.67850811775E+03  0.11798831279E+04  0.25500000920E-02 0. -1.
</event>
<event>
 5   0  0.3184492E-06  0.2298002E+04  0.7818609E-02  0.8478709E-01
       -1   -1    0    0    0  501  0.00000000000E+00  0.00000000000E+00  0.72790152107E+03  0.72790152109E+03  0.50400001928E-02 0.  1.
        1   -1    0    0  501    0  0.00000000000E+00  0.00000000000E+00 -0.18137113012E+04  0.18137113012E+04  0.50400001928E-02 0. -1.
    10030    2    1    2    0    0  0.00000000000E+00  0.00000000000E+00 -0.10858097801E+04  0.25416128223E+04  0.22980019277E+04 0.  0.
        1    1    3    3  502    0 -0.11270328082E+04  0.17169422956E+02 -0.78948674675E+03  0.13761493608E+04  0.50400001928E-02 0. -1.
       -1    1    3    3    0  502  0.11270328082E+04 -0.17169422956E+02 -0.29632303339E+03  0.11654634615E+04  0.50400001928E-02 0.  1.
</event>
<event>
 5   0  0.7497344E-06  0.2298394E+04  0.7818609E-02  0.8478555E-01
        2   -1    0    0  501    0  0.00000000000E+00  0.00000000000E+00  0.78316474079E+03  0.78316474079E+03  0.25500000920E-02 0. -1.
       -2   -1    0    0    0  501  0.00000000000E+00  0.00000000000E+00 -0.16863041258E+04  0.16863041258E+04  0.25500000920E-02 0.  1.
    10030    2    1    2    0    0  0.00000000000E+00  0.00000000000E+00 -0.90313938498E+03  0.24694688666E+04  0.22983941642E+04 0.  0.
        5    1    3    3  502    0  0.10761545963E+04  0.29766040752E+03 -0.15944775873E+03  0.11278989809E+04  0.46999998093E+01 0. -1.
       -5    1    3    3    0  502 -0.10761545963E+04 -0.29766040752E+03 -0.74369162626E+03  0.13415698857E+04  0.46999998093E+01 0.  1.
</event>
<event>
 5   0  0.3338758E-06  0.2309172E+04  0.7818609E-02  0.8474313E-01
        1   -1    0    0  501    0  0.00000000000E+00  0.00000000000E+00  0.18494430514E+04  0.18494430514E+04  0.50400001928E-02 0. -1.
       -1   -1    0    0    0  501  0.00000000000E+00  0.00000000000E+00 -0.72079489045E+03  0.72079489047E+03  0.50400001928E-02 0.  1.
    10030    2    1    2    0    0  0.00000000000E+00  0.00000000000E+00  0.11286481610E+04  0.25702379419E+04  0.23091722341E+04 0.  0.
        5    1    3    3  502    0  0.10301521014E+04 -0.35718649467E+02  0.11432820857E+04  0.15393521986E+04  0.46999998093E+01 0. -1.
       -5    1    3    3    0  502 -0.10301521014E+04  0.35718649467E+02 -0.14633924684E+02  0.10308857433E+04  0.46999998093E+01 0.  1.
</event>
<event>
 5   0  0.3238713E-06  0.2304173E+04  0.7818609E-02  0.8476278E-01
       -1   -1    0    0    0  501  0.00000000000E+00  0.00000000000E+00  0.80821265174E+03  0.80821265175E+03  0.50400001928E-02 0. -1.
        1   -1    0    0  501    0  0.00000000000E+00  0.00000000000E+00 -0.16422692222E+04  0.16422692222E+04  0.50400001928E-02 0.  1.
    10030    2    1    2    0    0  0.00000000000E+00  0.00000000000E+00 -0.83405657045E+03  0.24504818739E+04  0.23041725308E+04 0.  0.
        3    1    3    3  502    0  0.35187221750E+03 -0.88660400914E+03  0.27007841020E+03  0.99137434117E+03  0.10100000352E+00 0. -1.
       -3    1    3    3    0  502 -0.35187221750E+03  0.88660400914E+03 -0.11041349806E+04  0.14591075328E+04  0.10100000352E+00 0.  1.
</event>
<event>
 5   0  0.7242214E-06  0.2316965E+04  0.7818609E-02  0.8471262E-01
       -2   -1    0    0    0  501  0.00000000000E+00  0.00000000000E+00  0.99166883313E+03  0.99166883314E+03  0.25500000920E-02 0. -1.
        2   -1    0    0  501    0  0.00000000000E+00  0.00000000000E+00 -0.13533565938E+04  0.13533565938E+04  0.25500000920E-02 0.  1.
    10030    2    1    2    0    0  0.00000000000E+00  0.00000000000E+00 -0.36168776067E+03  0.23450254269E+04  0.23169648717E+04 0.  0.
        1    1    3    3  502    0 -0.60589035561E+03 -0.44809359545E+03  0.70969327245E+03  0.10351596661E+04  0.50400001928E-02 0. -1.
       -1    1    3    3    0  502  0.60589035561E+03  0.44809359545E+03 -0.10713810331E+04  0.13098657609E+04  0.50400001928E-02 0.  1.
</event>
<event>
 5   0  0.3238713E-06  0.2300721E+04  0.7818609E-02  0.8477637E-01
       -1   -1    0    0    0  501  0.00000000000E+00  0.00000000000E+00  0.13234128264E+04  0.13234128264E+04  0.50400001928E-02 0. -1.
        1   -1    0    0  501    0  0.00000000000E+00  0.00000000000E+00 -0.99993725192E+03  0.99993725193E+03  0.50400001928E-02 0.  1.
    10030    2    1    2    0    0  0.00000000000E+00  0.00000000000E+00  0.32347557447E+03  0.23233500783E+04  0.23007214388E+04 0.  0.
        3    1    3    3  502    0  0.12401637583E+03  0.31214767810E+03  0.12727924847E+04  0.13163650533E+04  0.10100000352E+00 0. -1.
       -3    1    3    3    0  502 -0.12401637583E+03 -0.31214767810E+03 -0.94931691018E+03  0.10069850250E+04  0.10100000352E+00 0.  1.
</event>
<event>
 5   0  0.7348107E-06  0.2302130E+04  0.7818609E-02  0.8477082E-01
       -2   -1    0    0    0  501  0.00000000000E+00  0.00000000000E+00  0.70316002728E+03  0.70316002728E+03  0.25500000920E-02 0.  1.
        2   -1    0    0  501    0  0.00000000000E+00  0.00000000000E+00 -0.18842806121E+04  0.18842806121E+04  0.25500000920E-02 0. -1.
    10030    2    1    2    0    0  0.00000000000E+00  0.00000000000E+00 -0.11811205848E+04  0.25874406394E+04  0.23021301497E+04 0.  0.
        3    1    3    3  502    0 -0.10503498204E+04  0.29036024831E+03 -0.10071848980E+04  0.14839020345E+04  0.10100000352E+00 0.  1.
       -3    1    3    3    0  502  0.10503498204E+04 -0.29036024831E+03 -0.17393568679E+03  0.11035386048E+04  0.10100000352E+00 0. -1.
</event>
<event>
 5   0  0.3184492E-06  0.2298590E+04  0.7818609E-02  0.8478477E-01
       -1   -1    0    0    0  501  0.00000000000E+00  0.00000000000E+00  0.97892984927E+03  0.97892984929E+03  0.50400001928E-02 0. -1.
        1   -1    0    0  501    0  0.00000000000E+00  0.00000000000E+00 -0.13493091870E+04  0.13493091870E+04  0.50400001928E-02 0.  1.
    10030    2    1    2    0    0  0.00000000000E+00  0.00000000000E+00 -0.37037933771E+03  0.23282390363E+04  0.22985900366E+04 0.  0.
        1    1    3    3  502    0  0.38546449908E+02 -0.64353800660E+03  0.77853017983E+03  0.10108096931E+04  0.50400001928E-02 0. -1.
       -1    1    3    3    0  502 -0.38546449908E+02  0.64353800660E+03 -0.11489095175E+04  0.13174293432E+04  0.50400001928E-02 0.  1.
</event>
<event>
 5   0  0.3184492E-06  0.2279283E+04  0.7818609E-02  0.8486135E-01
        1   -1    0    0  501    0  0.00000000000E+00  0.00000000000E+00  0.14112437985E+04  0.14112437985E+04  0.50400001928E-02 0.  1.
       -1   -1    0    0    0  501  0.00000000000E+00  0.00000000000E+00 -0.92031077892E+03  0.92031077893E+03  0.50400001928E-02 0. -1.
    10030    2    1    2    0    0  0.00000000000E+00  0.00000000000E+00  0.49093301962E+03  0.23315545775E+04  0.22792831149E+04 0.  0.
        1    1    3    3  502    0 -0.96937937474E+03 -0.38475213150E+03 -0.22447343566E+03  0.10668265549E+04  0.50400001928E-02 0. -1.
       -1    1    3    3    0  502  0.96937937474E+03  0.38475213150E+03  0.71540645528E+03  0.12647280226E+04  0.50400001928E-02 0.  1.
</event>
<event>
 5   0  0.7242214E-06  0.2300111E+04  0.7818609E-02  0.8477877E-01
        2   -1    0    0  501    0  0.00000000000E+00  0.00000000000E+00  0.71015284352E+03  0.71015284352E+03  0.25500000920E-02 0. -1.
       -2   -1    0    0    0  501  0.00000000000E+00  0.00000000000E+00 -0.18624556267E+04  0.18624556267E+04  0.25500000920E-02 0.  1.
    10030    2    1    2    0    0  0.00000000000E+00  0.00000000000E+00 -0.11523027832E+04  0.25726084702E+04  0.23001114401E+04 0.  0.
        1    1    3    3  502    0 -0.22665198699E+03  0.80515854419E+03 -0.14589481671E+04  0.16817197028E+04  0.50400001928E-02 0. -1.
       -1    1    3    3    0  502  0.22665198699E+03 -0.80515854419E+03  0.30664538389E+03  0.89088876745E+03  0.50400001928E-02 0.  1.
</event>
<event>
 5   0  0.3238713E-06  0.2295274E+04  0.7818609E-02  0.8479787E-01
       -1   -1    0    0    0  501  0.00000000000E+00  0.00000000000E+00  0.54517104072E+03  0.54517104075E+03  0.50400001928E-02 0.  1.
        1   -1    0    0  501    0  0.00000000000E+00  0.00000000000E+00 -0.24158858444E+04  0.24158858444E+04  0.50400001928E-02 0. -1.
    10030    2    1    2    0    0  0.00000000000E+00  0.00000000000E+00 -0.18707148036E+04  0.29610568851E+04  0.22952742756E+04 0.  0.
        3    1    3    3  502    0  0.11434172427E+03  0.30220544460E+03 -0.23559948830E+04  0.23780483720E+04  0.10100000352E+00 0. -1.
       -3    1    3    3    0  502 -0.11434172427E+03 -0.30220544460E+03  0.48528007940E+03  0.58300851308E+03  0.10100000352E+00 0.  1.
</event>
<event>
 5   0  0.3184492E-06  0.2300435E+04  0.7818609E-02  0.8477750E-01
        1   -1    0    0  501    0  0.00000000000E+00  0.00000000000E+00  0.89427611318E+03  0.89427611319E+03  0.50400001928E-02 0. -1.
       -1   -1    0    0    0  501  0.00000000000E+00  0.00000000000E+00 -0.14794091291E+04  0.14794091291E+04  0.50400001928E-02 0.  1.
    10030    2    1    2    0    0  0.00000000000E+00  0.00000000000E+00 -0.58513301589E+03  0.23736852423E+04  0.23004349552E+04 0.  0.
        1    1    3    3  502    0 -0.10851187629E+04  0.66464058946E+02 -0.68016024211E+03  0.12823876776E+04  0.50400001928E-02 0.  1.
       -1    1    3    3    0  502  0.10851187629E+04 -0.66464058946E+02  0.95027226224E+02  0.10912975646E+04  0.50400001928E-02 0. -1.
</event>
<event>
 5   0  0.7348107E-06  0.2294550E+04  0.7818609E-02  0.8480073E-01
       -2   -1    0    0    0  501  0.00000000000E+00  0.00000000000E+00  0.14882517555E+04  0.14882517555E+04  0.25500000920E-02 0.  1.
        2   -1    0    0  501    0  0.00000000000E+00  0.00000000000E+00 -0.88442048024E+03  0.88442048024E+03  0.25500000920E-02 0. -1.
    10030    2    1    2    0    0  0.00000000000E+00  0.00000000000E+00  0.60383127531E+03  0.23726722358E+04  0.22945503545E+04 0.  0.
        3    1    3    3  502    0  0.53322106861E+03 -0.59987814077E+01  0.13523155452E+04  0.14536567812E+04  0.10100000352E+00 0.  1.
       -3    1    3    3    0  502 -0.53322106861E+03  0.59987814077E+01 -0.74848426989E+03  0.91901545464E+03  0.10100000352E+00 0. -1.
</event>
<event>
 5   0  0.7497344E-06  0.2299651E+04  0.7818609E-02  0.8478059E-01
       -2   -1    0    0    0  501  0.00000000000E+00  0.00000000000E+00  0.14385393902E+04  0.14385393902E+04  0.25500000920E-02 0.  1.
        2   -1    0    0  501    0  0.00000000000E+00  0.00000000000E+00 -0.91905604061E+03  0.91905604061E+03  0.25500000920E-02 0. -1.
    10030    2    1    2    0    0  0.00000000000E+00  0.00000000000E+00  0.51948334957E+03  0.23575954308E+04  0.22996506832E+04 0.  0.
        5    1    3    3  502    0 -0.99682523328E+03 -0.15209403967E+03  0.82618802037E+03  0.13036110914E+04  0.46999998093E+01 0.  1.
       -5    1    3    3    0  502  0.99682523328E+03  0.15209403967E+03 -0.30670467080E+03  0.10539843394E+04  0.46999998093E+01 0. -1.
</event>
<event>
 5   0  0.7003852E-06  0.2304347E+04  0.7818609E-02  0.8476209E-01
        2   -1    0    0  501    0  0.00000000000E+00  0.00000000000E+00  0.12749373385E+04  0.12749373385E+04  0.25500000920E-02 0. -1.
       -2   -1    0    0    0  501  0.00000000000E+00  0.00000000000E+00 -0.10412303999E+04  0.10412303999E+04  0.25500000920E-02 0.  1.
    10030    2    1    2    0    0  0.00000000000E+00  0.00000000000E+00  0.23370693865E+03  0.23161677384E+04  0.23043467750E+04 0.  0.
        2    1    3    3  502    0 -0.72097817773E+03  0.80041915613E+03 -0.29392768993E+03  0.11166350546E+04  0.25500000920E-02 0. -1.
       -2    1    3    3    0  502  0.72097817773E+03 -0.80041915613E+03  0.52763462858E+03  0.11995326838E+04  0.25500000920E-02 0.  1.
</event>
<event>
 5   0  0.7003852E-06  0.2302575E+04  0.7818609E-02  0.8476907E-01
       -2   -1    0    0    0  501  0.00000000000E+00  0.00000000000E+00  0.65967391412E+03  0.65967391413E+03  0.25500000920E-02 0.  1.
        2   -1    0    0  501    0  0.00000000000E+00  0.00000000000E+00 -0.20092690213E+04  0.20092690213E+04  0.25500000920E-02 0. -1.
    10030    2    1    2    0    0  0.00000000000E+00  0.00000000000E+00 -0.13495951072E+04  0.26689429354E+04  0.23025745241E+04 0.  0.
        2    1    3    3  502    0 -0.50203498109E+03  0.95942896129E+03 -0.22152778742E+03  0.11052681189E+04  0.25500000920E-02 0. -1.
       -2    1    3    3    0  502  0.50203498109E+03 -0.95942896129E+03 -0.11280673197E+04  0.15636748165E+04  0.25500000920E-02 0.  1.
</event>
<event>
 5   0  0.7348107E-06  0.2300658E+04  0.7818609E-02  0.8477662E-01
        2   -1    0    0  501    0  0.00000000000E+00  0.00000000000E+00  0.11644483007E+04  0.11644483007E+04  0.25500000920E-02 0.  1.
       -2   -1    0    0    0  501  0.00000000000E+00  0.00000000000E+00 -0.11363805535E+04  0.11363805535E+04  0.25500000920E-02 0. -1.
    10030    2    1    2    0    0  0.00000000000E+00  0.00000000000E+00  0.28067747215E+02  0.23008288543E+04  0.23006576491E+04 0.  0.
        3    1    3    3  502    0  0.69312603289E+03  0.81412189747E+03  0.43837457316E+03  0.11555909475E+04  0.10100000352E+00 0. -1.
       -3    1    3    3    0  502 -0.69312603289E+03 -0.81412189747E+03 -0.41030682595E+03  0.11452379067E+04  0.10100000352E+00 0.  1.
</event>
<event>
 5   0  0.3195296E-06  0.2291262E+04  0.7818609E-02  0.8481374E-01
        1   -1    0    0  501    0  0.00000000000E+00  0.00000000000E+00  0.15195395274E+04  0.15195395274E+04  0.50400001928E-02 0. -1.
       -1   -1    0    0    0  501  0.00000000000E+00  0.00000000000E+00 -0.86372890216E+03  0.86372890217E+03  0.50400001928E-02 0.  1.
    10030    2    1    2    0    0  0.00000000000E+00  0.00000000000E+00  0.65581062528E+03  0.23832684296E+04  0.22912618426E+04 0.  0.
        2    1    3    3  502    0  0.26943449928E+03 -0.80264649809E+03  0.11306693815E+04  0.14125330441E+04  0.25500000920E-02 0. -1.
       -2    1    3    3    0  502 -0.26943449928E+03  0.80264649809E+03 -0.47485875627E+03  0.97073538552E+03  0.25500000920E-02 0.  1.
</event>
<event>
 5   0  0.7242214E-06  0.2300653E+04  0.7818609E-02  0.8477664E-01
       -2   -1    0    0    0  501  0.00000000000E+00  0.00000000000E+00  0.49227260490E+03  0.49227260491E+03  0.25500000920E-02 0.  1.
        2   -1    0    0  501    0  0.00000000000E+00  0.00000000000E+00 -0.26880454413E+04  0.26880454413E+04  0.25500000920E-02 0. -1.
    10030    2    1    2    0    0  0.00000000000E+00  0.00000000000E+00 -0.21957728364E+04  0.31803180462E+04  0.23006530651E+04 0.  0.
        1    1    3    3  502    0  0.14571467926E+03 -0.77563566225E+03 -0.22547838890E+04  0.23889105957E+04  0.50400001928E-02 0. -1.
       -1    1    3    3    0  502 -0.14571467926E+03  0.77563566225E+03  0.59011052605E+02  0.79140745047E+03  0.50400001928E-02 0.  1.
</event>
<event>
 5   0  0.3238713E-06  0.2299722E+04  0.7818609E-02  0.8478031E-01
        1   -1    0    0  501    0  0.00000000000E+00  0.00000000000E+00  0.72624361133E+03  0.72624361134E+03  0.50400001928E-02 0. -1.
       -1   -1    0    0    0  501  0.00000000000E+00  0.00000000000E+00 -0.18205744204E+04  0.18205744204E+04  0.50400001928E-02 0.  1.
    10030    2    1    2    0    0  0.00000000000E+00  0.00000000000E+00 -0.10943308090E+04  0.25468180317E+04  0.22997221935E+04 0.  0.
        3    1    3    3  502    0 -0.33935700803E+03  0.53369297505E+03  0.51632247921E+03  0.81644368040E+03  0.10100000352E+00 0. -1.
       -3    1    3    3    0  502  0.33935700803E+03 -0.53369297505E+03 -0.16106532883E+04  0.17303743513E+04  0.10100000352E+00 0.  1.
</event>
<event>
 5   0  0.3238713E-06  0.2297083E+04  0.7818609E-02  0.8479072E-01
       -1   -1    0    0    0  501  0.00000000000E+00  0.00000000000E+00  0.15179457507E+04  0.15179457507E+04  0.50400001928E-02 0.  1.
        1   -1    0    0  501    0  0.00000000000E+00  0.00000000000E+00 -0.86903465390E+03  0.86903465392E+03  0.50400001928E-02 0. -1.
    10030    2    1    2    0    0  0.00000000000E+00  0.00000000000E+00  0.64891109678E+03  0.23869804046E+04  0.22970828980E+04 0.  0.
        3    1    3    3  502    0 -0.45050126160E+03  0.37147726245E+03  0.13522024388E+04  0.14728877041E+04  0.10100000352E+00 0.  1.
       -3    1    3    3    0  502  0.45050126160E+03 -0.37147726245E+03 -0.70329134200E+03  0.91409270052E+03  0.10100000352E+00 0. -1.
</event>
<event>
 5   0  0.3226427E-06  0.2298524E+04  0.7818609E-02  0.8478503E-01
        1   -1    0    0  501    0  0.00000000000E+00  0.00000000000E+00  0.19139337022E+04  0.19139337022E+04  0.50400001928E-02 0. -1.
       -1   -1    0    0    0  501  0.00000000000E+00  0.00000000000E+00 -0.69009881019E+03  0.69009881021E+03  0.50400001928E-02 0.  1.
    10030    2    1    2    0    0  0.00000000000E+00  0.00000000000E+00  0.12238348920E+04  0.26040325124E+04  0.22985241967E+04 0.  0.
        4    1    3    3  502    0 -0.51107418611E+03 -0.41510126506E+03  0.16790823972E+04  0.18035590352E+04  0.12699999809E+01 0. -1.
       -4    1    3    3    0  502  0.51107418611E+03  0.41510126506E+03 -0.45524750515E+03  0.80047347726E+03  0.12699999809E+01 0.  1.
</event>
<event>
 5   0  0.7044981E-06  0.2270137E+04  0.7818609E-02  0.8489789E-01
       -2   -1    0    0    0  501  0.00000000000E+00  0.00000000000E+00  0.98624979496E+03  0.98624979496E+03  0.25500000920E-02 0. -1.
        2   -1    0    0  501    0  0.00000000000E+00  0.00000000000E+00 -0.13063432857E+04  0.13063432857E+04  0.25500000920E-02 0.  1.
    10030    2    1    2    0    0  0.00000000000E+00  0.00000000000E+00 -0.32009349075E+03  0.22925930807E+04  0.22701372625E+04 0.  0.
        4    1    3    3  502    0  0.36443959774E+03 -0.68300506652E+03  0.67826509367E+03  0.10292508399E+04  0.12699999809E+01 0. -1.
       -4    1    3    3    0  502 -0.36443959774E+03  0.68300506652E+03 -0.99835858441E+03  0.12633422407E+04  0.12699999809E+01 0.  1.
</event>
<event>
 5   0  0.3238713E-06  0.2305513E+04  0.7818609E-02  0.8475751E-01
        1   -1    0    0  501    0  0.00000000000E+00  0.00000000000E+00  0.18122822145E+04  0.18122822145E+04  0.50400001928E-02 0. -1.
       -1   -1    0    0    0  501  0.00000000000E+00  0.00000000000E+00 -0.73324547827E+03  0.73324547829E+03  0.50400001928E-02 0.  1.
    10030    2    1    2    0    0  0.00000000000E+00  0.00000000000E+00  0.10790367362E+04  0.25455276928E+04  0.23055131656E+04 0.  0.
        3    1    3    3  502    0 -0.11320322129E+04  0.21550015190E+03  0.50620289412E+03  0.12586415800E+04  0.10100000352E+00 0.  1.
       -3    1    3    3    0  502  0.11320322129E+04 -0.21550015190E+03  0.57283384212E+03  0.12868861128E+04  0.10100000352E+00 0. -1.
</event>
<event>
 5   0  0.7497344E-06  0.2299970E+04  0.7818609E-02  0.8477933E-01
        2   -1    0    0  501    0  0.00000000000E+00  0.00000000000E+00  0.11893934949E+04  0.11893934949E+04  0.25500000920E-02 0. -1.
       -2   -1    0    0    0  501  0.00000000000E+00  0.00000000000E+00 -0.11118821155E+04  0.11118821155E+04  0.25500000920E-02 0.  1.
    10030    2    1    2    0    0  0.00000000000E+00  0.00000000000E+00  0.77511379360E+02  0.23012756104E+04  0.22999698739E+04 0.  0.
        5    1    3    3  502    0  0.86372440207E+03  0.69866969514E+03 -0.25853936435E+03  0.11406243372E+04  0.46999998093E+01 0. -1.
       -5    1    3    3    0  502 -0.86372440207E+03 -0.69866969514E+03  0.33605074371E+03  0.11606512732E+04  0.46999998093E+01 0.  1.
</event>
<event>
 5   0  0.3238713E-06  0.2300397E+04  0.7818609E-02  0.8477765E-01
        1   -1    0    0  501    0  0.00000000000E+00  0.00000000000E+00  0.19628922331E+04  0.19628922331E+04  0.50400001928E-02 0. -1.
       -1   -1    0    0    0  501  0.00000000000E+00  0.00000000000E+00 -0.67398317634E+03  0.67398317636E+03  0.50400001928E-02 0.  1.
    10030    2    1    2    0    0  0.00000000000E+00  0.00000000000E+00  0.12889090567E+04  0.26368754094E+04  0.23003967850E+04 0.  0.
        3    1    3    3  502    0  0.25815857593E+03 -0.93017233768E+02 -0.63591309620E+03  0.69259189443E+03  0.10100000352E+00 0.  1.
       -3    1    3    3    0  502 -0.25815857593E+03  0.93017233768E+02  0.19248221529E+04  0.19442835150E+04  0.10100000352E+00 0. -1.
</event>
<event>
 5   0  0.7242214E-06  0.2300014E+04  0.7818609E-02  0.8477916E-01
       -2   -1    0    0    0  501  0.00000000000E+00  0.00000000000E+00  0.11728942589E+04  0.11728942589E+04  0.25500000920E-02 0. -1.
        2   -1    0    0  501    0  0.00000000000E+00  0.00000000000E+00 -0.11275665187E+04  0.11275665187E+04  0.25500000920E-02 0.  1.
    10030    2    1    2    0    0  0.00000000000E+00  0.00000000000E+00  0.45327740279E+02  0.23004607776E+04  0.23000141707E+04 0.  0.
        1    1    3    3  502    0 -0.58294937776E+03  0.95176603353E+03  0.29989585917E+03  0.11556929030E+04  0.50400001928E-02 0. -1.
       -1    1    3    3    0  502  0.58294937776E+03 -0.95176603353E+03 -0.25456811890E+03  0.11447678746E+04  0.50400001928E-02 0.  1.
</event>
<event>
 5   0  0.3238713E-06  0.2290826E+04  0.7818609E-02  0.8481547E-01
       -1   -1    0    0    0  501  0.00000000000E+00  0.00000000000E+00  0.12698709029E+04  0.12698709029E+04  0.50400001928E-02 0.  1.
        1   -1    0    0  501    0  0.00000000000E+00  0.00000000000E+00 -0.10331530624E+04  0.10331530624E+04  0.50400001928E-02 0. -1.
    10030    2    1    2    0    0  0.00000000000E+00  0.00000000000E+00  0.23671784047E+03  0.23030239653E+04  0.22908260625E+04 0.  0.
        3    1    3    3  502    0 -0.93129429646E+03  0.43744843480E+03 -0.38761091332E+03  0.10995055389E+04  0.10100000352E+00 0.  1.
       -3    1    3    3    0  502  0.93129429646E+03 -0.43744843480E+03  0.62432875379E+03  0.12035184264E+04  0.10100000352E+00 0. -1.
</event>
<event>
 5   0  0.7497344E-06  0.2293491E+04  0.7818609E-02  0.8480492E-01
        2   -1    0    0  501    0  0.00000000000E+00  0.00000000000E+00  0.14932870509E+04  0.14932870509E+04  0.25500000920E-02 0. -1.
       -2   -1    0    0    0  501  0.00000000000E+00  0.00000000000E+00 -0.88062477174E+03  0.88062477174E+03  0.25500000920E-02 0.  1.
    10030    2    1    2    0    0  0.00000000000E+00  0.00000000000E+00  0.61266227917E+03  0.23739118226E+04  0.22934912848E+04 0.  0.
        5    1    3    3  502    0 -0.50572150071E+03  0.91184363346E+03 -0.18767827613E+03  0.10594613129E+04  0.46999998093E+01 0.  1.
       -5    1    3    3    0  502  0.50572150071E+03 -0.91184363346E+03  0.80034055530E+03  0.13144505098E+04  0.46999998093E+01 0. -1.
</event>
<event>
 5   0  0.7348107E-06  0.2303308E+04  0.7818609E-02  0.8476618E-01
        2   -1    0    0  501    0  0.00000000000E+00  0.00000000000E+00  0.29447540764E+04  0.29447540764E+04  0.25500000920E-02 0. -1.
       -2   -1    0    0    0  501  0.00000000000E+00  0.00000000000E+00 -0.45039659263E+03  0.45039659263E+03  0.25500000920E-02 0.  1.
    10030    2    1    2    0    0  0.00000000000E+00  0.00000000000E+00  0.24943574837E+04  0.33951506690E+04  0.23033082313E+04 0.  0.
        3    1    3    3  502    0  0.76324373811E+03  0.44751312872E+03  0.23338696726E+04  0.24959480490E+04  0.10100000352E+00 0. -1.
       -3    1    3    3    0  502 -0.76324373811E+03 -0.44751312872E+03  0.16048781111E+03  0.89920262003E+03  0.10100000352E+00 0.  1.
</event>
<event>
 5   0  0.7348107E-06  0.2302575E+04  0.7818609E-02  0.8476907E-01
       -2   -1    0    0    0  501  0.00000000000E+00  0.00000000000E+00  0.67556027998E+03  0.67556027998E+03  0.25500000920E-02 0.  1.
        2   -1    0    0  501    0  0.00000000000E+00  0.00000000000E+00 -0.19620200713E+04  0.19620200713E+04  0.25500000920E-02 0. -1.
    10030    2    1    2    0    0  0.00000000000E+00  0.00000000000E+00 -0.12864597913E+04  0.26375803513E+04  0.23025749314E+04 0.  0.
        3    1    3    3  502    0  0.95583753080E+03 -0.43512952921E+03 -0.10290289895E+03  0.10552497853E+04  0.10100000352E+00 0.  1.
       -3    1    3    3    0  502 -0.95583753080E+03  0.43512952921E+03 -0.11835568924E+04  0.15823305660E+04  0.10100000352E+00 0. -1.
</event>
<event>
 5   0  0.3184492E-06  0.2298177E+04  0.7818609E-02  0.8478640E-01
       -1   -1    0    0    0  501  0.00000000000E+00  0.00000000000E+00  0.71812960134E+03  0.71812960135E+03  0.50400001928E-02 0.  1.
        1   -1    0    0  501    0  0.00000000000E+00  0.00000000000E+00 -0.18386715942E+04  0.18386715943E+04  0.50400001928E-02 0. -1.
    10030    2    1    2    0    0  0.00000000000E+00  0.00000000000E+00 -0.11205419929E+04  0.25568011956E+04  0.22981771028E+04 0.  0.
        1    1    3    3  502    0 -0.47880442345E+03  0.38437475659E+03 -0.16408660731E+04  0.17519814780E+04  0.50400001928E-02 0. -1.
       -1    1    3    3    0  502  0.47880442345E+03 -0.38437475659E+03  0.52032408018E+03  0.80481971761E+03  0.50400001928E-02 0.  1.
</event>
<event>
 5   0  0.3226427E-06  0.2242277E+04  0.7818609E-02  0.8501035E-01
        1   -1    0    0  501    0  0.00000000000E+00  0.00000000000E+00  0.86507962163E+03  0.86507962164E+03  0.50400001928E-02 0.  1.
       -1   -1    0    0    0  501  0.00000000000E+00  0.00000000000E+00 -0.14529900111E+04  0.14529900111E+04  0.50400001928E-02 0. -1.
    10030    2    1    2    0    0  0.00000000000E+00  0.00000000000E+00 -0.58791038948E+03  0.23180696328E+04  0.22422774575E+04 0.  0.
        4    1    3    3  502    0 -0.15088055283E+03 -0.86492285903E+03 -0.10147260735E+04  0.13418372146E+04  0.12699999809E+01 0. -1.
       -4    1    3    3    0  502  0.15088055283E+03  0.86492285903E+03  0.42681568402E+03  0.97623241818E+03  0.12699999809E+01 0.  1.
</event>
<event>
 5   0  0.3184492E-06  0.2298026E+04  0.7818609E-02  0.8478700E-01
        1   -1    0    0  501    0  0.00000000000E+00  0.00000000000E+00  0.15000943330E+04  0.15000943330E+04  0.50400001928E-02 0. -1.
       -1   -1    0    0    0  501  0.00000000000E+00  0.00000000000E+00 -0.88009856850E+03  0.88009856852E+03  0.50400001928E-02 0.  1.
    10030    2    1    2    0    0  0.00000000000E+00  0.00000000000E+00  0.61999576447E+03  0.23801929015E+04  0.22980260008E+04 0.  0.
        1    1    3    3  502    0  0.16623652342E+03 -0.30300154357E+03 -0.82498703468E+03  0.89445409303E+03  0.50400001928E-02 0.  1.
       -1    1    3    3    0  502 -0.16623652342E+03  0.30300154357E+03  0.14449827992E+04  0.14857388085E+04  0.50400001928E-02 0. -1.
</event>
<event>
 5   0  0.2519625E-06  0.2296874E+04  0.7818609E-02  0.8479155E-01
       -3   -1    0    0    0  501  0.00000000000E+00  0.00000000000E+00  0.89145877396E+03  0.89145877968E+03  0.10100000352E+00 0.  1.
        3   -1    0    0  501    0  0.00000000000E+00  0.00000000000E+00 -0.14794932306E+04  0.14794932340E+04  0.10100000352E+00 0. -1.
    10030    2    1    2    0    0  0.00000000000E+00  0.00000000000E+00 -0.58803445664E+03  0.23709520137E+04  0.22968737295E+04 0.  0.
        1    1    3    3  502    0 -0.67859066416E+03  0.17193949864E+03  0.64576214223E+03  0.95239551923E+03  0.50400001928E-02 0.  1.
       -1    1    3    3    0  502  0.67859066416E+03 -0.17193949864E+03 -0.12337965989E+04  0.14185564945E+04  0.50400001928E-02 0. -1.
</event>
<event>
 5   0  0.3238713E-06  0.2300024E+04  0.7818609E-02  0.8477912E-01
        1   -1    0    0  501    0  0.00000000000E+00  0.00000000000E+00  0.11133116127E+04  0.11133116127E+04  0.50400001928E-02 0.  1.
       -1   -1    0    0    0  501  0.00000000000E+00  0.00000000000E+00 -0.11879218916E+04  0.11879218916E+04  0.50400001928E-02 0. -1.
    10030    2    1    2    0    0  0.00000000000E+00  0.00000000000E+00 -0.74610278911E+02  0.23012335043E+04  0.23000236841E+04 0.  0.
        3    1    3    3  502    0  0.43881574574E+03 -0.38147759704E+03 -0.10300179498E+04  0.11828023515E+04  0.10100000352E+00 0. -1.
       -3    1    3    3    0  502 -0.43881574574E+03  0.38147759704E+03  0.95540767085E+03  0.11184311528E+04  0.10100000352E+00 0.  1.
</event>
<event>
 5   0  0.3226427E-06  0.2302683E+04  0.7818609E-02  0.8476864E-01
       -1   -1    0    0    0  501  0.00000000000E+00  0.00000000000E+00  0.46150600982E+03  0.46150600984E+03  0.50400001928E-02 0.  1.
        1   -1    0    0  501    0  0.00000000000E+00  0.00000000000E+00 -0.28723072288E+04  0.28723072288E+04  0.50400001928E-02 0. -1.
    10030    2    1    2    0    0  0.00000000000E+00  0.00000000000E+00 -0.24108012190E+04  0.33338132387E+04  0.23026828251E+04 0.  0.
        4    1    3    3  502    0 -0.87449989511E+03 -0.24357518659E+03 -0.18011366560E+03  0.92548445881E+03  0.12699999809E+01 0.  1.
       -4    1    3    3    0  502  0.87449989511E+03  0.24357518659E+03 -0.22306875534E+04  0.24083287799E+04  0.12699999809E+01 0. -1.
</event>
<event>
 5   0  0.3195296E-06  0.2303538E+04  0.7818609E-02  0.8476527E-01
       -1   -1    0    0    0  501  0.00000000000E+00  0.00000000000E+00  0.74399995138E+03  0.74399995139E+03  0.50400001928E-02 0.  1.
        1   -1    0    0  501    0  0.00000000000E+00  0.00000000000E+00 -0.17830266548E+04  0.17830266548E+04  0.50400001928E-02 0. -1.
    10030    2    1    2    0    0  0.00000000000E+00  0.00000000000E+00 -0.10390267034E+04  0.25270266062E+04  0.23035379263E+04 0.  0.
        2    1    3    3  502    0 -0.72822041008E+03  0.80315172357E+03 -0.92923446275E+02  0.10881141593E+04  0.25500000920E-02 0.  1.
       -2    1    3    3    0  502  0.72822041008E+03 -0.80315172357E+03 -0.94610325716E+03  0.14389124469E+04  0.25500000920E-02 0. -1.
</event>
<event>
 5   0  0.7003852E-06  0.2299920E+04  0.7818609E-02  0.8477953E-01
       -2   -1    0    0    0  501  0.00000000000E+00  0.00000000000E+00  0.72942111912E+03  0.72942111912E+03  0.25500000920E-02 0.  1.
        2   -1    0    0  501    0  0.00000000000E+00  0.00000000000E+00 -0.18129549005E+04  0.18129549005E+04  0.25500000920E-02 0. -1.
    10030    2    1    2    0    0  0.00000000000E+00  0.00000000000E+00 -0.10835337814E+04  0.25423760196E+04  0.22999196442E+04 0.  0.
        2    1    3    3  502    0 -0.93883158850E+03  0.23173899251E+03  0.14617348964E+03  0.97799509267E+03  0.25500000920E-02 0.  1.
       -2    1    3    3    0  502  0.93883158850E+03 -0.23173899251E+03 -0.12297072710E+04  0.15643809270E+04  0.25500000920E-02 0. -1.
</event>
<event>
 5   0  0.3338758E-06  0.2310622E+04  0.7818609E-02  0.8473745E-01
        1   -1    0    0  501    0  0.00000000000E+00  0.00000000000E+00  0.11897327100E+04  0.11897327100E+04  0.50400001928E-02 0. -1.
       -1   -1    0    0    0  501  0.00000000000E+00  0.00000000000E+00 -0.11218852122E+04  0.11218852122E+04  0.50400001928E-02 0.  1.
    10030    2    1    2    0    0  0.00000000000E+00  0.00000000000E+00  0.67847497834E+02  0.23116179222E+04  0.23106220235E+04 0.  0.
        5    1    3    3  502    0  0.40146399151E+02  0.45263130717E+03  0.10965654469E+04  0.11869981899E+04  0.46999998093E+01 0. -1.
       -5    1    3    3    0  502 -0.40146399151E+02 -0.45263130717E+03 -0.10287179491E+04  0.11246197323E+04  0.46999998093E+01 0.  1.
</event>
<event>
 5   0  0.3238713E-06  0.2289549E+04  0.7818609E-02  0.8482053E-01
       -1   -1    0    0    0  501  0.00000000000E+00  0.00000000000E+00  0.67511244774E+03  0.67511244776E+03  0.50400001928E-02 0.  1.
        1   -1    0    0  501    0  0.00000000000E+00  0.00000000000E+00 -0.19411709617E+04  0.19411709617E+04  0.50400001928E-02 0. -1.
    10030    2    1    2    0    0  0.00000000000E+00  0.00000000000E+00 -0.12660585140E+04  0.26162834095E+04  0.22895490206E+04 0.  0.
        3    1    3    3  502    0  0.25509974027E+03 -0.14776651822E+03 -0.18970499770E+04  0.19198201600E+04  0.10100000352E+00 0. -1.
       -3    1    3    3    0  502 -0.25509974027E+03  0.14776651822E+03  0.63099146296E+03  0.69646324952E+03  0.10100000352E+00 0.  1.
</event>
<event>
 5   0  0.7003852E-06  0.2305852E+04  0.7818609E-02  0.8475617E-01
        2   -1    0    0  501    0  0.00000000000E+00  0.00000000000E+00  0.22331961004E+04  0.22331961004E+04  0.25500000920E-02 0. -1.
       -2   -1    0    0    0  501  0.00000000000E+00  0.00000000000E+00 -0.59521786548E+03  0.59521786549E+03  0.25500000920E-02 0.  1.
    10030    2    1    2    0    0  0.00000000000E+00  0.00000000000E+00  0.16379782349E+04  0.28284139658E+04  0.23058518739E+04 0.  0.
        2    1    3    3  502    0  0.27396740255E+03 -0.10765128827E+04  0.44032144728E+03  0.11949146836E+04  0.25500000920E-02 0.  1.
       -2    1    3    3    0  502 -0.27396740255E+03  0.10765128827E+04  0.11976567876E+04  0.16334992822E+04  0.25500000920E-02 0. -1.
</event>
<event>
 5   0  0.3195296E-06  0.2297996E+04  0.7818609E-02  0.8478712E-01
        1   -1    0    0  501    0  0.00000000000E+00  0.00000000000E+00  0.11948019095E+04  0.11948019095E+04  0.50400001928E-02 0.  1.
       -1   -1    0    0    0  501  0.00000000000E+00  0.00000000000E+00 -0.11049499883E+04  0.11049499883E+04  0.50400001928E-02 0. -1.
    10030    2    1    2    0    0  0.00000000000E+00  0.00000000000E+00  0.89851921145E+02  0.22997518978E+04  0.22979959581E+04 0.  0.
        2    1    3    3  502    0  0.13567179336E+03  0.97741399557E+03  0.63397694589E+03  0.11728903283E+04  0.25500000920E-02 0.  1.
       -2    1    3    3    0  502 -0.13567179336E+03 -0.97741399557E+03 -0.54412502474E+03  0.11268615695E+04  0.25500000920E-02 0. -1.
</event>
<event>
 5   0  0.3338758E-06  0.2298342E+04  0.7818609E-02  0.8478575E-01
        1   -1    0    0  501    0  0.00000000000E+00  0.00000000000E+00  0.19998623332E+04  0.19998623332E+04  0.50400001928E-02 0. -1.
       -1   -1    0    0    0  501  0.00000000000E+00  0.00000000000E+00 -0.66034267454E+03  0.66034267456E+03  0.50400001928E-02 0.  1.
    10030    2    1    2    0    0  0.00000000000E+00  0.00000000000E+00  0.13395196586E+04  0.26602050077E+04  0.22983423956E+04 0.  0.
        5    1    3    3  502    0  0.49514889605E+03  0.83667420658E+03 -0.39383043058E+02  0.97302069417E+03  0.46999998093E+01 0.  1.
       -5    1    3    3    0  502 -0.49514889605E+03 -0.83667420658E+03  0.13789027017E+04  0.16871843136E+04  0.46999998093E+01 0. -1.
</event>
<event>
 5   0  0.7242214E-06  0.2324617E+04  0.7818609E-02  0.8468278E-01
        2   -1    0    0  501    0  0.00000000000E+00  0.00000000000E+00  0.11239082775E+04  0.11239082775E+04  0.25500000920E-02 0.  1.
       -2   -1    0    0    0  501  0.00000000000E+00  0.00000000000E+00 -0.12020203101E+04  0.12020203101E+04  0.25500000920E-02 0. -1.
    10030    2    1    2    0    0  0.00000000000E+00  0.00000000000E+00 -0.78112032600E+02  0.23259285877E+04  0.23246165932E+04 0.  0.
        1    1    3    3  502    0 -0.15413834938E+03  0.71941420074E+03  0.86125466639E+03  0.11327290159E+04  0.50400001928E-02 0.  1.
       -1    1    3    3    0  502  0.15413834938E+03 -0.71941420074E+03 -0.93936669899E+03  0.11931995718E+04  0.50400001928E-02 0. -1.
</event>
<event>
 5   0  0.7003852E-06  0.2295423E+04  0.7818609E-02  0.8479728E-01
        2   -1    0    0  501    0  0.00000000000E+00  0.00000000000E+00  0.76855267376E+03  0.76855267377E+03  0.25500000920E-02 0. -1.
       -2   -1    0    0    0  501  0.00000000000E+00  0.00000000000E+00 -0.17139255471E+04  0.17139255471E+04  0.25500000920E-02 0.  1.
    10030    2    1    2    0    0  0.00000000000E+00  0.00000000000E+00 -0.94537287332E+03  0.24824782209E+04  0.22954233264E+04 0.  0.
        2    1    3    3  502    0 -0.34624937702E+03  0.26797648809E+03 -0.16200565030E+04  0.16781785072E+04  0.25500000920E-02 0.  1.
       -2    1    3    3    0  502  0.34624937702E+03 -0.26797648809E+03  0.67468362964E+03  0.80429971364E+03  0.25500000920E-02 0. -1.
</event>
<event>
 5   0  0.7044981E-06  0.2301210E+04  0.7818609E-02  0.8477444E-01
        2   -1    0    0  501    0  0.00000000000E+00  0.00000000000E+00  0.79495803730E+03  0.79495803731E+03  0.25500000920E-02 0.  1.
       -2   -1    0    0    0  501  0.00000000000E+00  0.00000000000E+00 -0.16653613067E+04  0.16653613067E+04  0.25500000920E-02 0. -1.
    10030    2    1    2    0    0  0.00000000000E+00  0.00000000000E+00 -0.87040326940E+03  0.24603193440E+04  0.23012104257E+04 0.  0.
        4    1    3    3  502    0  0.29775792959E+03 -0.32228635094E+03  0.70199621966E+03  0.82784574768E+03  0.12699999809E+01 0.  1.
       -4    1    3    3    0  502 -0.29775792959E+03  0.32228635094E+03 -0.15723994891E+04  0.16324735963E+04  0.12699999809E+01 0. -1.
</event>
<event>
 5   0  0.7497344E-06  0.2289614E+04  0.7818609E-02  0.8482027E-01
        2   -1    0    0  501    0  0.00000000000E+00  0.00000000000E+00  0.13627691674E+04  0.13627691674E+04  0.25500000920E-02 0.  1.
       -2   -1    0    0    0  501  0.00000000000E+00  0.00000000000E+00 -0.96170587664E+03  0.96170587664E+03  0.25500000920E-02 0. -1.
    10030    2    1    2    0    0  0.00000000000E+00  0.00000000000E+00  0.40106329072E+03  0.23244750440E+04  0.22896140433E+04 0.  0.
        5    1    3    3  502    0 -0.90167840479E+03 -0.62963460860E+03  0.52333086324E+03  0.12179330722E+04  0.46999998093E+01 0.  1.
       -5    1    3    3    0  502  0.90167840479E+03  0.62963460860E+03 -0.12226757252E+03  0.11065419718E+04  0.46999998093E+01 0. -1.
</event>
<event>
 5   0  0.7044981E-06  0.2294604E+04  0.7818609E-02  0.8480052E-01
        2   -1    0    0  501    0  0.00000000000E+00  0.00000000000E+00  0.14566554998E+04  0.14566554998E+04  0.25500000920E-02 0.  1.
       -2   -1    0    0    0  501  0.00000000000E+00  0.00000000000E+00 -0.90364684872E+03  0.90364684872E+03  0.25500000920E-02 0. -1.
    10030    2    1    2    0    0  0.00000000000E+00  0.00000000000E+00  0.55300865106E+03  0.23603023485E+04  0.22946042378E+04 0.  0.
        4    1    3    3  502    0  0.69777919668E+03  0.28131873225E+03  0.11674824613E+04  0.13889035052E+04  0.12699999809E+01 0.  1.
       -4    1    3    3    0  502 -0.69777919668E+03 -0.28131873225E+03 -0.61447381022E+03  0.97139884331E+03  0.12699999809E+01 0. -1.
</event>
<event>
 5   0  0.7242214E-06  0.2295664E+04  0.7818609E-02  0.8479633E-01
       -2   -1    0    0    0  501  0.00000000000E+00  0.00000000000E+00  0.99663014645E+03  0.99663014645E+03  0.25500000920E-02 0. -1.
        2   -1    0    0  501    0  0.00000000000E+00  0.00000000000E+00 -0.13219729081E+04  0.13219729081E+04  0.25500000920E-02 0.  1.
    10030    2    1    2    0    0  0.00000000000E+00  0.00000000000E+00 -0.32534276167E+03  0.23186030546E+04  0.22956637846E+04 0.  0.
        1    1    3    3  502    0  0.60424599185E+03 -0.39645454094E+03  0.73799535767E+03  0.10329213763E+04  0.50400001928E-02 0. -1.
       -1    1    3    3    0  502 -0.60424599185E+03  0.39645454094E+03 -0.10633381193E+04  0.12856816782E+04  0.50400001928E-02 0.  1.
</event>
<event>
 5   0  0.3195296E-06  0.2307399E+04  0.7818609E-02  0.8475009E-01
        1   -1    0    0  501    0  0.00000000000E+00  0.00000000000E+00  0.18021647409E+04  0.18021647409E+04  0.50400001928E-02 0.  1.
       -1   -1    0    0    0  501  0.00000000000E+00  0.00000000000E+00 -0.73856897236E+03  0.73856897238E+03  0.50400001928E-02 0. -1.
    10030    2    1    2    0    0  0.00000000000E+00  0.00000000000E+00  0.10635957685E+04  0.25407337133E+04  0.23073993679E+04 0.  0.
        2    1    3    3  502    0 -0.32178796071E+03  0.75294106856E+03  0.14267317530E+04  0.16450018965E+04  0.25500000920E-02 0.  1.
       -2    1    3    3    0  502  0.32178796071E+03 -0.75294106856E+03 -0.36313598448E+03  0.89573181679E+03  0.25500000920E-02 0. -1.
</event>
<event>
 5   0  0.7003852E-06  0.2301888E+04  0.7818609E-02  0.8477177E-01
        2   -1    0    0  501    0  0.00000000000E+00  0.00000000000E+00  0.12321354139E+04  0.12321354139E+04  0.25500000920E-02 0.  1.
       -2   -1    0    0    0  501  0.00000000000E+00  0.00000000000E+00 -0.10751030332E+04  0.10751030332E+04  0.25500000920E-02 0. -1.
    10030    2    1    2    0    0  0.00000000000E+00  0.00000000000E+00  0.15703238076E+03  0.23072384471E+04  0.23018883733E+04 0.  0.
        2    1    3    3  502    0 -0.79190259936E+03  0.62270730564E+03 -0.47937282417E+03  0.11156488784E+04  0.25500000920E-02 0. -1.
       -2    1    3    3    0  502  0.79190259936E+03 -0.62270730564E+03  0.63640520493E+03  0.11915895687E+04  0.25500000920E-02 0.  1.
</event>
<event>
 5   0  0.7348107E-06  0.2296354E+04  0.7818609E-02  0.8479360E-01
       -2   -1    0    0    0  501  0.00000000000E+00  0.00000000000E+00  0.10604118848E+04  0.10604118848E+04  0.25500000920E-02 0.  1.
        2   -1    0    0  501    0  0.00000000000E+00  0.00000000000E+00 -0.12432058880E+04  0.12432058880E+04  0.25500000920E-02 0. -1.
    10030    2    1    2    0    0  0.00000000000E+00  0.00000000000E+00 -0.18279400320E+03  0.23036177728E+04  0.22963538916E+04 0.  0.
        3    1    3    3  502    0 -0.40718475044E+03 -0.16217469412E+03 -0.11559844405E+04  0.12362847929E+04  0.10100000352E+00 0. -1.
       -3    1    3    3    0  502  0.40718475044E+03  0.16217469412E+03  0.97319043730E+03  0.10673329798E+04  0.10100000352E+00 0.  1.
</event>
<event>
 5   0  0.7497344E-06  0.2322803E+04  0.7818609E-02  0.8468984E-01
        2   -1    0    0  501    0  0.00000000000E+00  0.00000000000E+00  0.24836605702E+04  0.24836605702E+04  0.25500000920E-02 0.  1.
       -2   -1    0    0    0  501  0.00000000000E+00  0.00000000000E+00 -0.54309099820E+03  0.54309099821E+03  0.25500000920E-02 0. -1.
    10030    2    1    2    0    0  0.00000000000E+00  0.00000000000E+00  0.19405695720E+04  0.30267515684E+04  0.23228032188E+04 0.  0.
        5    1    3    3  502    0 -0.50234248202E+03 -0.89486105429E+03  0.26169415822E+03  0.10590704406E+04  0.46999998093E+01 0. -1.
       -5    1    3    3    0  502  0.50234248202E+03  0.89486105429E+03  0.16788754137E+04  0.19676811278E+04  0.46999998093E+01 0.  1.
</event>
<event>
 5   0  0.7242214E-06  0.2296923E+04  0.7818609E-02  0.8479135E-01
       -2   -1    0    0    0  501  0.00000000000E+00  0.00000000000E+00  0.64497063071E+03  0.64497063071E+03  0.25500000920E-02 0.  1.
        2   -1    0    0  501    0  0.00000000000E+00  0.00000000000E+00 -0.20449978616E+04  0.20449978616E+04  0.25500000920E-02 0. -1.
    10030    2    1    2    0    0  0.00000000000E+00  0.00000000000E+00 -0.14000272309E+04  0.26899684923E+04  0.22969227768E+04 0.  0.
        1    1    3    3  502    0 -0.58328791699E+03 -0.79259042028E+03 -0.13933900693E+04  0.17058605611E+04  0.50400001928E-02 0. -1.
       -1    1    3    3    0  502  0.58328791699E+03  0.79259042028E+03 -0.66371615659E+01  0.98410793126E+03  0.50400001928E-02 0.  1.
</event>
<event>
 5   0  0.3184492E-06  0.2299920E+04  0.7818609E-02  0.8477953E-01
        1   -1    0    0  501    0  0.00000000000E+00  0.00000000000E+00  0.22809592580E+04  0.22809592580E+04  0.50400001928E-02 0.  1.
       -1   -1    0    0    0  501  0.00000000000E+00  0.00000000000E+00 -0.57975978554E+03  0.57975978556E+03  0.50400001928E-02 0. -1.
    10030    2    1    2    0    0  0.00000000000E+00  0.00000000000E+00  0.17011994724E+04  0.28607190435E+04  0.22999203902E+04 0.  0.
        1    1    3    3  502    0 -0.16922431681E+03 -0.38317886796E+03 -0.48149097893E+03  0.63819783537E+03  0.50400001928E-02 0. -1.
       -1    1    3    3    0  502  0.16922431681E+03  0.38317886796E+03  0.21826904514E+04  0.22225212082E+04  0.50400001928E-02 0.  1.
</event>
<event>
 5   0  0.7003852E-06  0.2301468E+04  0.7818609E-02  0.8477342E-01
        2   -1    0    0  501    0  0.00000000000E+00  0.00000000000E+00  0.18249489776E+04  0.18249489776E+04  0.25500000920E-02 0. -1.
       -2   -1    0    0    0  501  0.00000000000E+00  0.00000000000E+00 -0.72560322782E+03  0.72560322782E+03  0.25500000920E-02 0.  1.
    10030    2    1    2    0    0  0.00000000000E+00  0.00000000000E+00  0.10993457498E+04  0.25505522055E+04  0.23014681130E+04 0.  0.
        2    1    3    3  502    0  0.79765334949E+03 -0.14493677605E+03 -0.35537138045E+03  0.88518153678E+03  0.25500000920E-02 0.  1.
       -2    1    3    3    0  502 -0.79765334949E+03  0.14493677605E+03  0.14547171303E+04  0.16653706687E+04  0.25500000920E-02 0. -1.
</event>
<event>
 5   0  0.3338758E-06  0.2296708E+04  0.7818609E-02  0.8479220E-01
       -1   -1    0    0    0  501  0.00000000000E+00  0.00000000000E+00  0.15721906823E+04  0.15721906824E+04  0.50400001928E-02 0. -1.
        1   -1    0    0  501    0  0.00000000000E+00  0.00000000000E+00 -0.83877664347E+03  0.83877664349E+03  0.50400001928E-02 0.  1.
    10030    2    1    2    0    0  0.00000000000E+00  0.00000000000E+00  0.73341403887E+03  0.24109673258E+04  0.22967079252E+04 0.  0.
        5    1    3    3  502    0 -0.58630381619E+03 -0.75253841642E+03  0.10377492967E+04  0.14096141053E+04  0.46999998093E+01 0.  1.
       -5    1    3    3    0  502  0.58630381619E+03  0.75253841642E+03 -0.30433525786E+03  0.10013532205E+04  0.46999998093E+01 0. -1.
</event>
<event>
 5   0  0.7497344E-06  0.2301133E+04  0.7818609E-02  0.8477474E-01
        2   -1    0    0  501    0  0.00000000000E+00  0.00000000000E+00  0.10759185370E+04  0.10759185371E+04  0.25500000920E-02 0. -1.
       -2   -1    0    0    0  501  0.00000000000E+00  0.00000000000E+00 -0.12303939156E+04  0.12303939156E+04  0.25500000920E-02 0.  1.
    10030    2    1    2    0    0  0.00000000000E+00  0.00000000000E+00 -0.15447537851E+03  0.23063124526E+04  0.23011333048E+04 0.  0.
        5    1    3    3  502    0 -0.15602330623E+03 -0.93369294002E+03  0.57818809940E+03  0.11092562132E+04  0.46999998093E+01 0. -1.
       -5    1    3    3    0  502  0.15602330623E+03  0.93369294002E+03 -0.73266347791E+03  0.11970562394E+04  0.46999998093E+01 0.  1.
</event>
<event>
 5   0  0.3226427E-06  0.2298741E+04  0.7818609E-02  0.8478418E-01
       -1   -1    0    0    0  501  0.00000000000E+00  0.00000000000E+00  0.78181000323E+03  0.78181000324E+03  0.50400001928E-02 0.  1.
        1   -1    0    0  501    0  0.00000000000E+00  0.00000000000E+00 -0.16897365490E+04  0.16897365490E+04  0.50400001928E-02 0. -1.
    10030    2    1    2    0    0  0.00000000000E+00  0.00000000000E+00 -0.90792654580E+03  0.24715465523E+04  0.22987413398E+04 0.  0.
        4    1    3    3  502    0 -0.70594054925E+03 -0.59370553247E+03  0.28330578464E+03  0.96493631856E+03  0.12699999809E+01 0.  1.
       -4    1    3    3    0  502  0.70594054925E+03  0.59370553247E+03 -0.11912323304E+04  0.15066102337E+04  0.12699999809E+01 0. -1.
</event>
<event>
 5   0  0.7044981E-06  0.2302807E+04  0.7818609E-02  0.8476815E-01
        2   -1    0    0  501    0  0.00000000000E+00  0.00000000000E+00  0.83658205350E+03  0.83658205350E+03  0.25500000920E-02 0. -1.
       -2   -1    0    0    0  501  0.00000000000E+00  0.00000000000E+00 -0.15846979446E+04  0.15846979446E+04  0.25500000920E-02 0.  1.
    10030    2    1    2    0    0  0.00000000000E+00  0.00000000000E+00 -0.74811589109E+03  0.24212799981E+04  0.23028068618E+04 0.  0.
        4    1    3    3  502    0  0.56787491585E+03 -0.95941558776E+03 -0.71562471334E+02  0.11171763470E+04  0.12699999809E+01 0. -1.
       -4    1    3    3    0  502 -0.56787491585E+03  0.95941558776E+03 -0.67655341976E+03  0.13041036511E+04  0.12699999809E+01 0.  1.
</event>
<event>
 5   0  0.3184492E-06  0.2304320E+04  0.7818609E-02  0.8476220E-01
        1   -1    0    0  501    0  0.00000000000E+00  0.00000000000E+00  0.19021955057E+04  0.19021955057E+04  0.50400001928E-02 0.  1.
       -1   -1    0    0    0  501  0.00000000000E+00  0.00000000000E+00 -0.69786334906E+03  0.69786334908E+03  0.50400001928E-02 0. -1.
    10030    2    1    2    0    0  0.00000000000E+00  0.00000000000E+00  0.12043321566E+04  0.26000588548E+04  0.23043198790E+04 0.  0.
        1    1    3    3  502    0  0.79063946354E+03 -0.81394646653E+03  0.37691314461E+03  0.11956935771E+04  0.50400001928E-02 0.  1.
       -1    1    3    3    0  502 -0.79063946354E+03  0.81394646653E+03  0.82741901202E+03  0.14043652777E+04  0.50400001928E-02 0. -1.
</event>
<event>
 5   0  0.7242214E-06  0.2301896E+04  0.7818609E-02  0.8477174E-01
        2   -1    0    0  501    0  0.00000000000E+00  0.00000000000E+00  0.16632076407E+04  0.16632076407E+04  0.25500000920E-02 0.  1.
       -2   -1    0    0    0  501  0.00000000000E+00  0.00000000000E+00 -0.79646208502E+03  0.79646208502E+03  0.25500000920E-02 0. -1.
    10030    2    1    2    0    0  0.00000000000E+00  0.00000000000E+00  0.86674555568E+03  0.24596697257E+04  0.23018964576E+04 0.  0.
        1    1    3    3  502    0  0.60598647219E+03 -0.48789974173E+03 -0.47294620494E+03  0.91046354965E+03  0.50400001928E-02 0. -1.
       -1    1    3    3    0  502 -0.60598647219E+03  0.48789974173E+03  0.13396917606E+04  0.15492061761E+04  0.50400001928E-02 0.  1.
</event>
<event>
 5   0  0.3226427E-06  0.2296374E+04  0.7818609E-02  0.8479352E-01
        1   -1    0    0  501    0  0.00000000000E+00  0.00000000000E+00  0.13555102443E+04  0.13555102443E+04  0.50400001928E-02 0.  1.
       -1   -1    0    0    0  501  0.00000000000E+00  0.00000000000E+00 -0.97257332563E+03  0.97257332564E+03  0.50400001928E-02 0. -1.
    10030    2    1    2    0    0  0.00000000000E+00  0.00000000000E+00  0.38293691863E+03  0.23280835699E+04  0.22963737555E+04 0.  0.
        4    1    3    3  502    0  0.11131351656E+04 -0.28104750199E+03  0.17469006555E+03  0.11612819758E+04  0.12699999809E+01 0. -1.
       -4    1    3    3    0  502 -0.11131351656E+04  0.28104750199E+03  0.20824685308E+03  0.11668015941E+04  0.12699999809E+01 0.  1.
</event>
<event>
 5   0  0.7348107E-06  0.2297926E+04  0.7818609E-02  0.8478739E-01
       -2   -1    0    0    0  501  0.00000000000E+00  0.00000000000E+00  0.14441700828E+04  0.14441700828E+04  0.25500000920E-02 0.  1.
        2   -1    0    0  501    0  0.00000000000E+00  0.00000000000E+00 -0.91410002114E+03  0.91410002114E+03  0.25500000920E-02 0. -1.
    10030    2    1    2    0    0  0.00000000000E+00  0.00000000000E+00  0.53007006161E+03  0.23582701039E+04  0.22979259372E+04 0.  0.
        3    1    3    3  502    0 -0.50565162758E+03 -0.23623013469E+03 -0.76564284234E+03  0.94746884763E+03  0.10100000352E+00 0. -1.
       -3    1    3    3    0  502  0.50565162758E+03  0.23623013469E+03  0.12957129039E+04  0.14108012563E+04  0.10100000352E+00 0.  1.
</event>
<event>
 5   0  0.3238713E-06  0.2300352E+04  0.7818609E-02  0.8477782E-01
        1   -1    0    0  501    0  0.00000000000E+00  0.00000000000E+00  0.11103697565E+04  0.11103697565E+04  0.50400001928E-02 0. -1.
       -1   -1    0    0    0  501  0.00000000000E+00  0.00000000000E+00 -0.11914092262E+04  0.11914092262E+04  0.50400001928E-02 0.  1.
    10030    2    1    2    0    0  0.00000000000E+00  0.00000000000E+00 -0.81039469726E+02  0.23017789827E+04  0.23003519491E+04 0.  0.
        3    1    3    3  502    0  0.10044534178E+04  0.49065417348E+03  0.23027071789E+03  0.11413556852E+04  0.10100000352E+00 0. -1.
       -3    1    3    3    0  502 -0.10044534178E+04 -0.49065417348E+03 -0.31131018761E+03  0.11604232976E+04  0.10100000352E+00 0.  1.
</event>
<event>
 5   0  0.7242214E-06  0.2286417E+04  0.7818609E-02  0.8483296E-01
       -2   -1    0    0    0  501  0.00000000000E+00  0.00000000000E+00  0.10533955549E+04  0.10533955549E+04  0.25500000920E-02 0.  1.
        2   -1    0    0  501    0  0.00000000000E+00  0.00000000000E+00 -0.12406791006E+04  0.12406791006E+04  0.25500000920E-02 0. -1.
    10030    2    1    2    0    0  0.00000000000E+00  0.00000000000E+00 -0.18728354574E+03  0.22940746555E+04  0.22864171532E+04 0.  0.
        1    1    3    3  502    0 -0.11323909633E+03  0.55865265879E+03 -0.10879247966E+04  0.12282085528E+04  0.50400001928E-02 0. -1.
       -1    1    3    3    0  502  0.11323909633E+03 -0.55865265879E+03  0.90064125088E+03  0.10658661027E+04  0.50400001928E-02 0.  1.
</event>
<event>
 5   0  0.3226427E-06  0.2298077E+04  0.7818609E-02  0.8478680E-01
        1   -1    0    0  501    0  0.00000000000E+00  0.00000000000E+00  0.20209022132E+04  0.20209022132E+04  0.50400001928E-02 0.  1.
       -1   -1    0    0    0  501  0.00000000000E+00  0.00000000000E+00 -0.65331684046E+03  0.65331684048E+03  0.50400001928E-02 0. -1.
    10030    2    1    2    0    0  0.00000000000E+00  0.00000000000E+00  0.13675853727E+04  0.26742190537E+04  0.22980769777E+04 0.  0.
        4    1    3    3  502    0 -0.45239648035E+03 -0.84491009436E+03 -0.53791394515E+02  0.95991185533E+03  0.12699999809E+01 0. -1.
       -4    1    3    3    0  502  0.45239648035E+03  0.84491009436E+03  0.14213767673E+04  0.17143071984E+04  0.12699999809E+01 0.  1.
</event>
<event>
 5   0  0.7348107E-06  0.2303738E+04  0.7818609E-02  0.8476449E-01
        2   -1    0    0  501    0  0.00000000000E+00  0.00000000000E+00  0.83853180575E+03  0.83853180575E+03  0.25500000920E-02 0. -1.
       -2   -1    0    0    0  501  0.00000000000E+00  0.00000000000E+00 -0.15822922695E+04  0.15822922695E+04  0.25500000920E-02 0.  1.
    10030    2    1    2    0    0  0.00000000000E+00  0.00000000000E+00 -0.74376046370E+03  0.24208240752E+04  0.23037381743E+04 0.  0.
        3    1    3    3  502    0 -0.50574257547E+03  0.51461279879E+03 -0.13154013868E+04  0.15002942058E+04  0.10100000352E+00 0.  1.
       -3    1    3    3    0  502  0.50574257547E+03 -0.51461279879E+03  0.57164092310E+03  0.92052986941E+03  0.10100000352E+00 0. -1.
</event>
<event>
 5   0  0.3226427E-06  0.2298537E+04  0.7818609E-02  0.8478498E-01
        1   -1    0    0  501    0  0.00000000000E+00  0.00000000000E+00  0.87627264594E+03  0.87627264596E+03  0.50400001928E-02 0. -1.
       -1   -1    0    0    0  501  0.00000000000E+00  0.00000000000E+00 -0.15073136675E+04  0.15073136675E+04  0.50400001928E-02 0.  1.
    10030    2    1    2    0    0  0.00000000000E+00  0.00000000000E+00 -0.63104102156E+03  0.23835863135E+04  0.22985366960E+04 0.  0.
        4    1    3    3  502    0  0.32506581236E+03 -0.99853332122E+03  0.16874875735E+03  0.10635856016E+04  0.12699999809E+01 0. -1.
       -4    1    3    3    0  502 -0.32506581236E+03  0.99853332122E+03 -0.79978977891E+03  0.13200007119E+04  0.12699999809E+01 0.  1.
</event>
<event>
 5   0  0.2519625E-06  0.2298504E+04  0.7818609E-02  0.8478511E-01
        3   -1    0    0  501    0  0.00000000000E+00  0.00000000000E+00  0.83782768991E+03  0.83782769599E+03  0.10100000352E+00 0. -1.
       -3   -1    0    0    0  501  0.00000000000E+00  0.00000000000E+00 -0.15764342770E+04  0.15764342802E+04  0.10100000352E+00 0.  1.
    10030    2    1    2    0    0  0.00000000000E+00  0.00000000000E+00 -0.73860658707E+03  0.24142619762E+04  0.22985041221E+04 0.  0.
        1    1    3    3  502    0  0.55164648066E+03  0.10072474070E+04 -0.32328925827E+03  0.11930536966E+04  0.50400001928E-02 0.  1.
       -1    1    3    3    0  502 -0.55164648066E+03 -0.10072474070E+04 -0.41531732880E+03  0.12212082796E+04  0.50400001928E-02 0. -1.
</event>
<event>
 5   0  0.3226427E-06  0.2299033E+04  0.7818609E-02  0.8478303E-01
        1   -1    0    0  501    0  0.00000000000E+00  0.00000000000E+00  0.11820927280E+04  0.11820927280E+04  0.50400001928E-02 0.  1.
       -1   -1    0    0    0  501  0.00000000000E+00  0.00000000000E+00 -0.11178379091E+04  0.11178379091E+04  0.50400001928E-02 0. -1.
    10030    2    1    2    0    0  0.00000000000E+00  0.00000000000E+00  0.64254818931E+02  0.22999306371E+04  0.22990328953E+04 0.  0.
        4    1    3    3  502    0 -0.80644557504E+03  0.79922446523E+00  0.85161231243E+03  0.11728598586E+04  0.12699999809E+01 0.  1.
       -4    1    3    3    0  502  0.80644557504E+03 -0.79922446523E+00 -0.78735749350E+03  0.11270707785E+04  0.12699999809E+01 0. -1.
</event>
<event>
 5   0  0.3338758E-06  0.2296877E+04  0.7818609E-02  0.8479153E-01
        1   -1    0    0  501    0  0.00000000000E+00  0.00000000000E+00  0.10941916238E+04  0.10941916238E+04  0.50400001928E-02 0.  1.
       -1   -1    0    0    0  501  0.00000000000E+00  0.00000000000E+00 -0.12053747576E+04  0.12053747576E+04  0.50400001928E-02 0. -1.
    10030    2    1    2    0    0  0.00000000000E+00  0.00000000000E+00 -0.11118313373E+03  0.22995663814E+04  0.22968769783E+04 0.  0.
        5    1    3    3  502    0 -0.12112297071E+03  0.18135236965E+03 -0.11844442359E+04  0.12043627751E+04  0.46999998093E+01 0. -1.
       -5    1    3    3    0  502  0.12112297071E+03 -0.18135236965E+03  0.10732611022E+04  0.10952036064E+04  0.46999998093E+01 0.  1.
</event>
<event>
 5   0  0.7003852E-06  0.2298542E+04  0.7818609E-02  0.8478496E-01
       -2   -1    0    0    0  501  0.00000000000E+00  0.00000000000E+00  0.11377905185E+04  0.11377905185E+04  0.25500000920E-02 0. -1.
        2   -1    0    0  501    0  0.00000000000E+00  0.00000000000E+00 -0.11608676233E+04  0.11608676233E+04  0.25500000920E-02 0.  1.
    10030    2    1    2    0    0  0.00000000000E+00  0.00000000000E+00 -0.23077104825E+02  0.22986581417E+04  0.22985422989E+04 0.  0.
        2    1    3    3  502    0  0.36074184583E+03  0.82596657704E+03 -0.72464440890E+03  0.11564882122E+04  0.25500000920E-02 0.  1.
       -2    1    3    3    0  502 -0.36074184583E+03 -0.82596657704E+03  0.70156730407E+03  0.11421699295E+04  0.25500000920E-02 0. -1.
</event>
<event>
 5   0  0.7044981E-06  0.2298102E+04  0.7818609E-02  0.8478670E-01
        2   -1    0    0  501    0  0.00000000000E+00  0.00000000000E+00  0.81109198812E+03  0.81109198812E+03  0.25500000920E-02 0. -1.
       -2   -1    0    0    0  501  0.00000000000E+00  0.00000000000E+00 -0.16278277052E+04  0.16278277052E+04  0.25500000920E-02 0.  1.
    10030    2    1    2    0    0  0.00000000000E+00  0.00000000000E+00 -0.81673571711E+03  0.24389196934E+04  0.22981018339E+04 0.  0.
        4    1    3    3  502    0  0.71342528120E+03  0.27946295088E+03  0.50039729981E+03  0.91513618841E+03  0.12699999809E+01 0. -1.
       -4    1    3    3    0  502 -0.71342528120E+03 -0.27946295088E+03 -0.13171330169E+04  0.15237835049E+04  0.12699999809E+01 0.  1.
</event>
<event>
 5   0  0.7348107E-06  0.2300053E+04  0.7818609E-02  0.8477900E-01
       -2   -1    0    0    0  501  0.00000000000E+00  0.00000000000E+00  0.15647712687E+04  0.15647712687E+04  0.25500000920E-02 0.  1.
        2   -1    0    0  501    0  0.00000000000E+00  0.00000000000E+00 -0.84521008922E+03  0.84521008923E+03  0.25500000920E-02 0. -1.
    10030    2    1    2    0    0  0.00000000000E+00  0.00000000000E+00  0.71956117944E+03  0.24099813579E+04  0.23000525765E+04 0.  0.
        3    1    3    3  502    0  0.12152412329E+03 -0.34196173414E+03  0.15031992435E+04  0.15463873758E+04  0.10100000352E+00 0.  1.
       -3    1    3    3    0  502 -0.12152412329E+03  0.34196173414E+03 -0.78363806410E+03  0.86359398207E+03  0.10100000352E+00 0. -1.
</event>
<event>
 5   0  0.7497344E-06  0.2297599E+04  0.7818609E-02  0.8478869E-01
        2   -1    0    0  501    0  0.00000000000E+00  0.00000000000E+00  0.79321029484E+03  0.79321029484E+03  0.25500000920E-02 0. -1.
       -2   -1    0    0    0  501  0.00000000000E+00  0.00000000000E+00 -0.16637956611E+04  0.16637956611E+04  0.25500000920E-02 0.  1.
    10030    2    1    2    0    0  0.00000000000E+00  0.00000000000E+00 -0.87058536630E+03  0.24570059560E+04  0.22975986133E+04 0.  0.
        5    1    3    3  502    0  0.20240387716E+03 -0.67857322115E+02 -0.16423881368E+04  0.16562103814E+04  0.46999998093E+01 0.  1.
       -5    1    3    3    0  502 -0.20240387716E+03  0.67857322115E+02  0.77180277051E+03  0.80079557455E+03  0.46999998093E+01 0. -1.
</event>
<event>
 5   0  0.3226427E-06  0.2299206E+04  0.7818609E-02  0.8478234E-01
       -1   -1    0    0    0  501  0.00000000000E+00  0.00000000000E+00  0.11886426281E+04  0.11886426281E+04  0.50400001928E-02 0. -1.
        1   -1    0    0  501    0  0.00000000000E+00  0.00000000000E+00 -0.11118457599E+04  0.11118457599E+04  0.50400001928E-02 0.  1.
    10030    2    1    2    0    0  0.00000000000E+00  0.00000000000E+00  0.76796868245E+02  0.23004883880E+04  0.22992061813E+04 0.  0.
        4    1    3    3  502    0  0.93382607460E+03  0.65034117786E+03  0.20161778516E+03  0.11556929218E+04  0.12699999809E+01 0.  1.
       -4    1    3    3    0  502 -0.93382607460E+03 -0.65034117786E+03 -0.12482091692E+03  0.11447954662E+04  0.12699999809E+01 0. -1.
</event>
<event>
 5   0  0.3184492E-06  0.2295632E+04  0.7818609E-02  0.8479645E-01
       -1   -1    0    0    0  501  0.00000000000E+00  0.00000000000E+00  0.80059221624E+03  0.80059221626E+03  0.50400001928E-02 0.  1.
        1   -1    0    0  501    0  0.00000000000E+00  0.00000000000E+00 -0.16456344560E+04  0.16456344560E+04  0.50400001928E-02 0. -1.
    10030    2    1    2    0    0  0.00000000000E+00  0.00000000000E+00 -0.84504223975E+03  0.24462266723E+04  0.22956324935E+04 0.  0.
        1    1    3    3  502    0 -0.53852762688E+03  0.99596630042E+03 -0.62335570967E+03  0.12924910898E+04  0.50400001928E-02 0. -1.
       -1    1    3    3    0  502  0.53852762688E+03 -0.99596630042E+03 -0.22168653008E+03  0.11537355824E+04  0.50400001928E-02 0.  1.
</event>
<event>
 5   0  0.7348107E-06  0.2299807E+04  0.7818609E-02  0.8477997E-01
        2   -1    0    0  501    0  0.00000000000E+00  0.00000000000E+00  0.14371433145E+04  0.14371433145E+04  0.25500000920E-02 0. -1.
       -2   -1    0    0    0  501  0.00000000000E+00  0.00000000000E+00 -0.92007361878E+03  0.92007361878E+03  0.25500000920E-02 0.  1.
    10030    2    1    2    0    0  0.00000000000E+00  0.00000000000E+00  0.51706969576E+03  0.23572169333E+04  0.22998066442E+04 0.  0.
        3    1    3    3  502    0 -0.81568395112E+03 -0.18505024156E+03  0.10673429214E+04  0.13560253767E+04  0.10100000352E+00 0. -1.
       -3    1    3    3    0  502  0.81568395112E+03  0.18505024156E+03 -0.55027322569E+03  0.10011915567E+04  0.10100000352E+00 0.  1.
</event>
<event>
 5   0  0.7242214E-06  0.2303348E+04  0.7818609E-02  0.8476602E-01
       -2   -1    0    0    0  501  0.00000000000E+00  0.00000000000E+00  0.85677344013E+03  0.85677344014E+03  0.25500000920E-02 0.  1.
        2   -1    0    0  501    0  0.00000000000E+00  0.00000000000E+00 -0.15480789892E+04  0.15480789892E+04  0.25500000920E-02 0. -1.
    10030    2    1    2    0    0  0.00000000000E+00  0.00000000000E+00 -0.69130554910E+03  0.24048524294E+04  0.23033479643E+04 0.  0.
        1    1    3    3  502    0  0.84314604977E+03  0.64032923134E+03  0.12757185610E+03  0.10663917499E+04  0.50400001928E-02 0. -1.
       -1    1    3    3    0  502 -0.84314604977E+03 -0.64032923134E+03 -0.81887740519E+03  0.13384606795E+04  0.50400001928E-02 0.  1.
</event>
<event>
 5   0  0.7348107E-06  0.2325282E+04  0.7818609E-02  0.8468019E-01
        2   -1    0    0  501    0  0.00000000000E+00  0.00000000000E+00  0.10899116296E+04  0.10899116296E+04  0.25500000920E-02 0.  1.
       -2   -1    0    0    0  501  0.00000000000E+00  0.00000000000E+00 -0.12402237797E+04  0.12402237797E+04  0.25500000920E-02 0. -1.
    10030    2    1    2    0    0  0.00000000000E+00  0.00000000000E+00 -0.15031215016E+03  0.23301354093E+04  0.23252821943E+04 0.  0.
        3    1    3    3  502    0 -0.54339354113E+03 -0.26815100902E+03 -0.10694733866E+04  0.12292090298E+04  0.10100000352E+00 0. -1.
       -3    1    3    3    0  502  0.54339354113E+03  0.26815100902E+03  0.91916123644E+03  0.11009263794E+04  0.10100000352E+00 0.  1.
</event>
<event>
 5   0  0.3238713E-06  0.2304652E+04  0.7818609E-02  0.8476089E-01
        1   -1    0    0  501    0  0.00000000000E+00  0.00000000000E+00  0.14698040111E+04  0.14698040112E+04  0.50400001928E-02 0. -1.
       -1   -1    0    0    0  501  0.00000000000E+00  0.00000000000E+00 -0.90342334924E+03  0.90342334926E+03  0.50400001928E-02 0.  1.
    10030    2    1    2    0    0  0.00000000000E+00  0.00000000000E+00  0.56638066190E+03  0.23732273604E+04  0.23046520453E+04 0.  0.
        3    1    3    3  502    0  0.43673407024E+03  0.30811209909E+03 -0.76806086447E+03  0.93572817390E+03  0.10100000352E+00 0.  1.
       -3    1    3    3    0  502 -0.43673407024E+03 -0.30811209909E+03  0.13344415264E+04  0.14374991865E+04  0.10100000352E+00 0. -1.
</event>
<event>
 5   0  0.7003852E-06  0.2297965E+04  0.7818609E-02  0.8478724E-01
        2   -1    0    0  501    0  0.00000000000E+00  0.00000000000E+00  0.14228386118E+04  0.14228386118E+04  0.25500000920E-02 0.  1.
       -2   -1    0    0    0  501  0.00000000000E+00  0.00000000000E+00 -0.92783586212E+03  0.92783586212E+03  0.25500000920E-02 0. -1.
    10030    2    1    2    0    0  0.00000000000E+00  0.00000000000E+00  0.49500274963E+03  0.23506744739E+04  0.22979649170E+04 0.  0.
        2    1    3    3  502    0  0.11354933849E+04 -0.18198268895E+02  0.42610370067E+03  0.12129471414E+04  0.25500000920E-02 0.  1.
       -2    1    3    3    0  502 -0.11354933849E+04  0.18198268895E+02  0.68899048965E+02  0.11377273325E+04  0.25500000920E-02 0. -1.
</event>
<event>
 5   0  0.3184492E-06  0.2300461E+04  0.7818609E-02  0.8477740E-01
        1   -1    0    0  501    0  0.00000000000E+00  0.00000000000E+00  0.18848875827E+04  0.18848875827E+04  0.50400001928E-02 0.  1.
       -1   -1    0    0    0  501  0.00000000000E+00  0.00000000000E+00 -0.70191435282E+03  0.70191435283E+03  0.50400001928E-02 0. -1.
    10030    2    1    2    0    0  0.00000000000E+00  0.00000000000E+00  0.11829732298E+04  0.25868019355E+04  0.23004605171E+04 0.  0.
        1    1    3    3  502    0  0.91831159101E+03  0.48567935194E+03  0.11467626309E+04  0.15473348516E+04  0.50400001928E-02 0.  1.
       -1    1    3    3    0  502 -0.91831159101E+03 -0.48567935194E+03  0.36210598891E+02  0.10394670839E+04  0.50400001928E-02 0. -1.
</event>
<event>
 5   0  0.7348107E-06  0.2276782E+04  0.7818609E-02  0.8487132E-01
       -2   -1    0    0    0  501  0.00000000000E+00  0.00000000000E+00  0.98726318103E+03  0.98726318103E+03  0.25500000920E-02 0. -1.
        2   -1    0    0  501    0  0.00000000000E+00  0.00000000000E+00 -0.13126531293E+04  0.13126531293E+04  0.25500000920E-02 0.  1.
    10030    2    1    2    0    0  0.00000000000E+00  0.00000000000E+00 -0.32538994830E+03  0.22999163104E+04  0.22767820309E+04 0.  0.
        3    1    3    3  502    0 -0.72276678667E+03 -0.85829586487E+03  0.31272959835E+02  0.11225157584E+04  0.10100000352E+00 0.  1.
       -3    1    3    3    0  502  0.72276678667E+03  0.85829586487E+03 -0.35666290813E+03  0.11774005520E+04  0.10100000352E+00 0. -1.
</event>
<event>
 5   0  0.7003852E-06  0.2299064E+04  0.7818609E-02  0.8478290E-01
       -2   -1    0    0    0  501  0.00000000000E+00  0.00000000000E+00  0.69966147686E+03  0.69966147686E+03  0.25500000920E-02 0.  1.
        2   -1    0    0  501    0  0.00000000000E+00  0.00000000000E+00 -0.18886624225E+04  0.18886624225E+04  0.25500000920E-02 0. -1.
    10030    2    1    2    0    0  0.00000000000E+00  0.00000000000E+00 -0.11890009457E+04  0.25883238994E+04  0.22990644531E+04 0.  0.
        2    1    3    3  502    0 -0.66431526005E+03  0.29502233735E+03 -0.15970910505E+04  0.17547229889E+04  0.25500000920E-02 0. -1.
       -2    1    3    3    0  502  0.66431526005E+03 -0.29502233735E+03  0.40809010483E+03  0.83360091047E+03  0.25500000920E-02 0.  1.
</event>
<event>
 5   0  0.3184492E-06  0.2262658E+04  0.7818609E-02  0.8492792E-01
        1   -1    0    0  501    0  0.00000000000E+00  0.00000000000E+00  0.12849613884E+04  0.12849613884E+04  0.50400001928E-02 0. -1.
       -1   -1    0    0    0  501  0.00000000000E+00  0.00000000000E+00 -0.99606556982E+03  0.99606556983E+03  0.50400001928E-02 0.  1.
    10030    2    1    2    0    0  0.00000000000E+00  0.00000000000E+00  0.28889581862E+03  0.22810269583E+04  0.22626584343E+04 0.  0.
        1    1    3    3  502    0 -0.13083097128E+03 -0.37279522313E+03  0.12131542885E+04  0.12758669011E+04  0.50400001928E-02 0. -1.
       -1    1    3    3    0  502  0.13083097128E+03  0.37279522313E+03 -0.92425846990E+03  0.10051600572E+04  0.50400001928E-02 0.  1.
</event>
<event>
 5   0  0.7497344E-06  0.2302066E+04  0.7818609E-02  0.8477107E-01
        2   -1    0    0  501    0  0.00000000000E+00  0.00000000000E+00  0.16870409614E+04  0.16870409614E+04  0.25500000920E-02 0.  1.
       -2   -1    0    0    0  501  0.00000000000E+00  0.00000000000E+00 -0.78532613768E+03  0.78532613769E+03  0.25500000920E-02 0. -1.
    10030    2    1    2    0    0  0.00000000000E+00  0.00000000000E+00  0.90171482372E+03  0.24723670991E+04  0.23020663434E+04 0.  0.
        5    1    3    3  502    0 -0.37779310107E+03 -0.10240170989E+04  0.84328794927E+03  0.13793097192E+04  0.46999998093E+01 0. -1.
       -5    1    3    3    0  502  0.37779310107E+03  0.10240170989E+04  0.58426874445E+02  0.10930573799E+04  0.46999998093E+01 0.  1.
</event>
<event>
 5   0  0.7003852E-06  0.2307148E+04  0.7818609E-02  0.8475108E-01
       -2   -1    0    0    0  501  0.00000000000E+00  0.00000000000E+00  0.84952396431E+03  0.84952396431E+03  0.25500000920E-02 0. -1.
        2   -1    0    0  501    0  0.00000000000E+00  0.00000000000E+00 -0.15664453760E+04  0.15664453760E+04  0.25500000920E-02 0.  1.
    10030    2    1    2    0    0  0.00000000000E+00  0.00000000000E+00 -0.71692141167E+03  0.24159693403E+04  0.23071479239E+04 0.  0.
        2    1    3    3  502    0 -0.42768891471E+03 -0.15993303723E+03  0.75086269232E+03  0.87880098253E+03  0.25500000920E-02 0. -1.
       -2    1    3    3    0  502  0.42768891471E+03  0.15993303723E+03 -0.14677841040E+04  0.15371683578E+04  0.25500000920E-02 0.  1.
</event>
<event>
 5   0  0.7497344E-06  0.2303870E+04  0.7818609E-02  0.8476397E-01
       -2   -1    0    0    0  501  0.00000000000E+00  0.00000000000E+00  0.13111057866E+04  0.13111057866E+04  0.25500000920E-02 0. -1.
        2   -1    0    0  501    0  0.00000000000E+00  0.00000000000E+00 -0.10120879426E+04  0.10120879426E+04  0.25500000920E-02 0.  1.
    10030    2    1    2    0    0  0.00000000000E+00  0.00000000000E+00  0.29901784400E+03  0.23231937292E+04  0.23038700988E+04 0.  0.
        5    1    3    3  502    0 -0.96444546150E+03  0.49155345987E+03 -0.24768876410E+03  0.11104736224E+04  0.46999998093E+01 0.  1.
       -5    1    3    3    0  502  0.96444546150E+03 -0.49155345987E+03  0.54670660810E+03  0.12127201068E+04  0.46999998093E+01 0. -1.
</event>
<event>
 5   0  0.3184492E-06  0.2297835E+04  0.7818609E-02  0.8478775E-01
       -1   -1    0    0    0  501  0.00000000000E+00  0.00000000000E+00  0.10846319048E+04  0.10846319048E+04  0.50400001928E-02 0. -1.
        1   -1    0    0  501    0  0.00000000000E+00  0.00000000000E+00 -0.12170128342E+04  0.12170128342E+04  0.50400001928E-02 0.  1.
    10030    2    1    2    0    0  0.00000000000E+00  0.00000000000E+00 -0.13238092932E+03  0.23016447390E+04  0.22978345881E+04 0.  0.
        1    1    3    3  502    0  0.10979214428E+04  0.97857108336E+02  0.25838918917E+03  0.11321539123E+04  0.50400001928E-02 0.  1.
       -1    1    3    3    0  502 -0.10979214428E+04 -0.97857108336E+02 -0.39077011849E+03  0.11694908267E+04  0.50400001928E-02 0. -1.
</event>
<event>
 5   0  0.7044981E-06  0.2309749E+04  0.7818609E-02  0.8474087E-01
       -2   -1    0    0    0  501  0.00000000000E+00  0.00000000000E+00  0.99604923007E+03  0.99604923007E+03  0.25500000920E-02 0.  1.
        2   -1    0    0  501    0  0.00000000000E+00  0.00000000000E+00 -0.13390252235E+04  0.13390252235E+04  0.25500000920E-02 0. -1.
    10030    2    1    2    0    0  0.00000000000E+00  0.00000000000E+00 -0.34297599346E+03  0.23350744536E+04  0.23097489413E+04 0.  0.
        4    1    3    3  502    0 -0.99172359611E+03  0.17323224318E+03 -0.74356207283E+03  0.12515635302E+04  0.12699999809E+01 0. -1.
       -4    1    3    3    0  502  0.99172359611E+03 -0.17323224318E+03  0.40058607937E+03  0.10835109234E+04  0.12699999809E+01 0.  1.
</event>
<event>
 5   0  0.7348107E-06  0.2288740E+04  0.7818609E-02  0.8482374E-01
        2   -1    0    0  501    0  0.00000000000E+00  0.00000000000E+00  0.13740071257E+04  0.13740071257E+04  0.25500000920E-02 0. -1.
       -2   -1    0    0    0  501  0.00000000000E+00  0.00000000000E+00 -0.95311240196E+03  0.95311240196E+03  0.25500000920E-02 0.  1.
    10030    2    1    2    0    0  0.00000000000E+00  0.00000000000E+00  0.42089472379E+03  0.23271195277E+04  0.22887404675E+04 0.  0.
        3    1    3    3  502    0 -0.14976928527E+03  0.29504219364E+02 -0.94271436151E+03  0.95499304467E+03  0.10100000352E+00 0.  1.
       -3    1    3    3    0  502  0.14976928527E+03 -0.29504219364E+02  0.13636090853E+04  0.13721264830E+04  0.10100000352E+00 0. -1.
</event>
<event>
 5   0  0.7497344E-06  0.2301422E+04  0.7818609E-02  0.8477361E-01
        2   -1    0    0  501    0  0.00000000000E+00  0.00000000000E+00  0.80894013484E+03  0.80894013484E+03  0.25500000920E-02 0.  1.
       -2   -1    0    0    0  501  0.00000000000E+00  0.00000000000E+00 -0.16368771854E+04  0.16368771854E+04  0.25500000920E-02 0. -1.
    10030    2    1    2    0    0  0.00000000000E+00  0.00000000000E+00 -0.82793705056E+03  0.24458173202E+04  0.23014218658E+04 0.  0.
        5    1    3    3  502    0  0.24718179582E+03 -0.10885437579E+04 -0.71094204685E+03  0.13234375833E+04  0.46999998093E+01 0. -1.
       -5    1    3    3    0  502 -0.24718179582E+03  0.10885437579E+04 -0.11699500371E+03  0.11223797369E+04  0.46999998093E+01 0.  1.
</event>
<event>
 5   0  0.7348107E-06  0.2301915E+04  0.7818609E-02  0.8477166E-01
        2   -1    0    0  501    0  0.00000000000E+00  0.00000000000E+00  0.17303220689E+04  0.17303220689E+04  0.25500000920E-02 0. -1.
       -2   -1    0    0    0  501  0.00000000000E+00  0.00000000000E+00 -0.76558211305E+03  0.76558211305E+03  0.25500000920E-02 0.  1.
    10030    2    1    2    0    0  0.00000000000E+00  0.00000000000E+00  0.96473995585E+03  0.24959041820E+04  0.23019153988E+04 0.  0.
        3    1    3    3  502    0 -0.35538126661E+03  0.10537550753E+04  0.16070805300E+03  0.11236203504E+04  0.10100000352E+00 0.  1.
       -3    1    3    3    0  502  0.35538126661E+03 -0.10537550753E+04  0.80403190285E+03  0.13722838316E+04  0.10100000352E+00 0. -1.
</event>
<event>
 5   0  0.3238713E-06  0.2303029E+04  0.7818609E-02  0.8476728E-01
        1   -1    0    0  501    0  0.00000000000E+00  0.00000000000E+00  0.76347610099E+03  0.76347610101E+03  0.50400001928E-02 0. -1.
       -1   -1    0    0    0  501  0.00000000000E+00  0.00000000000E+00 -0.17367735109E+04  0.17367735109E+04  0.50400001928E-02 0.  1.
    10030    2    1    2    0    0  0.00000000000E+00  0.00000000000E+00 -0.97329740992E+03  0.25002496119E+04  0.23030285004E+04 0.  0.
        3    1    3    3  502    0 -0.10027847968E+04  0.47649927853E+03 -0.15494103335E+03  0.11209976116E+04  0.10100000352E+00 0. -1.
       -3    1    3    3    0  502  0.10027847968E+04 -0.47649927853E+03 -0.81835637657E+03  0.13792520003E+04  0.10100000352E+00 0.  1.
</event>
<event>
 5   0  0.3238713E-06  0.2301546E+04  0.7818609E-02  0.8477312E-01
       -1   -1    0    0    0  501  0.00000000000E+00  0.00000000000E+00  0.17230678274E+04  0.17230678274E+04  0.50400001928E-02 0. -1.
        1   -1    0    0  501    0  0.00000000000E+00  0.00000000000E+00 -0.76855849033E+03  0.76855849034E+03  0.50400001928E-02 0.  1.
    10030    2    1    2    0    0  0.00000000000E+00  0.00000000000E+00  0.95450933703E+03  0.24916263177E+04  0.23015459223E+04 0.  0.
        3    1    3    3  502    0  0.34463429570E+03  0.79616275188E+02 -0.70824946253E+03  0.79166208727E+03  0.10100000352E+00 0.  1.
       -3    1    3    3    0  502 -0.34463429570E+03 -0.79616275188E+02  0.16627587996E+04  0.16999642304E+04  0.10100000352E+00 0. -1.
</event>
<event>
 5   0  0.7044981E-06  0.2298615E+04  0.7818609E-02  0.8478467E-01
        2   -1    0    0  501    0  0.00000000000E+00  0.00000000000E+00  0.22087485398E+04  0.22087485398E+04  0.25500000920E-02 0. -1.
       -2   -1    0    0    0  501  0.00000000000E+00  0.00000000000E+00 -0.59803455396E+03  0.59803455396E+03  0.25500000920E-02 0.  1.
    10030    2    1    2    0    0  0.00000000000E+00  0.00000000000E+00  0.16107139859E+04  0.28067830938E+04  0.22986151899E+04 0.  0.
        4    1    3    3  502    0  0.75467042334E+03 -0.42398292682E+03 -0.11784192416E+03  0.87360019580E+03  0.12699999809E+01 0.  1.
       -4    1    3    3    0  502 -0.75467042334E+03  0.42398292682E+03  0.17285559100E+04  0.19331828980E+04  0.12699999809E+01 0. -1.
</event>
<event>
 5   0  0.3338758E-06  0.2301053E+04  0.7818609E-02  0.8477506E-01
        1   -1    0    0  501    0  0.00000000000E+00  0.00000000000E+00  0.17724194241E+04  0.17724194241E+04  0.50400001928E-02 0. -1.
       -1   -1    0    0    0  501  0.00000000000E+00  0.00000000000E+00 -0.74683866756E+03  0.74683866757E+03  0.50400001928E-02 0.  1.
    10030    2    1    2    0    0  0.00000000000E+00  0.00000000000E+00  0.10255807566E+04  0.25192580917E+04  0.23010531164E+04 0.  0.
        5    1    3    3  502    0  0.40269009945E+03  0.13759147843E+03 -0.65749788816E+03  0.78320897216E+03  0.46999998093E+01 0.  1.
       -5    1    3    3    0  502 -0.40269009945E+03 -0.13759147843E+03  0.16830786447E+04  0.17360491195E+04  0.46999998093E+01 0. -1.
</event>
<event>
 5   0  0.3238713E-06  0.2299875E+04  0.7818609E-02  0.8477970E-01
        1   -1    0    0  501    0  0.00000000000E+00  0.00000000000E+00  0.17013470167E+04  0.17013470167E+04  0.50400001928E-02 0. -1.
       -1   -1    0    0    0  501  0.00000000000E+00  0.00000000000E+00 -0.77724107178E+03  0.77724107180E+03  0.50400001928E-02 0.  1.
    10030    2    1    2    0    0  0.00000000000E+00  0.00000000000E+00  0.92410594493E+03  0.24785880885E+04  0.22998754564E+04 0.  0.
        3    1    3    3  502    0 -0.15157204918E+03  0.95385266951E+03 -0.21058347987E+03  0.98851121057E+03  0.10100000352E+00 0.  1.
       -3    1    3    3    0  502  0.15157204918E+03 -0.95385266951E+03  0.11346894248E+04  0.14900768779E+04  0.10100000352E+00 0. -1.
</event>
<event>
 5   0  0.2519625E-06  0.2301037E+04  0.7818609E-02  0.8477512E-01
        3   -1    0    0  501    0  0.00000000000E+00  0.00000000000E+00  0.18629663541E+04  0.18629663569E+04  0.10100000352E+00 0.  1.
       -3   -1    0    0    0  501  0.00000000000E+00  0.00000000000E+00 -0.71052965746E+03  0.71052966464E+03  0.10100000352E+00 0. -1.
    10030    2    1    2    0    0  0.00000000000E+00  0.00000000000E+00  0.11524366967E+04  0.25734960215E+04  0.23010370342E+04 0.  0.
        5    1    3    3  502    0  0.55779110970E+03  0.79849775360E+03  0.12610462806E+04  0.15934206590E+04  0.46999998093E+01 0.  1.
       -5    1    3    3    0  502 -0.55779110970E+03 -0.79849775360E+03 -0.10860958392E+03  0.98007536256E+03  0.46999998093E+01 0. -1.
</event>
<event>
 5   0  0.3238713E-06  0.2305662E+04  0.7818609E-02  0.8475692E-01
        1   -1    0    0  501    0  0.00000000000E+00  0.00000000000E+00  0.15025253744E+04  0.15025253744E+04  0.50400001928E-02 0.  1.
       -1   -1    0    0    0  501  0.00000000000E+00  0.00000000000E+00 -0.88452400385E+03  0.88452400386E+03  0.50400001928E-02 0. -1.
    10030    2    1    2    0    0  0.00000000000E+00  0.00000000000E+00  0.61800137051E+03  0.23870493782E+04  0.23056623864E+04 0.  0.
        3    1    3    3  502    0  0.40252260080E+03 -0.60174196902E+03  0.12378326798E+04  0.14339970693E+04  0.10100000352E+00 0.  1.
       -3    1    3    3    0  502 -0.40252260080E+03  0.60174196902E+03 -0.61983130925E+03  0.95305230894E+03  0.10100000352E+00 0. -1.
</event>
<event>
 5   0  0.7242214E-06  0.2281066E+04  0.7818609E-02  0.8485424E-01
       -2   -1    0    0    0  501  0.00000000000E+00  0.00000000000E+00  0.91249826582E+03  0.91249826582E+03  0.25500000920E-02 0.  1.
        2   -1    0    0  501    0  0.00000000000E+00  0.00000000000E+00 -0.14255536790E+04  0.14255536790E+04  0.25500000920E-02 0. -1.
    10030    2    1    2    0    0  0.00000000000E+00  0.00000000000E+00 -0.51305541320E+03  0.23380519448E+04  0.22810657684E+04 0.  0.
        1    1    3    3  502    0  0.20295502891E+03  0.27288418127E+03 -0.13723746042E+04  0.14138842154E+04  0.50400001928E-02 0. -1.
       -1    1    3    3    0  502 -0.20295502891E+03 -0.27288418127E+03  0.85931919101E+03  0.92416772948E+03  0.50400001928E-02 0.  1.
</event>
<event>
 5   0  0.3195296E-06  0.2304393E+04  0.7818609E-02  0.8476191E-01
       -1   -1    0    0    0  501  0.00000000000E+00  0.00000000000E+00  0.16004203682E+04  0.16004203682E+04  0.50400001928E-02 0.  1.
        1   -1    0    0  501    0  0.00000000000E+00  0.00000000000E+00 -0.82950470228E+03  0.82950470229E+03  0.50400001928E-02 0. -1.
    10030    2    1    2    0    0  0.00000000000E+00  0.00000000000E+00  0.77091566589E+03  0.24299250705E+04  0.23043925196E+04 0.  0.
        2    1    3    3  502    0  0.37992261902E+03  0.35478089848E+03  0.14697464378E+04  0.15589628841E+04  0.25500000920E-02 0.  1.
       -2    1    3    3    0  502 -0.37992261902E+03 -0.35478089848E+03 -0.69883077192E+03  0.87096218641E+03  0.25500000920E-02 0. -1.
</event>
<event>
 5   0  0.3238713E-06  0.2298032E+04  0.7818609E-02  0.8478697E-01
        1   -1    0    0  501    0  0.00000000000E+00  0.00000000000E+00  0.12669068585E+04  0.12669068585E+04  0.50400001928E-02 0. -1.
       -1   -1    0    0    0  501  0.00000000000E+00  0.00000000000E+00 -0.10420953879E+04  0.10420953879E+04  0.50400001928E-02 0.  1.
    10030    2    1    2    0    0  0.00000000000E+00  0.00000000000E+00  0.22481147063E+03  0.23090022464E+04  0.22980320225E+04 0.  0.
        3    1    3    3  502    0  0.15862942703E+03  0.10985696602E+04 -0.18602930483E+03  0.11254445814E+04  0.10100000352E+00 0.  1.
       -3    1    3    3    0  502 -0.15862942703E+03 -0.10985696602E+04  0.41084077546E+03  0.11835576650E+04  0.10100000352E+00 0. -1.
</event>
<event>
 5   0  0.3195296E-06  0.2300319E+04  0.7818609E-02  0.8477796E-01
        1   -1    0    0  501    0  0.00000000000E+00  0.00000000000E+00  0.12086146465E+04  0.12086146465E+04  0.50400001928E-02 0.  1.
       -1   -1    0    0    0  501  0.00000000000E+00  0.00000000000E+00 -0.10945311446E+04  0.10945311446E+04  0.50400001928E-02 0. -1.
    10030    2    1    2    0    0  0.00000000000E+00  0.00000000000E+00  0.11408350186E+03  0.23031457911E+04  0.23003185626E+04 0.  0.
        2    1    3    3  502    0 -0.25373725976E+03 -0.54897352690E+03  0.10365650956E+04  0.12000923830E+04  0.25500000920E-02 0.  1.
       -2    1    3    3    0  502  0.25373725976E+03  0.54897352690E+03 -0.92248159377E+03  0.11030534081E+04  0.25500000920E-02 0. -1.
</event>
<event>
 5   0  0.3238713E-06  0.2299262E+04  0.7818609E-02  0.8478212E-01
       -1   -1    0    0    0  501  0.00000000000E+00  0.00000000000E+00  0.65444136218E+03  0.65444136220E+03  0.50400001928E-02 0. -1.
        1   -1    0    0  501    0  0.00000000000E+00  0.00000000000E+00 -0.20195106672E+04  0.20195106672E+04  0.50400001928E-02 0.  1.
    10030    2    1    2    0    0  0.00000000000E+00  0.00000000000E+00 -0.13650693050E+04  0.26739520294E+04  0.22992618920E+04 0.  0.
        3    1    3    3  502    0  0.32415378934E+03  0.20736764818E+03 -0.19423893572E+04  0.19801397541E+04  0.10100000352E+00 0.  1.
       -3    1    3    3    0  502 -0.32415378934E+03 -0.20736764818E+03  0.57732005212E+03  0.69381227536E+03  0.10100000352E+00 0. -1.
</event>
<event>
 5   0  0.7497344E-06  0.2297428E+04  0.7818609E-02  0.8478936E-01
       -2   -1    0    0    0  501  0.00000000000E+00  0.00000000000E+00  0.15857411550E+04  0.15857411550E+04  0.25500000920E-02 0. -1.
        2   -1    0    0  501    0  0.00000000000E+00  0.00000000000E+00 -0.83213061439E+03  0.83213061439E+03  0.25500000920E-02 0.  1.
    10030    2    1    2    0    0  0.00000000000E+00  0.00000000000E+00  0.75361054060E+03  0.24178717694E+04  0.22974279197E+04 0.  0.
        5    1    3    3  502    0 -0.98608252075E+02 -0.44060634782E+03  0.14884297580E+04  0.15554108060E+04  0.46999998093E+01 0. -1.
       -5    1    3    3    0  502  0.98608252075E+02  0.44060634782E+03 -0.73481921736E+03  0.86246096336E+03  0.46999998093E+01 0.  1.
</event>
<event>
 5   0  0.7242214E-06  0.2300669E+04  0.7818609E-02  0.8477657E-01
        2   -1    0    0  501    0  0.00000000000E+00  0.00000000000E+00  0.54906400751E+03  0.54906400751E+03  0.25500000920E-02 0.  1.
       -2   -1    0    0    0  501  0.00000000000E+00  0.00000000000E+00 -0.24100456817E+04  0.24100456817E+04  0.25500000920E-02 0. -1.
    10030    2    1    2    0    0  0.00000000000E+00  0.00000000000E+00 -0.18609816742E+04  0.29591096892E+04  0.23006688943E+04 0.  0.
        1    1    3    3  502    0  0.86487980645E+03  0.58082121433E+03 -0.30315047376E+03  0.10850210009E+04  0.50400001928E-02 0.  1.
       -1    1    3    3    0  502 -0.86487980645E+03 -0.58082121433E+03 -0.15578312004E+04  0.18740886883E+04  0.50400001928E-02 0. -1.
</event>
<event>
 5   0  0.3184492E-06  0.2302721E+04  0.7818609E-02  0.8476849E-01
       -1   -1    0    0    0  501  0.00000000000E+00  0.00000000000E+00  0.97563150880E+03  0.97563150882E+03  0.50400001928E-02 0. -1.
        1   -1    0    0  501    0  0.00000000000E+00  0.00000000000E+00 -0.13587419829E+04  0.13587419830E+04  0.50400001928E-02 0.  1.
    10030    2    1    2    0    0  0.00000000000E+00  0.00000000000E+00 -0.38311047415E+03  0.23343734918E+04  0.23027214256E+04 0.  0.
        1    1    3    3  502    0  0.69765088933E+03 -0.76132746869E+03  0.32465449800E+03  0.10824679307E+04  0.50400001928E-02 0.  1.
       -1    1    3    3    0  502 -0.69765088933E+03  0.76132746869E+03 -0.70776497214E+03  0.12519055610E+04  0.50400001928E-02 0. -1.
</event>
<event>
 5   0  0.7003852E-06  0.2299530E+04  0.7818609E-02  0.8478107E-01
       -2   -1    0    0    0  501  0.00000000000E+00  0.00000000000E+00  0.73611635378E+03  0.73611635378E+03  0.25500000920E-02 0. -1.
        2   -1    0    0  501    0  0.00000000000E+00  0.00000000000E+00 -0.17958564186E+04  0.17958564186E+04  0.25500000920E-02 0.  1.
    10030    2    1    2    0    0  0.00000000000E+00  0.00000000000E+00 -0.10597400648E+04  0.25319727723E+04  0.22995297595E+04 0.  0.
        2    1    3    3  502    0 -0.32199782438E+03  0.92902643588E+03 -0.11860882147E+04  0.15406420644E+04  0.25500000920E-02 0.  1.
       -2    1    3    3    0  502  0.32199782438E+03 -0.92902643588E+03  0.12634814997E+03  0.99133070793E+03  0.25500000920E-02 0. -1.
</event>
<event>
 5   0  0.7497344E-06  0.2293069E+04  0.7818609E-02  0.8480659E-01
        2   -1    0    0  501    0  0.00000000000E+00  0.00000000000E+00  0.16106681162E+04  0.16106681162E+04  0.25500000920E-02 0.  1.
       -2   -1    0    0    0  501  0.00000000000E+00  0.00000000000E+00 -0.81614677794E+03  0.81614677794E+03  0.25500000920E-02 0. -1.
    10030    2    1    2    0    0  0.00000000000E+00  0.00000000000E+00  0.79452133823E+03  0.24268148941E+04  0.22930692038E+04 0.  0.
        5    1    3    3  502    0 -0.66336420060E+03  0.64116270807E+01  0.13869094716E+04  0.15374111825E+04  0.46999998093E+01 0.  1.
       -5    1    3    3    0  502  0.66336420060E+03 -0.64116270807E+01 -0.59238813341E+03  0.88940371159E+03  0.46999998093E+01 0. -1.
</event>
<event>
 5   0  0.3195296E-06  0.2300897E+04  0.7818609E-02  0.8477567E-01
       -1   -1    0    0    0  501  0.00000000000E+00  0.00000000000E+00  0.12062928070E+04  0.12062928070E+04  0.50400001928E-02 0. -1.
        1   -1    0    0  501    0  0.00000000000E+00  0.00000000000E+00 -0.10971896755E+04  0.10971896755E+04  0.50400001928E-02 0.  1.
    10030    2    1    2    0    0  0.00000000000E+00  0.00000000000E+00  0.10910313145E+03  0.23034824825E+04  0.23008972280E+04 0.  0.
        2    1    3    3  502    0 -0.59275573275E+03 -0.63038211467E+03 -0.70445003080E+03  0.11157915644E+04  0.25500000920E-02 0.  1.
       -2    1    3    3    0  502  0.59275573275E+03  0.63038211467E+03  0.81355316225E+03  0.11876909181E+04  0.25500000920E-02 0. -1.
</event>
<event>
 5   0  0.7003852E-06  0.2301390E+04  0.7818609E-02  0.8477373E-01
       -2   -1    0    0    0  501  0.00000000000E+00  0.00000000000E+00  0.73530735545E+03  0.73530735546E+03  0.25500000920E-02 0. -1.
        2   -1    0    0  501    0  0.00000000000E+00  0.00000000000E+00 -0.18007422907E+04  0.18007422907E+04  0.25500000920E-02 0.  1.
    10030    2    1    2    0    0  0.00000000000E+00  0.00000000000E+00 -0.10654349352E+04  0.25360496461E+04  0.23013900596E+04 0.  0.
        2    1    3    3  502    0 -0.15639028094E+03  0.84080705829E+03  0.31564090015E+03  0.91161593179E+03  0.25500000920E-02 0. -1.
       -2    1    3    3    0  502  0.15639028094E+03 -0.84080705829E+03 -0.13810758354E+04  0.16244337143E+04  0.25500000920E-02 0.  1.
</event>
<event>
 5   0  0.7348107E-06  0.2298811E+04  0.7818609E-02  0.8478390E-01
        2   -1    0    0  501    0  0.00000000000E+00  0.00000000000E+00  0.11566314008E+04  0.11566314008E+04  0.25500000920E-02 0. -1.
       -2   -1    0    0    0  501  0.00000000000E+00  0.00000000000E+00 -0.11422244731E+04  0.11422244731E+04  0.25500000920E-02 0.  1.
    10030    2    1    2    0    0  0.00000000000E+00  0.00000000000E+00  0.14406927760E+02  0.22988558739E+04  0.22988107293E+04 0.  0.
        3    1    3    3  502    0  0.43297301651E+03 -0.10120372543E+04  0.33803868537E+03  0.11515012810E+04  0.10100000352E+00 0. -1.
       -3    1    3    3    0  502 -0.43297301651E+03  0.10120372543E+04 -0.32363175761E+03  0.11473545929E+04  0.10100000352E+00 0.  1.
</event>
<event>
 5   0  0.2519625E-06  0.2302891E+04  0.7818609E-02  0.8476782E-01
       -3   -1    0    0    0  501  0.00000000000E+00  0.00000000000E+00  0.10298114032E+04  0.10298114082E+04  0.10100000352E+00 0. -1.
        3   -1    0    0  501    0  0.00000000000E+00  0.00000000000E+00 -0.12874462089E+04  0.12874462128E+04  0.10100000352E+00 0.  1.
    10030    2    1    2    0    0  0.00000000000E+00  0.00000000000E+00 -0.25763480564E+03  0.23172576210E+04  0.23028910502E+04 0.  0.
        1    1    3    3  502    0  0.86673956801E+03  0.34032553516E+03  0.55273211393E+03  0.10828535166E+04  0.50400001928E-02 0. -1.
       -1    1    3    3    0  502 -0.86673956801E+03 -0.34032553516E+03 -0.81036691957E+03  0.12344041044E+04  0.50400001928E-02 0.  1.
</event>
<event>
 5   0  0.3338758E-06  0.2297505E+04  0.7818609E-02  0.8478905E-01
        1   -1    0    0  501    0  0.00000000000E+00  0.00000000000E+00  0.87604901758E+03  0.87604901759E+03  0.50400001928E-02 0.  1.
       -1   -1    0    0    0  501  0.00000000000E+00  0.00000000000E+00 -0.15063458473E+04  0.15063458473E+04  0.50400001928E-02 0. -1.
    10030    2    1    2    0    0  0.00000000000E+00  0.00000000000E+00 -0.63029682970E+03  0.23823948649E+04  0.22975054295E+04 0.  0.
        5    1    3    3  502    0  0.77948556486E+03  0.53907514933E+03 -0.98829570927E+03  0.13692882317E+04  0.46999998093E+01 0. -1.
       -5    1    3    3    0  502 -0.77948556486E+03 -0.53907514933E+03  0.35799887957E+03  0.10131066332E+04  0.46999998093E+01 0.  1.
</event>
<event>
 5   0  0.7242214E-06  0.2303630E+04  0.7818609E-02  0.8476491E-01
        2   -1    0    0  501    0  0.00000000000E+00  0.00000000000E+00  0.95668380076E+03  0.95668380076E+03  0.25500000920E-02 0.  1.
       -2   -1    0    0    0  501  0.00000000000E+00  0.00000000000E+00 -0.13867461226E+04  0.13867461226E+04  0.25500000920E-02 0. -1.
    10030    2    1    2    0    0  0.00000000000E+00  0.00000000000E+00 -0.43006232187E+03  0.23434299234E+04  0.23036297891E+04 0.  0.
        1    1    3    3  502    0 -0.39064855721E+02 -0.81852207162E+03  0.60838107507E+03  0.10206037317E+04  0.50400001928E-02 0.  1.
       -1    1    3    3    0  502  0.39064855721E+02  0.81852207162E+03 -0.10384433969E+04  0.13228261917E+04  0.50400001928E-02 0. -1.
</event>
<event>
 5   0  0.3226427E-06  0.2322820E+04  0.7818609E-02  0.8468977E-01
       -1   -1    0    0    0  501  0.00000000000E+00  0.00000000000E+00  0.53586844242E+03  0.53586844245E+03  0.50400001928E-02 0. -1.
        1   -1    0    0  501    0  0.00000000000E+00  0.00000000000E+00 -0.25171732923E+04  0.25171732923E+04  0.50400001928E-02 0.  1.
    10030    2    1    2    0    0  0.00000000000E+00  0.00000000000E+00 -0.19813048499E+04  0.30530417347E+04  0.23228204679E+04 0.  0.
        4    1    3    3  502    0 -0.51857038719E+02 -0.67394228321E+03 -0.22320069030E+04  0.23321114427E+04  0.12699999809E+01 0.  1.
       -4    1    3    3    0  502  0.51857038719E+02  0.67394228321E+03  0.25070205312E+03  0.72093029198E+03  0.12699999809E+01 0. -1.
</event>
<event>
 5   0  0.3195296E-06  0.2300485E+04  0.7818609E-02  0.8477730E-01
        1   -1    0    0  501    0  0.00000000000E+00  0.00000000000E+00  0.97096487314E+03  0.97096487315E+03  0.50400001928E-02 0.  1.
       -1   -1    0    0    0  501  0.00000000000E+00  0.00000000000E+00 -0.13626219762E+04  0.13626219762E+04  0.50400001928E-02 0. -1.
    10030    2    1    2    0    0  0.00000000000E+00  0.00000000000E+00 -0.39165710303E+03  0.23335868493E+04  0.23004852308E+04 0.  0.
        2    1    3    3  502    0 -0.99915571077E+03 -0.50888315100E+03 -0.45600276891E+03  0.12104597147E+04  0.25500000920E-02 0. -1.
       -2    1    3    3    0  502  0.99915571077E+03  0.50888315100E+03  0.64345665878E+02  0.11231271346E+04  0.25500000920E-02 0.  1.
</event>
<event>
 5   0  0.7044981E-06  0.2302832E+04  0.7818609E-02  0.8476805E-01
        2   -1    0    0  501    0  0.00000000000E+00  0.00000000000E+00  0.22838548637E+04  0.22838548637E+04  0.25500000920E-02 0. -1.
       -2   -1    0    0    0  501  0.00000000000E+00  0.00000000000E+00 -0.58049155682E+03  0.58049155683E+03  0.25500000920E-02 0.  1.
    10030    2    1    2    0    0  0.00000000000E+00  0.00000000000E+00  0.17033633069E+04  0.28643464206E+04  0.23028317050E+04 0.  0.
        4    1    3    3  502    0  0.71616088495E+03  0.70197069014E+03  0.15554201791E+04  0.18506709079E+04  0.12699999809E+01 0. -1.
       -4    1    3    3    0  502 -0.71616088495E+03 -0.70197069014E+03  0.14794312779E+03  0.10136755126E+04  0.12699999809E+01 0.  1.
</event>
<event>
 5   0  0.7003852E-06  0.2307094E+04  0.7818609E-02  0.8475129E-01
       -2   -1    0    0    0  501  0.00000000000E+00  0.00000000000E+00  0.75695948835E+03  0.75695948836E+03  0.25500000920E-02 0. -1.
        2   -1    0    0  501    0  0.00000000000E+00  0.00000000000E+00 -0.17579160002E+04  0.17579160002E+04  0.25500000920E-02 0.  1.
    10030    2    1    2    0    0  0.00000000000E+00  0.00000000000E+00 -0.10009565119E+04  0.25148754886E+04  0.23070944463E+04 0.  0.
        2    1    3    3  502    0  0.21051560420E+03  0.11249306605E+04 -0.34294495915E+03  0.11947372329E+04  0.25500000920E-02 0. -1.
       -2    1    3    3    0  502 -0.21051560420E+03 -0.11249306605E+04 -0.65801155271E+03  0.13201382557E+04  0.25500000920E-02 0.  1.
</event>
<event>
 5   0  0.7348107E-06  0.2306913E+04  0.7818609E-02  0.8475200E-01
       -2   -1    0    0    0  501  0.00000000000E+00  0.00000000000E+00  0.57963324289E+03  0.57963324290E+03  0.25500000920E-02 0. -1.
        2   -1    0    0  501    0  0.00000000000E+00  0.00000000000E+00 -0.22953515734E+04  0.22953515734E+04  0.25500000920E-02 0.  1.
    10030    2    1    2    0    0  0.00000000000E+00  0.00000000000E+00 -0.17157183305E+04  0.28749848163E+04  0.23069131549E+04 0.  0.
        3    1    3    3  502    0  0.31657505636E+02  0.39660391628E+03 -0.22071287232E+04  0.22427024045E+04  0.10100000352E+00 0.  1.
       -3    1    3    3    0  502 -0.31657505636E+02 -0.39660391628E+03  0.49141039268E+03  0.63228241183E+03  0.10100000352E+00 0. -1.
</event>
<event>
 5   0  0.2519625E-06  0.2302005E+04  0.7818609E-02  0.8477131E-01
        4   -1    0    0  501    0  0.00000000000E+00  0.00000000000E+00  0.97068820078E+03  0.97068903158E+03  0.12699999809E+01 0.  1.
       -4   -1    0    0    0  501  0.00000000000E+00  0.00000000000E+00 -0.13648097134E+04  0.13648103043E+04  0.12699999809E+01 0. -1.
    10030    2    1    2    0    0  0.00000000000E+00  0.00000000000E+00 -0.39412151263E+03  0.23354993359E+04  0.23020046440E+04 0.  0.
        5    1    3    3  502    0  0.26532727267E+03  0.58029348607E+03  0.77481543426E+03  0.10037430641E+04  0.46999998093E+01 0.  1.
       -5    1    3    3    0  502 -0.26532727267E+03 -0.58029348607E+03 -0.11689369469E+04  0.13317562718E+04  0.46999998093E+01 0. -1.
</event>
<event>
 5   0  0.7044981E-06  0.2300207E+04  0.7818609E-02  0.8477839E-01
       -2   -1    0    0    0  501  0.00000000000E+00  0.00000000000E+00  0.92473124455E+03  0.92473124456E+03  0.25500000920E-02 0. -1.
        2   -1    0    0  501    0  0.00000000000E+00  0.00000000000E+00 -0.14304031581E+04  0.14304031581E+04  0.25500000920E-02 0.  1.
    10030    2    1    2    0    0  0.00000000000E+00  0.00000000000E+00 -0.50567191357E+03  0.23551344027E+04  0.23002073755E+04 0.  0.
        4    1    3    3  502    0 -0.75576006387E+03 -0.71385274667E+03 -0.75649486774E+03  0.12857080212E+04  0.12699999809E+01 0.  1.
       -4    1    3    3    0  502  0.75576006387E+03  0.71385274667E+03  0.25082295418E+03  0.10694263814E+04  0.12699999809E+01 0. -1.
</event>
<event>
 5   0  0.7348107E-06  0.2305491E+04  0.7818609E-02  0.8475759E-01
       -2   -1    0    0    0  501  0.00000000000E+00  0.00000000000E+00  0.10422227474E+04  0.10422227474E+04  0.25500000920E-02 0.  1.
        2   -1    0    0  501    0  0.00000000000E+00  0.00000000000E+00 -0.12749885254E+04  0.12749885254E+04  0.25500000920E-02 0. -1.
    10030    2    1    2    0    0  0.00000000000E+00  0.00000000000E+00 -0.23276577799E+03  0.23172112729E+04  0.23054908752E+04 0.  0.
        3    1    3    3  502    0 -0.10699022122E+04 -0.42200087499E+03 -0.38228008047E+02  0.11507549144E+04  0.10100000352E+00 0.  1.
       -3    1    3    3    0  502  0.10699022122E+04  0.42200087499E+03 -0.19453776995E+03  0.11664563585E+04  0.10100000352E+00 0. -1.
</event>
<event>
 5   0  0.3238713E-06  0.2295544E+04  0.7818609E-02  0.8479680E-01
       -1   -1    0    0    0  501  0.00000000000E+00  0.00000000000E+00  0.21103686110E+04  0.21103686110E+04  0.50400001928E-02 0. -1.
        1   -1    0    0  501    0  0.00000000000E+00  0.00000000000E+00 -0.62424198639E+03  0.62424198641E+03  0.50400001928E-02 0.  1.
    10030    2    1    2    0    0  0.00000000000E+00  0.00000000000E+00  0.14861266246E+04  0.27346105975E+04  0.22955441131E+04 0.  0.
        3    1    3    3  502    0 -0.70365003293E+03  0.88156522166E+03  0.49007615204E+03  0.12298191956E+04  0.10100000352E+00 0.  1.
       -3    1    3    3    0  502  0.70365003293E+03 -0.88156522166E+03  0.99605047260E+03  0.15047914018E+04  0.10100000352E+00 0. -1.
</event>
<event>
 5   0  0.7242214E-06  0.2304109E+04  0.7818609E-02  0.8476303E-01
       -2   -1    0    0    0  501  0.00000000000E+00  0.00000000000E+00  0.66527473409E+03  0.66527473410E+03  0.25500000920E-02 0.  1.
        2   -1    0    0  501    0  0.00000000000E+00  0.00000000000E+00 -0.19950095524E+04  0.19950095524E+04  0.25500000920E-02 0. -1.
    10030    2    1    2    0    0  0.00000000000E+00  0.00000000000E+00 -0.13297348183E+04  0.26602842865E+04  0.23041088946E+04 0.  0.
        1    1    3    3  502    0  0.18037230343E+03  0.11266954030E+04 -0.48139135465E+03  0.12384322086E+04  0.50400001928E-02 0. -1.
       -1    1    3    3    0  502 -0.18037230343E+03 -0.11266954030E+04 -0.84834346366E+03  0.14218520779E+04  0.50400001928E-02 0.  1.
</event>
<event>
 5   0  0.3195296E-06  0.2300234E+04  0.7818609E-02  0.8477829E-01
       -1   -1    0    0    0  501  0.00000000000E+00  0.00000000000E+00  0.10946532727E+04  0.10946532727E+04  0.50400001928E-02 0.  1.
        1   -1    0    0  501    0  0.00000000000E+00  0.00000000000E+00 -0.12083910498E+04  0.12083910498E+04  0.50400001928E-02 0. -1.
    10030    2    1    2    0    0  0.00000000000E+00  0.00000000000E+00 -0.11373777713E+03  0.23030443226E+04  0.23002340902E+04 0.  0.
        2    1    3    3  502    0  0.94662428506E+03 -0.31060463098E+03  0.51846036400E+03  0.11231090432E+04  0.25500000920E-02 0.  1.
       -2    1    3    3    0  502 -0.94662428506E+03  0.31060463098E+03 -0.63219814114E+03  0.11799352794E+04  0.25500000920E-02 0. -1.
</event>
<event>
 5   0  0.3184492E-06  0.2295844E+04  0.7818609E-02  0.8479562E-01
       -1   -1    0    0    0  501  0.00000000000E+00  0.00000000000E+00  0.71750135607E+03  0.71750135609E+03  0.50400001928E-02 0. -1.
        1   -1    0    0  501    0  0.00000000000E+00  0.00000000000E+00 -0.18365471324E+04  0.18365471324E+04  0.50400001928E-02 0.  1.
    10030    2    1    2    0    0  0.00000000000E+00  0.00000000000E+00 -0.11190457763E+04  0.25540484885E+04  0.22958441219E+04 0.  0.
        1    1    3    3  502    0  0.52075167864E+03  0.54589258353E+03  0.40296531865E+03  0.85531401930E+03  0.50400001928E-02 0. -1.
       -1    1    3    3    0  502 -0.52075167864E+03 -0.54589258353E+03 -0.15220110950E+04  0.16987344692E+04  0.50400001928E-02 0.  1.
</event>
<event>
 5   0  0.7044981E-06  0.2299072E+04  0.7818609E-02  0.8478287E-01
        2   -1    0    0  501    0  0.00000000000E+00  0.00000000000E+00  0.13384924999E+04  0.13384924999E+04  0.25500000920E-02 0.  1.
       -2   -1    0    0    0  501  0.00000000000E+00  0.00000000000E+00 -0.98725458260E+03  0.98725458260E+03  0.25500000920E-02 0. -1.
    10030    2    1    2    0    0  0.00000000000E+00  0.00000000000E+00  0.35123791726E+03  0.23257470825E+04  0.22990718599E+04 0.  0.
        4    1    3    3  502    0  0.57181856077E+03  0.88245554402E+03  0.64547214745E+03  0.12338314956E+04  0.12699999809E+01 0.  1.
       -4    1    3    3    0  502 -0.57181856077E+03 -0.88245554402E+03 -0.29423423019E+03  0.10919155868E+04  0.12699999809E+01 0. -1.
</event>
<event>
 5   0  0.7044981E-06  0.2347941E+04  0.7818609E-02  0.8459255E-01
        2   -1    0    0  501    0  0.00000000000E+00  0.00000000000E+00  0.20549023436E+04  0.20549023436E+04  0.25500000920E-02 0.  1.
       -2   -1    0    0    0  501  0.00000000000E+00  0.00000000000E+00 -0.67069216421E+03  0.67069216422E+03  0.25500000920E-02 0. -1.
    10030    2    1    2    0    0  0.00000000000E+00  0.00000000000E+00  0.13842101794E+04  0.27255945078E+04  0.23479411407E+04 0.  0.
        4    1    3    3  502    0  0.11519366997E+04  0.13671107883E+03  0.90156341045E+03  0.14691719692E+04  0.12699999809E+01 0. -1.
       -4    1    3    3    0  502 -0.11519366997E+04 -0.13671107883E+03  0.48264676895E+03  0.12564225386E+04  0.12699999809E+01 0.  1.
</event>
<event>
 5   0  0.7044981E-06  0.2298692E+04  0.7818609E-02  0.8478437E-01
       -2   -1    0    0    0  501  0.00000000000E+00  0.00000000000E+00  0.65894358473E+03  0.65894358473E+03  0.25500000920E-02 0.  1.
        2   -1    0    0  501    0  0.00000000000E+00  0.00000000000E+00 -0.20047176470E+04  0.20047176470E+04  0.25500000920E-02 0. -1.
    10030    2    1    2    0    0  0.00000000000E+00  0.00000000000E+00 -0.13457740622E+04  0.26636612317E+04  0.22986916563E+04 0.  0.
        4    1    3    3  502    0  0.99517360541E+03  0.47822174273E+03 -0.30293591727E+03  0.11449184788E+04  0.12699999809E+01 0. -1.
       -4    1    3    3    0  502 -0.99517360541E+03 -0.47822174273E+03 -0.10428381450E+04  0.15187427529E+04  0.12699999809E+01 0.  1.
</event>
<event>
 5   0  0.3184492E-06  0.2303283E+04  0.7818609E-02  0.8476628E-01
       -1   -1    0    0    0  501  0.00000000000E+00  0.00000000000E+00  0.55916838251E+03  0.55916838253E+03  0.50400001928E-02 0. -1.
        1   -1    0    0  501    0  0.00000000000E+00  0.00000000000E+00 -0.23718757627E+04  0.23718757627E+04  0.50400001928E-02 0.  1.
    10030    2    1    2    0    0  0.00000000000E+00  0.00000000000E+00 -0.18127073802E+04  0.29310441452E+04  0.23032828170E+04 0.  0.
        1    1    3    3  502    0 -0.36857627272E+02 -0.52036479214E+03  0.40019086523E+03  0.65748819778E+03  0.50400001928E-02 0. -1.
       -1    1    3    3    0  502  0.36857627272E+02  0.52036479214E+03 -0.22128982454E+04  0.22735559474E+04  0.50400001928E-02 0.  1.
</event>
<event>
 5   0  0.7348107E-06  0.2296536E+04  0.7818609E-02  0.8479288E-01
        2   -1    0    0  501    0  0.00000000000E+00  0.00000000000E+00  0.11879312810E+04  0.11879312810E+04  0.25500000920E-02 0.  1.
       -2   -1    0    0    0  501  0.00000000000E+00  0.00000000000E+00 -0.11099291712E+04  0.11099291712E+04  0.25500000920E-02 0. -1.
    10030    2    1    2    0    0  0.00000000000E+00  0.00000000000E+00  0.78002109784E+02  0.22978604522E+04  0.22965361588E+04 0.  0.
        3    1    3    3  502    0 -0.23203808407E+03  0.10998209527E+04 -0.19580802484E+03  0.11409595055E+04  0.10100000352E+00 0.  1.
       -3    1    3    3    0  502  0.23203808407E+03 -0.10998209527E+04  0.27381013462E+03  0.11569009467E+04  0.10100000352E+00 0. -1.
</event>
<event>
 5   0  0.7242214E-06  0.2299005E+04  0.7818609E-02  0.8478313E-01
       -2   -1    0    0    0  501  0.00000000000E+00  0.00000000000E+00  0.74418122224E+03  0.74418122225E+03  0.25500000920E-02 0.  1.
        2   -1    0    0  501    0  0.00000000000E+00  0.00000000000E+00 -0.17755839304E+04  0.17755839304E+04  0.25500000920E-02 0. -1.
    10030    2    1    2    0    0  0.00000000000E+00  0.00000000000E+00 -0.10314027082E+04  0.25197651527E+04  0.22990051931E+04 0.  0.
        1    1    3    3  502    0  0.15130458797E+03  0.75278170821E+03 -0.14532875922E+04  0.16436600026E+04  0.50400001928E-02 0. -1.
       -1    1    3    3    0  502 -0.15130458797E+03 -0.75278170821E+03  0.42188488401E+03  0.87610515005E+03  0.50400001928E-02 0.  1.
</event>
<event>
 5   0  0.3195296E-06  0.2302095E+04  0.7818609E-02  0.8477096E-01
       -1   -1    0    0    0  501  0.00000000000E+00  0.00000000000E+00  0.13767591532E+04  0.13767591532E+04  0.50400001928E-02 0.  1.
        1   -1    0    0  501    0  0.00000000000E+00  0.00000000000E+00 -0.96233981364E+03  0.96233981366E+03  0.50400001928E-02 0. -1.
    10030    2    1    2    0    0  0.00000000000E+00  0.00000000000E+00  0.41441933954E+03  0.23390989668E+04  0.23020948260E+04 0.  0.
        2    1    3    3  502    0 -0.60040091233E+03  0.33622792272E+03 -0.73032433229E+03  0.10034461131E+04  0.25500000920E-02 0. -1.
       -2    1    3    3    0  502  0.60040091233E+03 -0.33622792272E+03  0.11447436718E+04  0.13356528538E+04  0.25500000920E-02 0.  1.
</event>
<event>
 5   0  0.3184492E-06  0.2299972E+04  0.7818609E-02  0.8477932E-01
       -1   -1    0    0    0  501  0.00000000000E+00  0.00000000000E+00  0.56948578174E+03  0.56948578177E+03  0.50400001928E-02 0.  1.
        1   -1    0    0  501    0  0.00000000000E+00  0.00000000000E+00 -0.23222146845E+04  0.23222146845E+04  0.50400001928E-02 0. -1.
    10030    2    1    2    0    0  0.00000000000E+00  0.00000000000E+00 -0.17527289027E+04  0.28917004663E+04  0.22999723868E+04 0.  0.
        1    1    3    3  502    0  0.86725528177E+03 -0.64900406368E+03 -0.39083726681E+03  0.11515605792E+04  0.50400001928E-02 0. -1.
       -1    1    3    3    0  502 -0.86725528177E+03  0.64900406368E+03 -0.13618916359E+04  0.17401398870E+04  0.50400001928E-02 0.  1.
</event>
<event>
 5   0  0.3195296E-06  0.2297683E+04  0.7818609E-02  0.8478835E-01
        1   -1    0    0  501    0  0.00000000000E+00  0.00000000000E+00  0.22734279936E+04  0.22734279936E+04  0.50400001928E-02 0. -1.
       -1   -1    0    0    0  501  0.00000000000E+00  0.00000000000E+00 -0.58054930527E+03  0.58054930529E+03  0.50400001928E-02 0.  1.
    10030    2    1    2    0    0  0.00000000000E+00  0.00000000000E+00  0.16928786884E+04  0.28539772989E+04  0.22976832178E+04 0.  0.
        2    1    3    3  502    0  0.42402712561E+03  0.78631271241E+03  0.17436444569E+04  0.19591790824E+04  0.25500000920E-02 0. -1.
       -2    1    3    3    0  502 -0.42402712561E+03 -0.78631271241E+03 -0.50765768553E+02  0.89479821648E+03  0.25500000920E-02 0.  1.
</event>
<event>
 5   0  0.7348107E-06  0.2292932E+04  0.7818609E-02  0.8480713E-01
        2   -1    0    0  501    0  0.00000000000E+00  0.00000000000E+00  0.17647144561E+04  0.17647144561E+04  0.25500000920E-02 0. -1.
       -2   -1    0    0    0  501  0.00000000000E+00  0.00000000000E+00 -0.74481421949E+03  0.74481421949E+03  0.25500000920E-02 0.  1.
    10030    2    1    2    0    0  0.00000000000E+00  0.00000000000E+00  0.10199002366E+04  0.25095286756E+04  0.22929321144E+04 0.  0.
        3    1    3    3  502    0  0.98346221183E+03 -0.58420512670E+03  0.42594799983E+03  0.12206249469E+04  0.10100000352E+00 0.  1.
       -3    1    3    3    0  502 -0.98346221183E+03  0.58420512670E+03  0.59395223681E+03  0.12889037287E+04  0.10100000352E+00 0. -1.
</event>
<event>
 5   0  0.3195296E-06  0.2300599E+04  0.7818609E-02  0.8477685E-01
        1   -1    0    0  501    0  0.00000000000E+00  0.00000000000E+00  0.53695483105E+03  0.53695483107E+03  0.50400001928E-02 0.  1.
       -1   -1    0    0    0  501  0.00000000000E+00  0.00000000000E+00 -0.24642465330E+04  0.24642465330E+04  0.50400001928E-02 0. -1.
    10030    2    1    2    0    0  0.00000000000E+00  0.00000000000E+00 -0.19272917020E+04  0.30012013641E+04  0.23005991227E+04 0.  0.
        2    1    3    3  502    0  0.88728227699E+03 -0.16406353577E+03 -0.18943552495E+04  0.20982775064E+04  0.25500000920E-02 0. -1.
       -2    1    3    3    0  502 -0.88728227699E+03  0.16406353577E+03 -0.32936452500E+02  0.90292385766E+03  0.25500000920E-02 0.  1.
</event>
<event>
 5   0  0.7003852E-06  0.2293507E+04  0.7818609E-02  0.8480486E-01
        2   -1    0    0  501    0  0.00000000000E+00  0.00000000000E+00  0.13273045268E+04  0.13273045268E+04  0.25500000920E-02 0.  1.
       -2   -1    0    0    0  501  0.00000000000E+00  0.00000000000E+00 -0.99076215484E+03  0.99076215484E+03  0.25500000920E-02 0. -1.
    10030    2    1    2    0    0  0.00000000000E+00  0.00000000000E+00  0.33654237191E+03  0.23180666816E+04  0.22935065669E+04 0.  0.
        2    1    3    3  502    0 -0.89225115437E+03 -0.32822492456E+03 -0.47984393927E+03  0.10649384628E+04  0.25500000920E-02 0. -1.
       -2    1    3    3    0  502  0.89225115437E+03  0.32822492456E+03  0.81638631118E+03  0.12531282188E+04  0.25500000920E-02 0.  1.
</event>
<event>
 5   0  0.3238713E-06  0.2300503E+04  0.7818609E-02  0.8477723E-01
       -1   -1    0    0    0  501  0.00000000000E+00  0.00000000000E+00  0.80339831897E+03  0.80339831898E+03  0.50400001928E-02 0.  1.
        1   -1    0    0  501    0  0.00000000000E+00  0.00000000000E+00 -0.16468518920E+04  0.16468518920E+04  0.50400001928E-02 0. -1.
    10030    2    1    2    0    0  0.00000000000E+00  0.00000000000E+00 -0.84345357304E+03  0.24502502110E+04  0.23005025900E+04 0.  0.
        3    1    3    3  502    0 -0.10618289186E+04 -0.43157421490E+03 -0.52466726043E+03  0.12605604705E+04  0.10100000352E+00 0. -1.
       -3    1    3    3    0  502  0.10618289186E+04  0.43157421490E+03 -0.31878631261E+03  0.11896897405E+04  0.10100000352E+00 0.  1.
</event>
<event>
 5   0  0.3184492E-06  0.2300171E+04  0.7818609E-02  0.8477854E-01
       -1   -1    0    0    0  501  0.00000000000E+00  0.00000000000E+00  0.14669683136E+04  0.14669683136E+04  0.50400001928E-02 0.  1.
        1   -1    0    0  501    0  0.00000000000E+00  0.00000000000E+00 -0.90165305584E+03  0.90165305585E+03  0.50400001928E-02 0. -1.
    10030    2    1    2    0    0  0.00000000000E+00  0.00000000000E+00  0.56531525772E+03  0.23686213694E+04  0.23001708308E+04 0.  0.
        1    1    3    3  502    0 -0.76458442692E+01 -0.74358520203E+03  0.11861025261E+04  0.13999345035E+04  0.50400001928E-02 0.  1.
       -1    1    3    3    0  502  0.76458442692E+01  0.74358520203E+03 -0.62078726838E+03  0.96868686593E+03  0.50400001928E-02 0. -1.
</event>
<event>
 5   0  0.7044981E-06  0.2296256E+04  0.7818609E-02  0.8479399E-01
        2   -1    0    0  501    0  0.00000000000E+00  0.00000000000E+00  0.79683813602E+03  0.79683813602E+03  0.25500000920E-02 0. -1.
       -2   -1    0    0    0  501  0.00000000000E+00  0.00000000000E+00 -0.16542854309E+04  0.16542854309E+04  0.25500000920E-02 0.  1.
    10030    2    1    2    0    0  0.00000000000E+00  0.00000000000E+00 -0.85744729485E+03  0.24511235669E+04  0.22962558387E+04 0.  0.
        4    1    3    3  502    0 -0.69154912262E+03 -0.11259056742E+03 -0.13996158338E+04  0.15651974061E+04  0.12699999809E+01 0.  1.
       -4    1    3    3    0  502  0.69154912262E+03  0.11259056742E+03  0.54216853896E+03  0.88592616081E+03  0.12699999809E+01 0. -1.
</event>
<event>
 5   0  0.7497344E-06  0.2297267E+04  0.7818609E-02  0.8478999E-01
       -2   -1    0    0    0  501  0.00000000000E+00  0.00000000000E+00  0.11058024784E+04  0.11058024784E+04  0.25500000920E-02 0. -1.
        2   -1    0    0  501    0  0.00000000000E+00  0.00000000000E+00 -0.11931238837E+04  0.11931238837E+04  0.25500000920E-02 0.  1.
    10030    2    1    2    0    0  0.00000000000E+00  0.00000000000E+00 -0.87321405348E+02  0.22989263621E+04  0.22972673746E+04 0.  0.
        5    1    3    3  502    0  0.51901974443E+03  0.86778283353E+03 -0.58894750844E+03  0.11701751147E+04  0.46999998093E+01 0.  1.
       -5    1    3    3    0  502 -0.51901974443E+03 -0.86778283353E+03  0.50162610309E+03  0.11287512474E+04  0.46999998093E+01 0. -1.
</event>
<event>
 5   0  0.3195296E-06  0.2296737E+04  0.7818609E-02  0.8479209E-01
        1   -1    0    0  501    0  0.00000000000E+00  0.00000000000E+00  0.76589510775E+03  0.76589510777E+03  0.50400001928E-02 0. -1.
       -1   -1    0    0    0  501  0.00000000000E+00  0.00000000000E+00 -0.17218416383E+04  0.17218416383E+04  0.50400001928E-02 0.  1.
    10030    2    1    2    0    0  0.00000000000E+00  0.00000000000E+00 -0.95594653058E+03  0.24877367461E+04  0.22967368915E+04 0.  0.
        2    1    3    3  502    0 -0.37625551194E+03  0.11305581495E+03 -0.16467843497E+04  0.16929998589E+04  0.25500000920E-02 0.  1.
       -2    1    3    3    0  502  0.37625551194E+03 -0.11305581495E+03  0.69083781916E+03  0.79473688724E+03  0.25500000920E-02 0. -1.
</event>
<event>
 5   0  0.3195296E-06  0.2298330E+04  0.7818609E-02  0.8478580E-01
       -1   -1    0    0    0  501  0.00000000000E+00  0.00000000000E+00  0.11911018369E+04  0.11911018369E+04  0.50400001928E-02 0. -1.
        1   -1    0    0  501    0  0.00000000000E+00  0.00000000000E+00 -0.11087045454E+04  0.11087045454E+04  0.50400001928E-02 0.  1.
    10030    2    1    2    0    0  0.00000000000E+00  0.00000000000E+00  0.82397291520E+02  0.22998063823E+04  0.22983298463E+04 0.  0.
        2    1    3    3  502    0 -0.43221437130E+03 -0.10646763299E+04  0.25856789055E+02  0.11493535243E+04  0.25500000920E-02 0.  1.
       -2    1    3    3    0  502  0.43221437130E+03  0.10646763299E+04  0.56540502465E+02  0.11504528581E+04  0.25500000920E-02 0. -1.
</event>
<event>
 5   0  0.3184492E-06  0.2297114E+04  0.7818609E-02  0.8479060E-01
       -1   -1    0    0    0  501  0.00000000000E+00  0.00000000000E+00  0.59552640553E+03  0.59552640555E+03  0.50400001928E-02 0.  1.
        1   -1    0    0  501    0  0.00000000000E+00  0.00000000000E+00 -0.22151554071E+04  0.22151554071E+04  0.50400001928E-02 0. -1.
    10030    2    1    2    0    0  0.00000000000E+00  0.00000000000E+00 -0.16196290016E+04  0.28106818127E+04  0.22971143092E+04 0.  0.
        1    1    3    3  502    0 -0.33379238406E+03 -0.10968422759E+04 -0.72590213710E+03  0.13569871947E+04  0.50400001928E-02 0.  1.
       -1    1    3    3    0  502  0.33379238406E+03  0.10968422759E+04 -0.89372686450E+03  0.14536946180E+04  0.50400001928E-02 0. -1.
</event>
<event>
 5   0  0.3338758E-06  0.2278420E+04  0.7818609E-02  0.8486479E-01
        1   -1    0    0  501    0  0.00000000000E+00  0.00000000000E+00  0.10027098348E+04  0.10027098348E+04  0.50400001928E-02 0.  1.
       -1   -1    0    0    0  501  0.00000000000E+00  0.00000000000E+00 -0.12942923719E+04  0.12942923719E+04  0.50400001928E-02 0. -1.
    10030    2    1    2    0    0  0.00000000000E+00  0.00000000000E+00 -0.29158253713E+03  0.22970022067E+04  0.22784202338E+04 0.  0.
        5    1    3    3  502    0  0.96909738279E+03  0.44544673472E+03 -0.54931186903E+03  0.11997241976E+04  0.46999998093E+01 0. -1.
       -5    1    3    3    0  502 -0.96909738279E+03 -0.44544673472E+03  0.25772933190E+03  0.10972780091E+04  0.46999998093E+01 0.  1.
</event>
<event>
 5   0  0.3238713E-06  0.2299600E+04  0.7818609E-02  0.8478079E-01
       -1   -1    0    0    0  501  0.00000000000E+00  0.00000000000E+00  0.11242667099E+04  0.11242667099E+04  0.50400001928E-02 0. -1.
        1   -1    0    0  501    0  0.00000000000E+00  0.00000000000E+00 -0.11759136553E+04  0.11759136553E+04  0.50400001928E-02 0.  1.
    10030    2    1    2    0    0  0.00000000000E+00  0.00000000000E+00 -0.51646945425E+02  0.23001803653E+04  0.22996004666E+04 0.  0.
        3    1    3    3  502    0 -0.40359071011E+03 -0.19470116155E+03  0.10333328574E+04  0.11263084871E+04  0.10100000352E+00 0. -1.
       -3    1    3    3    0  502  0.40359071011E+03  0.19470116155E+03 -0.10849798029E+04  0.11738718782E+04  0.10100000352E+00 0.  1.
</event>
<event>
 5   0  0.7242214E-06  0.2298448E+04  0.7818609E-02  0.8478533E-01
        2   -1    0    0  501    0  0.00000000000E+00  0.00000000000E+00  0.17259752382E+04  0.17259752382E+04  0.25500000920E-02 0.  1.
       -2   -1    0    0    0  501  0.00000000000E+00  0.00000000000E+00 -0.76519943441E+03  0.76519943441E+03  0.25500000920E-02 0. -1.
    10030    2    1    2    0    0  0.00000000000E+00  0.00000000000E+00  0.96077580384E+03  0.24911746727E+04  0.22984475422E+04 0.  0.
        1    1    3    3  502    0  0.42019637305E+03  0.37705336412E+03 -0.60453614800E+03  0.82716273223E+03  0.50400001928E-02 0. -1.
       -1    1    3    3    0  502 -0.42019637305E+03 -0.37705336412E+03  0.15653119518E+04  0.16640119404E+04  0.50400001928E-02 0.  1.
</event>
<event>
 5   0  0.3338758E-06  0.2287235E+04  0.7818609E-02  0.8482971E-01
        1   -1    0    0  501    0  0.00000000000E+00  0.00000000000E+00  0.11475792205E+04  0.11475792206E+04  0.50400001928E-02 0. -1.
       -1   -1    0    0    0  501  0.00000000000E+00  0.00000000000E+00 -0.11396698656E+04  0.11396698656E+04  0.50400001928E-02 0.  1.
    10030    2    1    2    0    0  0.00000000000E+00  0.00000000000E+00  0.79093549572E+01  0.22872490862E+04  0.22872354108E+04 0.  0.
        5    1    3    3  502    0  0.59425043058E+03  0.10748382120E+03  0.97512114018E+03  0.11469828569E+04  0.46999998093E+01 0. -1.
       -5    1    3    3    0  502 -0.59425043058E+03 -0.10748382120E+03 -0.96721178522E+03  0.11402662292E+04  0.46999998093E+01 0.  1.
</event>
<event>
 5   0  0.3184492E-06  0.2297113E+04  0.7818609E-02  0.8479060E-01
        1   -1    0    0  501    0  0.00000000000E+00  0.00000000000E+00  0.12775309599E+04  0.12775309599E+04  0.50400001928E-02 0.  1.
       -1   -1    0    0    0  501  0.00000000000E+00  0.00000000000E+00 -0.10326029123E+04  0.10326029123E+04  0.50400001928E-02 0. -1.
    10030    2    1    2    0    0  0.00000000000E+00  0.00000000000E+00  0.24492804754E+03  0.23101338722E+04  0.22971131359E+04 0.  0.
        1    1    3    3  502    0  0.58024051477E+03  0.81529584574E+03 -0.44446521004E+03  0.10949592203E+04  0.50400001928E-02 0. -1.
       -1    1    3    3    0  502 -0.58024051477E+03 -0.81529584574E+03  0.68939325758E+03  0.12151746519E+04  0.50400001928E-02 0.  1.
</event>
<event>
 5   0  0.3184492E-06  0.2297986E+04  0.7818609E-02  0.8478715E-01
        1   -1    0    0  501    0  0.00000000000E+00  0.00000000000E+00  0.29263432487E+04  0.29263432487E+04  0.50400001928E-02 0.  1.
       -1   -1    0    0    0  501  0.00000000000E+00  0.00000000000E+00 -0.45113823065E+03  0.45113823068E+03  0.50400001928E-02 0. -1.
    10030    2    1    2    0    0  0.00000000000E+00  0.00000000000E+00  0.24752050181E+04  0.33774814794E+04  0.22979863495E+04 0.  0.
        1    1    3    3  502    0  0.10047207509E+03 -0.60839647903E+03 -0.18733761119E+03  0.64446589837E+03  0.50400001928E-02 0. -1.
       -1    1    3    3    0  502 -0.10047207509E+03  0.60839647903E+03  0.26625426293E+04  0.27330155811E+04  0.50400001928E-02 0.  1.
</event>
<event>
 5   0  0.3226427E-06  0.2294004E+04  0.7818609E-02  0.8480289E-01
       -1   -1    0    0    0  501  0.00000000000E+00  0.00000000000E+00  0.82279746775E+03  0.82279746777E+03  0.50400001928E-02 0. -1.
        1   -1    0    0  501    0  0.00000000000E+00  0.00000000000E+00 -0.15989520697E+04  0.15989520697E+04  0.50400001928E-02 0.  1.
    10030    2    1    2    0    0  0.00000000000E+00  0.00000000000E+00 -0.77615460198E+03  0.24217495375E+04  0.22940041099E+04 0.  0.
        4    1    3    3  502    0 -0.11370668273E+04  0.68855422035E+01 -0.22921936003E+03  0.11599618564E+04  0.12699999809E+01 0. -1.
       -4    1    3    3    0  502  0.11370668273E+04 -0.68855422035E+01 -0.54693524195E+03  0.12617876811E+04  0.12699999809E+01 0.  1.
</event>
<event>
 5   0  0.3238713E-06  0.2302583E+04  0.7818609E-02  0.8476903E-01
        1   -1    0    0  501    0  0.00000000000E+00  0.00000000000E+00  0.10009975733E+04  0.10009975733E+04  0.50400001928E-02 0.  1.
       -1   -1    0    0    0  501  0.00000000000E+00  0.00000000000E+00 -0.13241513277E+04  0.13241513277E+04  0.50400001928E-02 0. -1.
    10030    2    1    2    0    0  0.00000000000E+00  0.00000000000E+00 -0.32315375439E+03  0.23251489010E+04  0.23025831283E+04 0.  0.
        3    1    3    3  502    0  0.37614637506E+03  0.44744914615E+03 -0.11631517855E+04  0.13017752956E+04  0.10100000352E+00 0. -1.
       -3    1    3    3    0  502 -0.37614637506E+03 -0.44744914615E+03  0.83999803110E+03  0.10233736054E+04  0.10100000352E+00 0.  1.
</event>
<event>
 5   0  0.7242214E-06  0.2283077E+04  0.7818609E-02  0.8484624E-01
        2   -1    0    0  501    0  0.00000000000E+00  0.00000000000E+00  0.10883716021E+04  0.10883716021E+04  0.25500000920E-02 0. -1.
       -2   -1    0    0    0  501  0.00000000000E+00  0.00000000000E+00 -0.11973027820E+04  0.11973027820E+04  0.25500000920E-02 0.  1.
    10030    2    1    2    0    0  0.00000000000E+00  0.00000000000E+00 -0.10893117996E+03  0.22856743841E+04  0.22830771753E+04 0.  0.
        1    1    3    3  502    0  0.36957051532E+03 -0.16803434083E+03 -0.11225871832E+04  0.11937419694E+04  0.50400001928E-02 0.  1.
       -1    1    3    3    0  502 -0.36957051532E+03  0.16803434083E+03  0.10136560032E+04  0.10919324148E+04  0.50400001928E-02 0. -1.
</event>
<event>
 5   0  0.7348107E-06  0.2303039E+04  0.7818609E-02  0.8476724E-01
       -2   -1    0    0    0  501  0.00000000000E+00  0.00000000000E+00  0.51593160765E+03  0.51593160766E+03  0.25500000920E-02 0.  1.
        2   -1    0    0  501    0  0.00000000000E+00  0.00000000000E+00 -0.25701033376E+04  0.25701033376E+04  0.25500000920E-02 0. -1.
    10030    2    1    2    0    0  0.00000000000E+00  0.00000000000E+00 -0.20541717299E+04  0.30860349452E+04  0.23030393369E+04 0.  0.
        3    1    3    3  502    0 -0.48372064498E+03  0.51532517817E+03  0.19108513880E+03  0.73216066686E+03  0.10100000352E+00 0.  1.
       -3    1    3    3    0  502  0.48372064498E+03 -0.51532517817E+03 -0.22452568687E+04  0.23538742784E+04  0.10100000352E+00 0. -1.
</event>
<event>
 5   0  0.3238713E-06  0.2298928E+04  0.7818609E-02  0.8478344E-01
       -1   -1    0    0    0  501  0.00000000000E+00  0.00000000000E+00  0.14347273983E+04  0.14347273983E+04  0.50400001928E-02 0. -1.
        1   -1    0    0  501    0  0.00000000000E+00  0.00000000000E+00 -0.92091914852E+03  0.92091914854E+03  0.50400001928E-02 0.  1.
    10030    2    1    2    0    0  0.00000000000E+00  0.00000000000E+00  0.51380824978E+03  0.23556465469E+04  0.22989283887E+04 0.  0.
        3    1    3    3  502    0 -0.64059799734E+03 -0.89622799849E+03 -0.79334170031E+02  0.11044837438E+04  0.10100000352E+00 0.  1.
       -3    1    3    3    0  502  0.64059799734E+03  0.89622799849E+03  0.59314241981E+03  0.12511628031E+04  0.10100000352E+00 0. -1.
</event>
<event>
 5   0  0.7497344E-06  0.2302410E+04  0.7818609E-02  0.8476972E-01
        2   -1    0    0  501    0  0.00000000000E+00  0.00000000000E+00  0.84098239231E+03  0.84098239231E+03  0.25500000920E-02 0.  1.
       -2   -1    0    0    0  501  0.00000000000E+00  0.00000000000E+00 -0.15758627440E+04  0.15758627440E+04  0.25500000920E-02 0. -1.
    10030    2    1    2    0    0  0.00000000000E+00  0.00000000000E+00 -0.73488035169E+03  0.24168451363E+04  0.23024098857E+04 0.  0.
        5    1    3    3  502    0  0.84487713014E+03  0.36072844245E+03  0.36080544649E+03  0.98698785932E+03  0.46999998093E+01 0.  1.
       -5    1    3    3    0  502 -0.84487713014E+03 -0.36072844245E+03 -0.10956857982E+04  0.14298572770E+04  0.46999998093E+01 0. -1.
</event>
<event>
 5   0  0.3226427E-06  0.2290804E+04  0.7818609E-02  0.8481556E-01
        1   -1    0    0  501    0  0.00000000000E+00  0.00000000000E+00  0.93086286436E+03  0.93086286437E+03  0.50400001928E-02 0.  1.
       -1   -1    0    0    0  501  0.00000000000E+00  0.00000000000E+00 -0.14093861546E+04  0.14093861546E+04  0.50400001928E-02 0. -1.
    10030    2    1    2    0    0  0.00000000000E+00  0.00000000000E+00 -0.47852329021E+03  0.23402490190E+04  0.22908035558E+04 0.  0.
        4    1    3    3  502    0 -0.14706979694E+02  0.63734177005E+03  0.73286739415E+03  0.97134806193E+03  0.12699999809E+01 0.  1.
       -4    1    3    3    0  502  0.14706979694E+02 -0.63734177005E+03 -0.12113906844E+04  0.13689009570E+04  0.12699999809E+01 0. -1.
</event>
<event>
 5   0  0.3195296E-06  0.2300555E+04  0.7818609E-02  0.8477702E-01
       -1   -1    0    0    0  501  0.00000000000E+00  0.00000000000E+00  0.76369645578E+03  0.76369645580E+03  0.50400001928E-02 0. -1.
        1   -1    0    0  501    0  0.00000000000E+00  0.00000000000E+00 -0.17325445459E+04  0.17325445459E+04  0.50400001928E-02 0.  1.
    10030    2    1    2    0    0  0.00000000000E+00  0.00000000000E+00 -0.96884809015E+03  0.24962410017E+04  0.23005548281E+04 0.  0.
        2    1    3    3  502    0 -0.42971901851E+03 -0.10498667498E+04 -0.69104046953E+03  0.13283130496E+04  0.25500000920E-02 0.  1.
       -2    1    3    3    0  502  0.42971901851E+03  0.10498667498E+04 -0.27780762062E+03  0.11679279521E+04  0.25500000920E-02 0. -1.
</event>
<event>
 5   0  0.3184492E-06  0.2299685E+04  0.7818609E-02  0.8478045E-01
        1   -1    0    0  501    0  0.00000000000E+00  0.00000000000E+00  0.18131979337E+04  0.18131979337E+04  0.50400001928E-02 0.  1.
       -1   -1    0    0    0  501  0.00000000000E+00  0.00000000000E+00 -0.72917482824E+03  0.72917482825E+03  0.50400001928E-02 0. -1.
    10030    2    1    2    0    0  0.00000000000E+00  0.00000000000E+00  0.10840231055E+04  0.25423727620E+04  0.22996854497E+04 0.  0.
        1    1    3    3  502    0 -0.27205695345E+03 -0.19461235393E+03  0.17582205626E+04  0.17897565480E+04  0.50400001928E-02 0.  1.
       -1    1    3    3    0  502  0.27205695345E+03  0.19461235393E+03 -0.67419745718E+03  0.75261621396E+03  0.50400001928E-02 0. -1.
</event>
<event>
 5   0  0.3338758E-06  0.2300146E+04  0.7818609E-02  0.8477863E-01
        1   -1    0    0  501    0  0.00000000000E+00  0.00000000000E+00  0.83313839869E+03  0.83313839871E+03  0.50400001928E-02 0.  1.
       -1   -1    0    0    0  501  0.00000000000E+00  0.00000000000E+00 -0.15875730664E+04  0.15875730664E+04  0.50400001928E-02 0. -1.
    10030    2    1    2    0    0  0.00000000000E+00  0.00000000000E+00 -0.75443466768E+03  0.24207114651E+04  0.23001461539E+04 0.  0.
        5    1    3    3  502    0 -0.10318002775E+04 -0.21897519402E+03  0.10515693047E+03  0.10600198197E+04  0.46999998093E+01 0.  1.
       -5    1    3    3    0  502  0.10318002775E+04  0.21897519402E+03 -0.85959159814E+03  0.13606916454E+04  0.46999998093E+01 0. -1.
</event>
<event>
 5   0  0.7497344E-06  0.2298467E+04  0.7818609E-02  0.8478526E-01
        2   -1    0    0  501    0  0.00000000000E+00  0.00000000000E+00  0.25423781251E+04  0.25423781251E+04  0.25500000920E-02 0. -1.
       -2   -1    0    0    0  501  0.00000000000E+00  0.00000000000E+00 -0.51948909084E+03  0.51948909084E+03  0.25500000920E-02 0.  1.
    10030    2    1    2    0    0  0.00000000000E+00  0.00000000000E+00  0.20228890343E+04  0.30618672160E+04  0.22984670551E+04 0.  0.
        5    1    3    3  502    0  0.10541941082E+04  0.19895649259E+03  0.15603852904E+04  0.18936032446E+04  0.46999998093E+01 0.  1.
       -5    1    3    3    0  502 -0.10541941082E+04 -0.19895649259E+03  0.46250374395E+03  0.11682639714E+04  0.46999998093E+01 0. -1.
</event>
<event>
 5   0  0.7044981E-06  0.2288716E+04  0.7818609E-02  0.8482383E-01
       -2   -1    0    0    0  501  0.00000000000E+00  0.00000000000E+00  0.10393138713E+04  0.10393138713E+04  0.25500000920E-02 0. -1.
        2   -1    0    0  501    0  0.00000000000E+00  0.00000000000E+00 -0.12600193584E+04  0.12600193584E+04  0.25500000920E-02 0.  1.
    10030    2    1    2    0    0  0.00000000000E+00  0.00000000000E+00 -0.22070548715E+03  0.22993332297E+04  0.22887163191E+04 0.  0.
        4    1    3    3  502    0  0.18413299264E+03  0.45403031326E+03  0.92861355568E+03  0.10499396330E+04  0.12699999809E+01 0. -1.
       -4    1    3    3    0  502 -0.18413299264E+03 -0.45403031326E+03 -0.11493190428E+04  0.12493935967E+04  0.12699999809E+01 0.  1.
</event>
<event>
 5   0  0.3338758E-06  0.2299454E+04  0.7818609E-02  0.8478136E-01
        1   -1    0    0  501    0  0.00000000000E+00  0.00000000000E+00  0.18996851081E+04  0.18996851081E+04  0.50400001928E-02 0. -1.
       -1   -1    0    0    0  501  0.00000000000E+00  0.00000000000E+00 -0.69583764438E+03  0.69583764440E+03  0.50400001928E-02 0.  1.
    10030    2    1    2    0    0  0.00000000000E+00  0.00000000000E+00  0.12038474637E+04  0.25955227525E+04  0.22994542054E+04 0.  0.
        5    1    3    3  502    0  0.24860540415E+03 -0.50484911586E+03  0.17335955273E+04  0.18226499442E+04  0.46999998093E+01 0. -1.
       -5    1    3    3    0  502 -0.24860540415E+03  0.50484911586E+03 -0.52974806367E+03  0.77287280824E+03  0.46999998093E+01 0.  1.
</event>
<event>
 5   0  0.2519625E-06  0.2245073E+04  0.7818609E-02  0.8499898E-01
        3   -1    0    0  501    0  0.00000000000E+00  0.00000000000E+00  0.66725926034E+03  0.66725926799E+03  0.10100000352E+00 0. -1.
       -3   -1    0    0    0  501  0.00000000000E+00  0.00000000000E+00 -0.18884544033E+04  0.18884544060E+04  0.10100000352E+00 0.  1.
    10030    2    1    2    0    0  0.00000000000E+00  0.00000000000E+00 -0.12211951430E+04  0.25557136740E+04  0.22450734523E+04 0.  0.
        3    1    3    3  502    0  0.58071701591E+03  0.11255381136E+03  0.47544591076E+03  0.75891332659E+03  0.10100000352E+00 0. -1.
       -3    1    3    3    0  502 -0.58071701591E+03 -0.11255381136E+03 -0.16966410537E+04  0.17968003474E+04  0.10100000352E+00 0.  1.
</event>
<event>
 5   0  0.7242214E-06  0.2303130E+04  0.7818609E-02  0.8476688E-01
        2   -1    0    0  501    0  0.00000000000E+00  0.00000000000E+00  0.11434997315E+04  0.11434997315E+04  0.25500000920E-02 0. -1.
       -2   -1    0    0    0  501  0.00000000000E+00  0.00000000000E+00 -0.11596874814E+04  0.11596874814E+04  0.25500000920E-02 0.  1.
    10030    2    1    2    0    0  0.00000000000E+00  0.00000000000E+00 -0.16187749908E+02  0.23031872129E+04  0.23031303251E+04 0.  0.
        1    1    3    3  502    0  0.69863932340E+03 -0.34472447962E+03 -0.85615400269E+03  0.11575541229E+04  0.50400001928E-02 0. -1.
       -1    1    3    3    0  502 -0.69863932340E+03  0.34472447962E+03  0.83996625278E+03  0.11456330900E+04  0.50400001928E-02 0.  1.
</event>
<event>
 5   0  0.7044981E-06  0.2300843E+04  0.7818609E-02  0.8477589E-01
       -2   -1    0    0    0  501  0.00000000000E+00  0.00000000000E+00  0.62776037862E+03  0.62776037863E+03  0.25500000920E-02 0. -1.
        2   -1    0    0  501    0  0.00000000000E+00  0.00000000000E+00 -0.21082403907E+04  0.21082403907E+04  0.25500000920E-02 0.  1.
    10030    2    1    2    0    0  0.00000000000E+00  0.00000000000E+00 -0.14804800120E+04  0.27360007693E+04  0.23008431375E+04 0.  0.
        4    1    3    3  502    0 -0.88014095134E+03  0.39559809443E+03  0.45788460962E+01  0.96497073804E+03  0.12699999809E+01 0. -1.
       -4    1    3    3    0  502  0.88014095134E+03 -0.39559809443E+03 -0.14850588581E+04  0.17710300312E+04  0.12699999809E+01 0.  1.
</event>
<event>
 5   0  0.7044981E-06  0.2295406E+04  0.7818609E-02  0.8479735E-01
       -2   -1    0    0    0  501  0.00000000000E+00  0.00000000000E+00  0.82313251288E+03  0.82313251288E+03  0.25500000920E-02 0. -1.
        2   -1    0    0  501    0  0.00000000000E+00  0.00000000000E+00 -0.16002547806E+04  0.16002547806E+04  0.25500000920E-02 0.  1.
    10030    2    1    2    0    0  0.00000000000E+00  0.00000000000E+00 -0.77712226776E+03  0.24233872935E+04  0.22954056189E+04 0.  0.
        4    1    3    3  502    0 -0.80138658196E+03  0.37742597632E+03 -0.11590090715E+04  0.14587578490E+04  0.12699999809E+01 0.  1.
       -4    1    3    3    0  502  0.80138658196E+03 -0.37742597632E+03  0.38188680378E+03  0.96462944448E+03  0.12699999809E+01 0. -1.
</event>
<event>
 5   0  0.3184492E-06  0.2293286E+04  0.7818609E-02  0.8480573E-01
        1   -1    0    0  501    0  0.00000000000E+00  0.00000000000E+00  0.15531050703E+04  0.15531050703E+04  0.50400001928E-02 0.  1.
       -1   -1    0    0    0  501  0.00000000000E+00  0.00000000000E+00 -0.84655614156E+03  0.84655614158E+03  0.50400001928E-02 0. -1.
    10030    2    1    2    0    0  0.00000000000E+00  0.00000000000E+00  0.70654892870E+03  0.23996612118E+04  0.22932864067E+04 0.  0.
        1    1    3    3  502    0  0.54868497801E+03 -0.95663859325E+03  0.68180951317E+03  0.12965634637E+04  0.50400001928E-02 0.  1.
       -1    1    3    3    0  502 -0.54868497801E+03  0.95663859325E+03  0.24739415523E+02  0.11030977481E+04  0.50400001928E-02 0. -1.
</event>
<event>
 5   0  0.3238713E-06  0.2309349E+04  0.7818609E-02  0.8474244E-01
       -1   -1    0    0    0  501  0.00000000000E+00  0.00000000000E+00  0.91923088846E+03  0.91923088847E+03  0.50400001928E-02 0.  1.
        1   -1    0    0  501    0  0.00000000000E+00  0.00000000000E+00 -0.14504228290E+04  0.14504228290E+04  0.50400001928E-02 0. -1.
    10030    2    1    2    0    0  0.00000000000E+00  0.00000000000E+00 -0.53119194057E+03  0.23696537175E+04  0.23093492294E+04 0.  0.
        3    1    3    3  502    0 -0.71878675424E+03 -0.18797886582E+03 -0.11725796258E+04  0.13881402815E+04  0.10100000352E+00 0. -1.
       -3    1    3    3    0  502  0.71878675424E+03  0.18797886582E+03  0.64138768525E+03  0.98151343600E+03  0.10100000352E+00 0.  1.
</event>
<event>
 5   0  0.3238713E-06  0.2304457E+04  0.7818609E-02  0.8476166E-01
       -1   -1    0    0    0  501  0.00000000000E+00  0.00000000000E+00  0.11021305621E+04  0.11021305621E+04  0.50400001928E-02 0.  1.
        1   -1    0    0  501    0  0.00000000000E+00  0.00000000000E+00 -0.12046036902E+04  0.12046036902E+04  0.50400001928E-02 0. -1.
    10030    2    1    2    0    0  0.00000000000E+00  0.00000000000E+00 -0.10247312806E+03  0.23067342523E+04  0.23044570225E+04 0.  0.
        3    1    3    3  502    0  0.28763055456E+03 -0.53901484654E+03 -0.10291165648E+04  0.11968079440E+04  0.10100000352E+00 0. -1.
       -3    1    3    3    0  502 -0.28763055456E+03  0.53901484654E+03  0.92664343675E+03  0.11099263083E+04  0.10100000352E+00 0.  1.
</event>
<event>
 5   0  0.7044981E-06  0.2310527E+04  0.7818609E-02  0.8473782E-01
        2   -1    0    0  501    0  0.00000000000E+00  0.00000000000E+00  0.31065069183E+04  0.31065069183E+04  0.25500000920E-02 0. -1.
       -2   -1    0    0    0  501  0.00000000000E+00  0.00000000000E+00 -0.42962519197E+03  0.42962519198E+03  0.25500000920E-02 0.  1.
    10030    2    1    2    0    0  0.00000000000E+00  0.00000000000E+00  0.26768817263E+04  0.35361321103E+04  0.23105268933E+04 0.  0.
        4    1    3    3  502    0 -0.39933199552E+03 -0.84146783296E+02 -0.31563236441E+03  0.51591872048E+03  0.12699999809E+01 0.  1.
       -4    1    3    3    0  502  0.39933199552E+03  0.84146783296E+02  0.29925140908E+04  0.30202133898E+04  0.12699999809E+01 0. -1.
</event>
<event>
 5   0  0.3226427E-06  0.2304791E+04  0.7818609E-02  0.8476034E-01
        1   -1    0    0  501    0  0.00000000000E+00  0.00000000000E+00  0.10843904020E+04  0.10843904020E+04  0.50400001928E-02 0.  1.
       -1   -1    0    0    0  501  0.00000000000E+00  0.00000000000E+00 -0.12246656771E+04  0.12246656771E+04  0.50400001928E-02 0. -1.
    10030    2    1    2    0    0  0.00000000000E+00  0.00000000000E+00 -0.14027527511E+03  0.23090560790E+04  0.23047912754E+04 0.  0.
        4    1    3    3  502    0  0.52510003367E+02  0.38737490063E+03 -0.11562088561E+04  0.12205069217E+04  0.12699999809E+01 0. -1.
       -4    1    3    3    0  502 -0.52510003367E+02 -0.38737490063E+03  0.10159335810E+04  0.10885491573E+04  0.12699999809E+01 0.  1.
</event>
<event>
 5   0  0.7242214E-06  0.2302097E+04  0.7818609E-02  0.8477095E-01
       -2   -1    0    0    0  501  0.00000000000E+00  0.00000000000E+00  0.15192965615E+04  0.15192965615E+04  0.25500000920E-02 0. -1.
        2   -1    0    0  501    0  0.00000000000E+00  0.00000000000E+00 -0.87205636158E+03  0.87205636159E+03  0.25500000920E-02 0.  1.
    10030    2    1    2    0    0  0.00000000000E+00  0.00000000000E+00  0.64724019990E+03  0.23913529231E+04  0.23020966370E+04 0.  0.
        1    1    3    3  502    0 -0.11341876791E+04  0.16826644259E+03  0.21862219309E+03  0.11672578766E+04  0.50400001928E-02 0.  1.
       -1    1    3    3    0  502  0.11341876791E+04 -0.16826644259E+03  0.42861800681E+03  0.12240950465E+04  0.50400001928E-02 0. -1.
</event>
<event>
 5   0  0.3338758E-06  0.2301479E+04  0.7818609E-02  0.8477338E-01
       -1   -1    0    0    0  501  0.00000000000E+00  0.00000000000E+00  0.11121844251E+04  0.11121844251E+04  0.50400001928E-02 0. -1.
        1   -1    0    0  501    0  0.00000000000E+00  0.00000000000E+00 -0.11906313445E+04  0.11906313445E+04  0.50400001928E-02 0.  1.
    10030    2    1    2    0    0  0.00000000000E+00  0.00000000000E+00 -0.78446919453E+02  0.23028157696E+04  0.23014792090E+04 0.  0.
        5    1    3    3  502    0 -0.76451760262E+03 -0.85793607254E+03 -0.99574970978E+02  0.11534637984E+04  0.46999998093E+01 0.  1.
       -5    1    3    3    0  502  0.76451760262E+03  0.85793607254E+03  0.21128051526E+02  0.11493519713E+04  0.46999998093E+01 0. -1.
</event>
<event>
 5   0  0.7348107E-06  0.2300884E+04  0.7818609E-02  0.8477572E-01
        2   -1    0    0  501    0  0.00000000000E+00  0.00000000000E+00  0.19539137257E+04  0.19539137257E+04  0.25500000920E-02 0. -1.
       -2   -1    0    0    0  501  0.00000000000E+00  0.00000000000E+00 -0.67736729171E+03  0.67736729172E+03  0.25500000920E-02 0.  1.
    10030    2    1    2    0    0  0.00000000000E+00  0.00000000000E+00  0.12765464340E+04  0.26312810174E+04  0.23008843940E+04 0.  0.
        3    1    3    3  502    0  0.10836643475E+04 -0.23889248728E+03  0.29117889225E+03  0.11472502761E+04  0.10100000352E+00 0.  1.
       -3    1    3    3    0  502 -0.10836643475E+04  0.23889248728E+03  0.98536754171E+03  0.14840307413E+04  0.10100000352E+00 0. -1.
</event>
<event>
 5   0  0.7242214E-06  0.2300383E+04  0.7818609E-02  0.8477770E-01
        2   -1    0    0  501    0  0.00000000000E+00  0.00000000000E+00  0.25121677379E+04  0.25121677379E+04  0.25500000920E-02 0. -1.
       -2   -1    0    0    0  501  0.00000000000E+00  0.00000000000E+00 -0.52661290944E+03  0.52661290945E+03  0.25500000920E-02 0.  1.
    10030    2    1    2    0    0  0.00000000000E+00  0.00000000000E+00  0.19855548285E+04  0.30387806474E+04  0.23003825434E+04 0.  0.
        1    1    3    3  502    0  0.61508677887E+02 -0.11107061770E+04  0.60654122343E+03  0.12670216197E+04  0.50400001928E-02 0. -1.
       -1    1    3    3    0  502 -0.61508677887E+02  0.11107061770E+04  0.13790136050E+04  0.17717590276E+04  0.50400001928E-02 0.  1.
</event>
<event>
 5   0  0.3338758E-06  0.2301101E+04  0.7818609E-02  0.8477487E-01
       -1   -1    0    0    0  501  0.00000000000E+00  0.00000000000E+00  0.12683184696E+04  0.12683184696E+04  0.50400001928E-02 0.  1.
        1   -1    0    0  501    0  0.00000000000E+00  0.00000000000E+00 -0.10437176908E+04  0.10437176908E+04  0.50400001928E-02 0. -1.
    10030    2    1    2    0    0  0.00000000000E+00  0.00000000000E+00  0.22460077885E+03  0.23120361604E+04  0.23011009750E+04 0.  0.
        5    1    3    3  502    0 -0.40955451755E+03 -0.66657780641E+02  0.11905104878E+04  0.12607598797E+04  0.46999998093E+01 0.  1.
       -5    1    3    3    0  502  0.40955451755E+03  0.66657780641E+02 -0.96590970899E+03  0.10512762808E+04  0.46999998093E+01 0. -1.
</event>
<event>
 5   0  0.3195296E-06  0.2302115E+04  0.7818609E-02  0.8477088E-01
        1   -1    0    0  501    0  0.00000000000E+00  0.00000000000E+00  0.29748947249E+04  0.29748947249E+04  0.50400001928E-02 0. -1.
       -1   -1    0    0    0  501  0.00000000000E+00  0.00000000000E+00 -0.44537133088E+03  0.44537133091E+03  0.50400001928E-02 0.  1.
    10030    2    1    2    0    0  0.00000000000E+00  0.00000000000E+00  0.25295233940E+04  0.34202660558E+04  0.23021145262E+04 0.  0.
        2    1    3    3  502    0 -0.66326744646E+03 -0.88173616306E+03  0.77752600645E+03  0.13497885232E+04  0.25500000920E-02 0.  1.
       -2    1    3    3    0  502  0.66326744646E+03  0.88173616306E+03  0.17519973875E+04  0.20704775325E+04  0.25500000920E-02 0. -1.
</event>
<event>
 5   0  0.7003852E-06  0.2298516E+04  0.7818609E-02  0.8478506E-01
        2   -1    0    0  501    0  0.00000000000E+00  0.00000000000E+00  0.18581443027E+04  0.18581443027E+04  0.25500000920E-02 0.  1.
       -2   -1    0    0    0  501  0.00000000000E+00  0.00000000000E+00 -0.71081350349E+03  0.71081350349E+03  0.25500000920E-02 0. -1.
    10030    2    1    2    0    0  0.00000000000E+00  0.00000000000E+00  0.11473307992E+04  0.25689578062E+04  0.22985160968E+04 0.  0.
        2    1    3    3  502    0  0.20088953969E+03  0.25448685529E+03 -0.65863890978E+03  0.73411537251E+03  0.25500000920E-02 0. -1.
       -2    1    3    3    0  502 -0.20088953969E+03 -0.25448685529E+03  0.18059697090E+04  0.18348424337E+04  0.25500000920E-02 0.  1.
</event>
<event>
 5   0  0.7003852E-06  0.2296052E+04  0.7818609E-02  0.8479479E-01
       -2   -1    0    0    0  501  0.00000000000E+00  0.00000000000E+00  0.86072459494E+03  0.86072459494E+03  0.25500000920E-02 0.  1.
        2   -1    0    0  501    0  0.00000000000E+00  0.00000000000E+00 -0.15312254362E+04  0.15312254362E+04  0.25500000920E-02 0. -1.
    10030    2    1    2    0    0  0.00000000000E+00  0.00000000000E+00 -0.67050084125E+03  0.23919500311E+04  0.22960517358E+04 0.  0.
        2    1    3    3  502    0 -0.41551880729E+03  0.10269158935E+04 -0.64908209151E+03  0.12839469199E+04  0.25500000920E-02 0. -1.
       -2    1    3    3    0  502  0.41551880729E+03 -0.10269158935E+04 -0.21418749743E+02  0.11080031112E+04  0.25500000920E-02 0.  1.
</event>
<event>
 5   0  0.3238713E-06  0.2349943E+04  0.7818609E-02  0.8458486E-01
        1   -1    0    0  501    0  0.00000000000E+00  0.00000000000E+00  0.20278247545E+04  0.20278247546E+04  0.50400001928E-02 0. -1.
       -1   -1    0    0    0  501  0.00000000000E+00  0.00000000000E+00 -0.68080712933E+03  0.68080712935E+03  0.50400001928E-02 0.  1.
    10030    2    1    2    0    0  0.00000000000E+00  0.00000000000E+00  0.13470176252E+04  0.27086318839E+04  0.23499425950E+04 0.  0.
        3    1    3    3  502    0  0.90119827373E+03 -0.14555312356E+03  0.15261594760E+04  0.17783438354E+04  0.10100000352E+00 0. -1.
       -3    1    3    3    0  502 -0.90119827373E+03  0.14555312356E+03 -0.17914185080E+03  0.93028804854E+03  0.10100000352E+00 0.  1.
</event>
<event>
 5   0  0.3195296E-06  0.2271692E+04  0.7818609E-02  0.8489167E-01
       -1   -1    0    0    0  501  0.00000000000E+00  0.00000000000E+00  0.86618298573E+03  0.86618298575E+03  0.50400001928E-02 0.  1.
        1   -1    0    0  501    0  0.00000000000E+00  0.00000000000E+00 -0.14894609135E+04  0.14894609135E+04  0.50400001928E-02 0. -1.
    10030    2    1    2    0    0  0.00000000000E+00  0.00000000000E+00 -0.62327792779E+03  0.23556438993E+04  0.22716916175E+04 0.  0.
        2    1    3    3  502    0 -0.14285480545E+03  0.21821797909E+03 -0.14579884296E+04  0.14811336343E+04  0.25500000920E-02 0. -1.
       -2    1    3    3    0  502  0.14285480545E+03 -0.21821797909E+03  0.83471050177E+03  0.87451026501E+03  0.25500000920E-02 0.  1.
</event>
<event>
 5   0  0.7242214E-06  0.2295442E+04  0.7818609E-02  0.8479720E-01
       -2   -1    0    0    0  501  0.00000000000E+00  0.00000000000E+00  0.43451929235E+03  0.43451929235E+03  0.25500000920E-02 0. -1.
        2   -1    0    0  501    0  0.00000000000E+00  0.00000000000E+00 -0.30315426881E+04  0.30315426881E+04  0.25500000920E-02 0.  1.
    10030    2    1    2    0    0  0.00000000000E+00  0.00000000000E+00 -0.25970233957E+04  0.34660619804E+04  0.22954422524E+04 0.  0.
        1    1    3    3  502    0  0.21423402933E+03  0.10930831501E+04 -0.88077264436E+03  0.14200307896E+04  0.50400001928E-02 0. -1.
       -1    1    3    3    0  502 -0.21423402933E+03 -0.10930831501E+04 -0.17162507514E+04  0.20460311909E+04  0.50400001928E-02 0.  1.
</event>
<event>
 5   0  0.3226427E-06  0.2314171E+04  0.7818609E-02  0.8472355E-01
       -1   -1    0    0    0  501  0.00000000000E+00  0.00000000000E+00  0.69356599707E+03  0.69356599709E+03  0.50400001928E-02 0.  1.
        1   -1    0    0  501    0  0.00000000000E+00  0.00000000000E+00 -0.19303811482E+04  0.19303811482E+04  0.50400001928E-02 0. -1.
    10030    2    1    2    0    0  0.00000000000E+00  0.00000000000E+00 -0.12368151511E+04  0.26239471453E+04  0.23141708890E+04 0.  0.
        4    1    3    3  502    0 -0.51687009992E+03  0.25893925701E+03  0.51808101043E+03  0.77628202690E+03  0.12699999809E+01 0.  1.
       -4    1    3    3    0  502  0.51687009992E+03 -0.25893925701E+03 -0.17548961616E+04  0.18476651184E+04  0.12699999809E+01 0. -1.
</event>
<event>
 5   0  0.7242214E-06  0.2304374E+04  0.7818609E-02  0.8476199E-01
        2   -1    0    0  501    0  0.00000000000E+00  0.00000000000E+00  0.14804856697E+04  0.14804856697E+04  0.25500000920E-02 0. -1.
       -2   -1    0    0    0  501  0.00000000000E+00  0.00000000000E+00 -0.89668863287E+03  0.89668863287E+03  0.25500000920E-02 0.  1.
    10030    2    1    2    0    0  0.00000000000E+00  0.00000000000E+00  0.58379703680E+03  0.23771743026E+04  0.23043738161E+04 0.  0.
        1    1    3    3  502    0 -0.77259794344E+03  0.46755169424E+03  0.10300621068E+04  0.13698686480E+04  0.50400001928E-02 0. -1.
       -1    1    3    3    0  502  0.77259794344E+03 -0.46755169424E+03 -0.44626506995E+03  0.10073056545E+04  0.50400001928E-02 0.  1.
</event>
<event>
 5   0  0.3184492E-06  0.2306897E+04  0.7818609E-02  0.8475207E-01
       -1   -1    0    0    0  501  0.00000000000E+00  0.00000000000E+00  0.14028535528E+04  0.14028535528E+04  0.50400001928E-02 0.  1.
        1   -1    0    0  501    0  0.00000000000E+00  0.00000000000E+00 -0.94838354080E+03  0.94838354082E+03  0.50400001928E-02 0. -1.
    10030    2    1    2    0    0  0.00000000000E+00  0.00000000000E+00  0.45447001202E+03  0.23512370937E+04  0.23068968071E+04 0.  0.
        1    1    3    3  502    0 -0.27036324564E+03  0.81723810501E+03  0.10097608214E+04  0.13268727601E+04  0.50400001928E-02 0.  1.
       -1    1    3    3    0  502  0.27036324564E+03 -0.81723810501E+03 -0.55529080942E+03  0.10243643336E+04  0.50400001928E-02 0. -1.
</event>
<event>
 5   0  0.7044981E-06  0.2299881E+04  0.7818609E-02  0.8477968E-01
       -2   -1    0    0    0  501  0.00000000000E+00  0.00000000000E+00  0.65417515406E+03  0.65417515406E+03  0.25500000920E-02 0.  1.
        2   -1    0    0  501    0  0.00000000000E+00  0.00000000000E+00 -0.20214201052E+04  0.20214201052E+04  0.25500000920E-02 0. -1.
    10030    2    1    2    0    0  0.00000000000E+00  0.00000000000E+00 -0.13672449511E+04  0.26755952592E+04  0.22998807001E+04 0.  0.
        4    1    3    3  502    0  0.10664300263E+04 -0.42489031233E+03 -0.76215089488E+03  0.13779261148E+04  0.12699999809E+01 0. -1.
       -4    1    3    3    0  502 -0.10664300263E+04  0.42489031233E+03 -0.60509405624E+03  0.12976691444E+04  0.12699999809E+01 0.  1.
</event>
<event>
 5   0  0.2519625E-06  0.2301200E+04  0.7818609E-02  0.8477448E-01
        3   -1    0    0  501    0  0.00000000000E+00  0.00000000000E+00  0.12107904048E+04  0.12107904090E+04  0.10100000352E+00 0. -1.
       -3   -1    0    0    0  501  0.00000000000E+00  0.00000000000E+00 -0.10934013921E+04  0.10934013967E+04  0.10100000352E+00 0.  1.
    10030    2    1    2    0    0  0.00000000000E+00  0.00000000000E+00  0.11738901275E+03  0.23041918057E+04  0.23011996213E+04 0.  0.
        3    1    3    3  502    0 -0.89180275436E+03 -0.52223759569E+03 -0.44776516555E+03  0.11262938838E+04  0.10100000352E+00 0. -1.
       -3    1    3    3    0  502  0.89180275436E+03  0.52223759569E+03  0.56515417830E+03  0.11778979219E+04  0.10100000352E+00 0.  1.
</event>
<event>
 5   0  0.7348107E-06  0.2304099E+04  0.7818609E-02  0.8476307E-01
        2   -1    0    0  501    0  0.00000000000E+00  0.00000000000E+00  0.11819668866E+04  0.11819668866E+04  0.25500000920E-02 0. -1.
       -2   -1    0    0    0  501  0.00000000000E+00  0.00000000000E+00 -0.11228896354E+04  0.11228896354E+04  0.25500000920E-02 0.  1.
    10030    2    1    2    0    0  0.00000000000E+00  0.00000000000E+00  0.59077251195E+02  0.23048565220E+04  0.23040992742E+04 0.  0.
        3    1    3    3  502    0  0.63951251721E+03 -0.33854193010E+03  0.92628818689E+03  0.11754134224E+04  0.10100000352E+00 0. -1.
       -3    1    3    3    0  502 -0.63951251721E+03  0.33854193010E+03 -0.86721093570E+03  0.11294430996E+04  0.10100000352E+00 0.  1.
</event>
<event>
 5   0  0.7003852E-06  0.2295885E+04  0.7818609E-02  0.8479545E-01
        2   -1    0    0  501    0  0.00000000000E+00  0.00000000000E+00  0.90677839986E+03  0.90677839986E+03  0.25500000920E-02 0. -1.
       -2   -1    0    0    0  501  0.00000000000E+00  0.00000000000E+00 -0.14532455251E+04  0.14532455251E+04  0.25500000920E-02 0.  1.
    10030    2    1    2    0    0  0.00000000000E+00  0.00000000000E+00 -0.54646712523E+03  0.23600239250E+04  0.22958847113E+04 0.  0.
        2    1    3    3  502    0 -0.11135192737E+03 -0.32570456518E+03  0.85248089375E+03  0.91935106990E+03  0.25500000920E-02 0. -1.
       -2    1    3    3    0  502  0.11135192737E+03  0.32570456518E+03 -0.13989480190E+04  0.14406728551E+04  0.25500000920E-02 0.  1.
</event>
<event>
 5   0  0.7242214E-06  0.2302067E+04  0.7818609E-02  0.8477107E-01
       -2   -1    0    0    0  501  0.00000000000E+00  0.00000000000E+00  0.11938500438E+04  0.11938500438E+04  0.25500000920E-02 0.  1.
        2   -1    0    0  501    0  0.00000000000E+00  0.00000000000E+00 -0.11097521299E+04  0.11097521299E+04  0.25500000920E-02 0. -1.
    10030    2    1    2    0    0  0.00000000000E+00  0.00000000000E+00  0.84097913919E+02  0.23036021737E+04  0.23020665749E+04 0.  0.
        1    1    3    3  502    0  0.21054746536E+03 -0.63620776571E+03  0.97850816789E+03  0.11859885290E+04  0.50400001928E-02 0.  1.
       -1    1    3    3    0  502 -0.21054746536E+03  0.63620776571E+03 -0.89441025397E+03  0.11176136447E+04  0.50400001928E-02 0. -1.
</event>
<event>
 5   0  0.3226427E-06  0.2300209E+04  0.7818609E-02  0.8477839E-01
       -1   -1    0    0    0  501  0.00000000000E+00  0.00000000000E+00  0.53759749001E+03  0.53759749003E+03  0.50400001928E-02 0. -1.
        1   -1    0    0  501    0  0.00000000000E+00  0.00000000000E+00 -0.24604660290E+04  0.24604660290E+04  0.50400001928E-02 0.  1.
    10030    2    1    2    0    0  0.00000000000E+00  0.00000000000E+00 -0.19228685390E+04  0.29980635190E+04  0.23002090005E+04 0.  0.
        4    1    3    3  502    0 -0.61860436773E+03 -0.52325247359E+03 -0.20253323875E+04  0.21813842870E+04  0.12699999809E+01 0.  1.
       -4    1    3    3    0  502  0.61860436773E+03  0.52325247359E+03  0.10246384849E+03  0.81667923204E+03  0.12699999809E+01 0. -1.
</event>
<event>
 5   0  0.7003852E-06  0.2298366E+04  0.7818609E-02  0.8478566E-01
        2   -1    0    0  501    0  0.00000000000E+00  0.00000000000E+00  0.86100437426E+03  0.86100437427E+03  0.25500000920E-02 0.  1.
       -2   -1    0    0    0  501  0.00000000000E+00  0.00000000000E+00 -0.15338149743E+04  0.15338149743E+04  0.25500000920E-02 0. -1.
    10030    2    1    2    0    0  0.00000000000E+00  0.00000000000E+00 -0.67281060006E+03  0.23948193486E+04  0.22983658562E+04 0.  0.
        2    1    3    3  502    0  0.66900734178E+03  0.92688055297E+03 -0.45944124594E+03  0.12319759094E+04  0.25500000920E-02 0.  1.
       -2    1    3    3    0  502 -0.66900734178E+03 -0.92688055297E+03 -0.21336935411E+03  0.11628434392E+04  0.25500000920E-02 0. -1.
</event>
<event>
 5   0  0.3238713E-06  0.2297330E+04  0.7818609E-02  0.8478974E-01
       -1   -1    0    0    0  501  0.00000000000E+00  0.00000000000E+00  0.56841664370E+03  0.56841664372E+03  0.50400001928E-02 0. -1.
        1   -1    0    0  501    0  0.00000000000E+00  0.00000000000E+00 -0.23212407002E+04  0.23212407002E+04  0.50400001928E-02 0.  1.
    10030    2    1    2    0    0  0.00000000000E+00  0.00000000000E+00 -0.17528240565E+04  0.28896573439E+04  0.22973304926E+04 0.  0.
        3    1    3    3  502    0  0.40436554959E+03  0.10739673018E+04 -0.93948672305E+03  0.14830888631E+04  0.10100000352E+00 0.  1.
       -3    1    3    3    0  502 -0.40436554959E+03 -0.10739673018E+04 -0.81333733345E+03  0.14065684808E+04  0.10100000352E+00 0. -1.
</event>
<event>
 5   0  0.3226427E-06  0.2296685E+04  0.7818609E-02  0.8479229E-01
        1   -1    0    0  501    0  0.00000000000E+00  0.00000000000E+00  0.82949267727E+03  0.82949267729E+03  0.50400001928E-02 0. -1.
       -1   -1    0    0    0  501  0.00000000000E+00  0.00000000000E+00 -0.15897548329E+04  0.15897548329E+04  0.50400001928E-02 0.  1.
    10030    2    1    2    0    0  0.00000000000E+00  0.00000000000E+00 -0.76026215564E+03  0.24192475102E+04  0.22966845605E+04 0.  0.
        4    1    3    3  502    0 -0.10243246911E+04  0.15040467830E+03  0.14319716775E+03  0.10451649065E+04  0.12699999809E+01 0. -1.
       -4    1    3    3    0  502  0.10243246911E+04 -0.15040467830E+03 -0.90345932339E+03  0.13740826037E+04  0.12699999809E+01 0.  1.
</event>
<event>
 5   0  0.3195296E-06  0.2297773E+04  0.7818609E-02  0.8478800E-01
       -1   -1    0    0    0  501  0.00000000000E+00  0.00000000000E+00  0.13567554683E+04  0.13567554683E+04  0.50400001928E-02 0. -1.
        1   -1    0    0  501    0  0.00000000000E+00  0.00000000000E+00 -0.97286479750E+03  0.97286479751E+03  0.50400001928E-02 0.  1.
    10030    2    1    2    0    0  0.00000000000E+00  0.00000000000E+00  0.38389067084E+03  0.23296202659E+04  0.22977725161E+04 0.  0.
        2    1    3    3  502    0  0.53569394729E+03 -0.31569611941E+03 -0.78752323284E+03  0.10034066410E+04  0.25500000920E-02 0.  1.
       -2    1    3    3    0  502 -0.53569394729E+03  0.31569611941E+03  0.11714139037E+04  0.13262136248E+04  0.25500000920E-02 0. -1.
</event>
<event>
 5   0  0.3338758E-06  0.2297844E+04  0.7818609E-02  0.8478772E-01
        1   -1    0    0  501    0  0.00000000000E+00  0.00000000000E+00  0.21649581272E+04  0.21649581273E+04  0.50400001928E-02 0.  1.
       -1   -1    0    0    0  501  0.00000000000E+00  0.00000000000E+00 -0.60972151848E+03  0.60972151851E+03  0.50400001928E-02 0. -1.
    10030    2    1    2    0    0  0.00000000000E+00  0.00000000000E+00  0.15552366088E+04  0.27746796458E+04  0.22978438214E+04 0.  0.
        5    1    3    3  502    0  0.78645452710E+03  0.82845046607E+03  0.62894895455E+03  0.13040091163E+04  0.46999998093E+01 0. -1.
       -5    1    3    3    0  502 -0.78645452710E+03 -0.82845046607E+03  0.92628765422E+03  0.14706705295E+04  0.46999998093E+01 0.  1.
</event>
<event>
 5   0  0.7242214E-06  0.2302410E+04  0.7818609E-02  0.8476972E-01
        2   -1    0    0  501    0  0.00000000000E+00  0.00000000000E+00  0.10834178230E+04  0.10834178230E+04  0.25500000920E-02 0. -1.
       -2   -1    0    0    0  501  0.00000000000E+00  0.00000000000E+00 -0.12232332771E+04  0.12232332772E+04  0.25500000920E-02 0.  1.
    10030    2    1    2    0    0  0.00000000000E+00  0.00000000000E+00 -0.13981545411E+03  0.23066511002E+04  0.23024098108E+04 0.  0.
        1    1    3    3  502    0  0.45438866490E+03  0.62324761062E+03 -0.92609660648E+03  0.12052226216E+04  0.50400001928E-02 0.  1.
       -1    1    3    3    0  502 -0.45438866490E+03 -0.62324761062E+03  0.78628115237E+03  0.11014284786E+04  0.50400001928E-02 0. -1.
</event>
<event>
 5   0  0.7044981E-06  0.2299365E+04  0.7818609E-02  0.8478172E-01
       -2   -1    0    0    0  501  0.00000000000E+00  0.00000000000E+00  0.82290214009E+03  0.82290214010E+03  0.25500000920E-02 0. -1.
        2   -1    0    0  501    0  0.00000000000E+00  0.00000000000E+00 -0.16062297610E+04  0.16062297610E+04  0.25500000920E-02 0.  1.
    10030    2    1    2    0    0  0.00000000000E+00  0.00000000000E+00 -0.78332762087E+03  0.24291319011E+04  0.22993650496E+04 0.  0.
        4    1    3    3  502    0 -0.18047489326E+03  0.61265094283E+03 -0.14015723369E+04  0.15402334217E+04  0.12699999809E+01 0.  1.
       -4    1    3    3    0  502  0.18047489326E+03 -0.61265094283E+03  0.61824471602E+03  0.88889847938E+03  0.12699999809E+01 0. -1.
</event>
<event>
 5   0  0.7348107E-06  0.2298870E+04  0.7818609E-02  0.8478367E-01
       -2   -1    0    0    0  501  0.00000000000E+00  0.00000000000E+00  0.63625886976E+03  0.63625886977E+03  0.25500000920E-02 0. -1.
        2   -1    0    0  501    0  0.00000000000E+00  0.00000000000E+00 -0.20765142677E+04  0.20765142677E+04  0.25500000920E-02 0.  1.
    10030    2    1    2    0    0  0.00000000000E+00  0.00000000000E+00 -0.14402553979E+04  0.27127731374E+04  0.22988698276E+04 0.  0.
        3    1    3    3  502    0 -0.69760352052E+03  0.19126221781E+03 -0.17742524851E+04  0.19160385692E+04  0.10100000352E+00 0.  1.
       -3    1    3    3    0  502  0.69760352052E+03 -0.19126221781E+03  0.33399708714E+03  0.79673456823E+03  0.10100000352E+00 0. -1.
</event>
<event>
 5   0  0.3195296E-06  0.2298565E+04  0.7818609E-02  0.8478487E-01
        1   -1    0    0  501    0  0.00000000000E+00  0.00000000000E+00  0.25924148408E+04  0.25924148408E+04  0.50400001928E-02 0. -1.
       -1   -1    0    0    0  501  0.00000000000E+00  0.00000000000E+00 -0.50950573851E+03  0.50950573853E+03  0.50400001928E-02 0.  1.
    10030    2    1    2    0    0  0.00000000000E+00  0.00000000000E+00  0.20829091023E+04  0.31019205793E+04  0.22985649767E+04 0.  0.
        2    1    3    3  502    0 -0.76455833104E+03 -0.41556232902E+03  0.28330206272E+02  0.87065727554E+03  0.25500000920E-02 0.  1.
       -2    1    3    3    0  502  0.76455833104E+03  0.41556232902E+03  0.20545788960E+04  0.22312633038E+04  0.25500000920E-02 0. -1.
</event>
<event>
 5   0  0.3195296E-06  0.2298858E+04  0.7818609E-02  0.8478372E-01
       -1   -1    0    0    0  501  0.00000000000E+00  0.00000000000E+00  0.95112019568E+03  0.95112019569E+03  0.50400001928E-02 0.  1.
        1   -1    0    0  501    0  0.00000000000E+00  0.00000000000E+00 -0.13890850702E+04  0.13890850702E+04  0.50400001928E-02 0. -1.
    10030    2    1    2    0    0  0.00000000000E+00  0.00000000000E+00 -0.43796487448E+03  0.23402052659E+04  0.22988578588E+04 0.  0.
        2    1    3    3  502    0  0.16947501604E+03  0.26114958048E+03 -0.13453489330E+04  0.13808999370E+04  0.25500000920E-02 0. -1.
       -2    1    3    3    0  502 -0.16947501604E+03 -0.26114958048E+03  0.90738405849E+03  0.95930532890E+03  0.25500000920E-02 0.  1.
</event>
<event>
 5   0  0.2519625E-06  0.2298618E+04  0.7818609E-02  0.8478466E-01
        3   -1    0    0  501    0  0.00000000000E+00  0.00000000000E+00  0.12177368227E+04  0.12177368269E+04  0.10100000352E+00 0.  1.
       -3   -1    0    0    0  501  0.00000000000E+00  0.00000000000E+00 -0.10847267077E+04  0.10847267124E+04  0.10100000352E+00 0. -1.
    10030    2    1    2    0    0  0.00000000000E+00  0.00000000000E+00  0.13301011505E+03  0.23024635393E+04  0.22986184240E+04 0.  0.
        3    1    3    3  502    0 -0.39835407431E+03 -0.10274508648E+04  0.39350237454E+03  0.11701219497E+04  0.10100000352E+00 0.  1.
       -3    1    3    3    0  502  0.39835407431E+03  0.10274508648E+04 -0.26049225949E+03  0.11323415896E+04  0.10100000352E+00 0. -1.
</event>
<event>
 5   0  0.3226427E-06  0.2308347E+04  0.7818609E-02  0.8474637E-01
       -1   -1    0    0    0  501  0.00000000000E+00  0.00000000000E+00  0.18482099837E+04  0.18482099837E+04  0.50400001928E-02 0. -1.
        1   -1    0    0  501    0  0.00000000000E+00  0.00000000000E+00 -0.72076048819E+03  0.72076048820E+03  0.50400001928E-02 0.  1.
    10030    2    1    2    0    0  0.00000000000E+00  0.00000000000E+00  0.11274494955E+04  0.25689704719E+04  0.23083472271E+04 0.  0.
        4    1    3    3  502    0 -0.32885919397E+03 -0.29566050385E+03  0.17501832614E+04  0.18051887891E+04  0.12699999809E+01 0. -1.
       -4    1    3    3    0  502  0.32885919397E+03  0.29566050385E+03 -0.62273376584E+03  0.76378168283E+03  0.12699999809E+01 0.  1.
</event>
<event>
 5   0  0.3184492E-06  0.2302137E+04  0.7818609E-02  0.8477079E-01
       -1   -1    0    0    0  501  0.00000000000E+00  0.00000000000E+00  0.12456345933E+04  0.12456345933E+04  0.50400001928E-02 0. -1.
        1   -1    0    0  501    0  0.00000000000E+00  0.00000000000E+00 -0.10636820249E+04  0.10636820249E+04  0.50400001928E-02 0.  1.
    10030    2    1    2    0    0  0.00000000000E+00  0.00000000000E+00  0.18195256834E+03  0.23093166182E+04  0.23021373778E+04 0.  0.
        1    1    3    3  502    0  0.71507720602E+03  0.88264876374E+03 -0.95492832127E+02  0.11399662853E+04  0.50400001928E-02 0. -1.
       -1    1    3    3    0  502 -0.71507720602E+03 -0.88264876374E+03  0.27744540047E+03  0.11693503329E+04  0.50400001928E-02 0.  1.
</event>
<event>
 5   0  0.7044981E-06  0.2299138E+04  0.7818609E-02  0.8478261E-01
       -2   -1    0    0    0  501  0.00000000000E+00  0.00000000000E+00  0.10268976936E+04  0.10268976936E+04  0.25500000920E-02 0. -1.
        2   -1    0    0  501    0  0.00000000000E+00  0.00000000000E+00 -0.12868938855E+04  0.12868938855E+04  0.25500000920E-02 0.  1.
    10030    2    1    2    0    0  0.00000000000E+00  0.00000000000E+00 -0.25999619185E+03  0.23137915791E+04  0.22991375452E+04 0.  0.
        4    1    3    3  502    0  0.11442866509E+03 -0.95068653041E+03 -0.77014034200E+03  0.12288273100E+04  0.12699999809E+01 0.  1.
       -4    1    3    3    0  502 -0.11442866509E+03  0.95068653041E+03  0.51014415015E+03  0.10849642692E+04  0.12699999809E+01 0. -1.
</event>
<event>
 5   0  0.7497344E-06  0.2298500E+04  0.7818609E-02  0.8478513E-01
       -2   -1    0    0    0  501  0.00000000000E+00  0.00000000000E+00  0.91248098826E+03  0.91248098827E+03  0.25500000920E-02 0. -1.
        2   -1    0    0  501    0  0.00000000000E+00  0.00000000000E+00 -0.14474548841E+04  0.14474548841E+04  0.25500000920E-02 0.  1.
    10030    2    1    2    0    0  0.00000000000E+00  0.00000000000E+00 -0.53497389587E+03  0.23599358724E+04  0.22984995655E+04 0.  0.
        5    1    3    3  502    0  0.55694952469E+01 -0.32734976053E+03 -0.13985508290E+04  0.14363688232E+04  0.46999998093E+01 0.  1.
       -5    1    3    3    0  502 -0.55694952469E+01  0.32734976053E+03  0.86357693311E+03  0.92356704921E+03  0.46999998093E+01 0. -1.
</event>
<event>
 5   0  0.3338758E-06  0.2297075E+04  0.7818609E-02  0.8479075E-01
       -1   -1    0    0    0  501  0.00000000000E+00  0.00000000000E+00  0.58584248660E+03  0.58584248662E+03  0.50400001928E-02 0.  1.
        1   -1    0    0  501    0  0.00000000000E+00  0.00000000000E+00 -0.22516947426E+04  0.22516947426E+04  0.50400001928E-02 0. -1.
    10030    2    1    2    0    0  0.00000000000E+00  0.00000000000E+00 -0.16658522560E+04  0.28375372292E+04  0.22970750507E+04 0.  0.
        5    1    3    3  502    0 -0.64648105720E+03 -0.28918734876E+03  0.28399717743E+03  0.76304886265E+03  0.46999998093E+01 0.  1.
       -5    1    3    3    0  502  0.64648105720E+03  0.28918734876E+03 -0.19498494334E+04  0.20744883666E+04  0.46999998093E+01 0. -1.
</event>
<event>
 5   0  0.7242214E-06  0.2299755E+04  0.7818609E-02  0.8478018E-01
        2   -1    0    0  501    0  0.00000000000E+00  0.00000000000E+00  0.19274552955E+04  0.19274552955E+04  0.25500000920E-02 0.  1.
       -2   -1    0    0    0  501  0.00000000000E+00  0.00000000000E+00 -0.68599151402E+03  0.68599151403E+03  0.25500000920E-02 0. -1.
    10030    2    1    2    0    0  0.00000000000E+00  0.00000000000E+00  0.12414637814E+04  0.26134468095E+04  0.22997547490E+04 0.  0.
        1    1    3    3  502    0  0.55942555315E+03 -0.10016247773E+04  0.53264177427E+03  0.12648780193E+04  0.50400001928E-02 0. -1.
       -1    1    3    3    0  502 -0.55942555315E+03  0.10016247773E+04  0.70882200716E+03  0.13485687902E+04  0.50400001928E-02 0.  1.
</event>
<event>
 5   0  0.7003852E-06  0.2283141E+04  0.7818609E-02  0.8484598E-01
        2   -1    0    0  501    0  0.00000000000E+00  0.00000000000E+00  0.95540100931E+03  0.95540100931E+03  0.25500000920E-02 0. -1.
       -2   -1    0    0    0  501  0.00000000000E+00  0.00000000000E+00 -0.13640164925E+04  0.13640164925E+04  0.25500000920E-02 0.  1.
    10030    2    1    2    0    0  0.00000000000E+00  0.00000000000E+00 -0.40861548320E+03  0.23194175018E+04  0.22831405858E+04 0.  0.
        2    1    3    3  502    0  0.82576485668E+03  0.35137852897E+03  0.51247254215E+03  0.10334324243E+04  0.25500000920E-02 0. -1.
       -2    1    3    3    0  502 -0.82576485668E+03 -0.35137852897E+03 -0.92108802535E+03  0.12859850775E+04  0.25500000920E-02 0.  1.
</event>
<event>
 5   0  0.7003852E-06  0.2307000E+04  0.7818609E-02  0.8475166E-01
       -2   -1    0    0    0  501  0.00000000000E+00  0.00000000000E+00  0.11124937515E+04  0.11124937515E+04  0.25500000920E-02 0.  1.
        2   -1    0    0  501    0  0.00000000000E+00  0.00000000000E+00 -0.11960177233E+04  0.11960177233E+04  0.25500000920E-02 0. -1.
    10030    2    1    2    0    0  0.00000000000E+00  0.00000000000E+00 -0.83523971728E+02  0.23085114748E+04  0.23069999947E+04 0.  0.
        2    1    3    3  502    0  0.23391508944E+03  0.74870573197E+03 -0.88806174247E+03  0.11848756055E+04  0.25500000920E-02 0. -1.
       -2    1    3    3    0  502 -0.23391508944E+03 -0.74870573197E+03  0.80453777074E+03  0.11236358693E+04  0.25500000920E-02 0.  1.
</event>
<event>
 5   0  0.3226427E-06  0.2299792E+04  0.7818609E-02  0.8478003E-01
        1   -1    0    0  501    0  0.00000000000E+00  0.00000000000E+00  0.80499345074E+03  0.80499345075E+03  0.50400001928E-02 0. -1.
       -1   -1    0    0    0  501  0.00000000000E+00  0.00000000000E+00 -0.16425734682E+04  0.16425734683E+04  0.50400001928E-02 0.  1.
    10030    2    1    2    0    0  0.00000000000E+00  0.00000000000E+00 -0.83758001751E+03  0.24475669190E+04  0.22997920639E+04 0.  0.
        4    1    3    3  502    0  0.10563196450E+03 -0.21501250492E+03  0.77814090558E+03  0.81418263985E+03  0.12699999809E+01 0. -1.
       -4    1    3    3    0  502 -0.10563196450E+03  0.21501250492E+03 -0.16157209231E+04  0.16333842792E+04  0.12699999809E+01 0.  1.
</event>
<event>
 5   0  0.3184492E-06  0.2301722E+04  0.7818609E-02  0.8477242E-01
        1   -1    0    0  501    0  0.00000000000E+00  0.00000000000E+00  0.13548165122E+04  0.13548165122E+04  0.50400001928E-02 0. -1.
       -1   -1    0    0    0  501  0.00000000000E+00  0.00000000000E+00 -0.97760950683E+03  0.97760950684E+03  0.50400001928E-02 0.  1.
    10030    2    1    2    0    0  0.00000000000E+00  0.00000000000E+00  0.37720700540E+03  0.23324260191E+04  0.23017224006E+04 0.  0.
        1    1    3    3  502    0  0.37746057267E+03  0.67449626685E+03  0.10526557435E+04  0.13059501569E+04  0.50400001928E-02 0. -1.
       -1    1    3    3    0  502 -0.37746057267E+03 -0.67449626685E+03 -0.67544873808E+03  0.10264758622E+04  0.50400001928E-02 0.  1.
</event>
<event>
 5   0  0.7497344E-06  0.2291603E+04  0.7818609E-02  0.8481239E-01
        2   -1    0    0  501    0  0.00000000000E+00  0.00000000000E+00  0.93554617075E+03  0.93554617075E+03  0.25500000920E-02 0.  1.
       -2   -1    0    0    0  501  0.00000000000E+00  0.00000000000E+00 -0.14033095373E+04  0.14033095373E+04  0.25500000920E-02 0. -1.
    10030    2    1    2    0    0  0.00000000000E+00  0.00000000000E+00 -0.46776336656E+03  0.23388557081E+04  0.22916028138E+04 0.  0.
        5    1    3    3  502    0  0.76552359170E+03 -0.67805142445E+03  0.29355146854E+03  0.10639429770E+04  0.46999998093E+01 0.  1.
       -5    1    3    3    0  502 -0.76552359170E+03  0.67805142445E+03 -0.76131483510E+03  0.12749127310E+04  0.46999998093E+01 0. -1.
</event>
<event>
 5   0  0.3338758E-06  0.2298182E+04  0.7818609E-02  0.8478638E-01
       -1   -1    0    0    0  501  0.00000000000E+00  0.00000000000E+00  0.79008376417E+03  0.79008376419E+03  0.50400001928E-02 0. -1.
        1   -1    0    0  501    0  0.00000000000E+00  0.00000000000E+00 -0.16712280891E+04  0.16712280891E+04  0.50400001928E-02 0.  1.
    10030    2    1    2    0    0  0.00000000000E+00  0.00000000000E+00 -0.88114432497E+03  0.24613118533E+04  0.22981820463E+04 0.  0.
        5    1    3    3  502    0 -0.22809547603E+03 -0.55849255548E+03  0.60682786621E+03  0.85568897967E+03  0.46999998093E+01 0. -1.
       -5    1    3    3    0  502  0.22809547603E+03  0.55849255548E+03 -0.14879721912E+04  0.16056228737E+04  0.46999998093E+01 0.  1.
</event>
<event>
 5   0  0.7003852E-06  0.2301271E+04  0.7818609E-02  0.8477420E-01
        2   -1    0    0  501    0  0.00000000000E+00  0.00000000000E+00  0.12232814305E+04  0.12232814305E+04  0.25500000920E-02 0.  1.
       -2   -1    0    0    0  501  0.00000000000E+00  0.00000000000E+00 -0.10823038035E+04  0.10823038035E+04  0.25500000920E-02 0. -1.
    10030    2    1    2    0    0  0.00000000000E+00  0.00000000000E+00  0.14097762698E+03  0.23055852341E+04  0.23012710793E+04 0.  0.
        2    1    3    3  502    0  0.66849647573E+03  0.64294447626E+03  0.75271839896E+03  0.11945083197E+04  0.25500000920E-02 0.  1.
       -2    1    3    3    0  502 -0.66849647573E+03 -0.64294447626E+03 -0.61174077198E+03  0.11110769144E+04  0.25500000920E-02 0. -1.
</event>
<event>
 5   0  0.7044981E-06  0.2298328E+04  0.7818609E-02  0.8478581E-01
       -2   -1    0    0    0  501  0.00000000000E+00  0.00000000000E+00  0.38879358494E+03  0.38879358494E+03  0.25500000920E-02 0.  1.
        2   -1    0    0  501    0  0.00000000000E+00  0.00000000000E+00 -0.33966037327E+04  0.33966037327E+04  0.25500000920E-02 0. -1.
    10030    2    1    2    0    0  0.00000000000E+00  0.00000000000E+00 -0.30078101478E+04  0.37853973177E+04  0.22983278634E+04 0.  0.
        4    1    3    3  502    0 -0.30344256239E+03  0.78967158220E+03 -0.27849004847E+04  0.29105550878E+04  0.12699999809E+01 0. -1.
       -4    1    3    3    0  502  0.30344256239E+03 -0.78967158220E+03 -0.22290966309E+03  0.87484222990E+03  0.12699999809E+01 0.  1.
</event>
<event>
 5   0  0.3226427E-06  0.2291353E+04  0.7818609E-02  0.8481338E-01
       -1   -1    0    0    0  501  0.00000000000E+00  0.00000000000E+00  0.14678319325E+04  0.14678319326E+04  0.50400001928E-02 0. -1.
        1   -1    0    0  501    0  0.00000000000E+00  0.00000000000E+00 -0.89422676243E+03  0.89422676244E+03  0.50400001928E-02 0.  1.
    10030    2    1    2    0    0  0.00000000000E+00  0.00000000000E+00  0.57360517012E+03  0.23620586950E+04  0.22913529600E+04 0.  0.
        4    1    3    3  502    0  0.31488820641E+03 -0.11014348423E+04  0.30341474208E+03  0.11850634637E+04  0.12699999809E+01 0. -1.
       -4    1    3    3    0  502 -0.31488820641E+03  0.11014348423E+04  0.27019042804E+03  0.11769952313E+04  0.12699999809E+01 0.  1.
</event>
<event>
 5   0  0.7497344E-06  0.2300760E+04  0.7818609E-02  0.8477621E-01
        2   -1    0    0  501    0  0.00000000000E+00  0.00000000000E+00  0.12615602727E+04  0.12615602727E+04  0.25500000920E-02 0. -1.
       -2   -1    0    0    0  501  0.00000000000E+00  0.00000000000E+00 -0.10489983501E+04  0.10489983501E+04  0.25500000920E-02 0.  1.
    10030    2    1    2    0    0  0.00000000000E+00  0.00000000000E+00  0.21256192262E+03  0.23105586228E+04  0.23007604348E+04 0.  0.
        5    1    3    3  502    0 -0.74289771176E+03  0.38650119215E+02  0.98749246170E+03  0.12363471575E+04  0.46999998093E+01 0. -1.
       -5    1    3    3    0  502  0.74289771176E+03 -0.38650119215E+02 -0.77493053908E+03  0.10742114653E+04  0.46999998093E+01 0.  1.
</event>
<event>
 5   0  0.7348107E-06  0.2300735E+04  0.7818609E-02  0.8477631E-01
       -2   -1    0    0    0  501  0.00000000000E+00  0.00000000000E+00  0.69319950780E+03  0.69319950781E+03  0.25500000920E-02 0. -1.
        2   -1    0    0  501    0  0.00000000000E+00  0.00000000000E+00 -0.19090397770E+04  0.19090397771E+04  0.25500000920E-02 0.  1.
    10030    2    1    2    0    0  0.00000000000E+00  0.00000000000E+00 -0.12158402692E+04  0.26022392849E+04  0.23007350424E+04 0.  0.
        3    1    3    3  502    0  0.11128266246E+04  0.10290627380E+03 -0.29946842618E+03  0.11570022239E+04  0.10100000352E+00 0. -1.
       -3    1    3    3    0  502 -0.11128266246E+04 -0.10290627380E+03 -0.91637184306E+03  0.14452370610E+04  0.10100000352E+00 0.  1.
</event>
<event>
 5   0  0.7044981E-06  0.2291053E+04  0.7818609E-02  0.8481457E-01
       -2   -1    0    0    0  501  0.00000000000E+00  0.00000000000E+00  0.76515811365E+03  0.76515811365E+03  0.25500000920E-02 0. -1.
        2   -1    0    0  501    0  0.00000000000E+00  0.00000000000E+00 -0.17149807145E+04  0.17149807145E+04  0.25500000920E-02 0.  1.
    10030    2    1    2    0    0  0.00000000000E+00  0.00000000000E+00 -0.94982260086E+03  0.24801388282E+04  0.22910533896E+04 0.  0.
        4    1    3    3  502    0 -0.20757357274E+02 -0.45864276393E+03 -0.16110264108E+04  0.16751691741E+04  0.12699999809E+01 0.  1.
       -4    1    3    3    0  502  0.20757357274E+02  0.45864276393E+03  0.66120380991E+03  0.80496965405E+03  0.12699999809E+01 0. -1.
</event>
<event>
 5   0  0.3195296E-06  0.2300908E+04  0.7818609E-02  0.8477563E-01
       -1   -1    0    0    0  501  0.00000000000E+00  0.00000000000E+00  0.16968229728E+04  0.16968229728E+04  0.50400001928E-02 0.  1.
        1   -1    0    0  501    0  0.00000000000E+00  0.00000000000E+00 -0.78001305212E+03  0.78001305214E+03  0.50400001928E-02 0. -1.
    10030    2    1    2    0    0  0.00000000000E+00  0.00000000000E+00  0.91680992067E+03  0.24768360249E+04  0.23009077043E+04 0.  0.
        2    1    3    3  502    0 -0.99530362977E+03 -0.29821022164E+03  0.99012127950E+03  0.14352347543E+04  0.25500000920E-02 0.  1.
       -2    1    3    3    0  502  0.99530362977E+03  0.29821022164E+03 -0.73311358833E+02  0.10416012707E+04  0.25500000920E-02 0. -1.
</event>
<event>
 5   0  0.7348107E-06  0.2301146E+04  0.7818609E-02  0.8477470E-01
        2   -1    0    0  501    0  0.00000000000E+00  0.00000000000E+00  0.20450769816E+04  0.20450769816E+04  0.25500000920E-02 0.  1.
       -2   -1    0    0    0  501  0.00000000000E+00  0.00000000000E+00 -0.64731928091E+03  0.64731928092E+03  0.25500000920E-02 0. -1.
    10030    2    1    2    0    0  0.00000000000E+00  0.00000000000E+00  0.13977577006E+04  0.26923962625E+04  0.23011455939E+04 0.  0.
        3    1    3    3  502    0 -0.85267613545E+02  0.67457439914E+03  0.17848584240E+04  0.19099844999E+04  0.10100000352E+00 0.  1.
       -3    1    3    3    0  502  0.85267613545E+02 -0.67457439914E+03 -0.38710072340E+03  0.78241176254E+03  0.10100000352E+00 0. -1.
</event>
<event>
 5   0  0.3338758E-06  0.2288527E+04  0.7818609E-02  0.8482459E-01
       -1   -1    0    0    0  501  0.00000000000E+00  0.00000000000E+00  0.11392334630E+04  0.11392334630E+04  0.50400001928E-02 0.  1.
        1   -1    0    0  501    0  0.00000000000E+00  0.00000000000E+00 -0.11493154710E+04  0.11493154710E+04  0.50400001928E-02 0. -1.
    10030    2    1    2    0    0  0.00000000000E+00  0.00000000000E+00 -0.10082008005E+02  0.22885489340E+04  0.22885267262E+04 0.  0.
        5    1    3    3  502    0 -0.45675762790E+03 -0.67888464928E+03  0.79484465896E+03  0.11407506386E+04  0.46999998093E+01 0.  1.
       -5    1    3    3    0  502  0.45675762790E+03  0.67888464928E+03 -0.80492666696E+03  0.11477982954E+04  0.46999998093E+01 0. -1.
</event>
<event>
 5   0  0.7044981E-06  0.2360989E+04  0.7818609E-02  0.8454255E-01
       -2   -1    0    0    0  501  0.00000000000E+00  0.00000000000E+00  0.93554619354E+03  0.93554619354E+03  0.25500000920E-02 0.  1.
        2   -1    0    0  501    0  0.00000000000E+00  0.00000000000E+00 -0.14895762801E+04  0.14895762801E+04  0.25500000920E-02 0. -1.
    10030    2    1    2    0    0  0.00000000000E+00  0.00000000000E+00 -0.55403008657E+03  0.24251224737E+04  0.23609891307E+04 0.  0.
        4    1    3    3  502    0  0.27861243996E+02  0.17472908867E+03 -0.14758781060E+04  0.14864468709E+04  0.12699999809E+01 0. -1.
       -4    1    3    3    0  502 -0.27861243996E+02 -0.17472908867E+03  0.92184801944E+03  0.93867560274E+03  0.12699999809E+01 0.  1.
</event>
<event>
 5   0  0.3184492E-06  0.2231449E+04  0.7818609E-02  0.8505451E-01
        1   -1    0    0  501    0  0.00000000000E+00  0.00000000000E+00  0.24081071948E+04  0.24081071948E+04  0.50400001928E-02 0. -1.
       -1   -1    0    0    0  501  0.00000000000E+00  0.00000000000E+00 -0.51693781311E+03  0.51693781313E+03  0.50400001928E-02 0.  1.
    10030    2    1    2    0    0  0.00000000000E+00  0.00000000000E+00  0.18911693817E+04  0.29250450079E+04  0.22314494545E+04 0.  0.
        1    1    3    3  502    0  0.63311028156E+03 -0.20993267369E+03 -0.22681194017E+03  0.70451686447E+03  0.50400001928E-02 0.  1.
       -1    1    3    3    0  502 -0.63311028156E+03  0.20993267369E+03  0.21179813218E+04  0.22205281434E+04  0.50400001928E-02 0. -1.
</event>
<event>
 5   0  0.7497344E-06  0.2310431E+04  0.7818609E-02  0.8473820E-01
       -2   -1    0    0    0  501  0.00000000000E+00  0.00000000000E+00  0.83984999979E+03  0.83984999980E+03  0.25500000920E-02 0. -1.
        2   -1    0    0  501    0  0.00000000000E+00  0.00000000000E+00 -0.15890008750E+04  0.15890008750E+04  0.25500000920E-02 0.  1.
    10030    2    1    2    0    0  0.00000000000E+00  0.00000000000E+00 -0.74915087518E+03  0.24288508748E+04  0.23104305958E+04 0.  0.
        5    1    3    3  502    0  0.25086835608E+03 -0.56404279423E+03 -0.14010549860E+04  0.15310311459E+04  0.46999998093E+01 0.  1.
       -5    1    3    3    0  502 -0.25086835608E+03  0.56404279423E+03  0.65190411086E+03  0.89781972888E+03  0.46999998093E+01 0. -1.
</event>
<event>
 5   0  0.3338758E-06  0.2302310E+04  0.7818609E-02  0.8477011E-01
        1   -1    0    0  501    0  0.00000000000E+00  0.00000000000E+00  0.19466525863E+04  0.19466525863E+04  0.50400001928E-02 0. -1.
       -1   -1    0    0    0  501  0.00000000000E+00  0.00000000000E+00 -0.68073680505E+03  0.68073680507E+03  0.50400001928E-02 0.  1.
    10030    2    1    2    0    0  0.00000000000E+00  0.00000000000E+00  0.12659157813E+04  0.26273893914E+04  0.23023101982E+04 0.  0.
        5    1    3    3  502    0  0.76323803667E+03 -0.69391498856E+03  0.49845708639E+02  0.10327424638E+04  0.46999998093E+01 0.  1.
       -5    1    3    3    0  502 -0.76323803667E+03  0.69391498856E+03  0.12160700726E+04  0.15946469275E+04  0.46999998093E+01 0. -1.
</event>
<event>
 5   0  0.3338758E-06  0.2312702E+04  0.7818609E-02  0.8472930E-01
        1   -1    0    0  501    0  0.00000000000E+00  0.00000000000E+00  0.20358842760E+04  0.20358842760E+04  0.50400001928E-02 0.  1.
       -1   -1    0    0    0  501  0.00000000000E+00  0.00000000000E+00 -0.65678937128E+03  0.65678937130E+03  0.50400001928E-02 0. -1.
    10030    2    1    2    0    0  0.00000000000E+00  0.00000000000E+00  0.13790949047E+04  0.26926736473E+04  0.23127015836E+04 0.  0.
        5    1    3    3  502    0  0.28827879804E+03  0.58809497567E+03  0.17990963090E+04  0.19146096169E+04  0.46999998093E+01 0.  1.
       -5    1    3    3    0  502 -0.28827879804E+03 -0.58809497567E+03 -0.42000140433E+03  0.77806403043E+03  0.46999998093E+01 0. -1.
</event>
<event>
 5   0  0.7497344E-06  0.2303672E+04  0.7818609E-02  0.8476475E-01
       -2   -1    0    0    0  501  0.00000000000E+00  0.00000000000E+00  0.63401413943E+03  0.63401413944E+03  0.25500000920E-02 0. -1.
        2   -1    0    0  501    0  0.00000000000E+00  0.00000000000E+00 -0.20925804920E+04  0.20925804920E+04  0.25500000920E-02 0.  1.
    10030    2    1    2    0    0  0.00000000000E+00  0.00000000000E+00 -0.14585663525E+04  0.27265946314E+04  0.23036715216E+04 0.  0.
        5    1    3    3  502    0 -0.15395266243E+02  0.99085910406E+03 -0.34421344012E+02  0.99158746323E+03  0.46999998093E+01 0. -1.
       -5    1    3    3    0  502  0.15395266243E+02 -0.99085910406E+03 -0.14241450085E+04  0.17350071682E+04  0.46999998093E+01 0.  1.
</event>
<event>
 5   0  0.3226427E-06  0.2308110E+04  0.7818609E-02  0.8474730E-01
       -1   -1    0    0    0  501  0.00000000000E+00  0.00000000000E+00  0.10614646238E+04  0.10614646238E+04  0.50400001928E-02 0. -1.
        1   -1    0    0  501    0  0.00000000000E+00  0.00000000000E+00 -0.12547220112E+04  0.12547220112E+04  0.50400001928E-02 0.  1.
    10030    2    1    2    0    0  0.00000000000E+00  0.00000000000E+00 -0.19325738740E+03  0.23161866350E+04  0.23081100733E+04 0.  0.
        4    1    3    3  502    0  0.10716009436E+04  0.34481708991E+03 -0.35171102181E+03  0.11793768115E+04  0.12699999809E+01 0.  1.
       -4    1    3    3    0  502 -0.10716009436E+04 -0.34481708991E+03  0.15845363441E+03  0.11368098235E+04  0.12699999809E+01 0. -1.
</event>
<event>
 5   0  0.3226427E-06  0.2300239E+04  0.7818609E-02  0.8477827E-01
        1   -1    0    0  501    0  0.00000000000E+00  0.00000000000E+00  0.13939470788E+04  0.13939470788E+04  0.50400001928E-02 0.  1.
       -1   -1    0    0    0  501  0.00000000000E+00  0.00000000000E+00 -0.94894225228E+03  0.94894225229E+03  0.50400001928E-02 0. -1.
    10030    2    1    2    0    0  0.00000000000E+00  0.00000000000E+00  0.44500482655E+03  0.23428893311E+04  0.23002393620E+04 0.  0.
        4    1    3    3  502    0  0.45801433404E+02  0.80409736879E+03  0.10587636689E+04  0.13302828531E+04  0.12699999809E+01 0.  1.
       -4    1    3    3    0  502 -0.45801433404E+02 -0.80409736879E+03 -0.61375884237E+03  0.10126064780E+04  0.12699999809E+01 0. -1.
</event>
<event>
 5   0  0.3338758E-06  0.2299883E+04  0.7818609E-02  0.8477967E-01
        1   -1    0    0  501    0  0.00000000000E+00  0.00000000000E+00  0.16090678045E+04  0.16090678045E+04  0.50400001928E-02 0.  1.
       -1   -1    0    0    0  501  0.00000000000E+00  0.00000000000E+00 -0.82182087338E+03  0.82182087339E+03  0.50400001928E-02 0. -1.
    10030    2    1    2    0    0  0.00000000000E+00  0.00000000000E+00  0.78724693113E+03  0.24308886779E+04  0.22998830479E+04 0.  0.
        5    1    3    3  502    0  0.96112826250E+02  0.11137925345E+04  0.10888662328E+03  0.11232318871E+04  0.46999998093E+01 0. -1.
       -5    1    3    3    0  502 -0.96112826250E+02 -0.11137925345E+04  0.67836030785E+03  0.13076567908E+04  0.46999998093E+01 0.  1.
</event>
<event>
 5   0  0.3226427E-06  0.2301094E+04  0.7818609E-02  0.8477490E-01
        1   -1    0    0  501    0  0.00000000000E+00  0.00000000000E+00  0.10913950865E+04  0.10913950866E+04  0.50400001928E-02 0. -1.
       -1   -1    0    0    0  501  0.00000000000E+00  0.00000000000E+00 -0.12129048336E+04  0.12129048336E+04  0.50400001928E-02 0.  1.
    10030    2    1    2    0    0  0.00000000000E+00  0.00000000000E+00 -0.12150974703E+03  0.23042999202E+04  0.23010939797E+04 0.  0.
        4    1    3    3  502    0  0.24421319107E+03  0.43891097997E+03 -0.10973172300E+04  0.12068096980E+04  0.12699999809E+01 0.  1.
       -4    1    3    3    0  502 -0.24421319107E+03 -0.43891097997E+03  0.97580748296E+03  0.10974902222E+04  0.12699999809E+01 0. -1.
</event>
<event>
 5   0  0.3226427E-06  0.2300525E+04  0.7818609E-02  0.8477714E-01
        1   -1    0    0  501    0  0.00000000000E+00  0.00000000000E+00  0.19586313465E+04  0.19586313465E+04  0.50400001928E-02 0.  1.
       -1   -1    0    0    0  501  0.00000000000E+00  0.00000000000E+00 -0.67552496006E+03  0.67552496008E+03  0.50400001928E-02 0. -1.
    10030    2    1    2    0    0  0.00000000000E+00  0.00000000000E+00  0.12831063864E+04  0.26341563066E+04  0.23005254723E+04 0.  0.
        4    1    3    3  502    0 -0.46749326179E+03  0.73806582341E+03  0.14982663914E+04  0.17343860303E+04  0.12699999809E+01 0.  1.
       -4    1    3    3    0  502  0.46749326179E+03 -0.73806582341E+03 -0.21516000496E+03  0.89977027631E+03  0.12699999809E+01 0. -1.
</event>
<event>
 5   0  0.3226427E-06  0.2301495E+04  0.7818609E-02  0.8477332E-01
        1   -1    0    0  501    0  0.00000000000E+00  0.00000000000E+00  0.50156436222E+03  0.50156436225E+03  0.50400001928E-02 0.  1.
       -1   -1    0    0    0  501  0.00000000000E+00  0.00000000000E+00 -0.26401801937E+04  0.26401801937E+04  0.50400001928E-02 0. -1.
    10030    2    1    2    0    0  0.00000000000E+00  0.00000000000E+00 -0.21386158315E+04  0.31417445560E+04  0.23014954226E+04 0.  0.
        4    1    3    3  502    0  0.67727027175E+03 -0.40317703355E+02 -0.23381045742E+04  0.24345544050E+04  0.12699999809E+01 0. -1.
       -4    1    3    3    0  502 -0.67727027175E+03  0.40317703355E+02  0.19948874272E+03  0.70719015093E+03  0.12699999809E+01 0.  1.
</event>
<event>
 5   0  0.3184492E-06  0.2299499E+04  0.7818609E-02  0.8478119E-01
        1   -1    0    0  501    0  0.00000000000E+00  0.00000000000E+00  0.99104807655E+03  0.99104807656E+03  0.50400001928E-02 0.  1.
       -1   -1    0    0    0  501  0.00000000000E+00  0.00000000000E+00 -0.13338645431E+04  0.13338645431E+04  0.50400001928E-02 0. -1.
    10030    2    1    2    0    0  0.00000000000E+00  0.00000000000E+00 -0.34281646652E+03  0.23249126196E+04  0.22994989800E+04 0.  0.
        1    1    3    3  502    0 -0.82268268810E+03 -0.70578554955E+03  0.21621358280E+03  0.11053001224E+04  0.50400001928E-02 0.  1.
       -1    1    3    3    0  502  0.82268268810E+03  0.70578554955E+03 -0.55903004932E+03  0.12196124972E+04  0.50400001928E-02 0. -1.
</event>
<event>
 5   0  0.7003852E-06  0.2295607E+04  0.7818609E-02  0.8479655E-01
       -2   -1    0    0    0  501  0.00000000000E+00  0.00000000000E+00  0.12435843114E+04  0.12435843114E+04  0.25500000920E-02 0.  1.
        2   -1    0    0  501    0  0.00000000000E+00  0.00000000000E+00 -0.10593995625E+04  0.10593995625E+04  0.25500000920E-02 0. -1.
    10030    2    1    2    0    0  0.00000000000E+00  0.00000000000E+00  0.18418474894E+03  0.23029838740E+04  0.22956068265E+04 0.  0.
        2    1    3    3  502    0 -0.15018006687E+02 -0.42813760679E+03  0.11603736512E+04  0.12369294083E+04  0.25500000920E-02 0.  1.
       -2    1    3    3    0  502  0.15018006687E+02  0.42813760679E+03 -0.97618890223E+03  0.10660544656E+04  0.25500000920E-02 0. -1.
</event>
<event>
 5   0  0.3184492E-06  0.2305966E+04  0.7818609E-02  0.8475572E-01
       -1   -1    0    0    0  501  0.00000000000E+00  0.00000000000E+00  0.10138585321E+04  0.10138585321E+04  0.50400001928E-02 0.  1.
        1   -1    0    0  501    0  0.00000000000E+00  0.00000000000E+00 -0.13111986522E+04  0.13111986522E+04  0.50400001928E-02 0. -1.
    10030    2    1    2    0    0  0.00000000000E+00  0.00000000000E+00 -0.29734012014E+03  0.23250571843E+04  0.23059661236E+04 0.  0.
        1    1    3    3  502    0  0.74270273573E+03 -0.79797218509E+03  0.22994236285E+03  0.11141097128E+04  0.50400001928E-02 0.  1.
       -1    1    3    3    0  502 -0.74270273573E+03  0.79797218509E+03 -0.52728248298E+03  0.12109474715E+04  0.50400001928E-02 0. -1.
</event>
<event>
 5   0  0.3184492E-06  0.2296680E+04  0.7818609E-02  0.8479231E-01
       -1   -1    0    0    0  501  0.00000000000E+00  0.00000000000E+00  0.59305593822E+03  0.59305593824E+03  0.50400001928E-02 0. -1.
        1   -1    0    0  501    0  0.00000000000E+00  0.00000000000E+00 -0.22235417302E+04  0.22235417302E+04  0.50400001928E-02 0.  1.
    10030    2    1    2    0    0  0.00000000000E+00  0.00000000000E+00 -0.16304857920E+04  0.28165976684E+04  0.22966798880E+04 0.  0.
        1    1    3    3  502    0  0.44363740202E+03  0.57345854285E+03  0.27686428657E+03  0.77609450329E+03  0.50400001928E-02 0. -1.
       -1    1    3    3    0  502 -0.44363740202E+03 -0.57345854285E+03 -0.19073500785E+04  0.20405031651E+04  0.50400001928E-02 0.  1.
</event>
<event>
 5   0  0.7497344E-06  0.2302995E+04  0.7818609E-02  0.8476741E-01
        2   -1    0    0  501    0  0.00000000000E+00  0.00000000000E+00  0.59802495052E+03  0.59802495053E+03  0.25500000920E-02 0. -1.
       -2   -1    0    0    0  501  0.00000000000E+00  0.00000000000E+00 -0.22172101943E+04  0.22172101943E+04  0.25500000920E-02 0.  1.
    10030    2    1    2    0    0  0.00000000000E+00  0.00000000000E+00 -0.16191852438E+04  0.28152351448E+04  0.23029954553E+04 0.  0.
        5    1    3    3  502    0 -0.87757822463E+03 -0.51820999994E+03 -0.15443787945E+03  0.10308046823E+04  0.46999998093E+01 0. -1.
       -5    1    3    3    0  502  0.87757822463E+03  0.51820999994E+03 -0.14647473643E+04  0.17844304626E+04  0.46999998093E+01 0.  1.
</event>
<event>
 5   0  0.2519625E-06  0.2303254E+04  0.7818609E-02  0.8476639E-01
       -4   -1    0    0    0  501  0.00000000000E+00  0.00000000000E+00  0.13837614738E+04  0.13837620566E+04  0.12699999809E+01 0. -1.
        4   -1    0    0  501    0  0.00000000000E+00  0.00000000000E+00 -0.95843294976E+03  0.95843379119E+03  0.12699999809E+01 0.  1.
    10030    2    1    2    0    0  0.00000000000E+00  0.00000000000E+00  0.42532852407E+03  0.23421958478E+04  0.23032535762E+04 0.  0.
        4    1    3    3  502    0  0.81693770747E+02 -0.91597079620E+03 -0.49228538469E+03  0.10430833546E+04  0.12699999809E+01 0.  1.
       -4    1    3    3    0  502 -0.81693770747E+02  0.91597079620E+03  0.91761390876E+03  0.12991124933E+04  0.12699999809E+01 0. -1.
</event>
<event>
 5   0  0.3238713E-06  0.2269938E+04  0.7818609E-02  0.8489869E-01
        1   -1    0    0  501    0  0.00000000000E+00  0.00000000000E+00  0.16928714477E+04  0.16928714477E+04  0.50400001928E-02 0.  1.
       -1   -1    0    0    0  501  0.00000000000E+00  0.00000000000E+00 -0.76092871139E+03  0.76092871140E+03  0.50400001928E-02 0. -1.
    10030    2    1    2    0    0  0.00000000000E+00  0.00000000000E+00  0.93194273635E+03  0.24538001592E+04  0.22699378752E+04 0.  0.
        3    1    3    3  502    0  0.14162730056E+03 -0.90407180830E+03  0.11917317489E+04  0.15025407476E+04  0.10100000352E+00 0.  1.
       -3    1    3    3    0  502 -0.14162730056E+03  0.90407180830E+03 -0.25978901250E+03  0.95125941154E+03  0.10100000352E+00 0. -1.
</event>
<event>
 5   0  0.3226427E-06  0.2311786E+04  0.7818609E-02  0.8473289E-01
        1   -1    0    0  501    0  0.00000000000E+00  0.00000000000E+00  0.13674748736E+04  0.13674748736E+04  0.50400001928E-02 0.  1.
       -1   -1    0    0    0  501  0.00000000000E+00  0.00000000000E+00 -0.97704774850E+03  0.97704774851E+03  0.50400001928E-02 0. -1.
    10030    2    1    2    0    0  0.00000000000E+00  0.00000000000E+00  0.39042712514E+03  0.23445226222E+04  0.23117856704E+04 0.  0.
        4    1    3    3  502    0  0.68400729581E+03 -0.54761890660E+03  0.95976859318E+03  0.12995806296E+04  0.12699999809E+01 0.  1.
       -4    1    3    3    0  502 -0.68400729581E+03  0.54761890660E+03 -0.56934146804E+03  0.10449419925E+04  0.12699999809E+01 0. -1.
</event>
<event>
 5   0  0.3226427E-06  0.2307396E+04  0.7818609E-02  0.8475011E-01
        1   -1    0    0  501    0  0.00000000000E+00  0.00000000000E+00  0.12938368102E+04  0.12938368102E+04  0.50400001928E-02 0.  1.
       -1   -1    0    0    0  501  0.00000000000E+00  0.00000000000E+00 -0.10287382657E+04  0.10287382657E+04  0.50400001928E-02 0. -1.
    10030    2    1    2    0    0  0.00000000000E+00  0.00000000000E+00  0.26509854448E+03  0.23225750759E+04  0.23073963129E+04 0.  0.
        4    1    3    3  502    0  0.81803504798E+03 -0.30682110844E+03  0.89096263746E+03  0.12478527824E+04  0.12699999809E+01 0.  1.
       -4    1    3    3    0  502 -0.81803504798E+03  0.30682110844E+03 -0.62586409298E+03  0.10747222935E+04  0.12699999809E+01 0. -1.
</event>
<event>
 5   0  0.7044981E-06  0.2300841E+04  0.7818609E-02  0.8477590E-01
       -2   -1    0    0    0  501  0.00000000000E+00  0.00000000000E+00  0.64957693543E+03  0.64957693544E+03  0.25500000920E-02 0.  1.
        2   -1    0    0  501    0  0.00000000000E+00  0.00000000000E+00 -0.20374299287E+04  0.20374299287E+04  0.25500000920E-02 0. -1.
    10030    2    1    2    0    0  0.00000000000E+00  0.00000000000E+00 -0.13878529932E+04  0.26870068641E+04  0.23008411412E+04 0.  0.
        4    1    3    3  502    0 -0.54404926200E+03 -0.84891323684E+03 -0.13408096031E+04  0.16776219144E+04  0.12699999809E+01 0. -1.
       -4    1    3    3    0  502  0.54404926200E+03  0.84891323684E+03 -0.47043390145E+02  0.10093849497E+04  0.12699999809E+01 0.  1.
</event>
<event>
 5   0  0.2519625E-06  0.2300426E+04  0.7818609E-02  0.8477753E-01
        3   -1    0    0  501    0  0.00000000000E+00  0.00000000000E+00  0.10178588947E+04  0.10178588997E+04  0.10100000352E+00 0. -1.
       -3   -1    0    0    0  501  0.00000000000E+00  0.00000000000E+00 -0.12997769691E+04  0.12997769731E+04  0.10100000352E+00 0.  1.
    10030    2    1    2    0    0  0.00000000000E+00  0.00000000000E+00 -0.28191807449E+03  0.23176358727E+04  0.23004256645E+04 0.  0.
        5    1    3    3  502    0 -0.10064381296E+04  0.45047728222E+03 -0.47069949743E+03  0.11989276864E+04  0.46999998093E+01 0.  1.
       -5    1    3    3    0  502  0.10064381296E+04 -0.45047728222E+03  0.18878142294E+03  0.11187081863E+04  0.46999998093E+01 0. -1.
</event>
<event>
 5   0  0.3238713E-06  0.2299385E+04  0.7818609E-02  0.8478164E-01
       -1   -1    0    0    0  501  0.00000000000E+00  0.00000000000E+00  0.10673357100E+04  0.10673357100E+04  0.50400001928E-02 0. -1.
        1   -1    0    0  501    0  0.00000000000E+00  0.00000000000E+00 -0.12384042193E+04  0.12384042193E+04  0.50400001928E-02 0.  1.
    10030    2    1    2    0    0  0.00000000000E+00  0.00000000000E+00 -0.17106850926E+03  0.23057399293E+04  0.22993851758E+04 0.  0.
        3    1    3    3  502    0  0.31939247095E+03  0.91634186206E+03  0.53269136899E+03  0.11070022870E+04  0.10100000352E+00 0. -1.
       -3    1    3    3    0  502 -0.31939247095E+03 -0.91634186206E+03 -0.70375987825E+03  0.11987376423E+04  0.10100000352E+00 0.  1.
</event>
<event>
 5   0  0.7003852E-06  0.2305940E+04  0.7818609E-02  0.8475583E-01
        2   -1    0    0  501    0  0.00000000000E+00  0.00000000000E+00  0.19339599123E+04  0.19339599123E+04  0.25500000920E-02 0. -1.
       -2   -1    0    0    0  501  0.00000000000E+00  0.00000000000E+00 -0.68736672036E+03  0.68736672037E+03  0.25500000920E-02 0.  1.
    10030    2    1    2    0    0  0.00000000000E+00  0.00000000000E+00  0.12465931920E+04  0.26213266327E+04  0.23059398798E+04 0.  0.
        2    1    3    3  502    0 -0.81611612782E+03 -0.45960244742E+03  0.13876092933E+04  0.16741384336E+04  0.25500000920E-02 0. -1.
       -2    1    3    3    0  502  0.81611612782E+03  0.45960244742E+03 -0.14101610136E+03  0.94718819915E+03  0.25500000920E-02 0.  1.
</event>
<event>
 5   0  0.7497344E-06  0.2300874E+04  0.7818609E-02  0.8477577E-01
       -2   -1    0    0    0  501  0.00000000000E+00  0.00000000000E+00  0.96040394847E+03  0.96040394847E+03  0.25500000920E-02 0. -1.
        2   -1    0    0  501    0  0.00000000000E+00  0.00000000000E+00 -0.13780709052E+04  0.13780709052E+04  0.25500000920E-02 0.  1.
    10030    2    1    2    0    0  0.00000000000E+00  0.00000000000E+00 -0.41766695675E+03  0.23384748537E+04  0.23008735199E+04 0.  0.
        5    1    3    3  502    0  0.49551106002E+03 -0.19545991148E+03 -0.12451770723E+04  0.13543351945E+04  0.46999998093E+01 0.  1.
       -5    1    3    3    0  502 -0.49551106002E+03  0.19545991148E+03  0.82751011553E+03  0.98413965924E+03  0.46999998093E+01 0. -1.
</event>
<event>
 5   0  0.7348107E-06  0.2316219E+04  0.7818609E-02  0.8471554E-01
        2   -1    0    0  501    0  0.00000000000E+00  0.00000000000E+00  0.13619872840E+04  0.13619872840E+04  0.25500000920E-02 0.  1.
       -2   -1    0    0    0  501  0.00000000000E+00  0.00000000000E+00 -0.98475023218E+03  0.98475023218E+03  0.25500000920E-02 0. -1.
    10030    2    1    2    0    0  0.00000000000E+00  0.00000000000E+00  0.37723705180E+03  0.23467375162E+04  0.23162187238E+04 0.  0.
        3    1    3    3  502    0 -0.86526236936E+03  0.73950564231E+03  0.40513907902E+03  0.12081743444E+04  0.10100000352E+00 0.  1.
       -3    1    3    3    0  502  0.86526236936E+03 -0.73950564231E+03 -0.27902027213E+02  0.11385631718E+04  0.10100000352E+00 0. -1.
</event>
<event>
 5   0  0.3195296E-06  0.2298650E+04  0.7818609E-02  0.8478454E-01
       -1   -1    0    0    0  501  0.00000000000E+00  0.00000000000E+00  0.76417421376E+03  0.76417421377E+03  0.50400001928E-02 0. -1.
        1   -1    0    0  501    0  0.00000000000E+00  0.00000000000E+00 -0.17285951623E+04  0.17285951623E+04  0.50400001928E-02 0.  1.
    10030    2    1    2    0    0  0.00000000000E+00  0.00000000000E+00 -0.96442094854E+03  0.24927693761E+04  0.22986499073E+04 0.  0.
        2    1    3    3  502    0 -0.44367019472E+03  0.61391514848E+02  0.66563481044E+03  0.80229786280E+03  0.25500000920E-02 0. -1.
       -2    1    3    3    0  502  0.44367019472E+03 -0.61391514848E+02 -0.16300557590E+04  0.16904715133E+04  0.25500000920E-02 0.  1.
</event>
<event>
 5   0  0.7348107E-06  0.2297793E+04  0.7818609E-02  0.8478792E-01
       -2   -1    0    0    0  501  0.00000000000E+00  0.00000000000E+00  0.81253948881E+03  0.81253948882E+03  0.25500000920E-02 0.  1.
        2   -1    0    0  501    0  0.00000000000E+00  0.00000000000E+00 -0.16244905683E+04  0.16244905683E+04  0.25500000920E-02 0. -1.
    10030    2    1    2    0    0  0.00000000000E+00  0.00000000000E+00 -0.81195107947E+03  0.24370300571E+04  0.22977926242E+04 0.  0.
        3    1    3    3  502    0 -0.75487820125E+03 -0.32359580759E+03  0.44607826134E+03  0.93463424443E+03  0.10100000352E+00 0.  1.
       -3    1    3    3    0  502  0.75487820125E+03  0.32359580759E+03 -0.12580293408E+04  0.15023958127E+04  0.10100000352E+00 0. -1.
</event>
<event>
 5   0  0.3338758E-06  0.2286822E+04  0.7818609E-02  0.8483135E-01
        1   -1    0    0  501    0  0.00000000000E+00  0.00000000000E+00  0.10927970313E+04  0.10927970313E+04  0.50400001928E-02 0. -1.
       -1   -1    0    0    0  501  0.00000000000E+00  0.00000000000E+00 -0.11963695479E+04  0.11963695479E+04  0.50400001928E-02 0.  1.
    10030    2    1    2    0    0  0.00000000000E+00  0.00000000000E+00 -0.10357251656E+03  0.22891665792E+04  0.22868223283E+04 0.  0.
        5    1    3    3  502    0  0.10631649486E+04 -0.21602806747E+03 -0.41323696058E+03  0.11609369963E+04  0.46999998093E+01 0.  1.
       -5    1    3    3    0  502 -0.10631649486E+04  0.21602806747E+03  0.30966444402E+03  0.11282295829E+04  0.46999998093E+01 0. -1.
</event>
<event>
 5   0  0.3238713E-06  0.2306355E+04  0.7818609E-02  0.8475419E-01
        1   -1    0    0  501    0  0.00000000000E+00  0.00000000000E+00  0.12873824686E+04  0.12873824686E+04  0.50400001928E-02 0. -1.
       -1   -1    0    0    0  501  0.00000000000E+00  0.00000000000E+00 -0.10329633544E+04  0.10329633544E+04  0.50400001928E-02 0.  1.
    10030    2    1    2    0    0  0.00000000000E+00  0.00000000000E+00  0.25441911421E+03  0.23203458230E+04  0.23063554913E+04 0.  0.
        3    1    3    3  502    0  0.11198177780E+04  0.27497008844E+03  0.14208088338E+03  0.11618035088E+04  0.10100000352E+00 0.  1.
       -3    1    3    3    0  502 -0.11198177780E+04 -0.27497008844E+03  0.11233823083E+03  0.11585423142E+04  0.10100000352E+00 0. -1.
</event>
<event>
 5   0  0.3226427E-06  0.2299054E+04  0.7818609E-02  0.8478294E-01
       -1   -1    0    0    0  501  0.00000000000E+00  0.00000000000E+00  0.79047186280E+03  0.79047186282E+03  0.50400001928E-02 0. -1.
        1   -1    0    0  501    0  0.00000000000E+00  0.00000000000E+00 -0.16716749902E+04  0.16716749902E+04  0.50400001928E-02 0.  1.
    10030    2    1    2    0    0  0.00000000000E+00  0.00000000000E+00 -0.88120312739E+03  0.24621468530E+04  0.22990537562E+04 0.  0.
        4    1    3    3  502    0 -0.69055693172E+03  0.91316319653E+03 -0.55124845878E+03  0.12706739848E+04  0.12699999809E+01 0.  1.
       -4    1    3    3    0  502  0.69055693172E+03 -0.91316319653E+03 -0.32995466860E+03  0.11914728682E+04  0.12699999809E+01 0. -1.
</event>
<event>
 5   0  0.7044981E-06  0.2301681E+04  0.7818609E-02  0.8477259E-01
       -2   -1    0    0    0  501  0.00000000000E+00  0.00000000000E+00  0.11026315541E+04  0.11026315541E+04  0.25500000920E-02 0. -1.
        2   -1    0    0  501    0  0.00000000000E+00  0.00000000000E+00 -0.12011569482E+04  0.12011569482E+04  0.25500000920E-02 0.  1.
    10030    2    1    2    0    0  0.00000000000E+00  0.00000000000E+00 -0.98525394078E+02  0.23037885023E+04  0.23016807360E+04 0.  0.
        4    1    3    3  502    0 -0.92859148164E+03 -0.65461398851E+03 -0.23281636260E+03  0.11597442327E+04  0.12699999809E+01 0.  1.
       -4    1    3    3    0  502  0.92859148164E+03  0.65461398851E+03  0.13429096853E+03  0.11440442696E+04  0.12699999809E+01 0. -1.
</event>
<event>
 5   0  0.3226427E-06  0.2304829E+04  0.7818609E-02  0.8476019E-01
       -1   -1    0    0    0  501  0.00000000000E+00  0.00000000000E+00  0.11386904288E+04  0.11386904288E+04  0.50400001928E-02 0. -1.
        1   -1    0    0  501    0  0.00000000000E+00  0.00000000000E+00 -0.11663041732E+04  0.11663041732E+04  0.50400001928E-02 0.  1.
    10030    2    1    2    0    0  0.00000000000E+00  0.00000000000E+00 -0.27613744417E+02  0.23049946020E+04  0.23048291903E+04 0.  0.
        4    1    3    3  502    0 -0.24260905319E+03  0.26751669359E+03 -0.11082498175E+04  0.11656086843E+04  0.12699999809E+01 0.  1.
       -4    1    3    3    0  502  0.24260905319E+03 -0.26751669359E+03  0.10806360731E+04  0.11393859177E+04  0.12699999809E+01 0. -1.
</event>
<event>
 5   0  0.7497344E-06  0.2301553E+04  0.7818609E-02  0.8477309E-01
       -2   -1    0    0    0  501  0.00000000000E+00  0.00000000000E+00  0.11926893625E+04  0.11926893625E+04  0.25500000920E-02 0.  1.
        2   -1    0    0  501    0  0.00000000000E+00  0.00000000000E+00 -0.11103369399E+04  0.11103369399E+04  0.25500000920E-02 0. -1.
    10030    2    1    2    0    0  0.00000000000E+00  0.00000000000E+00  0.82352422639E+02  0.23030263024E+04  0.23015534380E+04 0.  0.
        5    1    3    3  502    0 -0.31794057876E+03 -0.10141656114E+04 -0.40029414299E+03  0.11357268994E+04  0.46999998093E+01 0. -1.
       -5    1    3    3    0  502  0.31794057876E+03  0.10141656114E+04  0.48264656563E+03  0.11672994030E+04  0.46999998093E+01 0.  1.
</event>
<event>
 5   0  0.3238713E-06  0.2301000E+04  0.7818609E-02  0.8477527E-01
       -1   -1    0    0    0  501  0.00000000000E+00  0.00000000000E+00  0.12873795723E+04  0.12873795723E+04  0.50400001928E-02 0. -1.
        1   -1    0    0  501    0  0.00000000000E+00  0.00000000000E+00 -0.10281742851E+04  0.10281742851E+04  0.50400001928E-02 0.  1.
    10030    2    1    2    0    0  0.00000000000E+00  0.00000000000E+00  0.25920528726E+03  0.23155538574E+04  0.23010002793E+04 0.  0.
        3    1    3    3  502    0  0.69803290925E+03 -0.65742959910E+03  0.76938072050E+03  0.12293942913E+04  0.10100000352E+00 0. -1.
       -3    1    3    3    0  502 -0.69803290925E+03  0.65742959910E+03 -0.51017543324E+03  0.10861595661E+04  0.10100000352E+00 0.  1.
</event>
<event>
 5   0  0.7003852E-06  0.2298646E+04  0.7818609E-02  0.8478455E-01
       -2   -1    0    0    0  501  0.00000000000E+00  0.00000000000E+00  0.75892320254E+03  0.75892320254E+03  0.25500000920E-02 0.  1.
        2   -1    0    0  501    0  0.00000000000E+00  0.00000000000E+00 -0.17405497313E+04  0.17405497313E+04  0.25500000920E-02 0. -1.
    10030    2    1    2    0    0  0.00000000000E+00  0.00000000000E+00 -0.98162652880E+03  0.24994729339E+04  0.22986461896E+04 0.  0.
        2    1    3    3  502    0  0.88839439467E+03  0.46700639866E+03  0.11811636323E+03  0.10105894578E+04  0.25500000920E-02 0.  1.
       -2    1    3    3    0  502 -0.88839439467E+03 -0.46700639866E+03 -0.10997428920E+04  0.14888834761E+04  0.25500000920E-02 0. -1.
</event>
<event>
 5   0  0.7044981E-06  0.2300496E+04  0.7818609E-02  0.8477726E-01
       -2   -1    0    0    0  501  0.00000000000E+00  0.00000000000E+00  0.11499744222E+04  0.11499744222E+04  0.25500000920E-02 0.  1.
        2   -1    0    0  501    0  0.00000000000E+00  0.00000000000E+00 -0.11505214304E+04  0.11505214304E+04  0.25500000920E-02 0. -1.
    10030    2    1    2    0    0  0.00000000000E+00  0.00000000000E+00 -0.54700822418E+00  0.23004958526E+04  0.23004957876E+04 0.  0.
        4    1    3    3  502    0 -0.62177015541E+03  0.15798269674E+03 -0.95500487846E+03  0.11504749408E+04  0.12699999809E+01 0. -1.
       -4    1    3    3    0  502  0.62177015541E+03 -0.15798269674E+03  0.95445787024E+03  0.11500209118E+04  0.12699999809E+01 0.  1.
</event>
<event>
 5   0  0.7003852E-06  0.2295632E+04  0.7818609E-02  0.8479645E-01
        2   -1    0    0  501    0  0.00000000000E+00  0.00000000000E+00  0.66671061799E+03  0.66671061799E+03  0.25500000920E-02 0. -1.
       -2   -1    0    0    0  501  0.00000000000E+00  0.00000000000E+00 -0.19760922859E+04  0.19760922859E+04  0.25500000920E-02 0.  1.
    10030    2    1    2    0    0  0.00000000000E+00  0.00000000000E+00 -0.13093816680E+04  0.26428029039E+04  0.22956321214E+04 0.  0.
        2    1    3    3  502    0  0.10602161619E+04  0.49907278824E+00 -0.14838059695E+03  0.10705490930E+04  0.25500000920E-02 0. -1.
       -2    1    3    3    0  502 -0.10602161619E+04 -0.49907278824E+00 -0.11610010710E+04  0.15722538109E+04  0.25500000920E-02 0.  1.
</event>
<event>
 5   0  0.3226427E-06  0.2296929E+04  0.7818609E-02  0.8479133E-01
        1   -1    0    0  501    0  0.00000000000E+00  0.00000000000E+00  0.12113404543E+04  0.12113404543E+04  0.50400001928E-02 0. -1.
       -1   -1    0    0    0  501  0.00000000000E+00  0.00000000000E+00 -0.10888519494E+04  0.10888519494E+04  0.50400001928E-02 0.  1.
    10030    2    1    2    0    0  0.00000000000E+00  0.00000000000E+00  0.12248850491E+03  0.23001924037E+04  0.22969287451E+04 0.  0.
        4    1    3    3  502    0 -0.64625533730E+03  0.78071497147E+03 -0.47971490366E+03  0.11212893602E+04  0.12699999809E+01 0.  1.
       -4    1    3    3    0  502  0.64625533730E+03 -0.78071497147E+03  0.60220340857E+03  0.11789030435E+04  0.12699999809E+01 0. -1.
</event>
<event>
 5   0  0.7497344E-06  0.2302289E+04  0.7818609E-02  0.8477019E-01
        2   -1    0    0  501    0  0.00000000000E+00  0.00000000000E+00  0.20291672848E+04  0.20291672848E+04  0.25500000920E-02 0. -1.
       -2   -1    0    0    0  501  0.00000000000E+00  0.00000000000E+00 -0.65304313045E+03  0.65304313046E+03  0.25500000920E-02 0.  1.
    10030    2    1    2    0    0  0.00000000000E+00  0.00000000000E+00  0.13761241543E+04  0.26822104152E+04  0.23022890834E+04 0.  0.
        5    1    3    3  502    0 -0.63366603212E+03  0.85516332325E+03  0.17721127483E+03  0.10790101369E+04  0.46999998093E+01 0.  1.
       -5    1    3    3    0  502  0.63366603212E+03 -0.85516332325E+03  0.11989128795E+04  0.16032002783E+04  0.46999998093E+01 0. -1.
</event>
<event>
 5   0  0.3195296E-06  0.2300888E+04  0.7818609E-02  0.8477571E-01
       -1   -1    0    0    0  501  0.00000000000E+00  0.00000000000E+00  0.83288417422E+03  0.83288417423E+03  0.50400001928E-02 0. -1.
        1   -1    0    0  501    0  0.00000000000E+00  0.00000000000E+00 -0.15890825618E+04  0.15890825618E+04  0.50400001928E-02 0.  1.
    10030    2    1    2    0    0  0.00000000000E+00  0.00000000000E+00 -0.75619838762E+03  0.24219667361E+04  0.23008882783E+04 0.  0.
        2    1    3    3  502    0 -0.10611797721E+04  0.33456853513E+03 -0.70338761067E+02  0.11148928894E+04  0.25500000920E-02 0.  1.
       -2    1    3    3    0  502  0.10611797721E+04 -0.33456853513E+03 -0.68585962655E+03  0.13070738467E+04  0.25500000920E-02 0. -1.
</event>
<event>
 5   0  0.3184492E-06  0.2300452E+04  0.7818609E-02  0.8477743E-01
       -1   -1    0    0    0  501  0.00000000000E+00  0.00000000000E+00  0.75542081415E+03  0.75542081416E+03  0.50400001928E-02 0. -1.
        1   -1    0    0  501    0  0.00000000000E+00  0.00000000000E+00 -0.17513674518E+04  0.17513674518E+04  0.50400001928E-02 0.  1.
    10030    2    1    2    0    0  0.00000000000E+00  0.00000000000E+00 -0.99594663763E+03  0.25067882659E+04  0.23004516307E+04 0.  0.
        1    1    3    3  502    0  0.69548827605E+03  0.52245900784E+03  0.32209076714E+03  0.92758278299E+03  0.50400001928E-02 0. -1.
       -1    1    3    3    0  502 -0.69548827605E+03 -0.52245900784E+03 -0.13180374048E+04  0.15792054830E+04  0.50400001928E-02 0.  1.
</event>
<event>
 5   0  0.3338758E-06  0.2301434E+04  0.7818609E-02  0.8477356E-01
       -1   -1    0    0    0  501  0.00000000000E+00  0.00000000000E+00  0.11120289204E+04  0.11120289204E+04  0.50400001928E-02 0. -1.
        1   -1    0    0  501    0  0.00000000000E+00  0.00000000000E+00 -0.11907513665E+04  0.11907513665E+04  0.50400001928E-02 0.  1.
    10030    2    1    2    0    0  0.00000000000E+00  0.00000000000E+00 -0.78722446063E+02  0.23027802869E+04  0.23014342976E+04 0.  0.
        5    1    3    3  502    0  0.38619223120E+03 -0.20501492253E+03 -0.11043860612E+04  0.11877988972E+04  0.46999998093E+01 0.  1.
       -5    1    3    3    0  502 -0.38619223120E+03  0.20501492253E+03  0.10256636152E+04  0.11149813897E+04  0.46999998093E+01 0. -1.
</event>
<event>
 5   0  0.3226427E-06  0.2302660E+04  0.7818609E-02  0.8476873E-01
       -1   -1    0    0    0  501  0.00000000000E+00  0.00000000000E+00  0.75457023151E+03  0.75457023153E+03  0.50400001928E-02 0. -1.
        1   -1    0    0  501    0  0.00000000000E+00  0.00000000000E+00 -0.17567091418E+04  0.17567091418E+04  0.50400001928E-02 0.  1.
    10030    2    1    2    0    0  0.00000000000E+00  0.00000000000E+00 -0.10021389103E+04  0.25112793734E+04  0.23026597003E+04 0.  0.
        4    1    3    3  502    0 -0.11142348387E+04  0.61036652796E+02 -0.81014245360E+03  0.13789768515E+04  0.12699999809E+01 0.  1.
       -4    1    3    3    0  502  0.11142348387E+04 -0.61036652796E+02 -0.19199645670E+03  0.11323025219E+04  0.12699999809E+01 0. -1.
</event>
<event>
 5   0  0.7242214E-06  0.2273147E+04  0.7818609E-02  0.8488585E-01
       -2   -1    0    0    0  501  0.00000000000E+00  0.00000000000E+00  0.66245875077E+03  0.66245875077E+03  0.25500000920E-02 0.  1.
        2   -1    0    0  501    0  0.00000000000E+00  0.00000000000E+00 -0.19500080150E+04  0.19500080150E+04  0.25500000920E-02 0. -1.
    10030    2    1    2    0    0  0.00000000000E+00  0.00000000000E+00 -0.12875492642E+04  0.26124667658E+04  0.22731474863E+04 0.  0.
        1    1    3    3  502    0 -0.35737438168E+03  0.70973955819E+03 -0.15776981203E+04  0.17665157933E+04  0.50400001928E-02 0. -1.
       -1    1    3    3    0  502  0.35737438168E+03 -0.70973955819E+03  0.29014885606E+03  0.84595097249E+03  0.50400001928E-02 0.  1.
</event>
<event>
 5   0  0.3184492E-06  0.2299961E+04  0.7818609E-02  0.8477936E-01
       -1   -1    0    0    0  501  0.00000000000E+00  0.00000000000E+00  0.14571539190E+04  0.14571539190E+04  0.50400001928E-02 0.  1.
        1   -1    0    0  501    0  0.00000000000E+00  0.00000000000E+00 -0.90756066665E+03  0.90756066667E+03  0.50400001928E-02 0. -1.
    10030    2    1    2    0    0  0.00000000000E+00  0.00000000000E+00  0.54959325231E+03  0.23647145856E+04  0.22999613754E+04 0.  0.
        1    1    3    3  502    0  0.12121678540E+03 -0.16452088801E+03  0.14383358706E+04  0.14527803373E+04  0.50400001928E-02 0.  1.
       -1    1    3    3    0  502 -0.12121678540E+03  0.16452088801E+03 -0.88874261832E+03  0.91193424834E+03  0.50400001928E-02 0. -1.
</event>
<event>
 5   0  0.7348107E-06  0.2308057E+04  0.7818609E-02  0.8474751E-01
       -2   -1    0    0    0  501  0.00000000000E+00  0.00000000000E+00  0.14164182101E+04  0.14164182101E+04  0.25500000920E-02 0.  1.
        2   -1    0    0  501    0  0.00000000000E+00  0.00000000000E+00 -0.94024624479E+03  0.94024624479E+03  0.25500000920E-02 0. -1.
    10030    2    1    2    0    0  0.00000000000E+00  0.00000000000E+00  0.47617196532E+03  0.23566644549E+04  0.23080571077E+04 0.  0.
        3    1    3    3  502    0 -0.44812245133E+03 -0.75436358440E+03  0.10034748907E+04  0.13329816260E+04  0.10100000352E+00 0.  1.
       -3    1    3    3    0  502  0.44812245133E+03  0.75436358440E+03 -0.52730292537E+03  0.10236828289E+04  0.10100000352E+00 0. -1.
</event>
<event>
 5   0  0.7242214E-06  0.2290522E+04  0.7818609E-02  0.8481667E-01
       -2   -1    0    0    0  501  0.00000000000E+00  0.00000000000E+00  0.58584739436E+03  0.58584739436E+03  0.25500000920E-02 0.  1.
        2   -1    0    0  501    0  0.00000000000E+00  0.00000000000E+00 -0.22388473811E+04  0.22388473811E+04  0.25500000920E-02 0. -1.
    10030    2    1    2    0    0  0.00000000000E+00  0.00000000000E+00 -0.16529999867E+04  0.28246947754E+04  0.22905221279E+04 0.  0.
        1    1    3    3  502    0 -0.46862326318E+03  0.68557112970E+03 -0.17991011899E+04  0.19815096841E+04  0.50400001928E-02 0. -1.
       -1    1    3    3    0  502  0.46862326318E+03 -0.68557112970E+03  0.14610120317E+03  0.84318509135E+03  0.50400001928E-02 0.  1.
</event>
<event>
 5   0  0.7242214E-06  0.2290926E+04  0.7818609E-02  0.8481508E-01
       -2   -1    0    0    0  501  0.00000000000E+00  0.00000000000E+00  0.94932675769E+03  0.94932675769E+03  0.25500000920E-02 0. -1.
        2   -1    0    0  501    0  0.00000000000E+00  0.00000000000E+00 -0.13821215100E+04  0.13821215100E+04  0.25500000920E-02 0.  1.
    10030    2    1    2    0    0  0.00000000000E+00  0.00000000000E+00 -0.43279475233E+03  0.23314482677E+04  0.22909255176E+04 0.  0.
        1    1    3    3  502    0 -0.46598021059E+03  0.28792587525E+03 -0.12401969728E+04  0.13557755706E+04  0.50400001928E-02 0.  1.
       -1    1    3    3    0  502  0.46598021059E+03 -0.28792587525E+03  0.80740222049E+03  0.97567269716E+03  0.50400001928E-02 0. -1.
</event>
<event>
 5   0  0.7497344E-06  0.2298018E+04  0.7818609E-02  0.8478703E-01
       -2   -1    0    0    0  501  0.00000000000E+00  0.00000000000E+00  0.12201625222E+04  0.12201625222E+04  0.25500000920E-02 0. -1.
        2   -1    0    0  501    0  0.00000000000E+00  0.00000000000E+00 -0.10820050276E+04  0.10820050276E+04  0.25500000920E-02 0.  1.
    10030    2    1    2    0    0  0.00000000000E+00  0.00000000000E+00  0.13815749465E+03  0.23021675498E+04  0.22980182624E+04 0.  0.
        5    1    3    3  502    0  0.37864053565E+03  0.47025596570E+03  0.10484381597E+04  0.12098570136E+04  0.46999998093E+01 0. -1.
       -5    1    3    3    0  502 -0.37864053565E+03 -0.47025596570E+03 -0.91028066506E+03  0.10923105363E+04  0.46999998093E+01 0.  1.
</event>
<event>
 5   0  0.3338758E-06  0.2300888E+04  0.7818609E-02  0.8477571E-01
        1   -1    0    0  501    0  0.00000000000E+00  0.00000000000E+00  0.11343375492E+04  0.11343375492E+04  0.50400001928E-02 0.  1.
       -1   -1    0    0    0  501  0.00000000000E+00  0.00000000000E+00 -0.11667786623E+04  0.11667786623E+04  0.50400001928E-02 0. -1.
    10030    2    1    2    0    0  0.00000000000E+00  0.00000000000E+00 -0.32441113057E+02  0.23011162115E+04  0.23008875229E+04 0.  0.
        5    1    3    3  502    0  0.99168601743E+03 -0.12810701040E+03  0.55273509512E+03  0.11425369747E+04  0.46999998093E+01 0.  1.
       -5    1    3    3    0  502 -0.99168601743E+03  0.12810701040E+03 -0.58517620817E+03  0.11585792368E+04  0.46999998093E+01 0. -1.
</event>
<event>
 5   0  0.7348107E-06  0.2282214E+04  0.7818609E-02  0.8484967E-01
       -2   -1    0    0    0  501  0.00000000000E+00  0.00000000000E+00  0.52493924587E+03  0.52493924588E+03  0.25500000920E-02 0. -1.
        2   -1    0    0  501    0  0.00000000000E+00  0.00000000000E+00 -0.24805252265E+04  0.24805252265E+04  0.25500000920E-02 0.  1.
    10030    2    1    2    0    0  0.00000000000E+00  0.00000000000E+00 -0.19555859806E+04  0.30054644724E+04  0.22822138741E+04 0.  0.
        3    1    3    3  502    0  0.25862006932E+02 -0.10190873632E+04 -0.30254281998E+03  0.10633626217E+04  0.10100000352E+00 0. -1.
       -3    1    3    3    0  502 -0.25862006932E+02  0.10190873632E+04 -0.16530431606E+04  0.19421018506E+04  0.10100000352E+00 0.  1.
</event>
<event>
 5   0  0.3195296E-06  0.2288294E+04  0.7818609E-02  0.8482551E-01
        1   -1    0    0  501    0  0.00000000000E+00  0.00000000000E+00  0.16472643525E+04  0.16472643525E+04  0.50400001928E-02 0.  1.
       -1   -1    0    0    0  501  0.00000000000E+00  0.00000000000E+00 -0.79469457359E+03  0.79469457361E+03  0.50400001928E-02 0. -1.
    10030    2    1    2    0    0  0.00000000000E+00  0.00000000000E+00  0.85256977889E+03  0.24419589261E+04  0.22882937243E+04 0.  0.
        2    1    3    3  502    0 -0.32865727588E+03  0.28373964447E+03 -0.70335980356E+03  0.82658260574E+03  0.25500000920E-02 0. -1.
       -2    1    3    3    0  502  0.32865727588E+03 -0.28373964447E+03  0.15559295824E+04  0.16153763204E+04  0.25500000920E-02 0.  1.
</event>
<event>
 5   0  0.3184492E-06  0.2305374E+04  0.7818609E-02  0.8475805E-01
        1   -1    0    0  501    0  0.00000000000E+00  0.00000000000E+00  0.15543618118E+04  0.15543618118E+04  0.50400001928E-02 0. -1.
       -1   -1    0    0    0  501  0.00000000000E+00  0.00000000000E+00 -0.85481230364E+03  0.85481230365E+03  0.50400001928E-02 0.  1.
    10030    2    1    2    0    0  0.00000000000E+00  0.00000000000E+00  0.69954950819E+03  0.24091741155E+04  0.23053742439E+04 0.  0.
        1    1    3    3  502    0  0.50885639692E+03 -0.16182377878E+03 -0.71777144194E+03  0.89460472330E+03  0.50400001928E-02 0.  1.
       -1    1    3    3    0  502 -0.50885639692E+03  0.16182377878E+03  0.14173209501E+04  0.15145693922E+04  0.50400001928E-02 0. -1.
</event>
<event>
 5   0  0.3238713E-06  0.2302664E+04  0.7818609E-02  0.8476872E-01
        1   -1    0    0  501    0  0.00000000000E+00  0.00000000000E+00  0.11114580684E+04  0.11114580684E+04  0.50400001928E-02 0. -1.
       -1   -1    0    0    0  501  0.00000000000E+00  0.00000000000E+00 -0.11926359890E+04  0.11926359890E+04  0.50400001928E-02 0.  1.
    10030    2    1    2    0    0  0.00000000000E+00  0.00000000000E+00 -0.81177920606E+02  0.23040940575E+04  0.23026635818E+04 0.  0.
        3    1    3    3  502    0 -0.87214813228E+03  0.42714268758E+03 -0.65941607102E+03  0.11738495666E+04  0.10100000352E+00 0.  1.
       -3    1    3    3    0  502  0.87214813228E+03 -0.42714268758E+03  0.57823815042E+03  0.11302444908E+04  0.10100000352E+00 0. -1.
</event>
<event>
 5   0  0.3238713E-06  0.2299943E+04  0.7818609E-02  0.8477943E-01
        1   -1    0    0  501    0  0.00000000000E+00  0.00000000000E+00  0.22470803537E+04  0.22470803537E+04  0.50400001928E-02 0. -1.
       -1   -1    0    0    0  501  0.00000000000E+00  0.00000000000E+00 -0.58851249302E+03  0.58851249304E+03  0.50400001928E-02 0.  1.
    10030    2    1    2    0    0  0.00000000000E+00  0.00000000000E+00  0.16585678606E+04  0.28355928467E+04  0.22999433567E+04 0.  0.
        3    1    3    3  502    0  0.10280483237E+04  0.38236811153E+03  0.12552067294E+04  0.16669231153E+04  0.10100000352E+00 0. -1.
       -3    1    3    3    0  502 -0.10280483237E+04 -0.38236811153E+03  0.40336113126E+03  0.11686697314E+04  0.10100000352E+00 0.  1.
</event>
<event>
 5   0  0.7003852E-06  0.2289160E+04  0.7818609E-02  0.8482207E-01
       -2   -1    0    0    0  501  0.00000000000E+00  0.00000000000E+00  0.10601970454E+04  0.10601970454E+04  0.25500000920E-02 0.  1.
        2   -1    0    0  501    0  0.00000000000E+00  0.00000000000E+00 -0.12356796269E+04  0.12356796269E+04  0.25500000920E-02 0. -1.
    10030    2    1    2    0    0  0.00000000000E+00  0.00000000000E+00 -0.17548258155E+03  0.22958766723E+04  0.22891604483E+04 0.  0.
        2    1    3    3  502    0  0.73127859453E+03 -0.78702588195E+03 -0.48372339118E+03  0.11782047534E+04  0.25500000920E-02 0. -1.
       -2    1    3    3    0  502 -0.73127859453E+03  0.78702588195E+03  0.30824080963E+03  0.11176719190E+04  0.25500000920E-02 0.  1.
</event>
<event>
 5   0  0.3338758E-06  0.2297414E+04  0.7818609E-02  0.8478941E-01
       -1   -1    0    0    0  501  0.00000000000E+00  0.00000000000E+00  0.12823864700E+04  0.12823864700E+04  0.50400001928E-02 0.  1.
        1   -1    0    0  501    0  0.00000000000E+00  0.00000000000E+00 -0.10289626144E+04  0.10289626144E+04  0.50400001928E-02 0. -1.
    10030    2    1    2    0    0  0.00000000000E+00  0.00000000000E+00  0.25342385561E+03  0.23113490844E+04  0.22974139678E+04 0.  0.
        5    1    3    3  502    0  0.16693049656E+03  0.67466496609E+02 -0.10146685153E+04  0.10305298661E+04  0.46999998093E+01 0. -1.
       -5    1    3    3    0  502 -0.16693049656E+03 -0.67466496609E+02  0.12680923709E+04  0.12808192183E+04  0.46999998093E+01 0.  1.
</event>
<event>
 5   0  0.7497344E-06  0.2304992E+04  0.7818609E-02  0.8475955E-01
        2   -1    0    0  501    0  0.00000000000E+00  0.00000000000E+00  0.20290408446E+04  0.20290408446E+04  0.25500000920E-02 0. -1.
       -2   -1    0    0    0  501  0.00000000000E+00  0.00000000000E+00 -0.65461833023E+03  0.65461833024E+03  0.25500000920E-02 0.  1.
    10030    2    1    2    0    0  0.00000000000E+00  0.00000000000E+00  0.13744225144E+04  0.26836591749E+04  0.23049922600E+04 0.  0.
        5    1    3    3  502    0 -0.84896611069E+03  0.75776174996E+03  0.47481715469E+03  0.12330530188E+04  0.46999998093E+01 0. -1.
       -5    1    3    3    0  502  0.84896611069E+03 -0.75776174996E+03  0.89960535971E+03  0.14506061561E+04  0.46999998093E+01 0.  1.
</event>
<event>
 5   0  0.3195296E-06  0.2299434E+04  0.7818609E-02  0.8478144E-01
        1   -1    0    0  501    0  0.00000000000E+00  0.00000000000E+00  0.20848503376E+04  0.20848503376E+04  0.50400001928E-02 0.  1.
       -1   -1    0    0    0  501  0.00000000000E+00  0.00000000000E+00 -0.63402579786E+03  0.63402579788E+03  0.50400001928E-02 0. -1.
    10030    2    1    2    0    0  0.00000000000E+00  0.00000000000E+00  0.14508245398E+04  0.27188761355E+04  0.22994337553E+04 0.  0.
        2    1    3    3  502    0 -0.11798010243E+03 -0.57447430027E+03 -0.44386555533E+03  0.73549755775E+03  0.25500000920E-02 0. -1.
       -2    1    3    3    0  502  0.11798010243E+03  0.57447430027E+03  0.18946900951E+04  0.19833785778E+04  0.25500000920E-02 0.  1.
</event>
<event>
 5   0  0.2519625E-06  0.2301725E+04  0.7818609E-02  0.8477241E-01
        4   -1    0    0  501    0  0.00000000000E+00  0.00000000000E+00  0.12193508295E+04  0.12193514909E+04  0.12699999809E+01 0.  1.
       -4   -1    0    0    0  501  0.00000000000E+00  0.00000000000E+00 -0.10862193957E+04  0.10862201382E+04  0.12699999809E+01 0. -1.
    10030    2    1    2    0    0  0.00000000000E+00  0.00000000000E+00  0.13313143378E+03  0.23055716290E+04  0.23017246920E+04 0.  0.
        3    1    3    3  502    0  0.83471036204E+03 -0.59835760223E+03 -0.45363926664E+03  0.11227474351E+04  0.10100000352E+00 0. -1.
       -3    1    3    3    0  502 -0.83471036204E+03  0.59835760223E+03  0.58677070042E+03  0.11828241939E+04  0.10100000352E+00 0.  1.
</event>
<event>
 5   0  0.3184492E-06  0.2300428E+04  0.7818609E-02  0.8477753E-01
        1   -1    0    0  501    0  0.00000000000E+00  0.00000000000E+00  0.13923548779E+04  0.13923548779E+04  0.50400001928E-02 0.  1.
       -1   -1    0    0    0  501  0.00000000000E+00  0.00000000000E+00 -0.95018287953E+03  0.95018287954E+03  0.50400001928E-02 0. -1.
    10030    2    1    2    0    0  0.00000000000E+00  0.00000000000E+00  0.44217199838E+03  0.23425377575E+04  0.23004275839E+04 0.  0.
        1    1    3    3  502    0 -0.71915015356E+03  0.89117724548E+03  0.33084562468E+03  0.11919868513E+04  0.50400001928E-02 0.  1.
       -1    1    3    3    0  502  0.71915015356E+03 -0.89117724548E+03  0.11132637371E+03  0.11505509062E+04  0.50400001928E-02 0. -1.
</event>
<event>
 5   0  0.3195296E-06  0.2298394E+04  0.7818609E-02  0.8478555E-01
        1   -1    0    0  501    0  0.00000000000E+00  0.00000000000E+00  0.13160267750E+04  0.13160267750E+04  0.50400001928E-02 0.  1.
       -1   -1    0    0    0  501  0.00000000000E+00  0.00000000000E+00 -0.10035159883E+04  0.10035159883E+04  0.50400001928E-02 0. -1.
    10030    2    1    2    0    0  0.00000000000E+00  0.00000000000E+00  0.31251078667E+03  0.23195427633E+04  0.22983941435E+04 0.  0.
        2    1    3    3  502    0  0.94111305723E+03 -0.65209210659E+03  0.56676262011E+02  0.11463551372E+04  0.25500000920E-02 0. -1.
       -2    1    3    3    0  502 -0.94111305723E+03  0.65209210659E+03  0.25583452466E+03  0.11731876261E+04  0.25500000920E-02 0.  1.
</event>
<event>
 5   0  0.7242214E-06  0.2302094E+04  0.7818609E-02  0.8477096E-01
       -2   -1    0    0    0  501  0.00000000000E+00  0.00000000000E+00  0.72479517130E+03  0.72479517130E+03  0.25500000920E-02 0.  1.
        2   -1    0    0  501    0  0.00000000000E+00  0.00000000000E+00 -0.18279774929E+04  0.18279774929E+04  0.25500000920E-02 0. -1.
    10030    2    1    2    0    0  0.00000000000E+00  0.00000000000E+00 -0.11031823216E+04  0.25527726642E+04  0.23020940555E+04 0.  0.
        1    1    3    3  502    0 -0.20503684626E+03  0.29621900806E+03 -0.17638502846E+04  0.18002648793E+04  0.50400001928E-02 0. -1.
       -1    1    3    3    0  502  0.20503684626E+03 -0.29621900806E+03  0.66066796298E+03  0.75250778494E+03  0.50400001928E-02 0.  1.
</event>
<event>
 5   0  0.7242214E-06  0.2301306E+04  0.7818609E-02  0.8477406E-01
        2   -1    0    0  501    0  0.00000000000E+00  0.00000000000E+00  0.92334820476E+03  0.92334820477E+03  0.25500000920E-02 0.  1.
       -2   -1    0    0    0  501  0.00000000000E+00  0.00000000000E+00 -0.14339141666E+04  0.14339141666E+04  0.25500000920E-02 0. -1.
    10030    2    1    2    0    0  0.00000000000E+00  0.00000000000E+00 -0.51056596184E+03  0.23572623714E+04  0.23013057785E+04 0.  0.
        1    1    3    3  502    0 -0.53246004017E+03 -0.61361695978E+03  0.57936895572E+03  0.99785161952E+03  0.50400001928E-02 0.  1.
       -1    1    3    3    0  502  0.53246004017E+03  0.61361695978E+03 -0.10899349176E+04  0.13594107518E+04  0.50400001928E-02 0. -1.
</event>
<event>
 5   0  0.3226427E-06  0.2308350E+04  0.7818609E-02  0.8474636E-01
        1   -1    0    0  501    0  0.00000000000E+00  0.00000000000E+00  0.17804562240E+04  0.17804562240E+04  0.50400001928E-02 0. -1.
       -1   -1    0    0    0  501  0.00000000000E+00  0.00000000000E+00 -0.74819031770E+03  0.74819031772E+03  0.50400001928E-02 0.  1.
    10030    2    1    2    0    0  0.00000000000E+00  0.00000000000E+00  0.10322659063E+04  0.25286465417E+04  0.23083501536E+04 0.  0.
        4    1    3    3  502    0  0.56609811607E+03  0.20725953542E+03  0.15942848390E+04  0.17044557351E+04  0.12699999809E+01 0. -1.
       -4    1    3    3    0  502 -0.56609811607E+03 -0.20725953542E+03 -0.56201893275E+03  0.82419080661E+03  0.12699999809E+01 0.  1.
</event>
<event>
 5   0  0.7497344E-06  0.2299251E+04  0.7818609E-02  0.8478216E-01
       -2   -1    0    0    0  501  0.00000000000E+00  0.00000000000E+00  0.46397794862E+03  0.46397794863E+03  0.25500000920E-02 0.  1.
        2   -1    0    0  501    0  0.00000000000E+00  0.00000000000E+00 -0.28484952466E+04  0.28484952466E+04  0.25500000920E-02 0. -1.
    10030    2    1    2    0    0  0.00000000000E+00  0.00000000000E+00 -0.23845172980E+04  0.33124731953E+04  0.22992511661E+04 0.  0.
        5    1    3    3  502    0 -0.87795396474E+03  0.15535778729E+03 -0.14672403309E+03  0.90359794054E+03  0.46999998093E+01 0.  1.
       -5    1    3    3    0  502  0.87795396474E+03 -0.15535778729E+03 -0.22377932649E+04  0.24088752547E+04  0.46999998093E+01 0. -1.
</event>
<event>
 5   0  0.3338758E-06  0.2301048E+04  0.7818609E-02  0.8477508E-01
        1   -1    0    0  501    0  0.00000000000E+00  0.00000000000E+00  0.22063010384E+04  0.22063010384E+04  0.50400001928E-02 0. -1.
       -1   -1    0    0    0  501  0.00000000000E+00  0.00000000000E+00 -0.59996577934E+03  0.59996577936E+03  0.50400001928E-02 0.  1.
    10030    2    1    2    0    0  0.00000000000E+00  0.00000000000E+00  0.16063352590E+04  0.28062668177E+04  0.23010476935E+04 0.  0.
        5    1    3    3  502    0  0.54992842781E+03 -0.89393689981E+03  0.13779657401E+04  0.17321536097E+04  0.46999998093E+01 0. -1.
       -5    1    3    3    0  502 -0.54992842781E+03  0.89393689981E+03  0.22836951891E+03  0.10741132081E+04  0.46999998093E+01 0.  1.
</event>
<event>
 5   0  0.3195296E-06  0.2299708E+04  0.7818609E-02  0.8478036E-01
        1   -1    0    0  501    0  0.00000000000E+00  0.00000000000E+00  0.13302911688E+04  0.13302911688E+04  0.50400001928E-02 0. -1.
       -1   -1    0    0    0  501  0.00000000000E+00  0.00000000000E+00 -0.99389048171E+03  0.99389048172E+03  0.50400001928E-02 0.  1.
    10030    2    1    2    0    0  0.00000000000E+00  0.00000000000E+00  0.33640068710E+03  0.23241816505E+04  0.22997075732E+04 0.  0.
        2    1    3    3  502    0  0.44006919739E+02  0.86574761960E+03  0.93169236266E+03  0.12725982117E+04  0.25500000920E-02 0. -1.
       -2    1    3    3    0  502 -0.44006919739E+02 -0.86574761960E+03 -0.59529167556E+03  0.10515834388E+04  0.25500000920E-02 0.  1.
</event>
<event>
 5   0  0.7497344E-06  0.2300433E+04  0.7818609E-02  0.8477750E-01
        2   -1    0    0  501    0  0.00000000000E+00  0.00000000000E+00  0.15278117192E+04  0.15278117192E+04  0.25500000920E-02 0. -1.
       -2   -1    0    0    0  501  0.00000000000E+00  0.00000000000E+00 -0.86594304706E+03  0.86594304706E+03  0.25500000920E-02 0.  1.
    10030    2    1    2    0    0  0.00000000000E+00  0.00000000000E+00  0.66186867219E+03  0.23937547663E+04  0.23004329466E+04 0.  0.
        5    1    3    3  502    0 -0.57938580384E+03 -0.96020623191E+03  0.65045670948E+02  0.11233596694E+04  0.46999998093E+01 0.  1.
       -5    1    3    3    0  502  0.57938580384E+03  0.96020623191E+03  0.59682300124E+03  0.12703950969E+04  0.46999998093E+01 0. -1.
</event>
<event>
 5   0  0.7242214E-06  0.2302540E+04  0.7818609E-02  0.8476920E-01
        2   -1    0    0  501    0  0.00000000000E+00  0.00000000000E+00  0.12227530934E+04  0.12227530934E+04  0.25500000920E-02 0.  1.
       -2   -1    0    0    0  501  0.00000000000E+00  0.00000000000E+00 -0.10839654875E+04  0.10839654875E+04  0.25500000920E-02 0. -1.
    10030    2    1    2    0    0  0.00000000000E+00  0.00000000000E+00  0.13878760588E+03  0.23067185809E+04  0.23025396005E+04 0.  0.
        1    1    3    3  502    0  0.93744913104E+03  0.58903623140E+03 -0.24684919800E+03  0.11343319980E+04  0.50400001928E-02 0.  1.
       -1    1    3    3    0  502 -0.93744913104E+03 -0.58903623140E+03  0.38563680388E+03  0.11723865829E+04  0.50400001928E-02 0. -1.
</event>
<event>
 5   0  0.3195296E-06  0.2260639E+04  0.7818609E-02  0.8493604E-01
       -1   -1    0    0    0  501  0.00000000000E+00  0.00000000000E+00  0.30133414931E+04  0.30133414931E+04  0.50400001928E-02 0.  1.
        1   -1    0    0  501    0  0.00000000000E+00  0.00000000000E+00 -0.42398858325E+03  0.42398858328E+03  0.50400001928E-02 0. -1.
    10030    2    1    2    0    0  0.00000000000E+00  0.00000000000E+00  0.25893529098E+04  0.34373300764E+04  0.22606391933E+04 0.  0.
        2    1    3    3  502    0  0.35656244735E+03 -0.76719275785E+03  0.24344533343E+04  0.25772629946E+04  0.25500000920E-02 0.  1.
       -2    1    3    3    0  502 -0.35656244735E+03  0.76719275785E+03  0.15489957552E+03  0.86006708172E+03  0.25500000920E-02 0. -1.
</event>
<event>
 5   0  0.2519625E-06  0.2297925E+04  0.7818609E-02  0.8478740E-01
       -3   -1    0    0    0  501  0.00000000000E+00  0.00000000000E+00  0.12260286036E+04  0.12260286078E+04  0.10100000352E+00 0. -1.
        3   -1    0    0  501    0  0.00000000000E+00  0.00000000000E+00 -0.10767407320E+04  0.10767407367E+04  0.10100000352E+00 0.  1.
    10030    2    1    2    0    0  0.00000000000E+00  0.00000000000E+00  0.14928787160E+03  0.23027693445E+04  0.22979251044E+04 0.  0.
        2    1    3    3  502    0 -0.67782028508E+03  0.24482793275E+02 -0.85471350877E+03  0.10911346975E+04  0.25500000920E-02 0.  1.
       -2    1    3    3    0  502  0.67782028508E+03 -0.24482793275E+02  0.10040013804E+04  0.12116346470E+04  0.25500000920E-02 0. -1.
</event>
<event>
 5   0  0.3238713E-06  0.2299061E+04  0.7818609E-02  0.8478291E-01
       -1   -1    0    0    0  501  0.00000000000E+00  0.00000000000E+00  0.17419582738E+04  0.17419582738E+04  0.50400001928E-02 0. -1.
        1   -1    0    0  501    0  0.00000000000E+00  0.00000000000E+00 -0.75858340850E+03  0.75858340852E+03  0.50400001928E-02 0.  1.
    10030    2    1    2    0    0  0.00000000000E+00  0.00000000000E+00  0.98337486532E+03  0.25005416824E+04  0.22990612387E+04 0.  0.
        3    1    3    3  502    0  0.69981892475E+03 -0.33233818413E+03 -0.43198732882E+03  0.88702212967E+03  0.10100000352E+00 0.  1.
       -3    1    3    3    0  502 -0.69981892475E+03  0.33233818413E+03  0.14153621941E+04  0.16135195527E+04  0.10100000352E+00 0. -1.
</event>
<event>
 5   0  0.3238713E-06  0.2306839E+04  0.7818609E-02  0.8475229E-01
        1   -1    0    0  501    0  0.00000000000E+00  0.00000000000E+00  0.97870439579E+03  0.97870439581E+03  0.50400001928E-02 0. -1.
       -1   -1    0    0    0  501  0.00000000000E+00  0.00000000000E+00 -0.13593242985E+04  0.13593242986E+04  0.50400001928E-02 0.  1.
    10030    2    1    2    0    0  0.00000000000E+00  0.00000000000E+00 -0.38061990275E+03  0.23380286944E+04  0.23068391069E+04 0.  0.
        3    1    3    3  502    0  0.42836704264E+03  0.10141093492E+04  0.15852454340E+03  0.11122257578E+04  0.10100000352E+00 0.  1.
       -3    1    3    3    0  502 -0.42836704264E+03 -0.10141093492E+04 -0.53914444614E+03  0.12258029366E+04  0.10100000352E+00 0. -1.
</event>
<event>
 5   0  0.3338758E-06  0.2299452E+04  0.7818609E-02  0.8478137E-01
        1   -1    0    0  501    0  0.00000000000E+00  0.00000000000E+00  0.11079347350E+04  0.11079347350E+04  0.50400001928E-02 0. -1.
       -1   -1    0    0    0  501  0.00000000000E+00  0.00000000000E+00 -0.11930935634E+04  0.11930935634E+04  0.50400001928E-02 0.  1.
    10030    2    1    2    0    0  0.00000000000E+00  0.00000000000E+00 -0.85158828439E+02  0.23010282984E+04  0.22994519355E+04 0.  0.
        5    1    3    3  502    0 -0.87383568073E+03 -0.67433665430E+03  0.27940037645E+03  0.11385979890E+04  0.46999998093E+01 0. -1.
       -5    1    3    3    0  502  0.87383568073E+03  0.67433665430E+03 -0.36455920489E+03  0.11624303094E+04  0.46999998093E+01 0.  1.
</event>
<event>
 5   0  0.3226427E-06  0.2298157E+04  0.7818609E-02  0.8478648E-01
        1   -1    0    0  501    0  0.00000000000E+00  0.00000000000E+00  0.18401762951E+04  0.18401762951E+04  0.50400001928E-02 0. -1.
       -1   -1    0    0    0  501  0.00000000000E+00  0.00000000000E+00 -0.71752972561E+03  0.71752972563E+03  0.50400001928E-02 0.  1.
    10030    2    1    2    0    0  0.00000000000E+00  0.00000000000E+00  0.11226465695E+04  0.25577060207E+04  0.22981568198E+04 0.  0.
        4    1    3    3  502    0 -0.44828630238E+03 -0.71199666559E+03  0.14323206102E+04  0.16611573689E+04  0.12699999809E+01 0. -1.
       -4    1    3    3    0  502  0.44828630238E+03  0.71199666559E+03 -0.30967404077E+03  0.89654865185E+03  0.12699999809E+01 0.  1.
</event>
<event>
 5   0  0.3338758E-06  0.2296999E+04  0.7818609E-02  0.8479105E-01
        1   -1    0    0  501    0  0.00000000000E+00  0.00000000000E+00  0.20611686068E+04  0.20611686068E+04  0.50400001928E-02 0.  1.
       -1   -1    0    0    0  501  0.00000000000E+00  0.00000000000E+00 -0.63995282081E+03  0.63995282083E+03  0.50400001928E-02 0. -1.
    10030    2    1    2    0    0  0.00000000000E+00  0.00000000000E+00  0.14212157860E+04  0.27011214277E+04  0.22969986192E+04 0.  0.
        5    1    3    3  502    0 -0.98749582818E+03  0.16356730142E+03  0.48392143750E+02  0.10021308110E+04  0.46999998093E+01 0. -1.
       -5    1    3    3    0  502  0.98749582818E+03 -0.16356730142E+03  0.13728236423E+04  0.16989906167E+04  0.46999998093E+01 0.  1.
</event>
<event>
 5   0  0.7044981E-06  0.2293268E+04  0.7818609E-02  0.8480580E-01
       -2   -1    0    0    0  501  0.00000000000E+00  0.00000000000E+00  0.71473892712E+03  0.71473892712E+03  0.25500000920E-02 0.  1.
        2   -1    0    0  501    0  0.00000000000E+00  0.00000000000E+00 -0.18395093972E+04  0.18395093972E+04  0.25500000920E-02 0. -1.
    10030    2    1    2    0    0  0.00000000000E+00  0.00000000000E+00 -0.11247704701E+04  0.25542483243E+04  0.22932675143E+04 0.  0.
        4    1    3    3  502    0  0.61700372205E+03  0.84018994422E+03 -0.10943992048E+04  0.15113980177E+04  0.12699999809E+01 0. -1.
       -4    1    3    3    0  502 -0.61700372205E+03 -0.84018994422E+03 -0.30371265233E+02  0.10428503066E+04  0.12699999809E+01 0.  1.
</event>
<event>
 5   0  0.3338758E-06  0.2302368E+04  0.7818609E-02  0.8476988E-01
       -1   -1    0    0    0  501  0.00000000000E+00  0.00000000000E+00  0.10777915721E+04  0.10777915721E+04  0.50400001928E-02 0. -1.
        1   -1    0    0  501    0  0.00000000000E+00  0.00000000000E+00 -0.12295744815E+04  0.12295744815E+04  0.50400001928E-02 0.  1.
    10030    2    1    2    0    0  0.00000000000E+00  0.00000000000E+00 -0.15178290941E+03  0.23073660535E+04  0.23023683575E+04 0.  0.
        5    1    3    3  502    0  0.74605935557E+03  0.70148727529E+03  0.45109593732E+03  0.11190167980E+04  0.46999998093E+01 0. -1.
       -5    1    3    3    0  502 -0.74605935557E+03 -0.70148727529E+03 -0.60287884673E+03  0.11883492556E+04  0.46999998093E+01 0.  1.
</event>
<event>
 5   0  0.7348107E-06  0.2300559E+04  0.7818609E-02  0.8477701E-01
       -2   -1    0    0    0  501  0.00000000000E+00  0.00000000000E+00  0.11470790603E+04  0.11470790603E+04  0.25500000920E-02 0. -1.
        2   -1    0    0  501    0  0.00000000000E+00  0.00000000000E+00 -0.11534893017E+04  0.11534893017E+04  0.25500000920E-02 0.  1.
    10030    2    1    2    0    0  0.00000000000E+00  0.00000000000E+00 -0.64102413521E+01  0.23005683620E+04  0.23005594313E+04 0.  0.
        3    1    3    3  502    0 -0.39784572364E+03  0.81698208932E+03 -0.70847550976E+03  0.11522493273E+04  0.10100000352E+00 0.  1.
       -3    1    3    3    0  502  0.39784572364E+03 -0.81698208932E+03  0.70206526840E+03  0.11483190347E+04  0.10100000352E+00 0. -1.
</event>
<event>
 5   0  0.7348107E-06  0.2298909E+04  0.7818609E-02  0.8478351E-01
       -2   -1    0    0    0  501  0.00000000000E+00  0.00000000000E+00  0.52409534714E+03  0.52409534715E+03  0.25500000920E-02 0. -1.
        2   -1    0    0  501    0  0.00000000000E+00  0.00000000000E+00 -0.25210030215E+04  0.25210030215E+04  0.25500000920E-02 0.  1.
    10030    2    1    2    0    0  0.00000000000E+00  0.00000000000E+00 -0.19969076744E+04  0.30450983687E+04  0.22989092663E+04 0.  0.
        3    1    3    3  502    0  0.11049392958E+04 -0.87338882322E+02 -0.59510330222E+03  0.12580408890E+04  0.10100000352E+00 0. -1.
       -3    1    3    3    0  502 -0.11049392958E+04  0.87338882322E+02 -0.14018043721E+04  0.17870574797E+04  0.10100000352E+00 0.  1.
</event>
<event>
 5   0  0.2519625E-06  0.2305504E+04  0.7818609E-02  0.8475754E-01
        4   -1    0    0  501    0  0.00000000000E+00  0.00000000000E+00  0.14367244423E+04  0.14367250037E+04  0.12699999809E+01 0. -1.
       -4   -1    0    0    0  501  0.00000000000E+00  0.00000000000E+00 -0.92490617663E+03  0.92490704856E+03  0.12699999809E+01 0.  1.
    10030    2    1    2    0    0  0.00000000000E+00  0.00000000000E+00  0.51181826571E+03  0.23616320522E+04  0.23055038523E+04 0.  0.
        5    1    3    3  502    0  0.71160004785E+03  0.54768679231E+03 -0.48451573121E+03  0.10203494668E+04  0.46999998093E+01 0.  1.
       -5    1    3    3    0  502 -0.71160004785E+03 -0.54768679231E+03  0.99633399692E+03  0.13412825854E+04  0.46999998093E+01 0. -1.
</event>
<event>
 5   0  0.7497344E-06  0.2320661E+04  0.7818609E-02  0.8469819E-01
        2   -1    0    0  501    0  0.00000000000E+00  0.00000000000E+00  0.19779404864E+04  0.19779404864E+04  0.25500000920E-02 0.  1.
       -2   -1    0    0    0  501  0.00000000000E+00  0.00000000000E+00 -0.68069122081E+03  0.68069122081E+03  0.25500000920E-02 0. -1.
    10030    2    1    2    0    0  0.00000000000E+00  0.00000000000E+00  0.12972492656E+04  0.26586317072E+04  0.23206608752E+04 0.  0.
        5    1    3    3  502    0  0.18441215707E+03 -0.53387910343E+03 -0.51254918517E+03  0.76273422498E+03  0.46999998093E+01 0. -1.
       -5    1    3    3    0  502 -0.18441215707E+03  0.53387910343E+03  0.18097984508E+04  0.18958974823E+04  0.46999998093E+01 0.  1.
</event>
<event>
 5   0  0.3338758E-06  0.2301450E+04  0.7818609E-02  0.8477350E-01
        1   -1    0    0  501    0  0.00000000000E+00  0.00000000000E+00  0.20126996793E+04  0.20126996794E+04  0.50400001928E-02 0.  1.
       -1   -1    0    0    0  501  0.00000000000E+00  0.00000000000E+00 -0.65790641167E+03  0.65790641169E+03  0.50400001928E-02 0. -1.
    10030    2    1    2    0    0  0.00000000000E+00  0.00000000000E+00  0.13547932677E+04  0.26706060910E+04  0.23014499985E+04 0.  0.
        5    1    3    3  502    0 -0.10127591031E+04  0.30146373144E+03  0.14870089930E+03  0.10670967293E+04  0.46999998093E+01 0.  1.
       -5    1    3    3    0  502  0.10127591031E+04 -0.30146373144E+03  0.12060923684E+04  0.16035093618E+04  0.46999998093E+01 0. -1.
</event>
<event>
 5   0  0.3195296E-06  0.2279363E+04  0.7818609E-02  0.8486103E-01
       -1   -1    0    0    0  501  0.00000000000E+00  0.00000000000E+00  0.54644374898E+03  0.54644374900E+03  0.50400001928E-02 0. -1.
        1   -1    0    0  501    0  0.00000000000E+00  0.00000000000E+00 -0.23769574528E+04  0.23769574528E+04  0.50400001928E-02 0.  1.
    10030    2    1    2    0    0  0.00000000000E+00  0.00000000000E+00 -0.18305137038E+04  0.29234012018E+04  0.22793626668E+04 0.  0.
        2    1    3    3  502    0 -0.10671496744E+04 -0.39130007102E+03 -0.10221740731E+04  0.15286477713E+04  0.25500000920E-02 0. -1.
       -2    1    3    3    0  502  0.10671496744E+04  0.39130007102E+03 -0.80833963071E+03  0.13947534304E+04  0.25500000920E-02 0.  1.
</event>
<event>
 5   0  0.7497344E-06  0.2293145E+04  0.7818609E-02  0.8480629E-01
        2   -1    0    0  501    0  0.00000000000E+00  0.00000000000E+00  0.13606960584E+04  0.13606960584E+04  0.25500000920E-02 0. -1.
       -2   -1    0    0    0  501  0.00000000000E+00  0.00000000000E+00 -0.96614371944E+03  0.96614371944E+03  0.25500000920E-02 0.  1.
    10030    2    1    2    0    0  0.00000000000E+00  0.00000000000E+00  0.39455233892E+03  0.23268397778E+04  0.22931445230E+04 0.  0.
        5    1    3    3  502    0 -0.92195080308E+03 -0.49871624024E+03  0.66874830725E+03  0.12433654169E+04  0.46999998093E+01 0. -1.
       -5    1    3    3    0  502  0.92195080308E+03  0.49871624024E+03 -0.27419596834E+03  0.10834743609E+04  0.46999998093E+01 0.  1.
</event>
<event>
 5   0  0.7242214E-06  0.2301796E+04  0.7818609E-02  0.8477213E-01
       -2   -1    0    0    0  501  0.00000000000E+00  0.00000000000E+00  0.71985991145E+03  0.71985991146E+03  0.25500000920E-02 0.  1.
        2   -1    0    0  501    0  0.00000000000E+00  0.00000000000E+00 -0.18400340049E+04  0.18400340049E+04  0.25500000920E-02 0. -1.
    10030    2    1    2    0    0  0.00000000000E+00  0.00000000000E+00 -0.11201740934E+04  0.25598939163E+04  0.23017964426E+04 0.  0.
        1    1    3    3  502    0 -0.24563504398E+03  0.80211293150E+03 -0.14363745994E+04  0.16633982444E+04  0.50400001928E-02 0. -1.
       -1    1    3    3    0  502  0.24563504398E+03 -0.80211293150E+03  0.31620050600E+03  0.89649567189E+03  0.50400001928E-02 0.  1.
</event>
<event>
 5   0  0.3195296E-06  0.2320015E+04  0.7818609E-02  0.8470071E-01
       -1   -1    0    0    0  501  0.00000000000E+00  0.00000000000E+00  0.77687906752E+03  0.77687906753E+03  0.50400001928E-02 0. -1.
        1   -1    0    0  501    0  0.00000000000E+00  0.00000000000E+00 -0.17320813038E+04  0.17320813038E+04  0.50400001928E-02 0.  1.
    10030    2    1    2    0    0  0.00000000000E+00  0.00000000000E+00 -0.95520223627E+03  0.25089603713E+04  0.23200152656E+04 0.  0.
        2    1    3    3  502    0 -0.50592922268E+03  0.67249954624E+03 -0.13409934791E+04  0.15831877744E+04  0.25500000920E-02 0.  1.
       -2    1    3    3    0  502  0.50592922268E+03 -0.67249954624E+03  0.38579124287E+03  0.92577259688E+03  0.25500000920E-02 0. -1.
</event>
<event>
 5   0  0.7242214E-06  0.2299367E+04  0.7818609E-02  0.8478171E-01
       -2   -1    0    0    0  501  0.00000000000E+00  0.00000000000E+00  0.58376082499E+03  0.58376082500E+03  0.25500000920E-02 0. -1.
        2   -1    0    0  501    0  0.00000000000E+00  0.00000000000E+00 -0.22642366222E+04  0.22642366222E+04  0.25500000920E-02 0.  1.
    10030    2    1    2    0    0  0.00000000000E+00  0.00000000000E+00 -0.16804757972E+04  0.28479974472E+04  0.22993674248E+04 0.  0.
        1    1    3    3  502    0  0.89743905730E+03  0.55666906004E+03 -0.27739609864E+03  0.10918909742E+04  0.50400001928E-02 0. -1.
       -1    1    3    3    0  502 -0.89743905730E+03 -0.55666906004E+03 -0.14030796986E+04  0.17561064730E+04  0.50400001928E-02 0.  1.
</event>
<event>
 5   0  0.3226427E-06  0.2299486E+04  0.7818609E-02  0.8478124E-01
       -1   -1    0    0    0  501  0.00000000000E+00  0.00000000000E+00  0.65030196896E+03  0.65030196898E+03  0.50400001928E-02 0.  1.
        1   -1    0    0  501    0  0.00000000000E+00  0.00000000000E+00 -0.20327625482E+04  0.20327625482E+04  0.50400001928E-02 0. -1.
    10030    2    1    2    0    0  0.00000000000E+00  0.00000000000E+00 -0.13824605792E+04  0.26830645172E+04  0.22994864536E+04 0.  0.
        4    1    3    3  502    0  0.88904034879E+03 -0.67998098048E+02 -0.15381862173E+04  0.17779299579E+04  0.12699999809E+01 0.  1.
       -4    1    3    3    0  502 -0.88904034879E+03  0.67998098048E+02  0.15572563811E+03  0.90513455927E+03  0.12699999809E+01 0. -1.
</event>
<event>
 5   0  0.7348107E-06  0.2302586E+04  0.7818609E-02  0.8476902E-01
       -2   -1    0    0    0  501  0.00000000000E+00  0.00000000000E+00  0.60795304128E+03  0.60795304128E+03  0.25500000920E-02 0.  1.
        2   -1    0    0  501    0  0.00000000000E+00  0.00000000000E+00 -0.21802261743E+04  0.21802261743E+04  0.25500000920E-02 0. -1.
    10030    2    1    2    0    0  0.00000000000E+00  0.00000000000E+00 -0.15722731330E+04  0.27881792155E+04  0.23025856191E+04 0.  0.
        3    1    3    3  502    0 -0.51491949149E+03  0.28235658985E+03 -0.19852287403E+04  0.20702658013E+04  0.10100000352E+00 0. -1.
       -3    1    3    3    0  502  0.51491949149E+03 -0.28235658985E+03  0.41295560731E+03  0.71791341425E+03  0.10100000352E+00 0.  1.
</event>
<event>
 5   0  0.3226427E-06  0.2300623E+04  0.7818609E-02  0.8477675E-01
        1   -1    0    0  501    0  0.00000000000E+00  0.00000000000E+00  0.84934766035E+03  0.84934766036E+03  0.50400001928E-02 0.  1.
       -1   -1    0    0    0  501  0.00000000000E+00  0.00000000000E+00 -0.15579214943E+04  0.15579214943E+04  0.50400001928E-02 0. -1.
    10030    2    1    2    0    0  0.00000000000E+00  0.00000000000E+00 -0.70857383395E+03  0.24072691547E+04  0.23006233731E+04 0.  0.
        4    1    3    3  502    0 -0.35912629040E+02  0.10740653464E+04  0.74985666333E+02  0.10772792342E+04  0.12699999809E+01 0.  1.
       -4    1    3    3    0  502  0.35912629040E+02 -0.10740653464E+04 -0.78355950028E+03  0.13299899205E+04  0.12699999809E+01 0. -1.
</event>
<event>
 5   0  0.7348107E-06  0.2299510E+04  0.7818609E-02  0.8478114E-01
       -2   -1    0    0    0  501  0.00000000000E+00  0.00000000000E+00  0.11002544931E+04  0.11002544931E+04  0.25500000920E-02 0.  1.
        2   -1    0    0  501    0  0.00000000000E+00  0.00000000000E+00 -0.12014827201E+04  0.12014827201E+04  0.25500000920E-02 0. -1.
    10030    2    1    2    0    0  0.00000000000E+00  0.00000000000E+00 -0.10122822709E+03  0.23017372132E+04  0.22995101749E+04 0.  0.
        3    1    3    3  502    0  0.33759263878E+03 -0.70148550513E+03  0.79630581584E+03  0.11136218686E+04  0.10100000352E+00 0.  1.
       -3    1    3    3    0  502 -0.33759263878E+03  0.70148550513E+03 -0.89753404294E+03  0.11881153446E+04  0.10100000352E+00 0. -1.
</event>
<event>
 5   0  0.7044981E-06  0.2297368E+04  0.7818609E-02  0.8478960E-01
       -2   -1    0    0    0  501  0.00000000000E+00  0.00000000000E+00  0.67911644043E+03  0.67911644044E+03  0.25500000920E-02 0.  1.
        2   -1    0    0  501    0  0.00000000000E+00  0.00000000000E+00 -0.19429289991E+04  0.19429289991E+04  0.25500000920E-02 0. -1.
    10030    2    1    2    0    0  0.00000000000E+00  0.00000000000E+00 -0.12638125587E+04  0.26220454395E+04  0.22973680819E+04 0.  0.
        4    1    3    3  502    0  0.29818872964E+03  0.11044125975E+04 -0.51313319780E+03  0.12537746989E+04  0.12699999809E+01 0.  1.
       -4    1    3    3    0  502 -0.29818872964E+03 -0.11044125975E+04 -0.75067936088E+03  0.13682707407E+04  0.12699999809E+01 0. -1.
</event>
<event>
 5   0  0.7003852E-06  0.2302467E+04  0.7818609E-02  0.8476949E-01
       -2   -1    0    0    0  501  0.00000000000E+00  0.00000000000E+00  0.67893012625E+03  0.67893012626E+03  0.25500000920E-02 0.  1.
        2   -1    0    0  501    0  0.00000000000E+00  0.00000000000E+00 -0.19520985854E+04  0.19520985854E+04  0.25500000920E-02 0. -1.
    10030    2    1    2    0    0  0.00000000000E+00  0.00000000000E+00 -0.12731684592E+04  0.26310287117E+04  0.23024669718E+04 0.  0.
        2    1    3    3  502    0 -0.84227647550E+03 -0.17599432731E+03 -0.15105329202E+04  0.17384226665E+04  0.25500000920E-02 0. -1.
       -2    1    3    3    0  502  0.84227647550E+03  0.17599432731E+03  0.23736446107E+03  0.89260604513E+03  0.25500000920E-02 0.  1.
</event>
<event>
 5   0  0.7003852E-06  0.2303719E+04  0.7818609E-02  0.8476456E-01
        2   -1    0    0  501    0  0.00000000000E+00  0.00000000000E+00  0.14512811438E+04  0.14512811438E+04  0.25500000920E-02 0. -1.
       -2   -1    0    0    0  501  0.00000000000E+00  0.00000000000E+00 -0.91421347245E+03  0.91421347246E+03  0.25500000920E-02 0.  1.
    10030    2    1    2    0    0  0.00000000000E+00  0.00000000000E+00  0.53706767138E+03  0.23654946163E+04  0.23037194048E+04 0.  0.
        2    1    3    3  502    0  0.79858418038E+03  0.52025314549E+02 -0.58213638755E+03  0.98960906435E+03  0.25500000920E-02 0.  1.
       -2    1    3    3    0  502 -0.79858418038E+03 -0.52025314549E+02  0.11192040589E+04  0.13758855519E+04  0.25500000920E-02 0. -1.
</event>
<event>
 5   0  0.3226427E-06  0.2302224E+04  0.7818609E-02  0.8477045E-01
       -1   -1    0    0    0  501  0.00000000000E+00  0.00000000000E+00  0.14178396096E+04  0.14178396096E+04  0.50400001928E-02 0.  1.
        1   -1    0    0  501    0  0.00000000000E+00  0.00000000000E+00 -0.93456175172E+03  0.93456175173E+03  0.50400001928E-02 0. -1.
    10030    2    1    2    0    0  0.00000000000E+00  0.00000000000E+00  0.48327785784E+03  0.23524013613E+04  0.23022238546E+04 0.  0.
        4    1    3    3  502    0  0.56424784958E+03 -0.99069670783E+03  0.79429285975E+02  0.11428762956E+04  0.12699999809E+01 0.  1.
       -4    1    3    3    0  502 -0.56424784958E+03  0.99069670783E+03  0.40384857186E+03  0.12095250657E+04  0.12699999809E+01 0. -1.
</event>
<event>
 5   0  0.7003852E-06  0.2300996E+04  0.7818609E-02  0.8477528E-01
       -2   -1    0    0    0  501  0.00000000000E+00  0.00000000000E+00  0.11544359792E+04  0.11544359792E+04  0.25500000920E-02 0. -1.
        2   -1    0    0  501    0  0.00000000000E+00  0.00000000000E+00 -0.11465735878E+04  0.11465735878E+04  0.25500000920E-02 0.  1.
    10030    2    1    2    0    0  0.00000000000E+00  0.00000000000E+00  0.78623913827E+01  0.23010095671E+04  0.23009961344E+04 0.  0.
        2    1    3    3  502    0  0.64881963613E+03 -0.17436550692E+03  0.93789358074E+03  0.11536960687E+04  0.25500000920E-02 0. -1.
       -2    1    3    3    0  502 -0.64881963613E+03  0.17436550692E+03 -0.93003118936E+03  0.11473134983E+04  0.25500000920E-02 0.  1.
</event>
<event>
 5   0  0.7497344E-06  0.2293899E+04  0.7818609E-02  0.8480330E-01
        2   -1    0    0  501    0  0.00000000000E+00  0.00000000000E+00  0.86221194740E+03  0.86221194740E+03  0.25500000920E-02 0.  1.
       -2   -1    0    0    0  501  0.00000000000E+00  0.00000000000E+00 -0.15257191507E+04  0.15257191507E+04  0.25500000920E-02 0. -1.
    10030    2    1    2    0    0  0.00000000000E+00  0.00000000000E+00 -0.66350720334E+03  0.23879310981E+04  0.22938991086E+04 0.  0.
        5    1    3    3  502    0  0.51816257864E+03 -0.38428998376E+03  0.65543415646E+03  0.91966693589E+03  0.46999998093E+01 0.  1.
       -5    1    3    3    0  502 -0.51816257864E+03  0.38428998376E+03 -0.13189413598E+04  0.14682641622E+04  0.46999998093E+01 0. -1.
</event>
<event>
 5   0  0.7497344E-06  0.2302925E+04  0.7818609E-02  0.8476769E-01
        2   -1    0    0  501    0  0.00000000000E+00  0.00000000000E+00  0.18468737387E+04  0.18468737387E+04  0.25500000920E-02 0. -1.
       -2   -1    0    0    0  501  0.00000000000E+00  0.00000000000E+00 -0.71789760854E+03  0.71789760854E+03  0.25500000920E-02 0.  1.
    10030    2    1    2    0    0  0.00000000000E+00  0.00000000000E+00  0.11289761301E+04  0.25647713472E+04  0.23029253052E+04 0.  0.
        5    1    3    3  502    0  0.56135070112E+03  0.52323808327E+03  0.15205548705E+04  0.17032327808E+04  0.46999998093E+01 0. -1.
       -5    1    3    3    0  502 -0.56135070112E+03 -0.52323808327E+03 -0.39157874039E+03  0.86153856638E+03  0.46999998093E+01 0.  1.
</event>
<event>
 5   0  0.7348107E-06  0.2301924E+04  0.7818609E-02  0.8477163E-01
       -2   -1    0    0    0  501  0.00000000000E+00  0.00000000000E+00  0.15052434725E+04  0.15052434725E+04  0.25500000920E-02 0.  1.
        2   -1    0    0  501    0  0.00000000000E+00  0.00000000000E+00 -0.88006601921E+03  0.88006601921E+03  0.25500000920E-02 0. -1.
    10030    2    1    2    0    0  0.00000000000E+00  0.00000000000E+00  0.62517745324E+03  0.23853094917E+04  0.23019240915E+04 0.  0.
        3    1    3    3  502    0 -0.83047199260E+03  0.17050964247E+03  0.11192187993E+04  0.14040683743E+04  0.10100000352E+00 0.  1.
       -3    1    3    3    0  502  0.83047199260E+03 -0.17050964247E+03 -0.49404134607E+03  0.98124111741E+03  0.10100000352E+00 0. -1.
</event>
<event>
 5   0  0.3338758E-06  0.2338083E+04  0.7818609E-02  0.8463055E-01
        1   -1    0    0  501    0  0.00000000000E+00  0.00000000000E+00  0.17400951713E+04  0.17400951713E+04  0.50400001928E-02 0. -1.
       -1   -1    0    0    0  501  0.00000000000E+00  0.00000000000E+00 -0.78539292458E+03  0.78539292460E+03  0.50400001928E-02 0.  1.
    10030    2    1    2    0    0  0.00000000000E+00  0.00000000000E+00  0.95470224672E+03  0.25254880959E+04  0.23380833481E+04 0.  0.
        5    1    3    3  502    0 -0.20782441772E+03  0.11173930048E+04  0.77292300866E+03  0.13744781493E+04  0.46999998093E+01 0. -1.
       -5    1    3    3    0  502  0.20782441772E+03 -0.11173930048E+04  0.18177923806E+03  0.11510099466E+04  0.46999998093E+01 0.  1.
</event>
<event>
 5   0  0.3184492E-06  0.2296981E+04  0.7818609E-02  0.8479112E-01
       -1   -1    0    0    0  501  0.00000000000E+00  0.00000000000E+00  0.94862671004E+03  0.94862671005E+03  0.50400001928E-02 0. -1.
        1   -1    0    0  501    0  0.00000000000E+00  0.00000000000E+00 -0.13904631438E+04  0.13904631438E+04  0.50400001928E-02 0.  1.
    10030    2    1    2    0    0  0.00000000000E+00  0.00000000000E+00 -0.44183643379E+03  0.23390898539E+04  0.22969810427E+04 0.  0.
        1    1    3    3  502    0 -0.62613526831E+03 -0.96280016543E+03 -0.22190803827E+03  0.11697318967E+04  0.50400001928E-02 0.  1.
       -1    1    3    3    0  502  0.62613526831E+03  0.96280016543E+03 -0.21992839551E+03  0.11693579572E+04  0.50400001928E-02 0. -1.
</event>
<event>
 5   0  0.7348107E-06  0.2300700E+04  0.7818609E-02  0.8477645E-01
        2   -1    0    0  501    0  0.00000000000E+00  0.00000000000E+00  0.13545404343E+04  0.13545404343E+04  0.25500000920E-02 0. -1.
       -2   -1    0    0    0  501  0.00000000000E+00  0.00000000000E+00 -0.97694053790E+03  0.97694053790E+03  0.25500000920E-02 0.  1.
    10030    2    1    2    0    0  0.00000000000E+00  0.00000000000E+00  0.37759989643E+03  0.23314809722E+04  0.23007002938E+04 0.  0.
        3    1    3    3  502    0  0.28195249789E+03 -0.76423982911E+03 -0.63431429943E+03  0.10324312898E+04  0.10100000352E+00 0.  1.
       -3    1    3    3    0  502 -0.28195249789E+03  0.76423982911E+03  0.10119141959E+04  0.12990496824E+04  0.10100000352E+00 0. -1.
</event>
<event>
 5   0  0.3195296E-06  0.2302826E+04  0.7818609E-02  0.8476808E-01
        1   -1    0    0  501    0  0.00000000000E+00  0.00000000000E+00  0.10229596814E+04  0.10229596814E+04  0.50400001928E-02 0.  1.
       -1   -1    0    0    0  501  0.00000000000E+00  0.00000000000E+00 -0.12959961104E+04  0.12959961104E+04  0.50400001928E-02 0. -1.
    10030    2    1    2    0    0  0.00000000000E+00  0.00000000000E+00 -0.27303642905E+03  0.23189557918E+04  0.23028258885E+04 0.  0.
        2    1    3    3  502    0  0.30704297993E+03  0.10145951266E+04  0.31615586204E+03  0.11061795476E+04  0.25500000920E-02 0.  1.
       -2    1    3    3    0  502 -0.30704297993E+03 -0.10145951266E+04 -0.58919229108E+03  0.12127762441E+04  0.25500000920E-02 0. -1.
</event>
<event>
 5   0  0.7044981E-06  0.2300930E+04  0.7818609E-02  0.8477555E-01
       -2   -1    0    0    0  501  0.00000000000E+00  0.00000000000E+00  0.92824546539E+03  0.92824546539E+03  0.25500000920E-02 0. -1.
        2   -1    0    0  501    0  0.00000000000E+00  0.00000000000E+00 -0.14258832588E+04  0.14258832588E+04  0.25500000920E-02 0.  1.
    10030    2    1    2    0    0  0.00000000000E+00  0.00000000000E+00 -0.49763779344E+03  0.23541287242E+04  0.23009299591E+04 0.  0.
        4    1    3    3  502    0 -0.10058111335E+04  0.22578442791E+03  0.27380787687E+03  0.10665866165E+04  0.12699999809E+01 0. -1.
       -4    1    3    3    0  502  0.10058111335E+04 -0.22578442791E+03 -0.77144567030E+03  0.12875421077E+04  0.12699999809E+01 0.  1.
</event>
<event>
 5   0  0.3226427E-06  0.2298497E+04  0.7818609E-02  0.8478514E-01
        1   -1    0    0  501    0  0.00000000000E+00  0.00000000000E+00  0.20939915784E+04  0.20939915784E+04  0.50400001928E-02 0.  1.
       -1   -1    0    0    0  501  0.00000000000E+00  0.00000000000E+00 -0.63074379831E+03  0.63074379833E+03  0.50400001928E-02 0. -1.
    10030    2    1    2    0    0  0.00000000000E+00  0.00000000000E+00  0.14632477801E+04  0.27247353767E+04  0.22984970758E+04 0.  0.
        4    1    3    3  502    0  0.32697652392E+03 -0.12229719131E+03 -0.56636781286E+03  0.66531523546E+03  0.12699999809E+01 0. -1.
       -4    1    3    3    0  502 -0.32697652392E+03  0.12229719131E+03  0.20296155929E+04  0.20594201413E+04  0.12699999809E+01 0.  1.
</event>
<event>
 5   0  0.7044981E-06  0.2283522E+04  0.7818609E-02  0.8484446E-01
        2   -1    0    0  501    0  0.00000000000E+00  0.00000000000E+00  0.25230129535E+04  0.25230129535E+04  0.25500000920E-02 0.  1.
       -2   -1    0    0    0  501  0.00000000000E+00  0.00000000000E+00 -0.51669119238E+03  0.51669119239E+03  0.25500000920E-02 0. -1.
    10030    2    1    2    0    0  0.00000000000E+00  0.00000000000E+00  0.20063217611E+04  0.30397041459E+04  0.22835223418E+04 0.  0.
        4    1    3    3  502    0  0.99585414054E+03 -0.52082569622E+03  0.12714855459E+04  0.16969566822E+04  0.12699999809E+01 0.  1.
       -4    1    3    3    0  502 -0.99585414054E+03  0.52082569622E+03  0.73483621525E+03  0.13427474637E+04  0.12699999809E+01 0. -1.
</event>
<event>
 5   0  0.7242214E-06  0.2303669E+04  0.7818609E-02  0.8476476E-01
       -2   -1    0    0    0  501  0.00000000000E+00  0.00000000000E+00  0.99526783703E+03  0.99526783703E+03  0.25500000920E-02 0. -1.
        2   -1    0    0  501    0  0.00000000000E+00  0.00000000000E+00 -0.13330304719E+04  0.13330304719E+04  0.25500000920E-02 0.  1.
    10030    2    1    2    0    0  0.00000000000E+00  0.00000000000E+00 -0.33776263487E+03  0.23282983089E+04  0.23036686867E+04 0.  0.
        1    1    3    3  502    0  0.67548636390E+02 -0.42310836314E+03  0.91172647713E+03  0.10073870529E+04  0.50400001928E-02 0. -1.
       -1    1    3    3    0  502 -0.67548636390E+02  0.42310836314E+03 -0.12494891120E+04  0.13209112560E+04  0.50400001928E-02 0.  1.
</event>
<event>
 5   0  0.7003852E-06  0.2299248E+04  0.7818609E-02  0.8478218E-01
       -2   -1    0    0    0  501  0.00000000000E+00  0.00000000000E+00  0.98663390994E+03  0.98663390994E+03  0.25500000920E-02 0. -1.
        2   -1    0    0  501    0  0.00000000000E+00  0.00000000000E+00 -0.13395394518E+04  0.13395394518E+04  0.25500000920E-02 0.  1.
    10030    2    1    2    0    0  0.00000000000E+00  0.00000000000E+00 -0.35290554188E+03  0.23261733618E+04  0.22992477438E+04 0.  0.
        2    1    3    3  502    0  0.21120453495E+03  0.17146994879E+03 -0.13065048888E+04  0.13345277530E+04  0.25500000920E-02 0.  1.
       -2    1    3    3    0  502 -0.21120453495E+03 -0.17146994879E+03  0.95359934695E+03  0.99164560879E+03  0.25500000920E-02 0. -1.
</event>
<event>
 5   0  0.3238713E-06  0.2301971E+04  0.7818609E-02  0.8477144E-01
       -1   -1    0    0    0  501  0.00000000000E+00  0.00000000000E+00  0.90398373777E+03  0.90398373778E+03  0.50400001928E-02 0. -1.
        1   -1    0    0  501    0  0.00000000000E+00  0.00000000000E+00 -0.14654771843E+04  0.14654771843E+04  0.50400001928E-02 0.  1.
    10030    2    1    2    0    0  0.00000000000E+00  0.00000000000E+00 -0.56149344650E+03  0.23694609221E+04  0.23019709318E+04 0.  0.
        3    1    3    3  502    0 -0.16347613271E+03 -0.63447487875E+03 -0.12547912355E+04  0.14155507312E+04  0.10100000352E+00 0.  1.
       -3    1    3    3    0  502  0.16347613271E+03  0.63447487875E+03  0.69329778902E+03  0.95391019084E+03  0.10100000352E+00 0. -1.
</event>
<event>
 5   0  0.3184492E-06  0.2295913E+04  0.7818609E-02  0.8479534E-01
        1   -1    0    0  501    0  0.00000000000E+00  0.00000000000E+00  0.28982292956E+04  0.28982292956E+04  0.50400001928E-02 0.  1.
       -1   -1    0    0    0  501  0.00000000000E+00  0.00000000000E+00 -0.45469302932E+03  0.45469302935E+03  0.50400001928E-02 0. -1.
    10030    2    1    2    0    0  0.00000000000E+00  0.00000000000E+00  0.24435362663E+04  0.33529223250E+04  0.22959134637E+04 0.  0.
        1    1    3    3  502    0  0.44703787136E+03  0.37211020072E+02  0.27649330587E+04  0.28010859211E+04  0.50400001928E-02 0.  1.
       -1    1    3    3    0  502 -0.44703787136E+03 -0.37211020072E+02 -0.32139679239E+03  0.55183640386E+03  0.50400001928E-02 0. -1.
</event>
<event>
 5   0  0.3195296E-06  0.2307972E+04  0.7818609E-02  0.8474785E-01
       -1   -1    0    0    0  501  0.00000000000E+00  0.00000000000E+00  0.78658701387E+03  0.78658701389E+03  0.50400001928E-02 0. -1.
        1   -1    0    0  501    0  0.00000000000E+00  0.00000000000E+00 -0.16929893154E+04  0.16929893154E+04  0.50400001928E-02 0.  1.
    10030    2    1    2    0    0  0.00000000000E+00  0.00000000000E+00 -0.90640230153E+03  0.24795763293E+04  0.23079717591E+04 0.  0.
        2    1    3    3  502    0 -0.92300947602E+03  0.68848371229E+03 -0.53450557791E+03  0.12695087742E+04  0.25500000920E-02 0.  1.
       -2    1    3    3    0  502  0.92300947602E+03 -0.68848371229E+03 -0.37189672362E+03  0.12100675551E+04  0.25500000920E-02 0. -1.
</event>
<event>
 5   0  0.7003852E-06  0.2299690E+04  0.7818609E-02  0.8478043E-01
       -2   -1    0    0    0  501  0.00000000000E+00  0.00000000000E+00  0.10054623690E+04  0.10054623690E+04  0.25500000920E-02 0. -1.
        2   -1    0    0  501    0  0.00000000000E+00  0.00000000000E+00 -0.13149605394E+04  0.13149605394E+04  0.25500000920E-02 0.  1.
    10030    2    1    2    0    0  0.00000000000E+00  0.00000000000E+00 -0.30949817047E+03  0.23204229084E+04  0.22996898392E+04 0.  0.
        2    1    3    3  502    0  0.37364922229E+03 -0.93766891952E+03  0.40094887792E+03  0.10860924209E+04  0.25500000920E-02 0. -1.
       -2    1    3    3    0  502 -0.37364922229E+03  0.93766891952E+03 -0.71044704838E+03  0.12343304876E+04  0.25500000920E-02 0.  1.
</event>
<event>
 5   0  0.7497344E-06  0.2303110E+04  0.7818609E-02  0.8476696E-01
       -2   -1    0    0    0  501  0.00000000000E+00  0.00000000000E+00  0.69869477132E+03  0.69869477133E+03  0.25500000920E-02 0.  1.
        2   -1    0    0  501    0  0.00000000000E+00  0.00000000000E+00 -0.18979374379E+04  0.18979374379E+04  0.25500000920E-02 0. -1.
    10030    2    1    2    0    0  0.00000000000E+00  0.00000000000E+00 -0.11992426666E+04  0.25966322093E+04  0.23031100401E+04 0.  0.
        5    1    3    3  502    0  0.10586934035E+04  0.21808823704E+03 -0.10472936026E+04  0.15050714873E+04  0.46999998093E+01 0. -1.
       -5    1    3    3    0  502 -0.10586934035E+04 -0.21808823704E+03 -0.15194906401E+03  0.10915607220E+04  0.46999998093E+01 0.  1.
</event>
<event>
 5   0  0.3184492E-06  0.2299579E+04  0.7818609E-02  0.8478087E-01
        1   -1    0    0  501    0  0.00000000000E+00  0.00000000000E+00  0.16659062131E+04  0.16659062131E+04  0.50400001928E-02 0.  1.
       -1   -1    0    0    0  501  0.00000000000E+00  0.00000000000E+00 -0.79357145785E+03  0.79357145787E+03  0.50400001928E-02 0. -1.
    10030    2    1    2    0    0  0.00000000000E+00  0.00000000000E+00  0.87233475520E+03  0.24594776709E+04  0.22995787633E+04 0.  0.
        1    1    3    3  502    0 -0.32738869078E+03 -0.65475519261E+03  0.13844574437E+04  0.15660811379E+04  0.50400001928E-02 0.  1.
       -1    1    3    3    0  502  0.32738869078E+03  0.65475519261E+03 -0.51212268850E+03  0.89339653301E+03  0.50400001928E-02 0. -1.
</event>
<event>
 5   0  0.7242214E-06  0.2300927E+04  0.7818609E-02  0.8477556E-01
        2   -1    0    0  501    0  0.00000000000E+00  0.00000000000E+00  0.16687443189E+04  0.16687443189E+04  0.25500000920E-02 0. -1.
       -2   -1    0    0    0  501  0.00000000000E+00  0.00000000000E+00 -0.79315109349E+03  0.79315109349E+03  0.25500000920E-02 0.  1.
    10030    2    1    2    0    0  0.00000000000E+00  0.00000000000E+00  0.87559322540E+03  0.24618954124E+04  0.23009271012E+04 0.  0.
        1    1    3    3  502    0  0.33609916960E+03 -0.10266502987E+04  0.86119847547E+03  0.13815340393E+04  0.50400001928E-02 0. -1.
       -1    1    3    3    0  502 -0.33609916960E+03  0.10266502987E+04  0.14394749936E+02  0.10803613731E+04  0.50400001928E-02 0.  1.
</event>
<event>
 5   0  0.3184492E-06  0.2305787E+04  0.7818609E-02  0.8475643E-01
        1   -1    0    0  501    0  0.00000000000E+00  0.00000000000E+00  0.87738294582E+03  0.87738294583E+03  0.50400001928E-02 0.  1.
       -1   -1    0    0    0  501  0.00000000000E+00  0.00000000000E+00 -0.15149188857E+04  0.15149188857E+04  0.50400001928E-02 0. -1.
    10030    2    1    2    0    0  0.00000000000E+00  0.00000000000E+00 -0.63753593988E+03  0.23923018315E+04  0.23057874964E+04 0.  0.
        1    1    3    3  502    0  0.11303605378E+04  0.13237287071E+03 -0.12766561208E+03  0.11452231358E+04  0.50400001928E-02 0.  1.
       -1    1    3    3    0  502 -0.11303605378E+04 -0.13237287071E+03 -0.50987032780E+03  0.12470786958E+04  0.50400001928E-02 0. -1.
</event>
<event>
 5   0  0.7497344E-06  0.2300077E+04  0.7818609E-02  0.8477891E-01
       -2   -1    0    0    0  501  0.00000000000E+00  0.00000000000E+00  0.12594058729E+04  0.12594058730E+04  0.25500000920E-02 0.  1.
        2   -1    0    0  501    0  0.00000000000E+00  0.00000000000E+00 -0.10501689791E+04  0.10501689791E+04  0.25500000920E-02 0. -1.
    10030    2    1    2    0    0  0.00000000000E+00  0.00000000000E+00  0.20923689387E+03  0.23095748520E+04  0.23000773725E+04 0.  0.
        5    1    3    3  502    0  0.33037191511E+03 -0.54061461487E+03 -0.85911394113E+03  0.10674776897E+04  0.46999998093E+01 0. -1.
       -5    1    3    3    0  502 -0.33037191511E+03  0.54061461487E+03  0.10683508350E+04  0.12420971624E+04  0.46999998093E+01 0.  1.
</event>
<event>
 5   0  0.7044981E-06  0.2293818E+04  0.7818609E-02  0.8480363E-01
        2   -1    0    0  501    0  0.00000000000E+00  0.00000000000E+00  0.77276808851E+03  0.77276808851E+03  0.25500000920E-02 0. -1.
       -2   -1    0    0    0  501  0.00000000000E+00  0.00000000000E+00 -0.17021924060E+04  0.17021924060E+04  0.25500000920E-02 0.  1.
    10030    2    1    2    0    0  0.00000000000E+00  0.00000000000E+00 -0.92942431750E+03  0.24749604945E+04  0.22938177538E+04 0.  0.
        4    1    3    3  502    0 -0.73181244903E+03 -0.79883472298E+03 -0.87088665465E+03  0.13900113501E+04  0.12699999809E+01 0.  1.
       -4    1    3    3    0  502  0.73181244903E+03  0.79883472298E+03 -0.58537662853E+02  0.10849491445E+04  0.12699999809E+01 0. -1.
</event>
<event>
 5   0  0.7497344E-06  0.2303064E+04  0.7818609E-02  0.8476714E-01
       -2   -1    0    0    0  501  0.00000000000E+00  0.00000000000E+00  0.87795182323E+03  0.87795182324E+03  0.25500000920E-02 0.  1.
        2   -1    0    0  501    0  0.00000000000E+00  0.00000000000E+00 -0.15103635746E+04  0.15103635746E+04  0.25500000920E-02 0. -1.
    10030    2    1    2    0    0  0.00000000000E+00  0.00000000000E+00 -0.63241175136E+03  0.23883153978E+04  0.23030644403E+04 0.  0.
        5    1    3    3  502    0 -0.91219736894E+03 -0.11163813000E+03  0.40333494073E+03  0.10036275586E+04  0.46999998093E+01 0. -1.
       -5    1    3    3    0  502  0.91219736894E+03  0.11163813000E+03 -0.10357466921E+04  0.13846878392E+04  0.46999998093E+01 0.  1.
</event>
<event>
 5   0  0.7497344E-06  0.2304233E+04  0.7818609E-02  0.8476254E-01
       -2   -1    0    0    0  501  0.00000000000E+00  0.00000000000E+00  0.10239275660E+04  0.10239275660E+04  0.25500000920E-02 0. -1.
        2   -1    0    0  501    0  0.00000000000E+00  0.00000000000E+00 -0.12963538766E+04  0.12963538766E+04  0.25500000920E-02 0.  1.
    10030    2    1    2    0    0  0.00000000000E+00  0.00000000000E+00 -0.27242631055E+03  0.23202814426E+04  0.23042330347E+04 0.  0.
        5    1    3    3  502    0 -0.20798849312E+03  0.67065132276E+03 -0.10559849059E+04  0.12681319416E+04  0.46999998093E+01 0.  1.
       -5    1    3    3    0  502  0.20798849312E+03 -0.67065132276E+03  0.78355859532E+03  0.10521495009E+04  0.46999998093E+01 0. -1.
</event>
<event>
 5   0  0.2519625E-06  0.2296402E+04  0.7818609E-02  0.8479341E-01
        4   -1    0    0  501    0  0.00000000000E+00  0.00000000000E+00  0.10270286567E+04  0.10270294419E+04  0.12699999809E+01 0. -1.
       -4   -1    0    0    0  501  0.00000000000E+00  0.00000000000E+00 -0.12836680370E+04  0.12836686652E+04  0.12699999809E+01 0.  1.
    10030    2    1    2    0    0  0.00000000000E+00  0.00000000000E+00 -0.25663938026E+03  0.23106981072E+04  0.22964019620E+04 0.  0.
        5    1    3    3  502    0 -0.60009046449E+03 -0.23570868038E+03 -0.10843272104E+04  0.12615287301E+04  0.46999998093E+01 0.  1.
       -5    1    3    3    0  502  0.60009046449E+03  0.23570868038E+03  0.82768783017E+03  0.10491693771E+04  0.46999998093E+01 0. -1.
</event>
<event>
 5   0  0.7242214E-06  0.2301268E+04  0.7818609E-02  0.8477421E-01
       -2   -1    0    0    0  501  0.00000000000E+00  0.00000000000E+00  0.10202356779E+04  0.10202356779E+04  0.25500000920E-02 0.  1.
        2   -1    0    0  501    0  0.00000000000E+00  0.00000000000E+00 -0.12976992635E+04  0.12976992635E+04  0.25500000920E-02 0. -1.
    10030    2    1    2    0    0  0.00000000000E+00  0.00000000000E+00 -0.27746358558E+03  0.23179349414E+04  0.23012684223E+04 0.  0.
        1    1    3    3  502    0 -0.45666048281E+03  0.99332477365E+03  0.22265095344E+03  0.11157089000E+04  0.50400001928E-02 0.  1.
       -1    1    3    3    0  502  0.45666048281E+03 -0.99332477365E+03 -0.50011453901E+03  0.12022260414E+04  0.50400001928E-02 0. -1.
</event>
<event>
 5   0  0.3195296E-06  0.2293791E+04  0.7818609E-02  0.8480373E-01
        1   -1    0    0  501    0  0.00000000000E+00  0.00000000000E+00  0.17457950557E+04  0.17457950557E+04  0.50400001928E-02 0.  1.
       -1   -1    0    0    0  501  0.00000000000E+00  0.00000000000E+00 -0.75345019496E+03  0.75345019498E+03  0.50400001928E-02 0. -1.
    10030    2    1    2    0    0  0.00000000000E+00  0.00000000000E+00  0.99234486078E+03  0.24992452507E+04  0.22937912940E+04 0.  0.
        2    1    3    3  502    0  0.94378702920E+03 -0.23269067997E+03 -0.16702623001E+03  0.98629441372E+03  0.25500000920E-02 0. -1.
       -2    1    3    3    0  502 -0.94378702920E+03  0.23269067997E+03  0.11593710908E+04  0.15129508370E+04  0.25500000920E-02 0.  1.
</event>
<event>
 5   0  0.7044981E-06  0.2298377E+04  0.7818609E-02  0.8478561E-01
        2   -1    0    0  501    0  0.00000000000E+00  0.00000000000E+00  0.92766106931E+03  0.92766106931E+03  0.25500000920E-02 0.  1.
       -2   -1    0    0    0  501  0.00000000000E+00  0.00000000000E+00 -0.14236171253E+04  0.14236171253E+04  0.25500000920E-02 0. -1.
    10030    2    1    2    0    0  0.00000000000E+00  0.00000000000E+00 -0.49595605596E+03  0.23512781946E+04  0.22983769793E+04 0.  0.
        4    1    3    3  502    0 -0.11555730419E+03  0.10548368734E+04 -0.69926440153E+03  0.12708291137E+04  0.12699999809E+01 0.  1.
       -4    1    3    3    0  502  0.11555730419E+03 -0.10548368734E+04  0.20330834557E+03  0.10804490809E+04  0.12699999809E+01 0. -1.
</event>
<event>
 5   0  0.3238713E-06  0.2299978E+04  0.7818609E-02  0.8477930E-01
       -1   -1    0    0    0  501  0.00000000000E+00  0.00000000000E+00  0.91250555254E+03  0.91250555256E+03  0.50400001928E-02 0. -1.
        1   -1    0    0  501    0  0.00000000000E+00  0.00000000000E+00 -0.14492786802E+04  0.14492786802E+04  0.50400001928E-02 0.  1.
    10030    2    1    2    0    0  0.00000000000E+00  0.00000000000E+00 -0.53677312767E+03  0.23617842328E+04  0.22999781242E+04 0.  0.
        3    1    3    3  502    0 -0.82797150866E+03 -0.76295364149E+03 -0.50885842493E+03  0.12355452177E+04  0.10100000352E+00 0.  1.
       -3    1    3    3    0  502  0.82797150866E+03  0.76295364149E+03 -0.27914702736E+02  0.11262390151E+04  0.10100000352E+00 0. -1.
</event>
<event>
 5   0  0.7348107E-06  0.2300506E+04  0.7818609E-02  0.8477722E-01
        2   -1    0    0  501    0  0.00000000000E+00  0.00000000000E+00  0.16461422902E+04  0.16461422902E+04  0.25500000920E-02 0. -1.
       -2   -1    0    0    0  501  0.00000000000E+00  0.00000000000E+00 -0.80374680598E+03  0.80374680598E+03  0.25500000920E-02 0.  1.
    10030    2    1    2    0    0  0.00000000000E+00  0.00000000000E+00  0.84239548425E+03  0.24498890962E+04  0.23005056905E+04 0.  0.
        3    1    3    3  502    0 -0.76889731014E+03  0.64969732850E+02  0.13296175710E+04  0.15373051210E+04  0.10100000352E+00 0. -1.
       -3    1    3    3    0  502  0.76889731014E+03 -0.64969732850E+02 -0.48722208678E+03  0.91258397519E+03  0.10100000352E+00 0.  1.
</event>
<event>
 5   0  0.3226427E-06  0.2299056E+04  0.7818609E-02  0.8478293E-01
        1   -1    0    0  501    0  0.00000000000E+00  0.00000000000E+00  0.14077020589E+04  0.14077020589E+04  0.50400001928E-02 0.  1.
       -1   -1    0    0    0  501  0.00000000000E+00  0.00000000000E+00 -0.93870365233E+03  0.93870365234E+03  0.50400001928E-02 0. -1.
    10030    2    1    2    0    0  0.00000000000E+00  0.00000000000E+00  0.46899840656E+03  0.23464057112E+04  0.22990563839E+04 0.  0.
        4    1    3    3  502    0 -0.16846355825E+03  0.11363151108E+04  0.27805661715E+03  0.11819090898E+04  0.12699999809E+01 0.  1.
       -4    1    3    3    0  502  0.16846355825E+03 -0.11363151108E+04  0.19094178940E+03  0.11644966214E+04  0.12699999809E+01 0. -1.
</event>
<event>
 5   0  0.7242214E-06  0.2299849E+04  0.7818609E-02  0.8477981E-01
        2   -1    0    0  501    0  0.00000000000E+00  0.00000000000E+00  0.19395513109E+04  0.19395513109E+04  0.25500000920E-02 0. -1.
       -2   -1    0    0    0  501  0.00000000000E+00  0.00000000000E+00 -0.68176912716E+03  0.68176912717E+03  0.25500000920E-02 0.  1.
    10030    2    1    2    0    0  0.00000000000E+00  0.00000000000E+00  0.12577821837E+04  0.26213204381E+04  0.22998488684E+04 0.  0.
        1    1    3    3  502    0 -0.57326092017E+03 -0.64250088621E+03  0.14975875281E+04  0.17274848410E+04  0.50400001928E-02 0. -1.
       -1    1    3    3    0  502  0.57326092017E+03  0.64250088621E+03 -0.23980534441E+03  0.89383559708E+03  0.50400001928E-02 0.  1.
</event>
<event>
 5   0  0.3338758E-06  0.2298840E+04  0.7818609E-02  0.8478378E-01
       -1   -1    0    0    0  501  0.00000000000E+00  0.00000000000E+00  0.12003531675E+04  0.12003531675E+04  0.50400001928E-02 0. -1.
        1   -1    0    0  501    0  0.00000000000E+00  0.00000000000E+00 -0.11006484395E+04  0.11006484396E+04  0.50400001928E-02 0.  1.
    10030    2    1    2    0    0  0.00000000000E+00  0.00000000000E+00  0.99704727927E+02  0.23010016070E+04  0.22988404387E+04 0.  0.
        5    1    3    3  502    0 -0.60543472277E+02 -0.68156831302E+02  0.11967191688E+04  0.12001957026E+04  0.46999998093E+01 0. -1.
       -5    1    3    3    0  502  0.60543472277E+02  0.68156831302E+02 -0.10970144409E+04  0.11008059044E+04  0.46999998093E+01 0.  1.
</event>
<event>
 5   0  0.3226427E-06  0.2297215E+04  0.7818609E-02  0.8479020E-01
       -1   -1    0    0    0  501  0.00000000000E+00  0.00000000000E+00  0.86306735246E+03  0.86306735247E+03  0.50400001928E-02 0. -1.
        1   -1    0    0  501    0  0.00000000000E+00  0.00000000000E+00 -0.15286160763E+04  0.15286160763E+04  0.50400001928E-02 0.  1.
    10030    2    1    2    0    0  0.00000000000E+00  0.00000000000E+00 -0.66554872384E+03  0.23916834288E+04  0.22972145132E+04 0.  0.
        4    1    3    3  502    0  0.78598577441E+02 -0.85190298310E+03  0.46515039122E+03  0.97379819693E+03  0.12699999809E+01 0. -1.
       -4    1    3    3    0  502 -0.78598577441E+02  0.85190298310E+03 -0.11306991151E+04  0.14178852318E+04  0.12699999809E+01 0.  1.
</event>
<event>
 5   0  0.7348107E-06  0.2298108E+04  0.7818609E-02  0.8478667E-01
        2   -1    0    0  501    0  0.00000000000E+00  0.00000000000E+00  0.14925442326E+04  0.14925442326E+04  0.25500000920E-02 0.  1.
       -2   -1    0    0    0  501  0.00000000000E+00  0.00000000000E+00 -0.88461404503E+03  0.88461404504E+03  0.25500000920E-02 0. -1.
    10030    2    1    2    0    0  0.00000000000E+00  0.00000000000E+00  0.60793018756E+03  0.23771582776E+04  0.22981084317E+04 0.  0.
        3    1    3    3  502    0 -0.10896040556E+01  0.67971380782E+03 -0.65435493086E+03  0.94350009725E+03  0.10100000352E+00 0. -1.
       -3    1    3    3    0  502  0.10896040556E+01 -0.67971380782E+03  0.12622851184E+04  0.14336581804E+04  0.10100000352E+00 0.  1.
</event>
<event>
 5   0  0.3338758E-06  0.2292836E+04  0.7818609E-02  0.8480751E-01
        1   -1    0    0  501    0  0.00000000000E+00  0.00000000000E+00  0.18361889076E+04  0.18361889076E+04  0.50400001928E-02 0. -1.
       -1   -1    0    0    0  501  0.00000000000E+00  0.00000000000E+00 -0.71576171359E+03  0.71576171361E+03  0.50400001928E-02 0.  1.
    10030    2    1    2    0    0  0.00000000000E+00  0.00000000000E+00  0.11204271940E+04  0.25519506212E+04  0.22928355536E+04 0.  0.
        5    1    3    3  502    0  0.86007005550E+03  0.57603458360E+03  0.11085510680E+04  0.15167214320E+04  0.46999998093E+01 0. -1.
       -5    1    3    3    0  502 -0.86007005550E+03 -0.57603458360E+03  0.11876126014E+02  0.10352291892E+04  0.46999998093E+01 0.  1.
</event>
<event>
 5   0  0.3238713E-06  0.2317690E+04  0.7818609E-02  0.8470979E-01
        1   -1    0    0  501    0  0.00000000000E+00  0.00000000000E+00  0.10138335607E+04  0.10138335607E+04  0.50400001928E-02 0.  1.
       -1   -1    0    0    0  501  0.00000000000E+00  0.00000000000E+00 -0.13245981795E+04  0.13245981795E+04  0.50400001928E-02 0. -1.
    10030    2    1    2    0    0  0.00000000000E+00  0.00000000000E+00 -0.31076461881E+03  0.23384317402E+04  0.23176903061E+04 0.  0.
        3    1    3    3  502    0  0.68578725330E+02  0.10032318377E+04  0.42574519575E+03  0.10919872452E+04  0.10100000352E+00 0.  1.
       -3    1    3    3    0  502 -0.68578725330E+02 -0.10032318377E+04 -0.73650981456E+03  0.12464444949E+04  0.10100000352E+00 0. -1.
</event>
<event>
 5   0  0.3195296E-06  0.2308852E+04  0.7818609E-02  0.8474439E-01
       -1   -1    0    0    0  501  0.00000000000E+00  0.00000000000E+00  0.67472828831E+03  0.67472828833E+03  0.50400001928E-02 0.  1.
        1   -1    0    0  501    0  0.00000000000E+00  0.00000000000E+00 -0.19751639135E+04  0.19751639135E+04  0.50400001928E-02 0. -1.
    10030    2    1    2    0    0  0.00000000000E+00  0.00000000000E+00 -0.13004356252E+04  0.26498922018E+04  0.23088516336E+04 0.  0.
        2    1    3    3  502    0  0.68923233456E+03  0.92366459406E+03 -0.57321448108E+03  0.12871566861E+04  0.25500000920E-02 0. -1.
       -2    1    3    3    0  502 -0.68923233456E+03 -0.92366459406E+03 -0.72722114409E+03  0.13627355157E+04  0.25500000920E-02 0.  1.
</event>
<event>
 5   0  0.7003852E-06  0.2287179E+04  0.7818609E-02  0.8482993E-01
        2   -1    0    0  501    0  0.00000000000E+00  0.00000000000E+00  0.14139612085E+04  0.14139612085E+04  0.25500000920E-02 0. -1.
       -2   -1    0    0    0  501  0.00000000000E+00  0.00000000000E+00 -0.92491752285E+03  0.92491752285E+03  0.25500000920E-02 0.  1.
    10030    2    1    2    0    0  0.00000000000E+00  0.00000000000E+00  0.48904368566E+03  0.23388787314E+04  0.22871794843E+04 0.  0.
        2    1    3    3  502    0  0.57641365192E+03 -0.90158441537E+03 -0.16794433684E+03  0.10831954839E+04  0.25500000920E-02 0.  1.
       -2    1    3    3    0  502 -0.57641365192E+03  0.90158441537E+03  0.65698802249E+03  0.12556832474E+04  0.25500000920E-02 0. -1.
</event>
<event>
 5   0  0.3195296E-06  0.2313828E+04  0.7818609E-02  0.8472489E-01
       -1   -1    0    0    0  501  0.00000000000E+00  0.00000000000E+00  0.70493740393E+03  0.70493740395E+03  0.50400001928E-02 0. -1.
        1   -1    0    0  501    0  0.00000000000E+00  0.00000000000E+00 -0.18986790898E+04  0.18986790898E+04  0.50400001928E-02 0.  1.
    10030    2    1    2    0    0  0.00000000000E+00  0.00000000000E+00 -0.11937416858E+04  0.26036164937E+04  0.23138279180E+04 0.  0.
        2    1    3    3  502    0  0.29918792652E+03  0.78838207115E+03  0.29441051647E+03  0.89316138391E+03  0.25500000920E-02 0. -1.
       -2    1    3    3    0  502 -0.29918792652E+03 -0.78838207115E+03 -0.14881522023E+04  0.17104551098E+04  0.25500000920E-02 0.  1.
</event>
<event>
 5   0  0.3195296E-06  0.2300239E+04  0.7818609E-02  0.8477827E-01
       -1   -1    0    0    0  501  0.00000000000E+00  0.00000000000E+00  0.83122716979E+03  0.83122716980E+03  0.50400001928E-02 0.  1.
        1   -1    0    0  501    0  0.00000000000E+00  0.00000000000E+00 -0.15913521676E+04  0.15913521676E+04  0.50400001928E-02 0. -1.
    10030    2    1    2    0    0  0.00000000000E+00  0.00000000000E+00 -0.76012499783E+03  0.24225793374E+04  0.23002392558E+04 0.  0.
        2    1    3    3  502    0  0.76384186733E+03  0.15175933262E+03 -0.12714148227E+04  0.14909664466E+04  0.25500000920E-02 0. -1.
       -2    1    3    3    0  502 -0.76384186733E+03 -0.15175933262E+03  0.51128982492E+03  0.93161289085E+03  0.25500000920E-02 0.  1.
</event>
<event>
 5   0  0.3238713E-06  0.2300143E+04  0.7818609E-02  0.8477865E-01
       -1   -1    0    0    0  501  0.00000000000E+00  0.00000000000E+00  0.81378258219E+03  0.81378258220E+03  0.50400001928E-02 0.  1.
        1   -1    0    0  501    0  0.00000000000E+00  0.00000000000E+00 -0.16253290404E+04  0.16253290404E+04  0.50400001928E-02 0. -1.
    10030    2    1    2    0    0  0.00000000000E+00  0.00000000000E+00 -0.81154645823E+03  0.24391116226E+04  0.23001430072E+04 0.  0.
        3    1    3    3  502    0  0.36582592507E+03  0.28116871051E+03  0.71133508651E+03  0.84786913302E+03  0.10100000352E+00 0.  1.
       -3    1    3    3    0  502 -0.36582592507E+03 -0.28116871051E+03 -0.15228815447E+04  0.15912424896E+04  0.10100000352E+00 0. -1.
</event>
<event>
 5   0  0.7242214E-06  0.2301909E+04  0.7818609E-02  0.8477169E-01
        2   -1    0    0  501    0  0.00000000000E+00  0.00000000000E+00  0.11982947161E+04  0.11982947161E+04  0.25500000920E-02 0.  1.
       -2   -1    0    0    0  501  0.00000000000E+00  0.00000000000E+00 -0.11054849912E+04  0.11054849912E+04  0.25500000920E-02 0. -1.
    10030    2    1    2    0    0  0.00000000000E+00  0.00000000000E+00  0.92809724897E+02  0.23037797073E+04  0.23019094889E+04 0.  0.
        1    1    3    3  502    0 -0.21928766361E+03  0.10763069691E+04  0.39044723385E+03  0.11657498932E+04  0.50400001928E-02 0.  1.
       -1    1    3    3    0  502  0.21928766361E+03 -0.10763069691E+04 -0.29763750896E+03  0.11380298141E+04  0.50400001928E-02 0. -1.
</event>
<event>
 5   0  0.7044981E-06  0.2305213E+04  0.7818609E-02  0.8475869E-01
       -2   -1    0    0    0  501  0.00000000000E+00  0.00000000000E+00  0.14794007113E+04  0.14794007113E+04  0.25500000920E-02 0.  1.
        2   -1    0    0  501    0  0.00000000000E+00  0.00000000000E+00 -0.89799960074E+03  0.89799960075E+03  0.25500000920E-02 0. -1.
    10030    2    1    2    0    0  0.00000000000E+00  0.00000000000E+00  0.58140111052E+03  0.23774003120E+04  0.23052125699E+04 0.  0.
        4    1    3    3  502    0  0.41478247640E+03 -0.79957373963E+03 -0.45094112378E+03  0.10073292301E+04  0.12699999809E+01 0. -1.
       -4    1    3    3    0  502 -0.41478247640E+03  0.79957373963E+03  0.10323422343E+04  0.13700710819E+04  0.12699999809E+01 0.  1.
</event>
<event>
 5   0  0.3184492E-06  0.2302194E+04  0.7818609E-02  0.8477057E-01
        1   -1    0    0  501    0  0.00000000000E+00  0.00000000000E+00  0.20947690525E+04  0.20947690525E+04  0.50400001928E-02 0.  1.
       -1   -1    0    0    0  501  0.00000000000E+00  0.00000000000E+00 -0.63253950419E+03  0.63253950421E+03  0.50400001928E-02 0. -1.
    10030    2    1    2    0    0  0.00000000000E+00  0.00000000000E+00  0.14622295483E+04  0.27273085567E+04  0.23021938909E+04 0.  0.
        1    1    3    3  502    0 -0.11237190285E+04  0.21538007048E+03  0.88045266535E+03  0.14437208614E+04  0.50400001928E-02 0.  1.
       -1    1    3    3    0  502  0.11237190285E+04 -0.21538007048E+03  0.58177688291E+03  0.12835876952E+04  0.50400001928E-02 0. -1.
</event>
<event>
 5   0  0.7242214E-06  0.2301543E+04  0.7818609E-02  0.8477313E-01
        2   -1    0    0  501    0  0.00000000000E+00  0.00000000000E+00  0.13206318026E+04  0.13206318026E+04  0.25500000920E-02 0.  1.
       -2   -1    0    0    0  501  0.00000000000E+00  0.00000000000E+00 -0.10027584498E+04  0.10027584498E+04  0.25500000920E-02 0. -1.
    10030    2    1    2    0    0  0.00000000000E+00  0.00000000000E+00  0.31787335287E+03  0.23233902524E+04  0.23015426993E+04 0.  0.
        1    1    3    3  502    0 -0.10289421593E+04 -0.51413210985E+03  0.19420982070E+03  0.11665210019E+04  0.50400001928E-02 0.  1.
       -1    1    3    3    0  502  0.10289421593E+04  0.51413210985E+03  0.12366353217E+03  0.11568692505E+04  0.50400001928E-02 0. -1.
</event>
<event>
 5   0  0.7044981E-06  0.2253999E+04  0.7818609E-02  0.8496283E-01
       -2   -1    0    0    0  501  0.00000000000E+00  0.00000000000E+00  0.16922456543E+04  0.16922456543E+04  0.25500000920E-02 0. -1.
        2   -1    0    0  501    0  0.00000000000E+00  0.00000000000E+00 -0.75055790355E+03  0.75055790356E+03  0.25500000920E-02 0.  1.
    10030    2    1    2    0    0  0.00000000000E+00  0.00000000000E+00  0.94168775076E+03  0.24428035579E+04  0.22539994238E+04 0.  0.
        4    1    3    3  502    0  0.50248153897E+03  0.43495183602E+03  0.14572810975E+04  0.16016680701E+04  0.12699999809E+01 0. -1.
       -4    1    3    3    0  502 -0.50248153897E+03 -0.43495183602E+03 -0.51559334676E+03  0.84113548777E+03  0.12699999809E+01 0.  1.
</event>
<event>
 5   0  0.7497344E-06  0.2300754E+04  0.7818609E-02  0.8477624E-01
       -2   -1    0    0    0  501  0.00000000000E+00  0.00000000000E+00  0.91284612696E+03  0.91284612696E+03  0.25500000920E-02 0. -1.
        2   -1    0    0  501    0  0.00000000000E+00  0.00000000000E+00 -0.14497161926E+04  0.14497161926E+04  0.25500000920E-02 0.  1.
    10030    2    1    2    0    0  0.00000000000E+00  0.00000000000E+00 -0.53687006568E+03  0.23625623196E+04  0.23007544951E+04 0.  0.
        5    1    3    3  502    0 -0.35610403783E+03  0.40435225077E+03  0.77525248502E+03  0.94411298794E+03  0.46999998093E+01 0. -1.
       -5    1    3    3    0  502  0.35610403783E+03 -0.40435225077E+03 -0.13121225507E+04  0.14184493317E+04  0.46999998093E+01 0.  1.
</event>
<event>
 5   0  0.7242214E-06  0.2288523E+04  0.7818609E-02  0.8482460E-01
       -2   -1    0    0    0  501  0.00000000000E+00  0.00000000000E+00  0.11315433336E+04  0.11315433336E+04  0.25500000920E-02 0. -1.
        2   -1    0    0  501    0  0.00000000000E+00  0.00000000000E+00 -0.11571222913E+04  0.11571222913E+04  0.25500000920E-02 0.  1.
    10030    2    1    2    0    0  0.00000000000E+00  0.00000000000E+00 -0.25578957689E+02  0.22886656250E+04  0.22885226806E+04 0.  0.
        1    1    3    3  502    0  0.19641012292E+03  0.59445901111E+03  0.94506759157E+03  0.11336274542E+04  0.50400001928E-02 0. -1.
       -1    1    3    3    0  502 -0.19641012292E+03 -0.59445901111E+03 -0.97064654926E+03  0.11550381708E+04  0.50400001928E-02 0.  1.
</event>
<event>
 5   0  0.7497344E-06  0.2300191E+04  0.7818609E-02  0.8477846E-01
        2   -1    0    0  501    0  0.00000000000E+00  0.00000000000E+00  0.13453719694E+04  0.13453719694E+04  0.25500000920E-02 0.  1.
       -2   -1    0    0    0  501  0.00000000000E+00  0.00000000000E+00 -0.98316295326E+03  0.98316295327E+03  0.25500000920E-02 0. -1.
    10030    2    1    2    0    0  0.00000000000E+00  0.00000000000E+00  0.36220901616E+03  0.23285349227E+04  0.23001911909E+04 0.  0.
        5    1    3    3  502    0  0.75994993658E+03 -0.84736837196E+03  0.34787896710E+03  0.11902096158E+04  0.46999998093E+01 0.  1.
       -5    1    3    3    0  502 -0.75994993658E+03  0.84736837196E+03  0.14330049058E+02  0.11383253068E+04  0.46999998093E+01 0. -1.
</event>
<event>
 5   0  0.7242214E-06  0.2306822E+04  0.7818609E-02  0.8475236E-01
       -2   -1    0    0    0  501  0.00000000000E+00  0.00000000000E+00  0.11273671087E+04  0.11273671087E+04  0.25500000920E-02 0.  1.
        2   -1    0    0  501    0  0.00000000000E+00  0.00000000000E+00 -0.11800560368E+04  0.11800560368E+04  0.25500000920E-02 0. -1.
    10030    2    1    2    0    0  0.00000000000E+00  0.00000000000E+00 -0.52688928105E+02  0.23074231455E+04  0.23068215035E+04 0.  0.
        1    1    3    3  502    0 -0.67016462727E+03 -0.37889725357E+03  0.83275823104E+03  0.11340943646E+04  0.50400001928E-02 0.  1.
       -1    1    3    3    0  502  0.67016462727E+03  0.37889725357E+03 -0.88544715915E+03  0.11733287809E+04  0.50400001928E-02 0. -1.
</event>
<event>
 5   0  0.3226427E-06  0.2299274E+04  0.7818609E-02  0.8478207E-01
       -1   -1    0    0    0  501  0.00000000000E+00  0.00000000000E+00  0.76884821641E+03  0.76884821642E+03  0.50400001928E-02 0. -1.
        1   -1    0    0  501    0  0.00000000000E+00  0.00000000000E+00 -0.17190199926E+04  0.17190199926E+04  0.50400001928E-02 0.  1.
    10030    2    1    2    0    0  0.00000000000E+00  0.00000000000E+00 -0.95017177617E+03  0.24878682090E+04  0.22992741944E+04 0.  0.
        4    1    3    3  502    0 -0.10560531937E+04 -0.26391948489E+03 -0.74939107574E+02  0.10911092178E+04  0.12699999809E+01 0. -1.
       -4    1    3    3    0  502  0.10560531937E+04  0.26391948489E+03 -0.87523266860E+03  0.13967589912E+04  0.12699999809E+01 0.  1.
</event>
<event>
 5   0  0.3238713E-06  0.2295467E+04  0.7818609E-02  0.8479711E-01
       -1   -1    0    0    0  501  0.00000000000E+00  0.00000000000E+00  0.51437773635E+03  0.51437773637E+03  0.50400001928E-02 0. -1.
        1   -1    0    0  501    0  0.00000000000E+00  0.00000000000E+00 -0.25609433229E+04  0.25609433229E+04  0.50400001928E-02 0.  1.
    10030    2    1    2    0    0  0.00000000000E+00  0.00000000000E+00 -0.20465655865E+04  0.30753210593E+04  0.22954670369E+04 0.  0.
        3    1    3    3  502    0  0.81871409916E+03 -0.48122231600E+03 -0.18867890086E+04  0.21123069064E+04  0.10100000352E+00 0.  1.
       -3    1    3    3    0  502 -0.81871409916E+03  0.48122231600E+03 -0.15977657793E+03  0.96301415287E+03  0.10100000352E+00 0. -1.
</event>
<event>
 5   0  0.7242214E-06  0.2303481E+04  0.7818609E-02  0.8476550E-01
        2   -1    0    0  501    0  0.00000000000E+00  0.00000000000E+00  0.20707978028E+04  0.20707978028E+04  0.25500000920E-02 0. -1.
       -2   -1    0    0    0  501  0.00000000000E+00  0.00000000000E+00 -0.64057739127E+03  0.64057739128E+03  0.25500000920E-02 0.  1.
    10030    2    1    2    0    0  0.00000000000E+00  0.00000000000E+00  0.14302204115E+04  0.27113751941E+04  0.23034810652E+04 0.  0.
        1    1    3    3  502    0 -0.51818576647E+03 -0.80042173696E+03  0.14755010343E+04  0.17567853448E+04  0.50400001928E-02 0. -1.
       -1    1    3    3    0  502  0.51818576647E+03  0.80042173696E+03 -0.45280622708E+02  0.95458984930E+03  0.50400001928E-02 0.  1.
</event>
<event>
 5   0  0.3195296E-06  0.2300655E+04  0.7818609E-02  0.8477663E-01
        1   -1    0    0  501    0  0.00000000000E+00  0.00000000000E+00  0.19549442502E+04  0.19549442502E+04  0.50400001928E-02 0.  1.
       -1   -1    0    0    0  501  0.00000000000E+00  0.00000000000E+00 -0.67687546982E+03  0.67687546984E+03  0.50400001928E-02 0. -1.
    10030    2    1    2    0    0  0.00000000000E+00  0.00000000000E+00  0.12780687803E+04  0.26318197200E+04  0.23006553917E+04 0.  0.
        2    1    3    3  502    0 -0.98767147366E+03 -0.39801027908E+03  0.14125900317E+03  0.10741793277E+04  0.25500000920E-02 0. -1.
       -2    1    3    3    0  502  0.98767147366E+03  0.39801027908E+03  0.11368097772E+04  0.15576403923E+04  0.25500000920E-02 0.  1.
</event>
<event>
 5   0  0.7003852E-06  0.2293850E+04  0.7818609E-02  0.8480350E-01
        2   -1    0    0  501    0  0.00000000000E+00  0.00000000000E+00  0.85768780526E+03  0.85768780526E+03  0.25500000920E-02 0. -1.
       -2   -1    0    0    0  501  0.00000000000E+00  0.00000000000E+00 -0.15337011170E+04  0.15337011170E+04  0.25500000920E-02 0.  1.
    10030    2    1    2    0    0  0.00000000000E+00  0.00000000000E+00 -0.67601331170E+03  0.23913889222E+04  0.22938498163E+04 0.  0.
        2    1    3    3  502    0 -0.56545011299E+03  0.52804143862E+03 -0.12206941978E+04  0.14452182934E+04  0.25500000920E-02 0.  1.
       -2    1    3    3    0  502  0.56545011299E+03 -0.52804143862E+03  0.54468088606E+03  0.94617062881E+03  0.25500000920E-02 0. -1.
</event>
<event>
 5   0  0.3226427E-06  0.2329842E+04  0.7818609E-02  0.8466247E-01
        1   -1    0    0  501    0  0.00000000000E+00  0.00000000000E+00  0.16457995122E+04  0.16457995122E+04  0.50400001928E-02 0.  1.
       -1   -1    0    0    0  501  0.00000000000E+00  0.00000000000E+00 -0.82454823627E+03  0.82454823629E+03  0.50400001928E-02 0. -1.
    10030    2    1    2    0    0  0.00000000000E+00  0.00000000000E+00  0.82125127597E+03  0.24703477485E+04  0.23298421278E+04 0.  0.
        4    1    3    3  502    0  0.95455828922E+03 -0.64254542085E+03  0.60322048072E+03  0.12992007954E+04  0.12699999809E+01 0.  1.
       -4    1    3    3    0  502 -0.95455828922E+03  0.64254542085E+03  0.21803079524E+03  0.11711469532E+04  0.12699999809E+01 0. -1.
</event>
<event>
 5   0  0.7497344E-06  0.2304861E+04  0.7818609E-02  0.8476007E-01
        2   -1    0    0  501    0  0.00000000000E+00  0.00000000000E+00  0.15060922807E+04  0.15060922807E+04  0.25500000920E-02 0. -1.
       -2   -1    0    0    0  501  0.00000000000E+00  0.00000000000E+00 -0.88181575286E+03  0.88181575286E+03  0.25500000920E-02 0.  1.
    10030    2    1    2    0    0  0.00000000000E+00  0.00000000000E+00  0.62427652780E+03  0.23879080335E+04  0.23048608620E+04 0.  0.
        5    1    3    3  502    0 -0.17492114917E+03  0.38249539573E+03  0.14237248760E+04  0.14845587724E+04  0.46999998093E+01 0. -1.
       -5    1    3    3    0  502  0.17492114917E+03 -0.38249539573E+03 -0.79944834818E+03  0.90334926113E+03  0.46999998093E+01 0.  1.
</event>
<event>
 5   0  0.3226427E-06  0.2298708E+04  0.7818609E-02  0.8478431E-01
       -1   -1    0    0    0  501  0.00000000000E+00  0.00000000000E+00  0.96179064221E+03  0.96179064223E+03  0.50400001928E-02 0.  1.
        1   -1    0    0  501    0  0.00000000000E+00  0.00000000000E+00 -0.13734951579E+04  0.13734951579E+04  0.50400001928E-02 0. -1.
    10030    2    1    2    0    0  0.00000000000E+00  0.00000000000E+00 -0.41170451567E+03  0.23352858001E+04  0.22987081502E+04 0.  0.
        4    1    3    3  502    0  0.58856591425E+03 -0.30987328565E+03 -0.11580942432E+04  0.13355205643E+04  0.12699999809E+01 0. -1.
       -4    1    3    3    0  502 -0.58856591425E+03  0.30987328565E+03  0.74638972752E+03  0.99976523585E+03  0.12699999809E+01 0.  1.
</event>
<event>
 5   0  0.7242214E-06  0.2303436E+04  0.7818609E-02  0.8476568E-01
       -2   -1    0    0    0  501  0.00000000000E+00  0.00000000000E+00  0.79776381996E+03  0.79776381996E+03  0.25500000920E-02 0.  1.
        2   -1    0    0  501    0  0.00000000000E+00  0.00000000000E+00 -0.16627150503E+04  0.16627150503E+04  0.25500000920E-02 0. -1.
    10030    2    1    2    0    0  0.00000000000E+00  0.00000000000E+00 -0.86495123035E+03  0.24604788703E+04  0.23034356167E+04 0.  0.
        1    1    3    3  502    0  0.62843584363E+03 -0.96504057788E+03 -0.41666862215E+03  0.12246826802E+04  0.50400001928E-02 0. -1.
       -1    1    3    3    0  502 -0.62843584363E+03  0.96504057788E+03 -0.44828260820E+03  0.12357961901E+04  0.50400001928E-02 0.  1.
</event>
<event>
 5   0  0.3195296E-06  0.2300017E+04  0.7818609E-02  0.8477914E-01
       -1   -1    0    0    0  501  0.00000000000E+00  0.00000000000E+00  0.93205001155E+03  0.93205001156E+03  0.50400001928E-02 0.  1.
        1   -1    0    0  501    0  0.00000000000E+00  0.00000000000E+00 -0.14189363844E+04  0.14189363844E+04  0.50400001928E-02 0. -1.
    10030    2    1    2    0    0  0.00000000000E+00  0.00000000000E+00 -0.48688637288E+03  0.23509863960E+04  0.23000171073E+04 0.  0.
        2    1    3    3  502    0  0.91747384559E+03  0.69257328575E+03 -0.27740076447E+03  0.11825257704E+04  0.25500000920E-02 0.  1.
       -2    1    3    3    0  502 -0.91747384559E+03 -0.69257328575E+03 -0.20948560841E+03  0.11684606256E+04  0.25500000920E-02 0. -1.
</event>
<event>
 5   0  0.3195296E-06  0.2302546E+04  0.7818609E-02  0.8476918E-01
        1   -1    0    0  501    0  0.00000000000E+00  0.00000000000E+00  0.10304823530E+04  0.10304823530E+04  0.50400001928E-02 0. -1.
       -1   -1    0    0    0  501  0.00000000000E+00  0.00000000000E+00 -0.12862225789E+04  0.12862225789E+04  0.50400001928E-02 0.  1.
    10030    2    1    2    0    0  0.00000000000E+00  0.00000000000E+00 -0.25574022589E+03  0.23167049319E+04  0.23025461295E+04 0.  0.
        2    1    3    3  502    0 -0.47687587707E+03 -0.52488422400E+03  0.78463322194E+03  0.10576215503E+04  0.25500000920E-02 0. -1.
       -2    1    3    3    0  502  0.47687587707E+03  0.52488422400E+03 -0.10403734478E+04  0.12590833816E+04  0.25500000920E-02 0.  1.
</event>
<event>
 5   0  0.3338758E-06  0.2294980E+04  0.7818609E-02  0.8479903E-01
        1   -1    0    0  501    0  0.00000000000E+00  0.00000000000E+00  0.15353439567E+04  0.15353439567E+04  0.50400001928E-02 0. -1.
       -1   -1    0    0    0  501  0.00000000000E+00  0.00000000000E+00 -0.85761440082E+03  0.85761440083E+03  0.50400001928E-02 0.  1.
    10030    2    1    2    0    0  0.00000000000E+00  0.00000000000E+00  0.67772955587E+03  0.23929583575E+04  0.22949798147E+04 0.  0.
        5    1    3    3  502    0 -0.52064504418E+03  0.96143700692E+03 -0.24253733372E+02  0.10936373777E+04  0.46999998093E+01 0. -1.
       -5    1    3    3    0  502  0.52064504418E+03 -0.96143700692E+03  0.70198328924E+03  0.12993209798E+04  0.46999998093E+01 0.  1.
</event>
<event>
 5   0  0.3338758E-06  0.2298275E+04  0.7818609E-02  0.8478602E-01
       -1   -1    0    0    0  501  0.00000000000E+00  0.00000000000E+00  0.88493075534E+03  0.88493075535E+03  0.50400001928E-02 0. -1.
        1   -1    0    0  501    0  0.00000000000E+00  0.00000000000E+00 -0.14922261064E+04  0.14922261064E+04  0.50400001928E-02 0.  1.
    10030    2    1    2    0    0  0.00000000000E+00  0.00000000000E+00 -0.60729535103E+03  0.23771568617E+04  0.22982748099E+04 0.  0.
        5    1    3    3  502    0 -0.96856185821E+03  0.36385116163E+03 -0.82080359087E+03  0.13206969243E+04  0.46999998093E+01 0.  1.
       -5    1    3    3    0  502  0.96856185821E+03 -0.36385116163E+03  0.21350823983E+03  0.10564599375E+04  0.46999998093E+01 0. -1.
</event>
<event>
 5   0  0.3226427E-06  0.2297204E+04  0.7818609E-02  0.8479024E-01
        1   -1    0    0  501    0  0.00000000000E+00  0.00000000000E+00  0.93485269083E+03  0.93485269084E+03  0.50400001928E-02 0. -1.
       -1   -1    0    0    0  501  0.00000000000E+00  0.00000000000E+00 -0.14112237434E+04  0.14112237434E+04  0.50400001928E-02 0.  1.
    10030    2    1    2    0    0  0.00000000000E+00  0.00000000000E+00 -0.47637105254E+03  0.23460764342E+04  0.22972037906E+04 0.  0.
        4    1    3    3  502    0  0.10551377550E+04 -0.16329761544E+03  0.19426486983E+03  0.10852291213E+04  0.12699999809E+01 0. -1.
       -4    1    3    3    0  502 -0.10551377550E+04  0.16329761544E+03 -0.67063592237E+03  0.12608473129E+04  0.12699999809E+01 0.  1.
</event>
<event>
 5   0  0.7044981E-06  0.2308882E+04  0.7818609E-02  0.8474427E-01
        2   -1    0    0  501    0  0.00000000000E+00  0.00000000000E+00  0.78037344932E+03  0.78037344932E+03  0.25500000920E-02 0. -1.
       -2   -1    0    0    0  501  0.00000000000E+00  0.00000000000E+00 -0.17078157500E+04  0.17078157501E+04  0.25500000920E-02 0.  1.
    10030    2    1    2    0    0  0.00000000000E+00  0.00000000000E+00 -0.92744230073E+03  0.24881891994E+04  0.23088820391E+04 0.  0.
        4    1    3    3  502    0 -0.46781389656E+03  0.10545483004E+04 -0.50957547808E+03  0.12611862434E+04  0.12699999809E+01 0.  1.
       -4    1    3    3    0  502  0.46781389656E+03 -0.10545483004E+04 -0.41786682265E+03  0.12270029560E+04  0.12699999809E+01 0. -1.
</event>
<event>
 5   0  0.7242214E-06  0.2311310E+04  0.7818609E-02  0.8473475E-01
        2   -1    0    0  501    0  0.00000000000E+00  0.00000000000E+00  0.99969358386E+03  0.99969358387E+03  0.25500000920E-02 0. -1.
       -2   -1    0    0    0  501  0.00000000000E+00  0.00000000000E+00 -0.13359473965E+04  0.13359473965E+04  0.25500000920E-02 0.  1.
    10030    2    1    2    0    0  0.00000000000E+00  0.00000000000E+00 -0.33625381267E+03  0.23356409804E+04  0.23113096207E+04 0.  0.
        1    1    3    3  502    0  0.26139728910E+03  0.40610427822E+03  0.89282490733E+03  0.10150790820E+04  0.50400001928E-02 0. -1.
       -1    1    3    3    0  502 -0.26139728910E+03 -0.40610427822E+03 -0.12290787200E+04  0.13205618984E+04  0.50400001928E-02 0.  1.
</event>
<event>
 5   0  0.7497344E-06  0.2293899E+04  0.7818609E-02  0.8480331E-01
        2   -1    0    0  501    0  0.00000000000E+00  0.00000000000E+00  0.13375188220E+04  0.13375188220E+04  0.25500000920E-02 0.  1.
       -2   -1    0    0    0  501  0.00000000000E+00  0.00000000000E+00 -0.98353230884E+03  0.98353230884E+03  0.25500000920E-02 0. -1.
    10030    2    1    2    0    0  0.00000000000E+00  0.00000000000E+00  0.35398651319E+03  0.23210511309E+04  0.22938988427E+04 0.  0.
        5    1    3    3  502    0  0.48327649142E+03 -0.65769006550E+03 -0.63837295191E+03  0.10361730093E+04  0.46999998093E+01 0. -1.
       -5    1    3    3    0  502 -0.48327649142E+03  0.65769006550E+03  0.99235946510E+03  0.12848781216E+04  0.46999998093E+01 0.  1.
</event>
<event>
 5   0  0.7003852E-06  0.2305105E+04  0.7818609E-02  0.8475911E-01
       -2   -1    0    0    0  501  0.00000000000E+00  0.00000000000E+00  0.14558367030E+04  0.14558367030E+04  0.25500000920E-02 0. -1.
        2   -1    0    0  501    0  0.00000000000E+00  0.00000000000E+00 -0.91244951942E+03  0.91244951943E+03  0.25500000920E-02 0.  1.
    10030    2    1    2    0    0  0.00000000000E+00  0.00000000000E+00  0.54338718355E+03  0.23682862224E+04  0.23051052037E+04 0.  0.
        2    1    3    3  502    0 -0.48794146792E+03  0.50517432855E+03 -0.66718612004E+03  0.96872354009E+03  0.25500000920E-02 0.  1.
       -2    1    3    3    0  502  0.48794146792E+03 -0.50517432855E+03  0.12105733036E+04  0.13995626823E+04  0.25500000920E-02 0. -1.
</event>
<event>
 5   0  0.3195296E-06  0.2299409E+04  0.7818609E-02  0.8478154E-01
       -1   -1    0    0    0  501  0.00000000000E+00  0.00000000000E+00  0.80138470540E+03  0.80138470542E+03  0.50400001928E-02 0.  1.
        1   -1    0    0  501    0  0.00000000000E+00  0.00000000000E+00 -0.16494210340E+04  0.16494210340E+04  0.50400001928E-02 0. -1.
    10030    2    1    2    0    0  0.00000000000E+00  0.00000000000E+00 -0.84803632862E+03  0.24508057394E+04  0.22994093063E+04 0.  0.
        2    1    3    3  502    0  0.66757797036E+03 -0.93298401273E+03 -0.50449642767E+03  0.12532502384E+04  0.25500000920E-02 0.  1.
       -2    1    3    3    0  502 -0.66757797036E+03  0.93298401273E+03 -0.34353990095E+03  0.11975555010E+04  0.25500000920E-02 0. -1.
</event>
<event>
 5   0  0.3184492E-06  0.2295937E+04  0.7818609E-02  0.8479525E-01
        1   -1    0    0  501    0  0.00000000000E+00  0.00000000000E+00  0.98323630079E+03  0.98323630080E+03  0.50400001928E-02 0.  1.
       -1   -1    0    0    0  501  0.00000000000E+00  0.00000000000E+00 -0.13403005269E+04  0.13403005269E+04  0.50400001928E-02 0. -1.
    10030    2    1    2    0    0  0.00000000000E+00  0.00000000000E+00 -0.35706422612E+03  0.23235368277E+04  0.22959373964E+04 0.  0.
        1    1    3    3  502    0  0.45945456554E+03  0.15519414137E+02 -0.12430765899E+04  0.13253598600E+04  0.50400001928E-02 0. -1.
       -1    1    3    3    0  502 -0.45945456554E+03 -0.15519414137E+02  0.88601236382E+03  0.99817696772E+03  0.50400001928E-02 0.  1.
</event>
<event>
 5   0  0.7497344E-06  0.2264090E+04  0.7818609E-02  0.8492216E-01
        2   -1    0    0  501    0  0.00000000000E+00  0.00000000000E+00  0.14321787127E+04  0.14321787127E+04  0.25500000920E-02 0. -1.
       -2   -1    0    0    0  501  0.00000000000E+00  0.00000000000E+00 -0.89480872719E+03  0.89480872720E+03  0.25500000920E-02 0.  1.
    10030    2    1    2    0    0  0.00000000000E+00  0.00000000000E+00  0.53736998547E+03  0.23269874399E+04  0.22640901139E+04 0.  0.
        5    1    3    3  502    0  0.12272359674E+02 -0.11289927194E+04  0.18437723837E+03  0.11440245746E+04  0.46999998093E+01 0. -1.
       -5    1    3    3    0  502 -0.12272359674E+02  0.11289927194E+04  0.35299274711E+03  0.11829628653E+04  0.46999998093E+01 0.  1.
</event>
<event>
 5   0  0.7242214E-06  0.2305065E+04  0.7818609E-02  0.8475927E-01
        2   -1    0    0  501    0  0.00000000000E+00  0.00000000000E+00  0.14206588170E+04  0.14206588170E+04  0.25500000920E-02 0. -1.
       -2   -1    0    0    0  501  0.00000000000E+00  0.00000000000E+00 -0.93501040234E+03  0.93501040234E+03  0.25500000920E-02 0.  1.
    10030    2    1    2    0    0  0.00000000000E+00  0.00000000000E+00  0.48564841466E+03  0.23556692193E+04  0.23050646603E+04 0.  0.
        1    1    3    3  502    0 -0.54769562677E+03 -0.46422879436E+03  0.11642002317E+04  0.13677869179E+04  0.50400001928E-02 0. -1.
       -1    1    3    3    0  502  0.54769562677E+03  0.46422879436E+03 -0.67855181707E+03  0.98788230147E+03  0.50400001928E-02 0.  1.
</event>
<event>
 5   0  0.3338758E-06  0.2302040E+04  0.7818609E-02  0.8477117E-01
       -1   -1    0    0    0  501  0.00000000000E+00  0.00000000000E+00  0.67608169770E+03  0.67608169772E+03  0.50400001928E-02 0.  1.
        1   -1    0    0  501    0  0.00000000000E+00  0.00000000000E+00 -0.19595967411E+04  0.19595967411E+04  0.50400001928E-02 0. -1.
    10030    2    1    2    0    0  0.00000000000E+00  0.00000000000E+00 -0.12835150434E+04  0.26356784388E+04  0.23020403920E+04 0.  0.
        5    1    3    3  502    0  0.20729811631E+03  0.10362347774E+04 -0.11640149346E+04  0.15721666199E+04  0.46999998093E+01 0. -1.
       -5    1    3    3    0  502 -0.20729811631E+03 -0.10362347774E+04 -0.11950010882E+03  0.10635118189E+04  0.46999998093E+01 0.  1.
</event>
<event>
 5   0  0.3238713E-06  0.2301619E+04  0.7818609E-02  0.8477283E-01
        1   -1    0    0  501    0  0.00000000000E+00  0.00000000000E+00  0.14174187332E+04  0.14174187332E+04  0.50400001928E-02 0. -1.
       -1   -1    0    0    0  501  0.00000000000E+00  0.00000000000E+00 -0.93434811133E+03  0.93434811134E+03  0.50400001928E-02 0.  1.
    10030    2    1    2    0    0  0.00000000000E+00  0.00000000000E+00  0.48307062184E+03  0.23517668445E+04  0.23016190096E+04 0.  0.
        3    1    3    3  502    0 -0.52603941137E+03  0.30978799878E+03  0.12383294743E+04  0.13806324506E+04  0.10100000352E+00 0. -1.
       -3    1    3    3    0  502  0.52603941137E+03 -0.30978799878E+03 -0.75525885250E+03  0.97113439389E+03  0.10100000352E+00 0.  1.
</event>
<event>
 5   0  0.7497344E-06  0.2298350E+04  0.7818609E-02  0.8478572E-01
        2   -1    0    0  501    0  0.00000000000E+00  0.00000000000E+00  0.18968360746E+04  0.18968360746E+04  0.25500000920E-02 0.  1.
       -2   -1    0    0    0  501  0.00000000000E+00  0.00000000000E+00 -0.69621338410E+03  0.69621338410E+03  0.25500000920E-02 0. -1.
    10030    2    1    2    0    0  0.00000000000E+00  0.00000000000E+00  0.12006226905E+04  0.25930494587E+04  0.22983495492E+04 0.  0.
        5    1    3    3  502    0  0.55467547120E+03  0.98714178291E+02 -0.52969855735E+03  0.77331236833E+03  0.46999998093E+01 0. -1.
       -5    1    3    3    0  502 -0.55467547120E+03 -0.98714178291E+02  0.17303212479E+04  0.18197370904E+04  0.46999998093E+01 0.  1.
</event>
<event>
 5   0  0.3238713E-06  0.2301277E+04  0.7818609E-02  0.8477418E-01
       -1   -1    0    0    0  501  0.00000000000E+00  0.00000000000E+00  0.14172579483E+04  0.14172579483E+04  0.50400001928E-02 0. -1.
        1   -1    0    0  501    0  0.00000000000E+00  0.00000000000E+00 -0.93417678960E+03  0.93417678962E+03  0.50400001928E-02 0.  1.
    10030    2    1    2    0    0  0.00000000000E+00  0.00000000000E+00  0.48308115871E+03  0.23514347379E+04  0.23012774541E+04 0.  0.
        3    1    3    3  502    0 -0.95908835718E+03 -0.60047375981E+03  0.45477598067E+03  0.12195246680E+04  0.10100000352E+00 0. -1.
       -3    1    3    3    0  502  0.95908835718E+03  0.60047375981E+03  0.28305178040E+02  0.11319100699E+04  0.10100000352E+00 0.  1.
</event>
<event>
 5   0  0.7348107E-06  0.2316611E+04  0.7818609E-02  0.8471400E-01
        2   -1    0    0  501    0  0.00000000000E+00  0.00000000000E+00  0.13126956951E+04  0.13126956951E+04  0.25500000920E-02 0.  1.
       -2   -1    0    0    0  501  0.00000000000E+00  0.00000000000E+00 -0.10220731945E+04  0.10220731945E+04  0.25500000920E-02 0. -1.
    10030    2    1    2    0    0  0.00000000000E+00  0.00000000000E+00  0.29062250060E+03  0.23347688895E+04  0.23166105261E+04 0.  0.
        3    1    3    3  502    0  0.78613426535E+03 -0.19612848550E+03 -0.68894369735E+03  0.10635397944E+04  0.10100000352E+00 0. -1.
       -3    1    3    3    0  502 -0.78613426535E+03  0.19612848550E+03  0.97956619794E+03  0.12712290951E+04  0.10100000352E+00 0.  1.
</event>
<event>
 5   0  0.3195296E-06  0.2304086E+04  0.7818609E-02  0.8476312E-01
        1   -1    0    0  501    0  0.00000000000E+00  0.00000000000E+00  0.11651291314E+04  0.11651291314E+04  0.50400001928E-02 0.  1.
       -1   -1    0    0    0  501  0.00000000000E+00  0.00000000000E+00 -0.11391036711E+04  0.11391036711E+04  0.50400001928E-02 0. -1.
    10030    2    1    2    0    0  0.00000000000E+00  0.00000000000E+00  0.26025460285E+02  0.23042328025E+04  0.23040858238E+04 0.  0.
        2    1    3    3  502    0 -0.21920142573E+02  0.16145339858E+03 -0.11275227241E+04  0.11392344736E+04  0.25500000920E-02 0. -1.
       -2    1    3    3    0  502  0.21920142573E+02 -0.16145339858E+03  0.11535481844E+04  0.11649983288E+04  0.25500000920E-02 0.  1.
</event>
<event>
 5   0  0.7242214E-06  0.2309478E+04  0.7818609E-02  0.8474193E-01
        2   -1    0    0  501    0  0.00000000000E+00  0.00000000000E+00  0.15053735326E+04  0.15053735326E+04  0.25500000920E-02 0. -1.
       -2   -1    0    0    0  501  0.00000000000E+00  0.00000000000E+00 -0.88577502112E+03  0.88577502112E+03  0.25500000920E-02 0.  1.
    10030    2    1    2    0    0  0.00000000000E+00  0.00000000000E+00  0.61959851149E+03  0.23911485537E+04  0.23094780992E+04 0.  0.
        1    1    3    3  502    0  0.40782949893E+03 -0.95241662117E+02  0.14239704853E+04  0.14842802355E+04  0.50400001928E-02 0. -1.
       -1    1    3    3    0  502 -0.40782949893E+03  0.95241662117E+02 -0.80437197380E+03  0.90686831826E+03  0.50400001928E-02 0.  1.
</event>
<event>
 5   0  0.3195296E-06  0.2302282E+04  0.7818609E-02  0.8477022E-01
        1   -1    0    0  501    0  0.00000000000E+00  0.00000000000E+00  0.14603096307E+04  0.14603096307E+04  0.50400001928E-02 0. -1.
       -1   -1    0    0    0  501  0.00000000000E+00  0.00000000000E+00 -0.90742772072E+03  0.90742772074E+03  0.50400001928E-02 0.  1.
    10030    2    1    2    0    0  0.00000000000E+00  0.00000000000E+00  0.55288190996E+03  0.23677373514E+04  0.23022818592E+04 0.  0.
        2    1    3    3  502    0 -0.64495037449E+03  0.60665466877E+03 -0.48009168895E+03  0.10072134344E+04  0.25500000920E-02 0.  1.
       -2    1    3    3    0  502  0.64495037449E+03 -0.60665466877E+03  0.10329735989E+04  0.13605239170E+04  0.25500000920E-02 0. -1.
</event>
<event>
 5   0  0.7044981E-06  0.2300706E+04  0.7818609E-02  0.8477643E-01
       -2   -1    0    0    0  501  0.00000000000E+00  0.00000000000E+00  0.71447192090E+03  0.71447192091E+03  0.25500000920E-02 0.  1.
        2   -1    0    0  501    0  0.00000000000E+00  0.00000000000E+00 -0.18521532676E+04  0.18521532676E+04  0.25500000920E-02 0. -1.
    10030    2    1    2    0    0  0.00000000000E+00  0.00000000000E+00 -0.11376813467E+04  0.25666251885E+04  0.23007055465E+04 0.  0.
        4    1    3    3  502    0  0.65295090621E+03  0.55927409335E+02 -0.16235447095E+04  0.17508203214E+04  0.12699999809E+01 0. -1.
       -4    1    3    3    0  502 -0.65295090621E+03 -0.55927409335E+02  0.48586336281E+03  0.81580486714E+03  0.12699999809E+01 0.  1.
</event>
<event>
 5   0  0.3226427E-06  0.2325040E+04  0.7818609E-02  0.8468113E-01
       -1   -1    0    0    0  501  0.00000000000E+00  0.00000000000E+00  0.11779360373E+04  0.11779360373E+04  0.50400001928E-02 0. -1.
        1   -1    0    0  501    0  0.00000000000E+00  0.00000000000E+00 -0.11473060067E+04  0.11473060067E+04  0.50400001928E-02 0.  1.
    10030    2    1    2    0    0  0.00000000000E+00  0.00000000000E+00  0.30630030589E+02  0.23252420440E+04  0.23250402930E+04 0.  0.
        4    1    3    3  502    0 -0.29487659327E+03  0.11242980871E+04 -0.59726079141E+01  0.11623406036E+04  0.12699999809E+01 0.  1.
       -4    1    3    3    0  502  0.29487659327E+03 -0.11242980871E+04  0.36602638503E+02  0.11629014403E+04  0.12699999809E+01 0. -1.
</event>
<event>
 5   0  0.3195296E-06  0.2300803E+04  0.7818609E-02  0.8477604E-01
        1   -1    0    0  501    0  0.00000000000E+00  0.00000000000E+00  0.21958703863E+04  0.21958703863E+04  0.50400001928E-02 0.  1.
       -1   -1    0    0    0  501  0.00000000000E+00  0.00000000000E+00 -0.60268759864E+03  0.60268759866E+03  0.50400001928E-02 0. -1.
    10030    2    1    2    0    0  0.00000000000E+00  0.00000000000E+00  0.15931827877E+04  0.27985579850E+04  0.23008032077E+04 0.  0.
        2    1    3    3  502    0 -0.10030736351E+02 -0.96140083219E+03  0.28242410818E+02  0.96186787532E+03  0.25500000920E-02 0. -1.
       -2    1    3    3    0  502  0.10030736351E+02  0.96140083219E+03  0.15649403768E+04  0.18366901097E+04  0.25500000920E-02 0.  1.
</event>
<event>
 5   0  0.3338758E-06  0.2293793E+04  0.7818609E-02  0.8480373E-01
        1   -1    0    0  501    0  0.00000000000E+00  0.00000000000E+00  0.16708612033E+04  0.16708612033E+04  0.50400001928E-02 0. -1.
       -1   -1    0    0    0  501  0.00000000000E+00  0.00000000000E+00 -0.78724134084E+03  0.78724134085E+03  0.50400001928E-02 0.  1.
    10030    2    1    2    0    0  0.00000000000E+00  0.00000000000E+00  0.88361986244E+03  0.24581025441E+04  0.22937925050E+04 0.  0.
        5    1    3    3  502    0  0.30020314819E+03  0.58789415237E+03  0.14468660660E+04  0.15903411481E+04  0.46999998093E+01 0. -1.
       -5    1    3    3    0  502 -0.30020314819E+03 -0.58789415237E+03 -0.56324620355E+03  0.86776139599E+03  0.46999998093E+01 0.  1.
</event>
<event>
 5   0  0.3195296E-06  0.2304121E+04  0.7818609E-02  0.8476298E-01
       -1   -1    0    0    0  501  0.00000000000E+00  0.00000000000E+00  0.11425194993E+04  0.11425194993E+04  0.50400001928E-02 0.  1.
        1   -1    0    0  501    0  0.00000000000E+00  0.00000000000E+00 -0.11616813092E+04  0.11616813092E+04  0.50400001928E-02 0. -1.
    10030    2    1    2    0    0  0.00000000000E+00  0.00000000000E+00 -0.19161809927E+02  0.23042008085E+04  0.23041211320E+04 0.  0.
        2    1    3    3  502    0 -0.10135263614E+03  0.39513298394E+03  0.10678797212E+04  0.11431402061E+04  0.25500000920E-02 0.  1.
       -2    1    3    3    0  502  0.10135263614E+03 -0.39513298394E+03 -0.10870415311E+04  0.11610606023E+04  0.25500000920E-02 0. -1.
</event>
<event>
 5   0  0.3238713E-06  0.2303138E+04  0.7818609E-02  0.8476685E-01
       -1   -1    0    0    0  501  0.00000000000E+00  0.00000000000E+00  0.68687510512E+03  0.68687510514E+03  0.50400001928E-02 0.  1.
        1   -1    0    0  501    0  0.00000000000E+00  0.00000000000E+00 -0.19306444784E+04  0.19306444784E+04  0.50400001928E-02 0. -1.
    10030    2    1    2    0    0  0.00000000000E+00  0.00000000000E+00 -0.12437693733E+04  0.26175195835E+04  0.23031384058E+04 0.  0.
        3    1    3    3  502    0  0.89396097471E+01  0.13007070132E+03 -0.19222294775E+04  0.19266459141E+04  0.10100000352E+00 0. -1.
       -3    1    3    3    0  502 -0.89396097471E+01 -0.13007070132E+03  0.67846010420E+03  0.69087366946E+03  0.10100000352E+00 0.  1.
</event>
<event>
 5   0  0.3338758E-06  0.2315079E+04  0.7818609E-02  0.8471999E-01
        1   -1    0    0  501    0  0.00000000000E+00  0.00000000000E+00  0.10156879413E+04  0.10156879413E+04  0.50400001928E-02 0.  1.
       -1   -1    0    0    0  501  0.00000000000E+00  0.00000000000E+00 -0.13192018017E+04  0.13192018017E+04  0.50400001928E-02 0. -1.
    10030    2    1    2    0    0  0.00000000000E+00  0.00000000000E+00 -0.30351386041E+03  0.23348897430E+04  0.23150787132E+04 0.  0.
        5    1    3    3  502    0 -0.10749202819E+04 -0.52198401280E+02 -0.58166389178E+03  0.12233287615E+04  0.46999998093E+01 0. -1.
       -5    1    3    3    0  502  0.10749202819E+04  0.52198401280E+02  0.27815003137E+03  0.11115609815E+04  0.46999998093E+01 0.  1.
</event>
<event>
 5   0  0.3338758E-06  0.2299867E+04  0.7818609E-02  0.8477974E-01
        1   -1    0    0  501    0  0.00000000000E+00  0.00000000000E+00  0.17035576715E+04  0.17035576715E+04  0.50400001928E-02 0.  1.
       -1   -1    0    0    0  501  0.00000000000E+00  0.00000000000E+00 -0.77622671097E+03  0.77622671099E+03  0.50400001928E-02 0. -1.
    10030    2    1    2    0    0  0.00000000000E+00  0.00000000000E+00  0.92733096048E+03  0.24797843825E+04  0.22998669251E+04 0.  0.
        5    1    3    3  502    0 -0.31271363507E+03 -0.39275103704E+03 -0.65181059379E+03  0.82275290023E+03  0.46999998093E+01 0. -1.
       -5    1    3    3    0  502  0.31271363507E+03  0.39275103704E+03  0.15791415543E+04  0.16570314822E+04  0.46999998093E+01 0.  1.
</event>
<event>
 5   0  0.3338758E-06  0.2300876E+04  0.7818609E-02  0.8477576E-01
        1   -1    0    0  501    0  0.00000000000E+00  0.00000000000E+00  0.18913637526E+04  0.18913637526E+04  0.50400001928E-02 0.  1.
       -1   -1    0    0    0  501  0.00000000000E+00  0.00000000000E+00 -0.69976370796E+03  0.69976370798E+03  0.50400001928E-02 0. -1.
    10030    2    1    2    0    0  0.00000000000E+00  0.00000000000E+00  0.11916000446E+04  0.25911274606E+04  0.23008761050E+04 0.  0.
        5    1    3    3  502    0 -0.26445264116E+03  0.58484579773E+03 -0.47936534122E+03  0.80111985801E+03  0.46999998093E+01 0. -1.
       -5    1    3    3    0  502  0.26445264116E+03 -0.58484579773E+03  0.16709653858E+04  0.17900076026E+04  0.46999998093E+01 0.  1.
</event>
<event>
 5   0  0.7044981E-06  0.2302994E+04  0.7818609E-02  0.8476741E-01
       -2   -1    0    0    0  501  0.00000000000E+00  0.00000000000E+00  0.87652716521E+03  0.87652716521E+03  0.25500000920E-02 0. -1.
        2   -1    0    0  501    0  0.00000000000E+00  0.00000000000E+00 -0.15127263744E+04  0.15127263744E+04  0.25500000920E-02 0.  1.
    10030    2    1    2    0    0  0.00000000000E+00  0.00000000000E+00 -0.63619920917E+03  0.23892535396E+04  0.23029943645E+04 0.  0.
        4    1    3    3  502    0  0.11439995986E+04 -0.12125187181E+03 -0.26615375628E+03  0.11807948733E+04  0.12699999809E+01 0.  1.
       -4    1    3    3    0  502 -0.11439995986E+04  0.12125187181E+03 -0.37004545290E+03  0.12084586663E+04  0.12699999809E+01 0. -1.
</event>
<event>
 5   0  0.3226427E-06  0.2295588E+04  0.7818609E-02  0.8479663E-01
       -1   -1    0    0    0  501  0.00000000000E+00  0.00000000000E+00  0.75252191725E+03  0.75252191727E+03  0.50400001928E-02 0.  1.
        1   -1    0    0  501    0  0.00000000000E+00  0.00000000000E+00 -0.17506879205E+04  0.17506879205E+04  0.50400001928E-02 0. -1.
    10030    2    1    2    0    0  0.00000000000E+00  0.00000000000E+00 -0.99816600324E+03  0.25032098378E+04  0.22955879687E+04 0.  0.
        4    1    3    3  502    0  0.46166020613E+03 -0.42809822621E+03 -0.15455860157E+04  0.16689026281E+04  0.12699999809E+01 0. -1.
       -4    1    3    3    0  502 -0.46166020613E+03  0.42809822621E+03  0.54742001245E+03  0.83430720969E+03  0.12699999809E+01 0.  1.
</event>
<event>
 5   0  0.7348107E-06  0.2297602E+04  0.7818609E-02  0.8478867E-01
        2   -1    0    0  501    0  0.00000000000E+00  0.00000000000E+00  0.19410024455E+04  0.19410024455E+04  0.25500000920E-02 0.  1.
       -2   -1    0    0    0  501  0.00000000000E+00  0.00000000000E+00 -0.67992897952E+03  0.67992897953E+03  0.25500000920E-02 0. -1.
    10030    2    1    2    0    0  0.00000000000E+00  0.00000000000E+00  0.12610734659E+04  0.26209314250E+04  0.22976020648E+04 0.  0.
        3    1    3    3  502    0  0.28280330327E+03  0.83902663415E+03  0.14655288246E+04  0.17122260794E+04  0.10100000352E+00 0.  1.
       -3    1    3    3    0  502 -0.28280330327E+03 -0.83902663415E+03 -0.20445535866E+03  0.90870534556E+03  0.10100000352E+00 0. -1.
</event>
<event>
 5   0  0.7242214E-06  0.2301748E+04  0.7818609E-02  0.8477232E-01
       -2   -1    0    0    0  501  0.00000000000E+00  0.00000000000E+00  0.90810504561E+03  0.90810504561E+03  0.25500000920E-02 0.  1.
        2   -1    0    0  501    0  0.00000000000E+00  0.00000000000E+00 -0.14585435622E+04  0.14585435622E+04  0.25500000920E-02 0. -1.
    10030    2    1    2    0    0  0.00000000000E+00  0.00000000000E+00 -0.55043851658E+03  0.23666486078E+04  0.23017478299E+04 0.  0.
        1    1    3    3  502    0 -0.45964154265E+03 -0.60083560363E+03 -0.11669903352E+04  0.13907336959E+04  0.50400001928E-02 0. -1.
       -1    1    3    3    0  502  0.45964154265E+03  0.60083560363E+03  0.61655181861E+03  0.97591491196E+03  0.50400001928E-02 0.  1.
</event>
<event>
 5   0  0.3226427E-06  0.2297347E+04  0.7818609E-02  0.8478968E-01
       -1   -1    0    0    0  501  0.00000000000E+00  0.00000000000E+00  0.11857090728E+04  0.11857090728E+04  0.50400001928E-02 0.  1.
        1   -1    0    0  501    0  0.00000000000E+00  0.00000000000E+00 -0.11127946320E+04  0.11127946320E+04  0.50400001928E-02 0. -1.
    10030    2    1    2    0    0  0.00000000000E+00  0.00000000000E+00  0.72914440882E+02  0.22985037048E+04  0.22973468970E+04 0.  0.
        4    1    3    3  502    0 -0.32250781466E+03  0.59533684874E+03  0.96483168790E+03  0.11787022749E+04  0.12699999809E+01 0.  1.
       -4    1    3    3    0  502  0.32250781466E+03 -0.59533684874E+03 -0.89191724702E+03  0.11198014299E+04  0.12699999809E+01 0. -1.
</event>
<event>
 5   0  0.7242214E-06  0.2293655E+04  0.7818609E-02  0.8480427E-01
        2   -1    0    0  501    0  0.00000000000E+00  0.00000000000E+00  0.20289171942E+04  0.20289171942E+04  0.25500000920E-02 0.  1.
       -2   -1    0    0    0  501  0.00000000000E+00  0.00000000000E+00 -0.64823412472E+03  0.64823412473E+03  0.25500000920E-02 0. -1.
    10030    2    1    2    0    0  0.00000000000E+00  0.00000000000E+00  0.13806830695E+04  0.26771513189E+04  0.22936550408E+04 0.  0.
        1    1    3    3  502    0 -0.68590800819E+03  0.83646877319E+03  0.24578809089E+03  0.11093068060E+04  0.50400001928E-02 0. -1.
       -1    1    3    3    0  502  0.68590800819E+03 -0.83646877319E+03  0.11348949786E+04  0.15678445129E+04  0.50400001928E-02 0.  1.
</event>
<event>
 5   0  0.7242214E-06  0.2298979E+04  0.7818609E-02  0.8478324E-01
       -2   -1    0    0    0  501  0.00000000000E+00  0.00000000000E+00  0.95116854851E+03  0.95116854852E+03  0.25500000920E-02 0.  1.
        2   -1    0    0  501    0  0.00000000000E+00  0.00000000000E+00 -0.13891605662E+04  0.13891605662E+04  0.25500000920E-02 0. -1.
    10030    2    1    2    0    0  0.00000000000E+00  0.00000000000E+00 -0.43799201768E+03  0.23403291147E+04  0.22989787641E+04 0.  0.
        1    1    3    3  502    0 -0.15671224737E+03 -0.71538412431E+03  0.68293802561E+03  0.10013678248E+04  0.50400001928E-02 0.  1.
       -1    1    3    3    0  502  0.15671224737E+03  0.71538412431E+03 -0.11209300433E+04  0.13389612899E+04  0.50400001928E-02 0. -1.
</event>
<event>
 5   0  0.3195296E-06  0.2292115E+04  0.7818609E-02  0.8481037E-01
        1   -1    0    0  501    0  0.00000000000E+00  0.00000000000E+00  0.19478611722E+04  0.19478611722E+04  0.50400001928E-02 0. -1.
       -1   -1    0    0    0  501  0.00000000000E+00  0.00000000000E+00 -0.67430261492E+03  0.67430261494E+03  0.50400001928E-02 0.  1.
    10030    2    1    2    0    0  0.00000000000E+00  0.00000000000E+00  0.12735585572E+04  0.26221637871E+04  0.22921150773E+04 0.  0.
        2    1    3    3  502    0  0.10220861933E+02 -0.11282657483E+04  0.86660466129E+03  0.14227057685E+04  0.25500000920E-02 0. -1.
       -2    1    3    3    0  502 -0.10220861933E+02  0.11282657483E+04  0.40695389594E+03  0.11994580186E+04  0.25500000920E-02 0.  1.
</event>
<event>
 5   0  0.7242214E-06  0.2300553E+04  0.7818609E-02  0.8477703E-01
        2   -1    0    0  501    0  0.00000000000E+00  0.00000000000E+00  0.11727224156E+04  0.11727224156E+04  0.25500000920E-02 0.  1.
       -2   -1    0    0    0  501  0.00000000000E+00  0.00000000000E+00 -0.11282600858E+04  0.11282600858E+04  0.25500000920E-02 0. -1.
    10030    2    1    2    0    0  0.00000000000E+00  0.00000000000E+00  0.44462329754E+02  0.23009825014E+04  0.23005528842E+04 0.  0.
        1    1    3    3  502    0 -0.65381222260E+02  0.89738691324E+03  0.73899454550E+03  0.11643414081E+04  0.50400001928E-02 0.  1.
       -1    1    3    3    0  502  0.65381222260E+02 -0.89738691324E+03 -0.69453221575E+03  0.11366410933E+04  0.50400001928E-02 0. -1.
</event>
<event>
 5   0  0.3226427E-06  0.2301693E+04  0.7818609E-02  0.8477254E-01
        1   -1    0    0  501    0  0.00000000000E+00  0.00000000000E+00  0.26791681743E+04  0.26791681743E+04  0.50400001928E-02 0.  1.
       -1   -1    0    0    0  501  0.00000000000E+00  0.00000000000E+00 -0.49435018575E+03  0.49435018578E+03  0.50400001928E-02 0. -1.
    10030    2    1    2    0    0  0.00000000000E+00  0.00000000000E+00  0.21848179885E+04  0.31735183601E+04  0.23016926682E+04 0.  0.
        4    1    3    3  502    0 -0.23472386200E+03  0.72126302381E+01  0.26457812357E+04  0.26561828388E+04  0.12699999809E+01 0.  1.
       -4    1    3    3    0  502  0.23472386200E+03 -0.72126302381E+01 -0.46096324713E+03  0.51733552124E+03  0.12699999809E+01 0. -1.
</event>
<event>
 5   0  0.3195296E-06  0.2259952E+04  0.7818609E-02  0.8493881E-01
        1   -1    0    0  501    0  0.00000000000E+00  0.00000000000E+00  0.10356274178E+04  0.10356274178E+04  0.50400001928E-02 0.  1.
       -1   -1    0    0    0  501  0.00000000000E+00  0.00000000000E+00 -0.12329196253E+04  0.12329196253E+04  0.50400001928E-02 0. -1.
    10030    2    1    2    0    0  0.00000000000E+00  0.00000000000E+00 -0.19729220747E+03  0.22685470431E+04  0.22599516525E+04 0.  0.
        2    1    3    3  502    0  0.94827748612E+03  0.59886414589E+03  0.39634546563E+02  0.11222474563E+04  0.25500000920E-02 0. -1.
       -2    1    3    3    0  502 -0.94827748612E+03 -0.59886414589E+03 -0.23692675403E+03  0.11462995868E+04  0.25500000920E-02 0.  1.
</event>
<event>
 5   0  0.3184492E-06  0.2293438E+04  0.7818609E-02  0.8480513E-01
       -1   -1    0    0    0  501  0.00000000000E+00  0.00000000000E+00  0.92836013950E+03  0.92836013952E+03  0.50400001928E-02 0.  1.
        1   -1    0    0  501    0  0.00000000000E+00  0.00000000000E+00 -0.14164374821E+04  0.14164374821E+04  0.50400001928E-02 0. -1.
    10030    2    1    2    0    0  0.00000000000E+00  0.00000000000E+00 -0.48807734255E+03  0.23447976216E+04  0.22934376804E+04 0.  0.
        1    1    3    3  502    0  0.22424870635E+03  0.37754301403E+03  0.83899394175E+03  0.94696200772E+03  0.50400001928E-02 0.  1.
       -1    1    3    3    0  502 -0.22424870635E+03 -0.37754301403E+03 -0.13270712843E+04  0.13978356139E+04  0.50400001928E-02 0. -1.
</event>
<event>
 5   0  0.7242214E-06  0.2269490E+04  0.7818609E-02  0.8490049E-01
        2   -1    0    0  501    0  0.00000000000E+00  0.00000000000E+00  0.14624698373E+04  0.14624698373E+04  0.25500000920E-02 0.  1.
       -2   -1    0    0    0  501  0.00000000000E+00  0.00000000000E+00 -0.88046035453E+03  0.88046035453E+03  0.25500000920E-02 0. -1.
    10030    2    1    2    0    0  0.00000000000E+00  0.00000000000E+00  0.58200948280E+03  0.23429301919E+04  0.22694904375E+04 0.  0.
        1    1    3    3  502    0  0.42368447492E+03 -0.45240851810E+03  0.12722703735E+04  0.14152222104E+04  0.50400001928E-02 0.  1.
       -1    1    3    3    0  502 -0.42368447492E+03  0.45240851810E+03 -0.69026089072E+03  0.92770798144E+03  0.50400001928E-02 0. -1.
</event>
<event>
 5   0  0.3184492E-06  0.2300280E+04  0.7818609E-02  0.8477811E-01
       -1   -1    0    0    0  501  0.00000000000E+00  0.00000000000E+00  0.11442358817E+04  0.11442358817E+04  0.50400001928E-02 0. -1.
        1   -1    0    0  501    0  0.00000000000E+00  0.00000000000E+00 -0.11560750371E+04  0.11560750371E+04  0.50400001928E-02 0.  1.
    10030    2    1    2    0    0  0.00000000000E+00  0.00000000000E+00 -0.11839155374E+02  0.23003109188E+04  0.23002804519E+04 0.  0.
        1    1    3    3  502    0  0.41813112287E+02 -0.42180705901E+03 -0.10751170758E+04  0.11556583656E+04  0.50400001928E-02 0.  1.
       -1    1    3    3    0  502 -0.41813112287E+02  0.42180705901E+03  0.10632779204E+04  0.11446525531E+04  0.50400001928E-02 0. -1.
</event>
<event>
 5   0  0.3226427E-06  0.2297808E+04  0.7818609E-02  0.8478786E-01
       -1   -1    0    0    0  501  0.00000000000E+00  0.00000000000E+00  0.45871983742E+03  0.45871983745E+03  0.50400001928E-02 0. -1.
        1   -1    0    0  501    0  0.00000000000E+00  0.00000000000E+00 -0.28775313414E+04  0.28775313414E+04  0.50400001928E-02 0.  1.
    10030    2    1    2    0    0  0.00000000000E+00  0.00000000000E+00 -0.24188115040E+04  0.33362511789E+04  0.22978082680E+04 0.  0.
        4    1    3    3  502    0 -0.50363150877E+03  0.80915413954E+03 -0.21409097736E+04  0.23434742136E+04  0.12699999809E+01 0.  1.
       -4    1    3    3    0  502  0.50363150877E+03 -0.80915413954E+03 -0.27790173042E+03  0.99277696530E+03  0.12699999809E+01 0. -1.
</event>
<event>
 5   0  0.7003852E-06  0.2316690E+04  0.7818609E-02  0.8471369E-01
       -2   -1    0    0    0  501  0.00000000000E+00  0.00000000000E+00  0.10802649459E+04  0.10802649459E+04  0.25500000920E-02 0. -1.
        2   -1    0    0  501    0  0.00000000000E+00  0.00000000000E+00 -0.12420689092E+04  0.12420689092E+04  0.25500000920E-02 0.  1.
    10030    2    1    2    0    0  0.00000000000E+00  0.00000000000E+00 -0.16180396321E+03  0.23223338551E+04  0.23166903142E+04 0.  0.
        2    1    3    3  502    0 -0.14337015334E+03  0.77863583168E+03 -0.92849988146E+03  0.12202216148E+04  0.25500000920E-02 0.  1.
       -2    1    3    3    0  502  0.14337015334E+03 -0.77863583168E+03  0.76669591825E+03  0.11021122403E+04  0.25500000920E-02 0. -1.
</event>
<event>
 5   0  0.7003852E-06  0.2301744E+04  0.7818609E-02  0.8477234E-01
        2   -1    0    0  501    0  0.00000000000E+00  0.00000000000E+00  0.13179044358E+04  0.13179044358E+04  0.25500000920E-02 0.  1.
       -2   -1    0    0    0  501  0.00000000000E+00  0.00000000000E+00 -0.10050095619E+04  0.10050095619E+04  0.25500000920E-02 0. -1.
    10030    2    1    2    0    0  0.00000000000E+00  0.00000000000E+00  0.31289487394E+03  0.23229139977E+04  0.23017441732E+04 0.  0.
        2    1    3    3  502    0  0.74838288503E+03 -0.23858662003E+03  0.10053173777E+04  0.12757991800E+04  0.25500000920E-02 0.  1.
       -2    1    3    3    0  502 -0.74838288503E+03  0.23858662003E+03 -0.69242250373E+03  0.10471148177E+04  0.25500000920E-02 0. -1.
</event>
<event>
 5   0  0.7497344E-06  0.2295200E+04  0.7818609E-02  0.8479816E-01
        2   -1    0    0  501    0  0.00000000000E+00  0.00000000000E+00  0.20024803251E+04  0.20024803251E+04  0.25500000920E-02 0. -1.
       -2   -1    0    0    0  501  0.00000000000E+00  0.00000000000E+00 -0.65767702480E+03  0.65767702480E+03  0.25500000920E-02 0.  1.
    10030    2    1    2    0    0  0.00000000000E+00  0.00000000000E+00  0.13448033003E+04  0.26601573499E+04  0.22951996013E+04 0.  0.
        5    1    3    3  502    0  0.81356852336E+03  0.60226630591E+03  0.45737964622E+02  0.10132780945E+04  0.46999998093E+01 0.  1.
       -5    1    3    3    0  502 -0.81356852336E+03 -0.60226630591E+03  0.12990653357E+04  0.16468792554E+04  0.46999998093E+01 0. -1.
</event>
<event>
 5   0  0.7242214E-06  0.2302382E+04  0.7818609E-02  0.8476983E-01
       -2   -1    0    0    0  501  0.00000000000E+00  0.00000000000E+00  0.88179623607E+03  0.88179623608E+03  0.25500000920E-02 0. -1.
        2   -1    0    0  501    0  0.00000000000E+00  0.00000000000E+00 -0.15028872726E+04  0.15028872726E+04  0.25500000920E-02 0.  1.
    10030    2    1    2    0    0  0.00000000000E+00  0.00000000000E+00 -0.62109103650E+03  0.23846835087E+04  0.23023816714E+04 0.  0.
        1    1    3    3  502    0 -0.86928956662E+03  0.71251691793E+03 -0.52863907184E+02  0.11252285553E+04  0.50400001928E-02 0. -1.
       -1    1    3    3    0  502  0.86928956662E+03 -0.71251691793E+03 -0.56822712932E+03  0.12594549533E+04  0.50400001928E-02 0.  1.
</event>
<event>
 5   0  0.3238713E-06  0.2302456E+04  0.7818609E-02  0.8476954E-01
       -1   -1    0    0    0  501  0.00000000000E+00  0.00000000000E+00  0.86708257781E+03  0.86708257783E+03  0.50400001928E-02 0.  1.
        1   -1    0    0  501    0  0.00000000000E+00  0.00000000000E+00 -0.15284881451E+04  0.15284881451E+04  0.50400001928E-02 0. -1.
    10030    2    1    2    0    0  0.00000000000E+00  0.00000000000E+00 -0.66140556730E+03  0.23955707229E+04  0.23024555944E+04 0.  0.
        3    1    3    3  502    0  0.16158502550E+03 -0.99357120598E+03 -0.91189164128E+03  0.13582488128E+04  0.10100000352E+00 0. -1.
       -3    1    3    3    0  502 -0.16158502550E+03  0.99357120598E+03  0.25048607398E+03  0.10373219102E+04  0.10100000352E+00 0.  1.
</event>
<event>
 5   0  0.7044981E-06  0.2299147E+04  0.7818609E-02  0.8478258E-01
        2   -1    0    0  501    0  0.00000000000E+00  0.00000000000E+00  0.17938155698E+04  0.17938155698E+04  0.25500000920E-02 0. -1.
       -2   -1    0    0    0  501  0.00000000000E+00  0.00000000000E+00 -0.73670842229E+03  0.73670842229E+03  0.25500000920E-02 0.  1.
    10030    2    1    2    0    0  0.00000000000E+00  0.00000000000E+00  0.10571071475E+04  0.25305239921E+04  0.22991468316E+04 0.  0.
        4    1    3    3  502    0  0.13926557802E+03 -0.84637768696E+03 -0.31382308877E+03  0.91336555340E+03  0.12699999809E+01 0.  1.
       -4    1    3    3    0  502 -0.13926557802E+03  0.84637768696E+03  0.13709302363E+04  0.16171584387E+04  0.12699999809E+01 0. -1.
</event>
<event>
 5   0  0.7497344E-06  0.2300650E+04  0.7818609E-02  0.8477665E-01
        2   -1    0    0  501    0  0.00000000000E+00  0.00000000000E+00  0.93714667129E+03  0.93714667129E+03  0.25500000920E-02 0.  1.
       -2   -1    0    0    0  501  0.00000000000E+00  0.00000000000E+00 -0.14119963273E+04  0.14119963273E+04  0.25500000920E-02 0. -1.
    10030    2    1    2    0    0  0.00000000000E+00  0.00000000000E+00 -0.47484965600E+03  0.23491429986E+04  0.23006500455E+04 0.  0.
        5    1    3    3  502    0 -0.82995241308E+03  0.51933250384E+03 -0.85405641434E+03  0.12992158044E+04  0.46999998093E+01 0. -1.
       -5    1    3    3    0  502  0.82995241308E+03 -0.51933250384E+03  0.37920675834E+03  0.10499271942E+04  0.46999998093E+01 0.  1.
</event>
<event>
 5   0  0.7242214E-06  0.2297249E+04  0.7818609E-02  0.8479006E-01
       -2   -1    0    0    0  501  0.00000000000E+00  0.00000000000E+00  0.54688333965E+03  0.54688333965E+03  0.25500000920E-02 0. -1.
        2   -1    0    0  501    0  0.00000000000E+00  0.00000000000E+00 -0.24124681627E+04  0.24124681627E+04  0.25500000920E-02 0.  1.
    10030    2    1    2    0    0  0.00000000000E+00  0.00000000000E+00 -0.18655848231E+04  0.29593515024E+04  0.22972493514E+04 0.  0.
        1    1    3    3  502    0 -0.55470252427E+03 -0.99500499454E+03 -0.11221592378E+04  0.15990532150E+04  0.50400001928E-02 0.  1.
       -1    1    3    3    0  502  0.55470252427E+03  0.99500499454E+03 -0.74342558528E+03  0.13602982873E+04  0.50400001928E-02 0. -1.
</event>
<event>
 5   0  0.3184492E-06  0.2347772E+04  0.7818609E-02  0.8459320E-01
        1   -1    0    0  501    0  0.00000000000E+00  0.00000000000E+00  0.28277603417E+04  0.28277603417E+04  0.50400001928E-02 0.  1.
       -1   -1    0    0    0  501  0.00000000000E+00  0.00000000000E+00 -0.48731457558E+03  0.48731457560E+03  0.50400001928E-02 0. -1.
    10030    2    1    2    0    0  0.00000000000E+00  0.00000000000E+00  0.23404457661E+04  0.33150749173E+04  0.23477724173E+04 0.  0.
        1    1    3    3  502    0  0.21921194422E+03  0.10617587715E+04  0.53462563738E+03  0.12088052521E+04  0.50400001928E-02 0. -1.
       -1    1    3    3    0  502 -0.21921194422E+03 -0.10617587715E+04  0.18058201288E+04  0.21062696653E+04  0.50400001928E-02 0.  1.
</event>
<event>
 5   0  0.3195296E-06  0.2301409E+04  0.7818609E-02  0.8477366E-01
       -1   -1    0    0    0  501  0.00000000000E+00  0.00000000000E+00  0.11741790596E+04  0.11741790596E+04  0.50400001928E-02 0. -1.
        1   -1    0    0  501    0  0.00000000000E+00  0.00000000000E+00 -0.11276990848E+04  0.11276990848E+04  0.50400001928E-02 0.  1.
    10030    2    1    2    0    0  0.00000000000E+00  0.00000000000E+00  0.46479974773E+02  0.23018781444E+04  0.23014088302E+04 0.  0.
        2    1    3    3  502    0 -0.29564597333E+03  0.49818127481E+03  0.10176909611E+04  0.11710192212E+04  0.25500000920E-02 0. -1.
       -2    1    3    3    0  502  0.29564597333E+03 -0.49818127481E+03 -0.97121098637E+03  0.11308589232E+04  0.25500000920E-02 0.  1.
</event>
<event>
 5   0  0.3195296E-06  0.2306060E+04  0.7818609E-02  0.8475536E-01
        1   -1    0    0  501    0  0.00000000000E+00  0.00000000000E+00  0.11091950649E+04  0.11091950649E+04  0.50400001928E-02 0.  1.
       -1   -1    0    0    0  501  0.00000000000E+00  0.00000000000E+00 -0.11985969026E+04  0.11985969026E+04  0.50400001928E-02 0. -1.
    10030    2    1    2    0    0  0.00000000000E+00  0.00000000000E+00 -0.89401837692E+02  0.23077919674E+04  0.23060596429E+04 0.  0.
        2    1    3    3  502    0 -0.20366586399E+03  0.34899662015E+02 -0.11799163156E+04  0.11978732330E+04  0.25500000920E-02 0. -1.
       -2    1    3    3    0  502  0.20366586399E+03 -0.34899662015E+02  0.10905144779E+04  0.11099187344E+04  0.25500000920E-02 0.  1.
</event>
<event>
 5   0  0.7003852E-06  0.2302502E+04  0.7818609E-02  0.8476935E-01
       -2   -1    0    0    0  501  0.00000000000E+00  0.00000000000E+00  0.70069997549E+03  0.70069997549E+03  0.25500000920E-02 0.  1.
        2   -1    0    0  501    0  0.00000000000E+00  0.00000000000E+00 -0.18915075392E+04  0.18915075392E+04  0.25500000920E-02 0. -1.
    10030    2    1    2    0    0  0.00000000000E+00  0.00000000000E+00 -0.11908075637E+04  0.25922075147E+04  0.23025023660E+04 0.  0.
        2    1    3    3  502    0 -0.36876998755E+03 -0.40476708001E+03 -0.17355181978E+04  0.18198491991E+04  0.25500000920E-02 0. -1.
       -2    1    3    3    0  502  0.36876998755E+03  0.40476708001E+03  0.54471063405E+03  0.77235831557E+03  0.25500000920E-02 0.  1.
</event>
<event>
 5   0  0.7044981E-06  0.2298147E+04  0.7818609E-02  0.8478652E-01
        2   -1    0    0  501    0  0.00000000000E+00  0.00000000000E+00  0.18280145930E+04  0.18280145930E+04  0.25500000920E-02 0. -1.
       -2   -1    0    0    0  501  0.00000000000E+00  0.00000000000E+00 -0.72229743976E+03  0.72229743976E+03  0.25500000920E-02 0.  1.
    10030    2    1    2    0    0  0.00000000000E+00  0.00000000000E+00  0.11057171532E+04  0.25503120327E+04  0.22981473063E+04 0.  0.
        4    1    3    3  502    0 -0.16781297875E+03  0.13092014845E+03  0.18059478799E+04  0.18184473154E+04  0.12699999809E+01 0. -1.
       -4    1    3    3    0  502  0.16781297875E+03 -0.13092014845E+03 -0.70023072664E+03  0.73186471737E+03  0.12699999809E+01 0.  1.
</event>
<event>
 5   0  0.7497344E-06  0.2287663E+04  0.7818609E-02  0.8482801E-01
       -2   -1    0    0    0  501  0.00000000000E+00  0.00000000000E+00  0.85827669888E+03  0.85827669888E+03  0.25500000920E-02 0.  1.
        2   -1    0    0  501    0  0.00000000000E+00  0.00000000000E+00 -0.15243925838E+04  0.15243925838E+04  0.25500000920E-02 0. -1.
    10030    2    1    2    0    0  0.00000000000E+00  0.00000000000E+00 -0.66611588495E+03  0.23826692827E+04  0.22876631174E+04 0.  0.
        5    1    3    3  502    0 -0.10033110044E+04 -0.22629706200E+03  0.18821207029E+03  0.10456047080E+04  0.46999998093E+01 0.  1.
       -5    1    3    3    0  502  0.10033110044E+04  0.22629706200E+03 -0.85432795524E+03  0.13370645747E+04  0.46999998093E+01 0. -1.
</event>
<event>
 5   0  0.3184492E-06  0.2368047E+04  0.7818609E-02  0.8451564E-01
        1   -1    0    0  501    0  0.00000000000E+00  0.00000000000E+00  0.14718036230E+04  0.14718036230E+04  0.50400001928E-02 0.  1.
       -1   -1    0    0    0  501  0.00000000000E+00  0.00000000000E+00 -0.95251286309E+03  0.95251286310E+03  0.50400001928E-02 0. -1.
    10030    2    1    2    0    0  0.00000000000E+00  0.00000000000E+00  0.51929075988E+03  0.24243164861E+04  0.23680471979E+04 0.  0.
        1    1    3    3  502    0  0.10602864644E+04  0.26666977010E+03 -0.20567859232E+03  0.11124854319E+04  0.50400001928E-02 0. -1.
       -1    1    3    3    0  502 -0.10602864644E+04 -0.26666977010E+03  0.72496935220E+03  0.13118310541E+04  0.50400001928E-02 0.  1.
</event>
<event>
 5   0  0.3226427E-06  0.2299365E+04  0.7818609E-02  0.8478172E-01
       -1   -1    0    0    0  501  0.00000000000E+00  0.00000000000E+00  0.97570297722E+03  0.97570297724E+03  0.50400001928E-02 0.  1.
        1   -1    0    0  501    0  0.00000000000E+00  0.00000000000E+00 -0.13546846022E+04  0.13546846022E+04  0.50400001928E-02 0. -1.
    10030    2    1    2    0    0  0.00000000000E+00  0.00000000000E+00 -0.37898162499E+03  0.23303875795E+04  0.22993649555E+04 0.  0.
        4    1    3    3  502    0 -0.95125757878E+03 -0.58790423275E+03 -0.46001116172E+03  0.12091874337E+04  0.12699999809E+01 0. -1.
       -4    1    3    3    0  502  0.95125757878E+03  0.58790423275E+03  0.81029536729E+02  0.11212001457E+04  0.12699999809E+01 0.  1.
</event>
<event>
 5   0  0.7003852E-06  0.2301236E+04  0.7818609E-02  0.8477434E-01
        2   -1    0    0  501    0  0.00000000000E+00  0.00000000000E+00  0.91831084066E+03  0.91831084067E+03  0.25500000920E-02 0. -1.
       -2   -1    0    0    0  501  0.00000000000E+00  0.00000000000E+00 -0.14416920522E+04  0.14416920522E+04  0.25500000920E-02 0.  1.
    10030    2    1    2    0    0  0.00000000000E+00  0.00000000000E+00 -0.52338121152E+03  0.23600028929E+04  0.23012357032E+04 0.  0.
        2    1    3    3  502    0  0.39355620407E+03  0.10310633456E+04  0.72110864953E+02  0.11059738176E+04  0.25500000920E-02 0. -1.
       -2    1    3    3    0  502 -0.39355620407E+03 -0.10310633456E+04 -0.59549207647E+03  0.12540290752E+04  0.25500000920E-02 0.  1.
</event>
<event>
 5   0  0.7242214E-06  0.2297328E+04  0.7818609E-02  0.8478975E-01
       -2   -1    0    0    0  501  0.00000000000E+00  0.00000000000E+00  0.10705809690E+04  0.10705809690E+04  0.25500000920E-02 0. -1.
        2   -1    0    0  501    0  0.00000000000E+00  0.00000000000E+00 -0.12324419415E+04  0.12324419415E+04  0.25500000920E-02 0.  1.
    10030    2    1    2    0    0  0.00000000000E+00  0.00000000000E+00 -0.16186097242E+03  0.23030229105E+04  0.22973279156E+04 0.  0.
        1    1    3    3  502    0 -0.31571821931E+03 -0.10451546262E+04  0.27688949328E+03  0.11263631645E+04  0.50400001928E-02 0. -1.
       -1    1    3    3    0  502  0.31571821931E+03  0.10451546262E+04 -0.43875046570E+03  0.11766597460E+04  0.50400001928E-02 0.  1.
</event>
<event>
 5   0  0.7044981E-06  0.2306280E+04  0.7818609E-02  0.8475449E-01
        2   -1    0    0  501    0  0.00000000000E+00  0.00000000000E+00  0.20165348856E+04  0.20165348857E+04  0.25500000920E-02 0. -1.
       -2   -1    0    0    0  501  0.00000000000E+00  0.00000000000E+00 -0.65941424086E+03  0.65941424086E+03  0.25500000920E-02 0.  1.
    10030    2    1    2    0    0  0.00000000000E+00  0.00000000000E+00  0.13571206448E+04  0.26759491265E+04  0.23062799663E+04 0.  0.
        4    1    3    3  502    0 -0.46833890213E+03  0.10416153576E+04  0.49354502252E+03  0.12441431520E+04  0.12699999809E+01 0.  1.
       -4    1    3    3    0  502  0.46833890213E+03 -0.10416153576E+04  0.86357562227E+03  0.14318059745E+04  0.12699999809E+01 0. -1.
</event>
<event>
 5   0  0.3195296E-06  0.2297411E+04  0.7818609E-02  0.8478943E-01
        1   -1    0    0  501    0  0.00000000000E+00  0.00000000000E+00  0.13012801953E+04  0.13012801953E+04  0.50400001928E-02 0. -1.
       -1   -1    0    0    0  501  0.00000000000E+00  0.00000000000E+00 -0.10140201965E+04  0.10140201965E+04  0.50400001928E-02 0.  1.
    10030    2    1    2    0    0  0.00000000000E+00  0.00000000000E+00  0.28725999882E+03  0.23153003918E+04  0.22974110641E+04 0.  0.
        2    1    3    3  502    0 -0.69651920481E+03  0.68355170536E+03 -0.46701097929E+03  0.10818877906E+04  0.25500000920E-02 0.  1.
       -2    1    3    3    0  502  0.69651920481E+03 -0.68355170536E+03  0.75427097811E+03  0.12334126013E+04  0.25500000920E-02 0. -1.
</event>
<event>
 5   0  0.7497344E-06  0.2301446E+04  0.7818609E-02  0.8477351E-01
        2   -1    0    0  501    0  0.00000000000E+00  0.00000000000E+00  0.19276518710E+04  0.19276518710E+04  0.25500000920E-02 0. -1.
       -2   -1    0    0    0  501  0.00000000000E+00  0.00000000000E+00 -0.68693105635E+03  0.68693105635E+03  0.25500000920E-02 0.  1.
    10030    2    1    2    0    0  0.00000000000E+00  0.00000000000E+00  0.12407208146E+04  0.26145829273E+04  0.23014464460E+04 0.  0.
        5    1    3    3  502    0 -0.10955228801E+04  0.13204675831E+03  0.24955338953E+03  0.11313291791E+04  0.46999998093E+01 0.  1.
       -5    1    3    3    0  502  0.10955228801E+04 -0.13204675831E+03  0.99116742507E+03  0.14832537482E+04  0.46999998093E+01 0. -1.
</event>
<event>
 5   0  0.3226427E-06  0.2300734E+04  0.7818609E-02  0.8477632E-01
       -1   -1    0    0    0  501  0.00000000000E+00  0.00000000000E+00  0.92577427193E+03  0.92577427195E+03  0.50400001928E-02 0.  1.
        1   -1    0    0  501    0  0.00000000000E+00  0.00000000000E+00 -0.14294461219E+04  0.14294461219E+04  0.50400001928E-02 0. -1.
    10030    2    1    2    0    0  0.00000000000E+00  0.00000000000E+00 -0.50367185000E+03  0.23552203939E+04  0.23007341809E+04 0.  0.
        4    1    3    3  502    0  0.59209212829E+03 -0.87687388190E+03  0.21036752361E+03  0.10787664256E+04  0.12699999809E+01 0.  1.
       -4    1    3    3    0  502 -0.59209212829E+03  0.87687388190E+03 -0.71403937361E+03  0.12764539683E+04  0.12699999809E+01 0. -1.
</event>
<event>
 5   0  0.3184492E-06  0.2294302E+04  0.7818609E-02  0.8480171E-01
       -1   -1    0    0    0  501  0.00000000000E+00  0.00000000000E+00  0.74440744761E+03  0.74440744763E+03  0.50400001928E-02 0. -1.
        1   -1    0    0  501    0  0.00000000000E+00  0.00000000000E+00 -0.17677896323E+04  0.17677896324E+04  0.50400001928E-02 0.  1.
    10030    2    1    2    0    0  0.00000000000E+00  0.00000000000E+00 -0.10233821847E+04  0.25121970800E+04  0.22943023063E+04 0.  0.
        1    1    3    3  502    0  0.91433383111E+03 -0.40880011007E+03 -0.11241240720E+04  0.15055825497E+04  0.50400001928E-02 0.  1.
       -1    1    3    3    0  502 -0.91433383111E+03  0.40880011007E+03  0.10074188726E+03  0.10066145303E+04  0.50400001928E-02 0. -1.
</event>
<event>
 5   0  0.3184492E-06  0.2298882E+04  0.7818609E-02  0.8478362E-01
        1   -1    0    0  501    0  0.00000000000E+00  0.00000000000E+00  0.58643638744E+03  0.58643638746E+03  0.50400001928E-02 0.  1.
       -1   -1    0    0    0  501  0.00000000000E+00  0.00000000000E+00 -0.22529554154E+04  0.22529554154E+04  0.50400001928E-02 0. -1.
    10030    2    1    2    0    0  0.00000000000E+00  0.00000000000E+00 -0.16665190280E+04  0.28393918029E+04  0.22988823675E+04 0.  0.
        1    1    3    3  502    0 -0.38921664042E+03 -0.49430915094E+03 -0.20214047905E+04  0.21170518315E+04  0.50400001928E-02 0. -1.
       -1    1    3    3    0  502  0.38921664042E+03  0.49430915094E+03  0.35488576253E+03  0.72233997145E+03  0.50400001928E-02 0.  1.
</event>
<event>
 5   0  0.3195296E-06  0.2290755E+04  0.7818609E-02  0.8481575E-01
        1   -1    0    0  501    0  0.00000000000E+00  0.00000000000E+00  0.15428509019E+04  0.15428509019E+04  0.50400001928E-02 0.  1.
       -1   -1    0    0    0  501  0.00000000000E+00  0.00000000000E+00 -0.85030221525E+03  0.85030221526E+03  0.50400001928E-02 0. -1.
    10030    2    1    2    0    0  0.00000000000E+00  0.00000000000E+00  0.69254868667E+03  0.23931531172E+04  0.22907549321E+04 0.  0.
        2    1    3    3  502    0 -0.20312013137E+03  0.10058188819E+04  0.87790290723E+03  0.13504232394E+04  0.25500000920E-02 0.  1.
       -2    1    3    3    0  502  0.20312013137E+03 -0.10058188819E+04 -0.18535422057E+03  0.10427298778E+04  0.25500000920E-02 0. -1.
</event>
<event>
 5   0  0.3238713E-06  0.2296545E+04  0.7818609E-02  0.8479285E-01
       -1   -1    0    0    0  501  0.00000000000E+00  0.00000000000E+00  0.60648840600E+03  0.60648840602E+03  0.50400001928E-02 0.  1.
        1   -1    0    0  501    0  0.00000000000E+00  0.00000000000E+00 -0.21740394193E+04  0.21740394193E+04  0.50400001928E-02 0. -1.
    10030    2    1    2    0    0  0.00000000000E+00  0.00000000000E+00 -0.15675510133E+04  0.27805278254E+04  0.22965449719E+04 0.  0.
        3    1    3    3  502    0 -0.25793036298E+03 -0.80890455758E+03 -0.17197949054E+04  0.19179544266E+04  0.10100000352E+00 0. -1.
       -3    1    3    3    0  502  0.25793036298E+03  0.80890455758E+03  0.15224389210E+03  0.86257339879E+03  0.10100000352E+00 0.  1.
</event>
<event>
 5   0  0.7242214E-06  0.2296827E+04  0.7818609E-02  0.8479173E-01
        2   -1    0    0  501    0  0.00000000000E+00  0.00000000000E+00  0.11913027967E+04  0.11913027967E+04  0.25500000920E-02 0.  1.
       -2   -1    0    0    0  501  0.00000000000E+00  0.00000000000E+00 -0.11070686760E+04  0.11070686760E+04  0.25500000920E-02 0. -1.
    10030    2    1    2    0    0  0.00000000000E+00  0.00000000000E+00  0.84234120682E+02  0.22983714727E+04  0.22968273857E+04 0.  0.
        1    1    3    3  502    0  0.62429603070E+03 -0.89342766716E+03  0.40415508691E+03  0.11624542420E+04  0.50400001928E-02 0.  1.
       -1    1    3    3    0  502 -0.62429603070E+03  0.89342766716E+03 -0.31992096623E+03  0.11359172307E+04  0.50400001928E-02 0. -1.
</event>
<event>
 5   0  0.3238713E-06  0.2294804E+04  0.7818609E-02  0.8479973E-01
       -1   -1    0    0    0  501  0.00000000000E+00  0.00000000000E+00  0.14490334055E+04  0.14490334055E+04  0.50400001928E-02 0.  1.
        1   -1    0    0  501    0  0.00000000000E+00  0.00000000000E+00 -0.90855856036E+03  0.90855856037E+03  0.50400001928E-02 0. -1.
    10030    2    1    2    0    0  0.00000000000E+00  0.00000000000E+00  0.54047484511E+03  0.23575919659E+04  0.22948043096E+04 0.  0.
        3    1    3    3  502    0  0.13571853953E+03  0.42805920714E+03 -0.81452981263E+03  0.93011452663E+03  0.10100000352E+00 0. -1.
       -3    1    3    3    0  502 -0.13571853953E+03 -0.42805920714E+03  0.13550046577E+04  0.14274774392E+04  0.10100000352E+00 0.  1.
</event>
<event>
 5   0  0.7044981E-06  0.2289674E+04  0.7818609E-02  0.8482004E-01
        2   -1    0    0  501    0  0.00000000000E+00  0.00000000000E+00  0.10142299275E+04  0.10142299275E+04  0.25500000920E-02 0.  1.
       -2   -1    0    0    0  501  0.00000000000E+00  0.00000000000E+00 -0.12922632332E+04  0.12922632332E+04  0.25500000920E-02 0. -1.
    10030    2    1    2    0    0  0.00000000000E+00  0.00000000000E+00 -0.27803330573E+03  0.23064931606E+04  0.22896742522E+04 0.  0.
        4    1    3    3  502    0  0.10821229639E+04  0.35796046605E+03 -0.30875266717E+02  0.11402108135E+04  0.12699999809E+01 0. -1.
       -4    1    3    3    0  502 -0.10821229639E+04 -0.35796046605E+03 -0.24715803901E+03  0.11662823472E+04  0.12699999809E+01 0.  1.
</event>
<event>
 5   0  0.7348107E-06  0.2305559E+04  0.7818609E-02  0.8475733E-01
        2   -1    0    0  501    0  0.00000000000E+00  0.00000000000E+00  0.25468679223E+04  0.25468679223E+04  0.25500000920E-02 0. -1.
       -2   -1    0    0    0  501  0.00000000000E+00  0.00000000000E+00 -0.52177818546E+03  0.52177818546E+03  0.25500000920E-02 0.  1.
    10030    2    1    2    0    0  0.00000000000E+00  0.00000000000E+00  0.20250897369E+04  0.30686461078E+04  0.23055586075E+04 0.  0.
        3    1    3    3  502    0  0.39249356705E+03  0.99333059805E+03  0.43522707354E+03  0.11533340769E+04  0.10100000352E+00 0. -1.
       -3    1    3    3    0  502 -0.39249356705E+03 -0.99333059805E+03  0.15898626633E+04  0.19153120309E+04  0.10100000352E+00 0.  1.
</event>
<event>
 5   0  0.7003852E-06  0.2299172E+04  0.7818609E-02  0.8478248E-01
       -2   -1    0    0    0  501  0.00000000000E+00  0.00000000000E+00  0.90694960759E+03  0.90694960759E+03  0.25500000920E-02 0.  1.
        2   -1    0    0  501    0  0.00000000000E+00  0.00000000000E+00 -0.14571350084E+04  0.14571350084E+04  0.25500000920E-02 0. -1.
    10030    2    1    2    0    0  0.00000000000E+00  0.00000000000E+00 -0.55018540077E+03  0.23640846160E+04  0.22991720458E+04 0.  0.
        2    1    3    3  502    0 -0.89943516481E+03 -0.24365508575E+03  0.41711252192E+03  0.10209477325E+04  0.25500000920E-02 0.  1.
       -2    1    3    3    0  502  0.89943516481E+03  0.24365508575E+03 -0.96729792269E+03  0.13431368835E+04  0.25500000920E-02 0. -1.
</event>
<event>
 5   0  0.3338758E-06  0.2294001E+04  0.7818609E-02  0.8480290E-01
        1   -1    0    0  501    0  0.00000000000E+00  0.00000000000E+00  0.13103038650E+04  0.13103038651E+04  0.50400001928E-02 0.  1.
       -1   -1    0    0    0  501  0.00000000000E+00  0.00000000000E+00 -0.10040496437E+04  0.10040496437E+04  0.50400001928E-02 0. -1.
    10030    2    1    2    0    0  0.00000000000E+00  0.00000000000E+00  0.30625422138E+03  0.23143535087E+04  0.22940009841E+04 0.  0.
        5    1    3    3  502    0  0.79982964559E+03  0.57450166228E+03  0.74639914425E+03  0.12356833714E+04  0.46999998093E+01 0.  1.
       -5    1    3    3    0  502 -0.79982964559E+03 -0.57450166228E+03 -0.44014492287E+03  0.10786701373E+04  0.46999998093E+01 0. -1.
</event>
<event>
 5   0  0.3184492E-06  0.2301755E+04  0.7818609E-02  0.8477229E-01
       -1   -1    0    0    0  501  0.00000000000E+00  0.00000000000E+00  0.60922476467E+03  0.60922476469E+03  0.50400001928E-02 0.  1.
        1   -1    0    0  501    0  0.00000000000E+00  0.00000000000E+00 -0.21741061223E+04  0.21741061223E+04  0.50400001928E-02 0. -1.
    10030    2    1    2    0    0  0.00000000000E+00  0.00000000000E+00 -0.15648813577E+04  0.27833308870E+04  0.23017552353E+04 0.  0.
        1    1    3    3  502    0  0.39475953299E+03 -0.10361037286E+04 -0.40939399399E+03  0.11819261684E+04  0.50400001928E-02 0.  1.
       -1    1    3    3    0  502 -0.39475953299E+03  0.10361037286E+04 -0.11554873637E+04  0.16014047186E+04  0.50400001928E-02 0. -1.
</event>
<event>
 5   0  0.7044981E-06  0.2299878E+04  0.7818609E-02  0.8477969E-01
       -2   -1    0    0    0  501  0.00000000000E+00  0.00000000000E+00  0.77054425358E+03  0.77054425358E+03  0.25500000920E-02 0.  1.
        2   -1    0    0  501    0  0.00000000000E+00  0.00000000000E+00 -0.17161370277E+04  0.17161370277E+04  0.25500000920E-02 0. -1.
    10030    2    1    2    0    0  0.00000000000E+00  0.00000000000E+00 -0.94559277414E+03  0.24866812813E+04  0.22998778446E+04 0.  0.
        4    1    3    3  502    0 -0.87943630870E+03 -0.53710760480E+03  0.79014335875E+02  0.10335074641E+04  0.12699999809E+01 0.  1.
       -4    1    3    3    0  502  0.87943630870E+03  0.53710760480E+03 -0.10246071100E+04  0.14531738172E+04  0.12699999809E+01 0. -1.
</event>
<event>
 5   0  0.7044981E-06  0.2298747E+04  0.7818609E-02  0.8478415E-01
        2   -1    0    0  501    0  0.00000000000E+00  0.00000000000E+00  0.83232155659E+03  0.83232155659E+03  0.25500000920E-02 0. -1.
       -2   -1    0    0    0  501  0.00000000000E+00  0.00000000000E+00 -0.15871988558E+04  0.15871988558E+04  0.25500000920E-02 0.  1.
    10030    2    1    2    0    0  0.00000000000E+00  0.00000000000E+00 -0.75487729918E+03  0.24195204124E+04  0.22987473304E+04 0.  0.
        4    1    3    3  502    0 -0.63576311120E+03  0.95150261463E+03 -0.49034151343E+03  0.12449852898E+04  0.12699999809E+01 0. -1.
       -4    1    3    3    0  502  0.63576311120E+03 -0.95150261463E+03 -0.26453578575E+03  0.11745351225E+04  0.12699999809E+01 0.  1.
</event>
<event>
 5   0  0.7497344E-06  0.2301258E+04  0.7818609E-02  0.8477425E-01
       -2   -1    0    0    0  501  0.00000000000E+00  0.00000000000E+00  0.11865559288E+04  0.11865559288E+04  0.25500000920E-02 0. -1.
        2   -1    0    0  501    0  0.00000000000E+00  0.00000000000E+00 -0.11157902933E+04  0.11157902933E+04  0.25500000920E-02 0.  1.
    10030    2    1    2    0    0  0.00000000000E+00  0.00000000000E+00  0.70765635518E+02  0.23023462220E+04  0.23012584277E+04 0.  0.
        5    1    3    3  502    0  0.11173414683E+04 -0.15673711426E+03 -0.19034967070E+03  0.11442349265E+04  0.46999998093E+01 0. -1.
       -5    1    3    3    0  502 -0.11173414683E+04  0.15673711426E+03  0.26111530622E+03  0.11581112956E+04  0.46999998093E+01 0.  1.
</event>
<event>
 5   0  0.7348107E-06  0.2296577E+04  0.7818609E-02  0.8479272E-01
        2   -1    0    0  501    0  0.00000000000E+00  0.00000000000E+00  0.94706381989E+03  0.94706381990E+03  0.25500000920E-02 0.  1.
       -2   -1    0    0    0  501  0.00000000000E+00  0.00000000000E+00 -0.13922676135E+04  0.13922676135E+04  0.25500000920E-02 0. -1.
    10030    2    1    2    0    0  0.00000000000E+00  0.00000000000E+00 -0.44520379357E+03  0.23393314334E+04  0.22965768303E+04 0.  0.
        3    1    3    3  502    0  0.95237138966E+03  0.19553639486E+03  0.39977249299E+03  0.10512201491E+04  0.10100000352E+00 0.  1.
       -3    1    3    3    0  502 -0.95237138966E+03 -0.19553639486E+03 -0.84497628656E+03  0.12881112842E+04  0.10100000352E+00 0. -1.
</event>
<event>
 5   0  0.7044981E-06  0.2368995E+04  0.7818609E-02  0.8451203E-01
        2   -1    0    0  501    0  0.00000000000E+00  0.00000000000E+00  0.11608460235E+04  0.11608460235E+04  0.25500000920E-02 0. -1.
       -2   -1    0    0    0  501  0.00000000000E+00  0.00000000000E+00 -0.12086307373E+04  0.12086307373E+04  0.25500000920E-02 0.  1.
    10030    2    1    2    0    0  0.00000000000E+00  0.00000000000E+00 -0.47784713854E+02  0.23694767608E+04  0.23689948800E+04 0.  0.
        4    1    3    3  502    0 -0.77332350573E+03  0.67202264391E+03 -0.61847849480E+03  0.11967292676E+04  0.12699999809E+01 0.  1.
       -4    1    3    3    0  502  0.77332350573E+03 -0.67202264391E+03  0.57069378094E+03  0.11727474933E+04  0.12699999809E+01 0. -1.
</event>
<event>
 5   0  0.3338758E-06  0.2302638E+04  0.7818609E-02  0.8476882E-01
       -1   -1    0    0    0  501  0.00000000000E+00  0.00000000000E+00  0.10432363053E+04  0.10432363053E+04  0.50400001928E-02 0.  1.
        1   -1    0    0  501    0  0.00000000000E+00  0.00000000000E+00 -0.12705991698E+04  0.12705991698E+04  0.50400001928E-02 0. -1.
    10030    2    1    2    0    0  0.00000000000E+00  0.00000000000E+00 -0.22736286452E+03  0.23138354751E+04  0.23026377774E+04 0.  0.
        5    1    3    3  502    0  0.83962463212E+03 -0.78525463960E+03 -0.17658554664E+03  0.11630988424E+04  0.46999998093E+01 0. -1.
       -5    1    3    3    0  502 -0.83962463212E+03  0.78525463960E+03 -0.50777317875E+02  0.11507366327E+04  0.46999998093E+01 0.  1.
</event>
<event>
 5   0  0.3195296E-06  0.2297975E+04  0.7818609E-02  0.8478720E-01
        1   -1    0    0  501    0  0.00000000000E+00  0.00000000000E+00  0.75527553843E+03  0.75527553844E+03  0.50400001928E-02 0. -1.
       -1   -1    0    0    0  501  0.00000000000E+00  0.00000000000E+00 -0.17479350480E+04  0.17479350480E+04  0.50400001928E-02 0.  1.
    10030    2    1    2    0    0  0.00000000000E+00  0.00000000000E+00 -0.99265950958E+03  0.25032105865E+04  0.22979752693E+04 0.  0.
        2    1    3    3  502    0  0.37085119607E+03 -0.90948357940E+03  0.15314248907E+03  0.99405412971E+03  0.25500000920E-02 0. -1.
       -2    1    3    3    0  502 -0.37085119607E+03  0.90948357940E+03 -0.11458019987E+04  0.15091564567E+04  0.25500000920E-02 0.  1.
</event>
<event>
 5   0  0.7044981E-06  0.2298104E+04  0.7818609E-02  0.8478669E-01
       -2   -1    0    0    0  501  0.00000000000E+00  0.00000000000E+00  0.10231117893E+04  0.10231117893E+04  0.25500000920E-02 0. -1.
        2   -1    0    0  501    0  0.00000000000E+00  0.00000000000E+00 -0.12904947187E+04  0.12904947187E+04  0.25500000920E-02 0.  1.
    10030    2    1    2    0    0  0.00000000000E+00  0.00000000000E+00 -0.26738292943E+03  0.23136065079E+04  0.22981038799E+04 0.  0.
        4    1    3    3  502    0  0.31329963655E+03 -0.52492718615E+02  0.97802519006E+03  0.10283224363E+04  0.12699999809E+01 0. -1.
       -4    1    3    3    0  502 -0.31329963655E+03  0.52492718615E+02 -0.12454081195E+04  0.12852840716E+04  0.12699999809E+01 0.  1.
</event>
<event>
 5   0  0.7348107E-06  0.2305220E+04  0.7818609E-02  0.8475866E-01
        2   -1    0    0  501    0  0.00000000000E+00  0.00000000000E+00  0.13708119344E+04  0.13708119344E+04  0.25500000920E-02 0. -1.
       -2   -1    0    0    0  501  0.00000000000E+00  0.00000000000E+00 -0.96914075904E+03  0.96914075904E+03  0.25500000920E-02 0.  1.
    10030    2    1    2    0    0  0.00000000000E+00  0.00000000000E+00  0.40167117536E+03  0.23399526934E+04  0.23052199189E+04 0.  0.
        3    1    3    3  502    0 -0.87368145236E+03  0.49945789794E+03 -0.36953113175E+03  0.10720684398E+04  0.10100000352E+00 0.  1.
       -3    1    3    3    0  502  0.87368145236E+03 -0.49945789794E+03  0.77120230711E+03  0.12678842537E+04  0.10100000352E+00 0. -1.
</event>
<event>
 5   0  0.2519625E-06  0.2332872E+04  0.7818609E-02  0.8465072E-01
       -3   -1    0    0    0  501  0.00000000000E+00  0.00000000000E+00  0.12100516516E+04  0.12100516558E+04  0.10100000352E+00 0. -1.
        3   -1    0    0  501    0  0.00000000000E+00  0.00000000000E+00 -0.11243927616E+04  0.11243927662E+04  0.10100000352E+00 0.  1.
    10030    2    1    2    0    0  0.00000000000E+00  0.00000000000E+00  0.85658889977E+02  0.23344444220E+04  0.23328723313E+04 0.  0.
        3    1    3    3  502    0 -0.23671006250E+03 -0.97541270952E+03 -0.55180303428E+03  0.11454030760E+04  0.10100000352E+00 0.  1.
       -3    1    3    3    0  502  0.23671006250E+03  0.97541270952E+03  0.63746192426E+03  0.11890413461E+04  0.10100000352E+00 0. -1.
</event>
<event>
 5   0  0.7003852E-06  0.2292307E+04  0.7818609E-02  0.8480961E-01
       -2   -1    0    0    0  501  0.00000000000E+00  0.00000000000E+00  0.10383739115E+04  0.10383739115E+04  0.25500000920E-02 0.  1.
        2   -1    0    0  501    0  0.00000000000E+00  0.00000000000E+00 -0.12651200555E+04  0.12651200555E+04  0.25500000920E-02 0. -1.
    10030    2    1    2    0    0  0.00000000000E+00  0.00000000000E+00 -0.22674614397E+03  0.23034939670E+04  0.22923068386E+04 0.  0.
        2    1    3    3  502    0  0.48672308620E+03  0.10181620017E+04  0.87890268121E+02  0.11319354768E+04  0.25500000920E-02 0.  1.
       -2    1    3    3    0  502 -0.48672308620E+03 -0.10181620017E+04 -0.31463641210E+03  0.11715584903E+04  0.25500000920E-02 0. -1.
</event>
<event>
 5   0  0.7044981E-06  0.2298181E+04  0.7818609E-02  0.8478639E-01
        2   -1    0    0  501    0  0.00000000000E+00  0.00000000000E+00  0.75500702298E+03  0.75500702299E+03  0.25500000920E-02 0.  1.
       -2   -1    0    0    0  501  0.00000000000E+00  0.00000000000E+00 -0.17488694876E+04  0.17488694876E+04  0.25500000920E-02 0. -1.
    10030    2    1    2    0    0  0.00000000000E+00  0.00000000000E+00 -0.99386246459E+03  0.25038765106E+04  0.22981807983E+04 0.  0.
        4    1    3    3  502    0  0.53848196381E+02  0.11409276390E+04 -0.36001903155E+03  0.11975937632E+04  0.12699999809E+01 0. -1.
       -4    1    3    3    0  502 -0.53848196381E+02 -0.11409276390E+04 -0.63384343304E+03  0.13062827474E+04  0.12699999809E+01 0.  1.
</event>
<event>
 5   0  0.3184492E-06  0.2298926E+04  0.7818609E-02  0.8478345E-01
        1   -1    0    0  501    0  0.00000000000E+00  0.00000000000E+00  0.12827810826E+04  0.12827810826E+04  0.50400001928E-02 0. -1.
       -1   -1    0    0    0  501  0.00000000000E+00  0.00000000000E+00 -0.10300006446E+04  0.10300006446E+04  0.50400001928E-02 0.  1.
    10030    2    1    2    0    0  0.00000000000E+00  0.00000000000E+00  0.25278043805E+03  0.23127817273E+04  0.22989261337E+04 0.  0.
        1    1    3    3  502    0 -0.88407062617E+03  0.43157762173E+02  0.86417359003E+03  0.12370284791E+04  0.50400001928E-02 0. -1.
       -1    1    3    3    0  502  0.88407062617E+03 -0.43157762173E+02 -0.61139315198E+03  0.10757532481E+04  0.50400001928E-02 0.  1.
</event>
<event>
 5   0  0.7003852E-06  0.2281711E+04  0.7818609E-02  0.8485167E-01
       -2   -1    0    0    0  501  0.00000000000E+00  0.00000000000E+00  0.73668848173E+03  0.73668848174E+03  0.25500000920E-02 0. -1.
        2   -1    0    0  501    0  0.00000000000E+00  0.00000000000E+00 -0.17667599140E+04  0.17667599140E+04  0.25500000920E-02 0.  1.
    10030    2    1    2    0    0  0.00000000000E+00  0.00000000000E+00 -0.10300714323E+04  0.25034483957E+04  0.22817113565E+04 0.  0.
        2    1    3    3  502    0 -0.14023598868E+03 -0.23139737951E+03  0.70097493263E+03  0.75138321511E+03  0.25500000920E-02 0. -1.
       -2    1    3    3    0  502  0.14023598868E+03  0.23139737951E+03 -0.17310463649E+04  0.17520651806E+04  0.25500000920E-02 0.  1.
</event>
<event>
 5   0  0.3338758E-06  0.2297915E+04  0.7818609E-02  0.8478744E-01
        1   -1    0    0  501    0  0.00000000000E+00  0.00000000000E+00  0.14129825656E+04  0.14129825656E+04  0.50400001928E-02 0. -1.
       -1   -1    0    0    0  501  0.00000000000E+00  0.00000000000E+00 -0.93426722852E+03  0.93426722853E+03  0.50400001928E-02 0.  1.
    10030    2    1    2    0    0  0.00000000000E+00  0.00000000000E+00  0.47871533713E+03  0.23472497942E+04  0.22979149728E+04 0.  0.
        5    1    3    3  502    0  0.91058206223E+02 -0.41255264219E+03  0.13307488001E+04  0.13962112084E+04  0.46999998093E+01 0. -1.
       -5    1    3    3    0  502 -0.91058206223E+02  0.41255264219E+03 -0.85203346301E+03  0.95103858575E+03  0.46999998093E+01 0.  1.
</event>
<event>
 5   0  0.3238713E-06  0.2298382E+04  0.7818609E-02  0.8478559E-01
        1   -1    0    0  501    0  0.00000000000E+00  0.00000000000E+00  0.15682652897E+04  0.15682652897E+04  0.50400001928E-02 0.  1.
       -1   -1    0    0    0  501  0.00000000000E+00  0.00000000000E+00 -0.84210250579E+03  0.84210250580E+03  0.50400001928E-02 0. -1.
    10030    2    1    2    0    0  0.00000000000E+00  0.00000000000E+00  0.72616278387E+03  0.24103677955E+04  0.22983821529E+04 0.  0.
        3    1    3    3  502    0  0.96879645484E+03 -0.40669559252E+03  0.85124198305E+03  0.13522502726E+04  0.10100000352E+00 0.  1.
       -3    1    3    3    0  502 -0.96879645484E+03  0.40669559252E+03 -0.12507919918E+03  0.10581175228E+04  0.10100000352E+00 0. -1.
</event>
<event>
 5   0  0.7497344E-06  0.2309068E+04  0.7818609E-02  0.8474354E-01
        2   -1    0    0  501    0  0.00000000000E+00  0.00000000000E+00  0.72407083401E+03  0.72407083401E+03  0.25500000920E-02 0.  1.
       -2   -1    0    0    0  501  0.00000000000E+00  0.00000000000E+00 -0.18409098604E+04  0.18409098604E+04  0.25500000920E-02 0. -1.
    10030    2    1    2    0    0  0.00000000000E+00  0.00000000000E+00 -0.11168390264E+04  0.25649806944E+04  0.23090683298E+04 0.  0.
        5    1    3    3  502    0 -0.54667970113E+02 -0.57882764527E+03 -0.16664108904E+04  0.17649298500E+04  0.46999998093E+01 0. -1.
       -5    1    3    3    0  502  0.54667970113E+02  0.57882764527E+03  0.54957186402E+03  0.80005084438E+03  0.46999998093E+01 0.  1.
</event>
<event>
 5   0  0.3338758E-06  0.2303535E+04  0.7818609E-02  0.8476529E-01
       -1   -1    0    0    0  501  0.00000000000E+00  0.00000000000E+00  0.11161671623E+04  0.11161671623E+04  0.50400001928E-02 0.  1.
        1   -1    0    0  501    0  0.00000000000E+00  0.00000000000E+00 -0.11885034595E+04  0.11885034596E+04  0.50400001928E-02 0. -1.
    10030    2    1    2    0    0  0.00000000000E+00  0.00000000000E+00 -0.72336297274E+02  0.23046706218E+04  0.23035351387E+04 0.  0.
        5    1    3    3  502    0 -0.10059639659E+04 -0.49423468510E+03 -0.30146865200E+03  0.11606622518E+04  0.46999998093E+01 0. -1.
       -5    1    3    3    0  502  0.10059639659E+04  0.49423468510E+03  0.22913235473E+03  0.11440083700E+04  0.46999998093E+01 0.  1.
</event>
<event>
 5   0  0.7348107E-06  0.2298841E+04  0.7818609E-02  0.8478378E-01
       -2   -1    0    0    0  501  0.00000000000E+00  0.00000000000E+00  0.17515324125E+04  0.17515324125E+04  0.25500000920E-02 0.  1.
        2   -1    0    0  501    0  0.00000000000E+00  0.00000000000E+00 -0.75429223074E+03  0.75429223074E+03  0.25500000920E-02 0. -1.
    10030    2    1    2    0    0  0.00000000000E+00  0.00000000000E+00  0.99724018175E+03  0.25058246432E+04  0.22988408302E+04 0.  0.
        3    1    3    3  502    0 -0.55118194625E+03 -0.31327552089E+03  0.15437072129E+04  0.16688244543E+04  0.10100000352E+00 0.  1.
       -3    1    3    3    0  502  0.55118194625E+03  0.31327552089E+03 -0.54646703118E+03  0.83700018891E+03  0.10100000352E+00 0. -1.
</event>
<event>
 5   0  0.3184492E-06  0.2302760E+04  0.7818609E-02  0.8476834E-01
        1   -1    0    0  501    0  0.00000000000E+00  0.00000000000E+00  0.83999556446E+03  0.83999556447E+03  0.50400001928E-02 0. -1.
       -1   -1    0    0    0  501  0.00000000000E+00  0.00000000000E+00 -0.15781933727E+04  0.15781933727E+04  0.50400001928E-02 0.  1.
    10030    2    1    2    0    0  0.00000000000E+00  0.00000000000E+00 -0.73819780822E+03  0.24181889372E+04  0.23027595905E+04 0.  0.
        1    1    3    3  502    0  0.49427372001E+03  0.41009239512E+03  0.63441398021E+03  0.90275322272E+03  0.50400001928E-02 0. -1.
       -1    1    3    3    0  502 -0.49427372001E+03 -0.41009239512E+03 -0.13726117884E+04  0.15154357144E+04  0.50400001928E-02 0.  1.
</event>
<event>
 5   0  0.3338758E-06  0.2303061E+04  0.7818609E-02  0.8476715E-01
        1   -1    0    0  501    0  0.00000000000E+00  0.00000000000E+00  0.15871120168E+04  0.15871120168E+04  0.50400001928E-02 0. -1.
       -1   -1    0    0    0  501  0.00000000000E+00  0.00000000000E+00 -0.83549379277E+03  0.83549379279E+03  0.50400001928E-02 0.  1.
    10030    2    1    2    0    0  0.00000000000E+00  0.00000000000E+00  0.75161822402E+03  0.24226058096E+04  0.23030607795E+04 0.  0.
        5    1    3    3  502    0 -0.94253526732E+02 -0.95010695906E+03  0.10529735436E+04  0.14213945034E+04  0.46999998093E+01 0. -1.
       -5    1    3    3    0  502  0.94253526732E+02  0.95010695906E+03 -0.30135531955E+03  0.10012113062E+04  0.46999998093E+01 0.  1.
</event>
<event>
 5   0  0.7348107E-06  0.2301571E+04  0.7818609E-02  0.8477302E-01
        2   -1    0    0  501    0  0.00000000000E+00  0.00000000000E+00  0.11106521610E+04  0.11106521610E+04  0.25500000920E-02 0. -1.
       -2   -1    0    0    0  501  0.00000000000E+00  0.00000000000E+00 -0.11923686118E+04  0.11923686118E+04  0.25500000920E-02 0.  1.
    10030    2    1    2    0    0  0.00000000000E+00  0.00000000000E+00 -0.81716450818E+02  0.23030207729E+04  0.23015705729E+04 0.  0.
        3    1    3    3  502    0 -0.81265442265E+03 -0.77956045920E+03  0.19632497559E+03  0.11430945833E+04  0.10100000352E+00 0. -1.
       -3    1    3    3    0  502  0.81265442265E+03  0.77956045920E+03 -0.27804142641E+03  0.11599261895E+04  0.10100000352E+00 0.  1.
</event>
<event>
 5   0  0.7497344E-06  0.2300338E+04  0.7818609E-02  0.8477788E-01
        2   -1    0    0  501    0  0.00000000000E+00  0.00000000000E+00  0.21295816961E+04  0.21295816961E+04  0.25500000920E-02 0. -1.
       -2   -1    0    0    0  501  0.00000000000E+00  0.00000000000E+00 -0.62119669008E+03  0.62119669008E+03  0.25500000920E-02 0.  1.
    10030    2    1    2    0    0  0.00000000000E+00  0.00000000000E+00  0.15083850060E+04  0.27507783862E+04  0.23003383237E+04 0.  0.
        5    1    3    3  502    0  0.24785838803E+03 -0.99906707665E+03  0.13677960183E+04  0.17118577166E+04  0.46999998093E+01 0. -1.
       -5    1    3    3    0  502 -0.24785838803E+03  0.99906707665E+03  0.14058898766E+03  0.10389206695E+04  0.46999998093E+01 0.  1.
</event>
<event>
 5   0  0.7497344E-06  0.2312931E+04  0.7818609E-02  0.8472840E-01
       -2   -1    0    0    0  501  0.00000000000E+00  0.00000000000E+00  0.12210114348E+04  0.12210114348E+04  0.25500000920E-02 0. -1.
        2   -1    0    0  501    0  0.00000000000E+00  0.00000000000E+00 -0.10953320136E+04  0.10953320136E+04  0.25500000920E-02 0.  1.
    10030    2    1    2    0    0  0.00000000000E+00  0.00000000000E+00  0.12567942116E+03  0.23163434484E+04  0.23129313985E+04 0.  0.
        5    1    3    3  502    0 -0.78633761600E+03 -0.84775168993E+03  0.82388993891E+02  0.11592324230E+04  0.46999998093E+01 0.  1.
       -5    1    3    3    0  502  0.78633761600E+03  0.84775168993E+03  0.43290427269E+02  0.11571110254E+04  0.46999998093E+01 0. -1.
</event>
<event>
 5   0  0.3226427E-06  0.2307111E+04  0.7818609E-02  0.8475123E-01
        1   -1    0    0  501    0  0.00000000000E+00  0.00000000000E+00  0.15077198557E+04  0.15077198557E+04  0.50400001928E-02 0. -1.
       -1   -1    0    0    0  501  0.00000000000E+00  0.00000000000E+00 -0.88258459988E+03  0.88258459990E+03  0.50400001928E-02 0.  1.
    10030    2    1    2    0    0  0.00000000000E+00  0.00000000000E+00  0.62513525583E+03  0.23903044556E+04  0.23071110295E+04 0.  0.
        4    1    3    3  502    0  0.91468853072E+03 -0.33086731828E+03  0.95505858369E+03  0.13631826003E+04  0.12699999809E+01 0. -1.
       -4    1    3    3    0  502 -0.91468853072E+03  0.33086731828E+03 -0.32992332786E+03  0.10271218553E+04  0.12699999809E+01 0.  1.
</event>
<event>
 5   0  0.2519625E-06  0.2299910E+04  0.7818609E-02  0.8477957E-01
       -3   -1    0    0    0  501  0.00000000000E+00  0.00000000000E+00  0.74495063636E+03  0.74495064320E+03  0.10100000352E+00 0.  1.
        3   -1    0    0  501    0  0.00000000000E+00  0.00000000000E+00 -0.17751461847E+04  0.17751461875E+04  0.10100000352E+00 0. -1.
    10030    2    1    2    0    0  0.00000000000E+00  0.00000000000E+00 -0.10301955483E+04  0.25200968307E+04  0.22999098175E+04 0.  0.
        4    1    3    3  502    0 -0.14288444527E+03  0.83547475486E+03 -0.13666489295E+04  0.16081557574E+04  0.12699999809E+01 0. -1.
       -4    1    3    3    0  502  0.14288444527E+03 -0.83547475486E+03  0.33645338115E+03  0.91194107336E+03  0.12699999809E+01 0.  1.
</event>
<event>
 5   0  0.3226427E-06  0.2303491E+04  0.7818609E-02  0.8476546E-01
        1   -1    0    0  501    0  0.00000000000E+00  0.00000000000E+00  0.14719359818E+04  0.14719359818E+04  0.50400001928E-02 0.  1.
       -1   -1    0    0    0  501  0.00000000000E+00  0.00000000000E+00 -0.90120574331E+03  0.90120574332E+03  0.50400001928E-02 0. -1.
    10030    2    1    2    0    0  0.00000000000E+00  0.00000000000E+00  0.57073023849E+03  0.23731417251E+04  0.23034905345E+04 0.  0.
        4    1    3    3  502    0 -0.10945678374E+04  0.20954046195E+03 -0.14165779108E+02  0.11145349874E+04  0.12699999809E+01 0. -1.
       -4    1    3    3    0  502  0.10945678374E+04 -0.20954046195E+03  0.58489601760E+03  0.12586067377E+04  0.12699999809E+01 0.  1.
</event>
<event>
 5   0  0.3238713E-06  0.2324284E+04  0.7818609E-02  0.8468407E-01
        1   -1    0    0  501    0  0.00000000000E+00  0.00000000000E+00  0.20655891902E+04  0.20655891902E+04  0.50400001928E-02 0.  1.
       -1   -1    0    0    0  501  0.00000000000E+00  0.00000000000E+00 -0.65384454325E+03  0.65384454327E+03  0.50400001928E-02 0. -1.
    10030    2    1    2    0    0  0.00000000000E+00  0.00000000000E+00  0.14117446469E+04  0.27194337334E+04  0.23242841656E+04 0.  0.
        3    1    3    3  502    0  0.89380787672E+03  0.24815032819E+03  0.15249648883E+04  0.17849338998E+04  0.10100000352E+00 0.  1.
       -3    1    3    3    0  502 -0.89380787672E+03 -0.24815032819E+03 -0.11322024137E+03  0.93449983366E+03  0.10100000352E+00 0. -1.
</event>
<event>
 5   0  0.3226427E-06  0.2352622E+04  0.7818609E-02  0.8457457E-01
        1   -1    0    0  501    0  0.00000000000E+00  0.00000000000E+00  0.16453016018E+04  0.16453016018E+04  0.50400001928E-02 0. -1.
       -1   -1    0    0    0  501  0.00000000000E+00  0.00000000000E+00 -0.84100514748E+03  0.84100514750E+03  0.50400001928E-02 0.  1.
    10030    2    1    2    0    0  0.00000000000E+00  0.00000000000E+00  0.80429645430E+03  0.24863067493E+04  0.23526216154E+04 0.  0.
        4    1    3    3  502    0  0.41989815136E+03 -0.44516073904E+03 -0.65953801014E+03  0.89970803088E+03  0.12699999809E+01 0.  1.
       -4    1    3    3    0  502 -0.41989815136E+03  0.44516073904E+03  0.14638344644E+04  0.15865987184E+04  0.12699999809E+01 0. -1.
</event>
<event>
 5   0  0.7348107E-06  0.2279196E+04  0.7818609E-02  0.8486169E-01
        2   -1    0    0  501    0  0.00000000000E+00  0.00000000000E+00  0.12440724412E+04  0.12440724412E+04  0.25500000920E-02 0.  1.
       -2   -1    0    0    0  501  0.00000000000E+00  0.00000000000E+00 -0.10438968313E+04  0.10438968313E+04  0.25500000920E-02 0. -1.
    10030    2    1    2    0    0  0.00000000000E+00  0.00000000000E+00  0.20017560998E+03  0.22879692725E+04  0.22791957172E+04 0.  0.
        3    1    3    3  502    0 -0.63471798836E+03  0.57284373244E+03 -0.65624887528E+03  0.10778123506E+04  0.10100000352E+00 0. -1.
       -3    1    3    3    0  502  0.63471798836E+03 -0.57284373244E+03  0.85642448526E+03  0.12101569219E+04  0.10100000352E+00 0.  1.
</event>
<event>
 5   0  0.7497344E-06  0.2302374E+04  0.7818609E-02  0.8476986E-01
       -2   -1    0    0    0  501  0.00000000000E+00  0.00000000000E+00  0.71343182731E+03  0.71343182732E+03  0.25500000920E-02 0. -1.
        2   -1    0    0  501    0  0.00000000000E+00  0.00000000000E+00 -0.18575448642E+04  0.18575448642E+04  0.25500000920E-02 0.  1.
    10030    2    1    2    0    0  0.00000000000E+00  0.00000000000E+00 -0.11441130368E+04  0.25709766915E+04  0.23023741023E+04 0.  0.
        5    1    3    3  502    0  0.56390048240E+03 -0.30627323796E+03  0.49517365930E+03  0.81055912382E+03  0.46999998093E+01 0. -1.
       -5    1    3    3    0  502 -0.56390048240E+03  0.30627323796E+03 -0.16392866961E+04  0.17604175676E+04  0.46999998093E+01 0.  1.
</event>
<event>
 5   0  0.7497344E-06  0.2292075E+04  0.7818609E-02  0.8481053E-01
        2   -1    0    0  501    0  0.00000000000E+00  0.00000000000E+00  0.20713738048E+04  0.20713738048E+04  0.25500000920E-02 0.  1.
       -2   -1    0    0    0  501  0.00000000000E+00  0.00000000000E+00 -0.63407268527E+03  0.63407268528E+03  0.25500000920E-02 0. -1.
    10030    2    1    2    0    0  0.00000000000E+00  0.00000000000E+00  0.14373011195E+04  0.27054464901E+04  0.22920746503E+04 0.  0.
        5    1    3    3  502    0 -0.65763936942E+03 -0.73262049260E+03  0.26200305658E+02  0.98485068534E+03  0.46999998093E+01 0. -1.
       -5    1    3    3    0  502  0.65763936942E+03  0.73262049260E+03  0.14111008139E+04  0.17205958047E+04  0.46999998093E+01 0.  1.
</event>
<event>
 5   0  0.3184492E-06  0.2300575E+04  0.7818609E-02  0.8477694E-01
       -1   -1    0    0    0  501  0.00000000000E+00  0.00000000000E+00  0.89767627953E+03  0.89767627954E+03  0.50400001928E-02 0. -1.
        1   -1    0    0  501    0  0.00000000000E+00  0.00000000000E+00 -0.14739849794E+04  0.14739849794E+04  0.50400001928E-02 0.  1.
    10030    2    1    2    0    0  0.00000000000E+00  0.00000000000E+00 -0.57630869987E+03  0.23716612589E+04  0.23005750172E+04 0.  0.
        1    1    3    3  502    0 -0.45128643444E+03 -0.42576259689E+03  0.71039718177E+03  0.94318470657E+03  0.50400001928E-02 0. -1.
       -1    1    3    3    0  502  0.45128643444E+03  0.42576259689E+03 -0.12867058816E+04  0.14284765524E+04  0.50400001928E-02 0.  1.
</event>
<event>
 5   0  0.7242214E-06  0.2296769E+04  0.7818609E-02  0.8479196E-01
        2   -1    0    0  501    0  0.00000000000E+00  0.00000000000E+00  0.18290969999E+04  0.18290969999E+04  0.25500000920E-02 0. -1.
       -2   -1    0    0    0  501  0.00000000000E+00  0.00000000000E+00 -0.72100413689E+03  0.72100413689E+03  0.25500000920E-02 0.  1.
    10030    2    1    2    0    0  0.00000000000E+00  0.00000000000E+00  0.11080928630E+04  0.25501011368E+04  0.22967686028E+04 0.  0.
        1    1    3    3  502    0 -0.72578716468E+03 -0.20206322345E+03 -0.40826367382E+03  0.85689893341E+03  0.50400001928E-02 0.  1.
       -1    1    3    3    0  502  0.72578716468E+03  0.20206322345E+03  0.15163565368E+04  0.16932022034E+04  0.50400001928E-02 0. -1.
</event>
<event>
 5   0  0.7242214E-06  0.2300378E+04  0.7818609E-02  0.8477772E-01
        2   -1    0    0  501    0  0.00000000000E+00  0.00000000000E+00  0.75067451444E+03  0.75067451445E+03  0.25500000920E-02 0.  1.
       -2   -1    0    0    0  501  0.00000000000E+00  0.00000000000E+00 -0.17623273614E+04  0.17623273614E+04  0.25500000920E-02 0. -1.
    10030    2    1    2    0    0  0.00000000000E+00  0.00000000000E+00 -0.10116528470E+04  0.25130018758E+04  0.23003775658E+04 0.  0.
        1    1    3    3  502    0 -0.44393586407E+03 -0.72369749619E+01  0.65328411290E+03  0.78988072353E+03  0.50400001928E-02 0.  1.
       -1    1    3    3    0  502  0.44393586407E+03  0.72369749619E+01 -0.16649369599E+04  0.17231211523E+04  0.50400001928E-02 0. -1.
</event>
<event>
 5   0  0.3238713E-06  0.2302092E+04  0.7818609E-02  0.8477097E-01
        1   -1    0    0  501    0  0.00000000000E+00  0.00000000000E+00  0.96752750750E+03  0.96752750752E+03  0.50400001928E-02 0.  1.
       -1   -1    0    0    0  501  0.00000000000E+00  0.00000000000E+00 -0.13693737908E+04  0.13693737908E+04  0.50400001928E-02 0. -1.
    10030    2    1    2    0    0  0.00000000000E+00  0.00000000000E+00 -0.40184628333E+03  0.23369012984E+04  0.23020919275E+04 0.  0.
        3    1    3    3  502    0  0.19392952620E+03 -0.10211061832E+04  0.30116701812E+03  0.10821127860E+04  0.10100000352E+00 0. -1.
       -3    1    3    3    0  502 -0.19392952620E+03  0.10211061832E+04 -0.70301330144E+03  0.12547885124E+04  0.10100000352E+00 0.  1.
</event>
<event>
 5   0  0.7044981E-06  0.2276061E+04  0.7818609E-02  0.8487420E-01
        2   -1    0    0  501    0  0.00000000000E+00  0.00000000000E+00  0.14282880824E+04  0.14282880824E+04  0.25500000920E-02 0.  1.
       -2   -1    0    0    0  501  0.00000000000E+00  0.00000000000E+00 -0.90675941952E+03  0.90675941952E+03  0.25500000920E-02 0. -1.
    10030    2    1    2    0    0  0.00000000000E+00  0.00000000000E+00  0.52152866292E+03  0.23350475020E+04  0.22760612228E+04 0.  0.
        4    1    3    3  502    0  0.84231950361E+03 -0.42216287126E+02 -0.52312386996E+03  0.99244373003E+03  0.12699999809E+01 0. -1.
       -4    1    3    3    0  502 -0.84231950361E+03  0.42216287126E+02  0.10446525329E+04  0.13426037719E+04  0.12699999809E+01 0.  1.
</event>
<event>
 5   0  0.3195296E-06  0.2307901E+04  0.7818609E-02  0.8474812E-01
       -1   -1    0    0    0  501  0.00000000000E+00  0.00000000000E+00  0.11838062405E+04  0.11838062405E+04  0.50400001928E-02 0. -1.
        1   -1    0    0  501    0  0.00000000000E+00  0.00000000000E+00 -0.11248481477E+04  0.11248481477E+04  0.50400001928E-02 0.  1.
    10030    2    1    2    0    0  0.00000000000E+00  0.00000000000E+00  0.58958092800E+02  0.23086543882E+04  0.23079014337E+04 0.  0.
        2    1    3    3  502    0  0.78863381972E+03  0.34013821230E+03  0.80042170187E+03  0.11740154198E+04  0.25500000920E-02 0. -1.
       -2    1    3    3    0  502 -0.78863381972E+03 -0.34013821230E+03 -0.74146360907E+03  0.11346389684E+04  0.25500000920E-02 0.  1.
</event>
<event>
 5   0  0.7003852E-06  0.2298059E+04  0.7818609E-02  0.8478687E-01
        2   -1    0    0  501    0  0.00000000000E+00  0.00000000000E+00  0.28858786334E+04  0.28858786334E+04  0.25500000920E-02 0.  1.
       -2   -1    0    0    0  501  0.00000000000E+00  0.00000000000E+00 -0.45749279790E+03  0.45749279790E+03  0.25500000920E-02 0. -1.
    10030    2    1    2    0    0  0.00000000000E+00  0.00000000000E+00  0.24283858355E+04  0.33433714313E+04  0.22980589117E+04 0.  0.
        2    1    3    3  502    0  0.53399859415E+03 -0.10690478641E+02 -0.26591582660E+03  0.59664060516E+03  0.25500000920E-02 0. -1.
       -2    1    3    3    0  502 -0.53399859415E+03  0.10690478641E+02  0.26943016621E+04  0.27467308262E+04  0.25500000920E-02 0.  1.
</event>
<event>
 5   0  0.3184492E-06  0.2299758E+04  0.7818609E-02  0.8478017E-01
       -1   -1    0    0    0  501  0.00000000000E+00  0.00000000000E+00  0.11338875337E+04  0.11338875338E+04  0.50400001928E-02 0. -1.
        1   -1    0    0  501    0  0.00000000000E+00  0.00000000000E+00 -0.11660958062E+04  0.11660958062E+04  0.50400001928E-02 0.  1.
    10030    2    1    2    0    0  0.00000000000E+00  0.00000000000E+00 -0.32208272455E+02  0.22999833400E+04  0.22997578114E+04 0.  0.
        1    1    3    3  502    0 -0.71109595175E+02 -0.48951670255E+03 -0.10542513665E+04  0.11645295704E+04  0.50400001928E-02 0.  1.
       -1    1    3    3    0  502  0.71109595175E+02  0.48951670255E+03  0.10220430941E+04  0.11354537695E+04  0.50400001928E-02 0. -1.
</event>
<event>
 5   0  0.7003852E-06  0.2338125E+04  0.7818609E-02  0.8463039E-01
        2   -1    0    0  501    0  0.00000000000E+00  0.00000000000E+00  0.16933848093E+04  0.16933848093E+04  0.25500000920E-02 0. -1.
       -2   -1    0    0    0  501  0.00000000000E+00  0.00000000000E+00 -0.80708613454E+03  0.80708613454E+03  0.25500000920E-02 0.  1.
    10030    2    1    2    0    0  0.00000000000E+00  0.00000000000E+00  0.88629867476E+03  0.25004709438E+04  0.23381252319E+04 0.  0.
        2    1    3    3  502    0 -0.10364461432E+04  0.54071767776E+03  0.45442591902E+03  0.12542324867E+04  0.25500000920E-02 0. -1.
       -2    1    3    3    0  502  0.10364461432E+04 -0.54071767776E+03  0.43187275574E+03  0.12462384571E+04  0.25500000920E-02 0.  1.
</event>
<event>
 5   0  0.7497344E-06  0.2299667E+04  0.7818609E-02  0.8478052E-01
       -2   -1    0    0    0  501  0.00000000000E+00  0.00000000000E+00  0.12023756955E+04  0.12023756955E+04  0.25500000920E-02 0.  1.
        2   -1    0    0  501    0  0.00000000000E+00  0.00000000000E+00 -0.10995875205E+04  0.10995875205E+04  0.25500000920E-02 0. -1.
    10030    2    1    2    0    0  0.00000000000E+00  0.00000000000E+00  0.10278817505E+03  0.23019632160E+04  0.22996672018E+04 0.  0.
        5    1    3    3  502    0  0.34699216634E+03 -0.10647966765E+04 -0.20944177159E+03  0.11393346617E+04  0.46999998093E+01 0. -1.
       -5    1    3    3    0  502 -0.34699216634E+03  0.10647966765E+04  0.31222994664E+03  0.11626285543E+04  0.46999998093E+01 0.  1.
</event>
<event>
 5   0  0.7497344E-06  0.2305847E+04  0.7818609E-02  0.8475619E-01
        2   -1    0    0  501    0  0.00000000000E+00  0.00000000000E+00  0.22046385790E+04  0.22046385790E+04  0.25500000920E-02 0. -1.
       -2   -1    0    0    0  501  0.00000000000E+00  0.00000000000E+00 -0.60292547890E+03  0.60292547890E+03  0.25500000920E-02 0.  1.
    10030    2    1    2    0    0  0.00000000000E+00  0.00000000000E+00  0.16017131001E+04  0.28075640579E+04  0.23058471511E+04 0.  0.
        5    1    3    3  502    0  0.15979899928E+03  0.41690466130E+03 -0.49337661768E+03  0.66542301858E+03  0.46999998093E+01 0.  1.
       -5    1    3    3    0  502 -0.15979899928E+03 -0.41690466130E+03  0.20950897178E+04  0.21421410393E+04  0.46999998093E+01 0. -1.
</event>
<event>
 5   0  0.7497344E-06  0.2302242E+04  0.7818609E-02  0.8477038E-01
        2   -1    0    0  501    0  0.00000000000E+00  0.00000000000E+00  0.97183747816E+03  0.97183747817E+03  0.25500000920E-02 0. -1.
       -2   -1    0    0    0  501  0.00000000000E+00  0.00000000000E+00 -0.13634783516E+04  0.13634783516E+04  0.25500000920E-02 0.  1.
    10030    2    1    2    0    0  0.00000000000E+00  0.00000000000E+00 -0.39164087342E+03  0.23353158298E+04  0.23022418316E+04 0.  0.
        5    1    3    3  502    0 -0.68629888051E+03  0.36904330912E+03 -0.10552573476E+04  0.13117885794E+04  0.46999998093E+01 0.  1.
       -5    1    3    3    0  502  0.68629888051E+03 -0.36904330912E+03  0.66361647418E+03  0.10235272503E+04  0.46999998093E+01 0. -1.
</event>
<event>
 5   0  0.3184492E-06  0.2296025E+04  0.7818609E-02  0.8479490E-01
        1   -1    0    0  501    0  0.00000000000E+00  0.00000000000E+00  0.18185225579E+04  0.18185225579E+04  0.50400001928E-02 0.  1.
       -1   -1    0    0    0  501  0.00000000000E+00  0.00000000000E+00 -0.72472694250E+03  0.72472694252E+03  0.50400001928E-02 0. -1.
    10030    2    1    2    0    0  0.00000000000E+00  0.00000000000E+00  0.10937956154E+04  0.25432495004E+04  0.22960246456E+04 0.  0.
        1    1    3    3  502    0  0.76176566900E+03 -0.13486024608E+03  0.14864375760E+04  0.16757001187E+04  0.50400001928E-02 0.  1.
       -1    1    3    3    0  502 -0.76176566900E+03  0.13486024608E+03 -0.39264196062E+03  0.86754938171E+03  0.50400001928E-02 0. -1.
</event>
<event>
 5   0  0.3238713E-06  0.2293246E+04  0.7818609E-02  0.8480589E-01
       -1   -1    0    0    0  501  0.00000000000E+00  0.00000000000E+00  0.99707685415E+03  0.99707685416E+03  0.50400001928E-02 0.  1.
        1   -1    0    0  501    0  0.00000000000E+00  0.00000000000E+00 -0.13185989037E+04  0.13185989037E+04  0.50400001928E-02 0. -1.
    10030    2    1    2    0    0  0.00000000000E+00  0.00000000000E+00 -0.32152204950E+03  0.23156757578E+04  0.22932461244E+04 0.  0.
        3    1    3    3  502    0 -0.99894004656E+03  0.42823679004E+03  0.20815663059E+03  0.11066151806E+04  0.10100000352E+00 0.  1.
       -3    1    3    3    0  502  0.99894004656E+03 -0.42823679004E+03 -0.52967868009E+03  0.12090605772E+04  0.10100000352E+00 0. -1.
</event>
<event>
 5   0  0.3238713E-06  0.2303246E+04  0.7818609E-02  0.8476643E-01
       -1   -1    0    0    0  501  0.00000000000E+00  0.00000000000E+00  0.19848099320E+04  0.19848099320E+04  0.50400001928E-02 0.  1.
        1   -1    0    0  501    0  0.00000000000E+00  0.00000000000E+00 -0.66819245853E+03  0.66819245855E+03  0.50400001928E-02 0. -1.
    10030    2    1    2    0    0  0.00000000000E+00  0.00000000000E+00  0.13166174735E+04  0.26530023906E+04  0.23032455607E+04 0.  0.
        3    1    3    3  502    0  0.13662719784E+03 -0.18190573549E+03 -0.64205133672E+03  0.68116563109E+03  0.10100000352E+00 0. -1.
       -3    1    3    3    0  502 -0.13662719784E+03  0.18190573549E+03  0.19586688102E+04  0.19718367595E+04  0.10100000352E+00 0.  1.
</event>
<event>
 5   0  0.7242214E-06  0.2301415E+04  0.7818609E-02  0.8477363E-01
       -2   -1    0    0    0  501  0.00000000000E+00  0.00000000000E+00  0.14470777829E+04  0.14470777829E+04  0.25500000920E-02 0.  1.
        2   -1    0    0  501    0  0.00000000000E+00  0.00000000000E+00 -0.91503579349E+03  0.91503579349E+03  0.25500000920E-02 0. -1.
    10030    2    1    2    0    0  0.00000000000E+00  0.00000000000E+00  0.53204198938E+03  0.23621135764E+04  0.23014151884E+04 0.  0.
        1    1    3    3  502    0 -0.52577962198E+03  0.97398972307E+03 -0.56965462708E+02  0.11083073831E+04  0.50400001928E-02 0. -1.
       -1    1    3    3    0  502  0.52577962198E+03 -0.97398972307E+03  0.58900745209E+03  0.12538061932E+04  0.50400001928E-02 0.  1.
</event>
<event>
 5   0  0.3338758E-06  0.2295894E+04  0.7818609E-02  0.8479542E-01
       -1   -1    0    0    0  501  0.00000000000E+00  0.00000000000E+00  0.74122094328E+03  0.74122094329E+03  0.50400001928E-02 0.  1.
        1   -1    0    0  501    0  0.00000000000E+00  0.00000000000E+00 -0.17778541795E+04  0.17778541796E+04  0.50400001928E-02 0. -1.
    10030    2    1    2    0    0  0.00000000000E+00  0.00000000000E+00 -0.10366332363E+04  0.25190751228E+04  0.22958943808E+04 0.  0.
        5    1    3    3  502    0  0.43108613362E+03 -0.55539906798E+03 -0.15139736179E+04  0.16692637854E+04  0.46999998093E+01 0. -1.
       -5    1    3    3    0  502 -0.43108613362E+03  0.55539906798E+03  0.47734038168E+03  0.84981133747E+03  0.46999998093E+01 0.  1.
</event>
<event>
 5   0  0.7242214E-06  0.2295089E+04  0.7818609E-02  0.8479860E-01
       -2   -1    0    0    0  501  0.00000000000E+00  0.00000000000E+00  0.66046070614E+03  0.66046070615E+03  0.25500000920E-02 0.  1.
        2   -1    0    0  501    0  0.00000000000E+00  0.00000000000E+00 -0.19938473412E+04  0.19938473412E+04  0.25500000920E-02 0. -1.
    10030    2    1    2    0    0  0.00000000000E+00  0.00000000000E+00 -0.13333866351E+04  0.26543080473E+04  0.22950885150E+04 0.  0.
        1    1    3    3  502    0  0.11163417609E+04 -0.18699241707E+03 -0.88512723146E+03  0.14368838878E+04  0.50400001928E-02 0. -1.
       -1    1    3    3    0  502 -0.11163417609E+04  0.18699241707E+03 -0.44825940360E+03  0.12174241595E+04  0.50400001928E-02 0.  1.
</event>
<event>
 5   0  0.7348107E-06  0.2297624E+04  0.7818609E-02  0.8478859E-01
        2   -1    0    0  501    0  0.00000000000E+00  0.00000000000E+00  0.21560936656E+04  0.21560936656E+04  0.25500000920E-02 0.  1.
       -2   -1    0    0    0  501  0.00000000000E+00  0.00000000000E+00 -0.61211111694E+03  0.61211111695E+03  0.25500000920E-02 0. -1.
    10030    2    1    2    0    0  0.00000000000E+00  0.00000000000E+00  0.15439825486E+04  0.27682047825E+04  0.22976239047E+04 0.  0.
        3    1    3    3  502    0  0.17481594844E+03  0.20771525191E+03  0.21168888565E+04  0.21342269520E+04  0.10100000352E+00 0.  1.
       -3    1    3    3    0  502 -0.17481594844E+03 -0.20771525191E+03 -0.57290630790E+03  0.63397783048E+03  0.10100000352E+00 0. -1.
</event>
<event>
 5   0  0.7003852E-06  0.2312058E+04  0.7818609E-02  0.8473182E-01
       -2   -1    0    0    0  501  0.00000000000E+00  0.00000000000E+00  0.87793587588E+03  0.87793587588E+03  0.25500000920E-02 0. -1.
        2   -1    0    0  501    0  0.00000000000E+00  0.00000000000E+00 -0.15222107788E+04  0.15222107788E+04  0.25500000920E-02 0.  1.
    10030    2    1    2    0    0  0.00000000000E+00  0.00000000000E+00 -0.64427490290E+03  0.24001466547E+04  0.23120583499E+04 0.  0.
        2    1    3    3  502    0 -0.51182437088E+03  0.30010231503E+03 -0.13520963850E+04  0.14765467214E+04  0.25500000920E-02 0.  1.
       -2    1    3    3    0  502  0.51182437088E+03 -0.30010231503E+03  0.70782148213E+03  0.92359993324E+03  0.25500000920E-02 0. -1.
</event>
<event>
 5   0  0.3195296E-06  0.2298111E+04  0.7818609E-02  0.8478666E-01
        1   -1    0    0  501    0  0.00000000000E+00  0.00000000000E+00  0.98435394465E+03  0.98435394466E+03  0.50400001928E-02 0.  1.
       -1   -1    0    0    0  501  0.00000000000E+00  0.00000000000E+00 -0.13413148481E+04  0.13413148481E+04  0.50400001928E-02 0. -1.
    10030    2    1    2    0    0  0.00000000000E+00  0.00000000000E+00 -0.35696090343E+03  0.23256687928E+04  0.22981110171E+04 0.  0.
        2    1    3    3  502    0 -0.98441101209E+03  0.66330174646E+01 -0.77822482971E+03  0.12548876138E+04  0.25500000920E-02 0. -1.
       -2    1    3    3    0  502  0.98441101209E+03 -0.66330174646E+01  0.42126392627E+03  0.10707811790E+04  0.25500000920E-02 0.  1.
</event>
<event>
 5   0  0.7497344E-06  0.2299698E+04  0.7818609E-02  0.8478040E-01
       -2   -1    0    0    0  501  0.00000000000E+00  0.00000000000E+00  0.73212910438E+03  0.73212910439E+03  0.25500000920E-02 0.  1.
        2   -1    0    0  501    0  0.00000000000E+00  0.00000000000E+00 -0.18059008236E+04  0.18059008236E+04  0.25500000920E-02 0. -1.
    10030    2    1    2    0    0  0.00000000000E+00  0.00000000000E+00 -0.10737717192E+04  0.25380299280E+04  0.22996978520E+04 0.  0.
        5    1    3    3  502    0  0.55438543006E+03 -0.83700358780E+03  0.81753455986E+02  0.10072854256E+04  0.46999998093E+01 0. -1.
       -5    1    3    3    0  502 -0.55438543006E+03  0.83700358780E+03 -0.11555251752E+04  0.15307445024E+04  0.46999998093E+01 0.  1.
</event>
<event>
 5   0  0.7497344E-06  0.2298305E+04  0.7818609E-02  0.8478590E-01
       -2   -1    0    0    0  501  0.00000000000E+00  0.00000000000E+00  0.10150342503E+04  0.10150342503E+04  0.25500000920E-02 0. -1.
        2   -1    0    0  501    0  0.00000000000E+00  0.00000000000E+00 -0.13009919675E+04  0.13009919675E+04  0.25500000920E-02 0.  1.
    10030    2    1    2    0    0  0.00000000000E+00  0.00000000000E+00 -0.28595771722E+03  0.23160262178E+04  0.22983049462E+04 0.  0.
        5    1    3    3  502    0 -0.10508546797E+04  0.35494928832E+03 -0.44570283546E+03  0.11953901717E+04  0.46999998093E+01 0.  1.
       -5    1    3    3    0  502  0.10508546797E+04 -0.35494928832E+03  0.15974511824E+03  0.11206360461E+04  0.46999998093E+01 0. -1.
</event>
<event>
 5   0  0.7242214E-06  0.2298751E+04  0.7818609E-02  0.8478414E-01
        2   -1    0    0  501    0  0.00000000000E+00  0.00000000000E+00  0.12149542068E+04  0.12149542068E+04  0.25500000920E-02 0. -1.
       -2   -1    0    0    0  501  0.00000000000E+00  0.00000000000E+00 -0.10873361820E+04  0.10873361821E+04  0.25500000920E-02 0.  1.
    10030    2    1    2    0    0  0.00000000000E+00  0.00000000000E+00  0.12761802470E+03  0.23022903888E+04  0.22987506768E+04 0.  0.
        1    1    3    3  502    0 -0.38028033842E+03  0.71844301511E+03 -0.75002464200E+03  0.11060336638E+04  0.50400001928E-02 0.  1.
       -1    1    3    3    0  502  0.38028033842E+03 -0.71844301511E+03  0.87764266671E+03  0.11962567250E+04  0.50400001928E-02 0. -1.
</event>
<event>
 5   0  0.7044981E-06  0.2299233E+04  0.7818609E-02  0.8478224E-01
       -2   -1    0    0    0  501  0.00000000000E+00  0.00000000000E+00  0.96448598650E+03  0.96448598651E+03  0.25500000920E-02 0.  1.
        2   -1    0    0  501    0  0.00000000000E+00  0.00000000000E+00 -0.13702822940E+04  0.13702822940E+04  0.25500000920E-02 0. -1.
    10030    2    1    2    0    0  0.00000000000E+00  0.00000000000E+00 -0.40579630747E+03  0.23347682805E+04  0.22992329765E+04 0.  0.
        4    1    3    3  502    0 -0.16267455377E+03 -0.75626307805E+03 -0.10664648785E+04  0.13174770600E+04  0.12699999809E+01 0. -1.
       -4    1    3    3    0  502  0.16267455377E+03  0.75626307805E+03  0.66066857101E+03  0.10172912205E+04  0.12699999809E+01 0.  1.
</event>
<event>
 5   0  0.3195296E-06  0.2301985E+04  0.7818609E-02  0.8477139E-01
       -1   -1    0    0    0  501  0.00000000000E+00  0.00000000000E+00  0.88155064738E+03  0.88155064739E+03  0.50400001928E-02 0. -1.
        1   -1    0    0  501    0  0.00000000000E+00  0.00000000000E+00 -0.15027877134E+04  0.15027877134E+04  0.50400001928E-02 0.  1.
    10030    2    1    2    0    0  0.00000000000E+00  0.00000000000E+00 -0.62123706599E+03  0.23843383608E+04  0.23019847798E+04 0.  0.
        2    1    3    3  502    0 -0.91777166759E+03  0.66387706744E+02  0.40554430845E+03  0.10055736410E+04  0.25500000920E-02 0. -1.
       -2    1    3    3    0  502  0.91777166759E+03 -0.66387706744E+02 -0.10267813744E+04  0.13787647197E+04  0.25500000920E-02 0.  1.
</event>
<event>
 5   0  0.3195296E-06  0.2301103E+04  0.7818609E-02  0.8477487E-01
        1   -1    0    0  501    0  0.00000000000E+00  0.00000000000E+00  0.15663341139E+04  0.15663341139E+04  0.50400001928E-02 0.  1.
       -1   -1    0    0    0  501  0.00000000000E+00  0.00000000000E+00 -0.84513781658E+03  0.84513781659E+03  0.50400001928E-02 0. -1.
    10030    2    1    2    0    0  0.00000000000E+00  0.00000000000E+00  0.72119629736E+03  0.24114719305E+04  0.23011025124E+04 0.  0.
        2    1    3    3  502    0 -0.72362009733E+03  0.82444220962E+03  0.72428412340E+03  0.13145031357E+04  0.25500000920E-02 0.  1.
       -2    1    3    3    0  502  0.72362009733E+03 -0.82444220962E+03 -0.30878260434E+01  0.10969687949E+04  0.25500000920E-02 0. -1.
</event>
<event>
 5   0  0.7497344E-06  0.2298965E+04  0.7818609E-02  0.8478329E-01
        2   -1    0    0  501    0  0.00000000000E+00  0.00000000000E+00  0.10285615044E+04  0.10285615044E+04  0.25500000920E-02 0.  1.
       -2   -1    0    0    0  501  0.00000000000E+00  0.00000000000E+00 -0.12846195795E+04  0.12846195796E+04  0.25500000920E-02 0. -1.
    10030    2    1    2    0    0  0.00000000000E+00  0.00000000000E+00 -0.25605807518E+03  0.23131810839E+04  0.22989651996E+04 0.  0.
        5    1    3    3  502    0  0.38228956846E+03  0.10481252347E+04  0.15040641021E+03  0.11257690705E+04  0.46999998093E+01 0.  1.
       -5    1    3    3    0  502 -0.38228956846E+03 -0.10481252347E+04 -0.40646448539E+03  0.11874120135E+04  0.46999998093E+01 0. -1.
</event>
<event>
 5   0  0.7348107E-06  0.2297689E+04  0.7818609E-02  0.8478833E-01
        2   -1    0    0  501    0  0.00000000000E+00  0.00000000000E+00  0.21530327580E+04  0.21530327580E+04  0.25500000920E-02 0. -1.
       -2   -1    0    0    0  501  0.00000000000E+00  0.00000000000E+00 -0.61301604883E+03  0.61301604884E+03  0.25500000920E-02 0.  1.
    10030    2    1    2    0    0  0.00000000000E+00  0.00000000000E+00  0.15400167092E+04  0.27660488069E+04  0.22976889558E+04 0.  0.
        3    1    3    3  502    0  0.21689317817E+02  0.11485882513E+04  0.78309795602E+03  0.13903121291E+04  0.10100000352E+00 0. -1.
       -3    1    3    3    0  502 -0.21689317817E+02 -0.11485882513E+04  0.75691875319E+03  0.13757366778E+04  0.10100000352E+00 0.  1.
</event>
<event>
 5   0  0.3195296E-06  0.2311341E+04  0.7818609E-02  0.8473463E-01
        1   -1    0    0  501    0  0.00000000000E+00  0.00000000000E+00  0.13003842475E+04  0.13003842475E+04  0.50400001928E-02 0. -1.
       -1   -1    0    0    0  501  0.00000000000E+00  0.00000000000E+00 -0.10270608623E+04  0.10270608623E+04  0.50400001928E-02 0.  1.
    10030    2    1    2    0    0  0.00000000000E+00  0.00000000000E+00  0.27332338516E+03  0.23274451098E+04  0.23113405345E+04 0.  0.
        2    1    3    3  502    0 -0.10508455609E+04  0.14110025675E+03 -0.32631142049E+03  0.11093533335E+04  0.25500000920E-02 0.  1.
       -2    1    3    3    0  502  0.10508455609E+04 -0.14110025675E+03  0.59963480564E+03  0.12180917763E+04  0.25500000920E-02 0. -1.
</event>
<event>
 5   0  0.7003852E-06  0.2299990E+04  0.7818609E-02  0.8477925E-01
        2   -1    0    0  501    0  0.00000000000E+00  0.00000000000E+00  0.13400105427E+04  0.13400105427E+04  0.25500000920E-02 0.  1.
       -2   -1    0    0    0  501  0.00000000000E+00  0.00000000000E+00 -0.98692435144E+03  0.98692435145E+03  0.25500000920E-02 0. -1.
    10030    2    1    2    0    0  0.00000000000E+00  0.00000000000E+00  0.35308619130E+03  0.23269348942E+04  0.22999904659E+04 0.  0.
        2    1    3    3  502    0  0.27093650268E+03 -0.23685585583E+03  0.12815757113E+04  0.13311437145E+04  0.25500000920E-02 0.  1.
       -2    1    3    3    0  502 -0.27093650268E+03  0.23685585583E+03 -0.92848951995E+03  0.99579117971E+03  0.25500000920E-02 0. -1.
</event>
<event>
 5   0  0.3226427E-06  0.2297946E+04  0.7818609E-02  0.8478732E-01
       -1   -1    0    0    0  501  0.00000000000E+00  0.00000000000E+00  0.84471238253E+03  0.84471238255E+03  0.50400001928E-02 0. -1.
        1   -1    0    0  501    0  0.00000000000E+00  0.00000000000E+00 -0.15628260194E+04  0.15628260194E+04  0.50400001928E-02 0.  1.
    10030    2    1    2    0    0  0.00000000000E+00  0.00000000000E+00 -0.71811363688E+03  0.24075384020E+04  0.22979455958E+04 0.  0.
        4    1    3    3  502    0 -0.11265298543E+04 -0.60402681698E+02 -0.13091277693E+03  0.11357190518E+04  0.12699999809E+01 0. -1.
       -4    1    3    3    0  502  0.11265298543E+04  0.60402681698E+02 -0.58720085994E+03  0.12718193501E+04  0.12699999809E+01 0.  1.
</event>
<event>
 5   0  0.3238713E-06  0.2301077E+04  0.7818609E-02  0.8477497E-01
       -1   -1    0    0    0  501  0.00000000000E+00  0.00000000000E+00  0.74644459923E+03  0.74644459925E+03  0.50400001928E-02 0.  1.
        1   -1    0    0  501    0  0.00000000000E+00  0.00000000000E+00 -0.17733913340E+04  0.17733913340E+04  0.50400001928E-02 0. -1.
    10030    2    1    2    0    0  0.00000000000E+00  0.00000000000E+00 -0.10269467348E+04  0.25198359333E+04  0.23010766034E+04 0.  0.
        3    1    3    3  502    0  0.14357101092E+03  0.24052999665E+03 -0.17354787969E+04  0.17579402661E+04  0.10100000352E+00 0. -1.
       -3    1    3    3    0  502 -0.14357101092E+03 -0.24052999665E+03  0.70853206210E+03  0.76189566719E+03  0.10100000352E+00 0.  1.
</event>
<event>
 5   0  0.7242214E-06  0.2302306E+04  0.7818609E-02  0.8477012E-01
       -2   -1    0    0    0  501  0.00000000000E+00  0.00000000000E+00  0.62951234001E+03  0.62951234001E+03  0.25500000920E-02 0.  1.
        2   -1    0    0  501    0  0.00000000000E+00  0.00000000000E+00 -0.21050478963E+04  0.21050478963E+04  0.25500000920E-02 0. -1.
    10030    2    1    2    0    0  0.00000000000E+00  0.00000000000E+00 -0.14755355563E+04  0.27345602363E+04  0.23023063454E+04 0.  0.
        1    1    3    3  502    0 -0.10177133310E+04 -0.49665964293E+03 -0.98332564186E+03  0.14997801649E+04  0.50400001928E-02 0.  1.
       -1    1    3    3    0  502  0.10177133310E+04  0.49665964293E+03 -0.49220991442E+03  0.12347800714E+04  0.50400001928E-02 0. -1.
</event>
<event>
 5   0  0.3195296E-06  0.2278787E+04  0.7818609E-02  0.8486332E-01
       -1   -1    0    0    0  501  0.00000000000E+00  0.00000000000E+00  0.96853385260E+03  0.96853385261E+03  0.50400001928E-02 0. -1.
        1   -1    0    0  501    0  0.00000000000E+00  0.00000000000E+00 -0.13403942472E+04  0.13403942472E+04  0.50400001928E-02 0.  1.
    10030    2    1    2    0    0  0.00000000000E+00  0.00000000000E+00 -0.37186039462E+03  0.23089280998E+04  0.22787866985E+04 0.  0.
        2    1    3    3  502    0 -0.99138024373E+03 -0.55173049713E+03 -0.79778653975E+02  0.11373679980E+04  0.25500000920E-02 0. -1.
       -2    1    3    3    0  502  0.99138024373E+03  0.55173049713E+03 -0.29208174065E+03  0.11715601019E+04  0.25500000920E-02 0.  1.
</event>
<event>
 5   0  0.7242214E-06  0.2300370E+04  0.7818609E-02  0.8477775E-01
       -2   -1    0    0    0  501  0.00000000000E+00  0.00000000000E+00  0.79327387578E+03  0.79327387579E+03  0.25500000920E-02 0. -1.
        2   -1    0    0  501    0  0.00000000000E+00  0.00000000000E+00 -0.16676785573E+04  0.16676785573E+04  0.25500000920E-02 0.  1.
    10030    2    1    2    0    0  0.00000000000E+00  0.00000000000E+00 -0.87440468148E+03  0.24609524331E+04  0.23003702595E+04 0.  0.
        1    1    3    3  502    0  0.45601355881E+03  0.52180897207E+03  0.54486243290E+03  0.88153731627E+03  0.50400001928E-02 0. -1.
       -1    1    3    3    0  502 -0.45601355881E+03 -0.52180897207E+03 -0.14192671144E+04  0.15794151168E+04  0.50400001928E-02 0.  1.
</event>
<event>
 5   0  0.7348107E-06  0.2294978E+04  0.7818609E-02  0.8479904E-01
        2   -1    0    0  501    0  0.00000000000E+00  0.00000000000E+00  0.17617634921E+04  0.17617634921E+04  0.25500000920E-02 0.  1.
       -2   -1    0    0    0  501  0.00000000000E+00  0.00000000000E+00 -0.74739354316E+03  0.74739354316E+03  0.25500000920E-02 0. -1.
    10030    2    1    2    0    0  0.00000000000E+00  0.00000000000E+00  0.10143699490E+04  0.25091570353E+04  0.22949776980E+04 0.  0.
        3    1    3    3  502    0 -0.42950068169E+02  0.36944697065E+03  0.16940321363E+04  0.17343819249E+04  0.10100000352E+00 0.  1.
       -3    1    3    3    0  502  0.42950068169E+02 -0.36944697065E+03 -0.67966218736E+03  0.77477511034E+03  0.10100000352E+00 0. -1.
</event>
<event>
 5   0  0.3184492E-06  0.2300289E+04  0.7818609E-02  0.8477807E-01
        1   -1    0    0  501    0  0.00000000000E+00  0.00000000000E+00  0.95680032463E+03  0.95680032464E+03  0.50400001928E-02 0. -1.
       -1   -1    0    0    0  501  0.00000000000E+00  0.00000000000E+00 -0.13825586250E+04  0.13825586250E+04  0.50400001928E-02 0.  1.
    10030    2    1    2    0    0  0.00000000000E+00  0.00000000000E+00 -0.42575830038E+03  0.23393589497E+04  0.23002891481E+04 0.  0.
        1    1    3    3  502    0  0.11536647266E+03 -0.92119238226E+03  0.47756864086E+03  0.10440194610E+04  0.50400001928E-02 0. -1.
       -1    1    3    3    0  502 -0.11536647266E+03  0.92119238226E+03 -0.90332694124E+03  0.12953394887E+04  0.50400001928E-02 0.  1.
</event>
<event>
 5   0  0.3184492E-06  0.2297663E+04  0.7818609E-02  0.8478843E-01
       -1   -1    0    0    0  501  0.00000000000E+00  0.00000000000E+00  0.50614441877E+03  0.50614441880E+03  0.50400001928E-02 0. -1.
        1   -1    0    0  501    0  0.00000000000E+00  0.00000000000E+00 -0.26075841916E+04  0.26075841916E+04  0.50400001928E-02 0.  1.
    10030    2    1    2    0    0  0.00000000000E+00  0.00000000000E+00 -0.21014397729E+04  0.31137286104E+04  0.22976633218E+04 0.  0.
        1    1    3    3  502    0 -0.72443078775E+03 -0.85054164169E+03 -0.68811800386E+03  0.13121461191E+04  0.50400001928E-02 0. -1.
       -1    1    3    3    0  502  0.72443078775E+03  0.85054164169E+03 -0.14133217690E+04  0.18015824914E+04  0.50400001928E-02 0.  1.
</event>
<event>
 5   0  0.7242214E-06  0.2303162E+04  0.7818609E-02  0.8476675E-01
       -2   -1    0    0    0  501  0.00000000000E+00  0.00000000000E+00  0.15470449463E+04  0.15470449463E+04  0.25500000920E-02 0.  1.
        2   -1    0    0  501    0  0.00000000000E+00  0.00000000000E+00 -0.85720792301E+03  0.85720792301E+03  0.25500000920E-02 0. -1.
    10030    2    1    2    0    0  0.00000000000E+00  0.00000000000E+00  0.68983702332E+03  0.24042528693E+04  0.23031623349E+04 0.  0.
        1    1    3    3  502    0  0.86054213416E+03 -0.39681074934E+03 -0.33813129948E+03  0.10061432856E+04  0.50400001928E-02 0. -1.
       -1    1    3    3    0  502 -0.86054213416E+03  0.39681074934E+03  0.10279683228E+04  0.13981095837E+04  0.50400001928E-02 0.  1.
</event>
<event>
 5   0  0.3195296E-06  0.2297603E+04  0.7818609E-02  0.8478867E-01
        1   -1    0    0  501    0  0.00000000000E+00  0.00000000000E+00  0.92099968342E+03  0.92099968343E+03  0.50400001928E-02 0.  1.
       -1   -1    0    0    0  501  0.00000000000E+00  0.00000000000E+00 -0.14329487010E+04  0.14329487010E+04  0.50400001928E-02 0. -1.
    10030    2    1    2    0    0  0.00000000000E+00  0.00000000000E+00 -0.51194901756E+03  0.23539483844E+04  0.22976033600E+04 0.  0.
        2    1    3    3  502    0  0.52572107194E+03 -0.29702818097E+03  0.74530353524E+03  0.95921100151E+03  0.25500000920E-02 0.  1.
       -2    1    3    3    0  502 -0.52572107194E+03  0.29702818097E+03 -0.12572525528E+04  0.13947373829E+04  0.25500000920E-02 0. -1.
</event>
<event>
 5   0  0.3184492E-06  0.2264957E+04  0.7818609E-02  0.8491867E-01
       -1   -1    0    0    0  501  0.00000000000E+00  0.00000000000E+00  0.94153340798E+03  0.94153340799E+03  0.50400001928E-02 0. -1.
        1   -1    0    0  501    0  0.00000000000E+00  0.00000000000E+00 -0.13621481827E+04  0.13621481827E+04  0.50400001928E-02 0.  1.
    10030    2    1    2    0    0  0.00000000000E+00  0.00000000000E+00 -0.42061477469E+03  0.23036815907E+04  0.22649574130E+04 0.  0.
        1    1    3    3  502    0 -0.11066934384E+04 -0.51974822794E+02 -0.44891643886E+03  0.11954069257E+04  0.50400001928E-02 0. -1.
       -1    1    3    3    0  502  0.11066934384E+04  0.51974822794E+02  0.28301664174E+02  0.11082746650E+04  0.50400001928E-02 0.  1.
</event>
<event>
 5   0  0.7348107E-06  0.2273947E+04  0.7818609E-02  0.8488265E-01
        2   -1    0    0  501    0  0.00000000000E+00  0.00000000000E+00  0.10783440650E+04  0.10783440651E+04  0.25500000920E-02 0. -1.
       -2   -1    0    0    0  501  0.00000000000E+00  0.00000000000E+00 -0.11987901168E+04  0.11987901168E+04  0.25500000920E-02 0.  1.
    10030    2    1    2    0    0  0.00000000000E+00  0.00000000000E+00 -0.12044605178E+03  0.22771341819E+04  0.22739465321E+04 0.  0.
        3    1    3    3  502    0 -0.77274037398E+03 -0.29283149611E+03 -0.84223399905E+03  0.11799305446E+04  0.10100000352E+00 0.  1.
       -3    1    3    3    0  502  0.77274037398E+03  0.29283149611E+03  0.72178794727E+03  0.10972036373E+04  0.10100000352E+00 0. -1.
</event>
<event>
 5   0  0.3226427E-06  0.2298231E+04  0.7818609E-02  0.8478619E-01
        1   -1    0    0  501    0  0.00000000000E+00  0.00000000000E+00  0.11320882990E+04  0.11320882990E+04  0.50400001928E-02 0. -1.
       -1   -1    0    0    0  501  0.00000000000E+00  0.00000000000E+00 -0.11663983623E+04  0.11663983623E+04  0.50400001928E-02 0.  1.
    10030    2    1    2    0    0  0.00000000000E+00  0.00000000000E+00 -0.34310063293E+02  0.22984866613E+04  0.22982305697E+04 0.  0.
        4    1    3    3  502    0 -0.41135351921E+03 -0.99808844765E+03 -0.41099080855E+03  0.11551222120E+04  0.12699999809E+01 0. -1.
       -4    1    3    3    0  502  0.41135351921E+03  0.99808844765E+03  0.37668074525E+03  0.11433644493E+04  0.12699999809E+01 0.  1.
</event>
<event>
 5   0  0.3184492E-06  0.2299013E+04  0.7818609E-02  0.8478310E-01
       -1   -1    0    0    0  501  0.00000000000E+00  0.00000000000E+00  0.86816535745E+03  0.86816535747E+03  0.50400001928E-02 0.  1.
        1   -1    0    0  501    0  0.00000000000E+00  0.00000000000E+00 -0.15220201895E+04  0.15220201895E+04  0.50400001928E-02 0. -1.
    10030    2    1    2    0    0  0.00000000000E+00  0.00000000000E+00 -0.65385483202E+03  0.23901855470E+04  0.22990130073E+04 0.  0.
        1    1    3    3  502    0 -0.57832452905E+03 -0.40152447349E+03 -0.12716344132E+04  0.14535251097E+04  0.50400001928E-02 0. -1.
       -1    1    3    3    0  502  0.57832452905E+03  0.40152447349E+03  0.61777958119E+03  0.93666043723E+03  0.50400001928E-02 0.  1.
</event>
<event>
 5   0  0.3184492E-06  0.2300647E+04  0.7818609E-02  0.8477666E-01
       -1   -1    0    0    0  501  0.00000000000E+00  0.00000000000E+00  0.26084713462E+04  0.26084713462E+04  0.50400001928E-02 0. -1.
        1   -1    0    0  501    0  0.00000000000E+00  0.00000000000E+00 -0.50728721012E+03  0.50728721015E+03  0.50400001928E-02 0.  1.
    10030    2    1    2    0    0  0.00000000000E+00  0.00000000000E+00  0.21011841360E+04  0.31157585563E+04  0.23006469976E+04 0.  0.
        1    1    3    3  502    0 -0.34767882959E+03 -0.39433956381E+03 -0.33507242823E+03  0.62342424746E+03  0.50400001928E-02 0.  1.
       -1    1    3    3    0  502  0.34767882959E+03  0.39433956381E+03  0.24362565643E+04  0.24923343089E+04  0.50400001928E-02 0. -1.
</event>
<event>
 5   0  0.7003852E-06  0.2299242E+04  0.7818609E-02  0.8478220E-01
       -2   -1    0    0    0  501  0.00000000000E+00  0.00000000000E+00  0.11063627949E+04  0.11063627949E+04  0.25500000920E-02 0.  1.
        2   -1    0    0  501    0  0.00000000000E+00  0.00000000000E+00 -0.11945710887E+04  0.11945710887E+04  0.25500000920E-02 0. -1.
    10030    2    1    2    0    0  0.00000000000E+00  0.00000000000E+00 -0.88208293824E+02  0.23009338836E+04  0.22992424913E+04 0.  0.
        2    1    3    3  502    0  0.43381708179E+03  0.45258147342E+03  0.92024458436E+03  0.11134977977E+04  0.25500000920E-02 0.  1.
       -2    1    3    3    0  502 -0.43381708179E+03 -0.45258147342E+03 -0.10084528782E+04  0.11874360859E+04  0.25500000920E-02 0. -1.
</event>
<event>
 5   0  0.7044981E-06  0.2299495E+04  0.7818609E-02  0.8478120E-01
        2   -1    0    0  501    0  0.00000000000E+00  0.00000000000E+00  0.18702856357E+04  0.18702856357E+04  0.25500000920E-02 0.  1.
       -2   -1    0    0    0  501  0.00000000000E+00  0.00000000000E+00 -0.70680087289E+03  0.70680087290E+03  0.25500000920E-02 0. -1.
    10030    2    1    2    0    0  0.00000000000E+00  0.00000000000E+00  0.11634847628E+04  0.25770865086E+04  0.22994951793E+04 0.  0.
        4    1    3    3  502    0 -0.10565318926E+04 -0.36630489759E+03  0.28211210536E+03  0.11532682996E+04  0.12699999809E+01 0. -1.
       -4    1    3    3    0  502  0.10565318926E+04  0.36630489759E+03  0.88137265746E+03  0.14238182090E+04  0.12699999809E+01 0.  1.
</event>
<event>
 5   0  0.7348107E-06  0.2302183E+04  0.7818609E-02  0.8477061E-01
       -2   -1    0    0    0  501  0.00000000000E+00  0.00000000000E+00  0.16502989913E+04  0.16502989913E+04  0.25500000920E-02 0. -1.
        2   -1    0    0  501    0  0.00000000000E+00  0.00000000000E+00 -0.80289177258E+03  0.80289177258E+03  0.25500000920E-02 0.  1.
    10030    2    1    2    0    0  0.00000000000E+00  0.00000000000E+00  0.84740721868E+03  0.24531907638E+04  0.23021828619E+04 0.  0.
        3    1    3    3  502    0  0.77002685284E+03  0.85555496365E+03  0.41327263903E+03  0.12229922053E+04  0.10100000352E+00 0. -1.
       -3    1    3    3    0  502 -0.77002685284E+03 -0.85555496365E+03  0.43413457965E+03  0.12301985585E+04  0.10100000352E+00 0.  1.
</event>
<event>
 5   0  0.3238713E-06  0.2306654E+04  0.7818609E-02  0.8475302E-01
        1   -1    0    0  501    0  0.00000000000E+00  0.00000000000E+00  0.16290526879E+04  0.16290526879E+04  0.50400001928E-02 0.  1.
       -1   -1    0    0    0  501  0.00000000000E+00  0.00000000000E+00 -0.81652535424E+03  0.81652535426E+03  0.50400001928E-02 0. -1.
    10030    2    1    2    0    0  0.00000000000E+00  0.00000000000E+00  0.81252733367E+03  0.24455780422E+04  0.23066537002E+04 0.  0.
        3    1    3    3  502    0 -0.52027800511E+03  0.56977467252E+03  0.13151146787E+04  0.15247488345E+04  0.10100000352E+00 0.  1.
       -3    1    3    3    0  502  0.52027800511E+03 -0.56977467252E+03 -0.50258734504E+03  0.92082920765E+03  0.10100000352E+00 0. -1.
</event>
<event>
 5   0  0.7348107E-06  0.2299409E+04  0.7818609E-02  0.8478154E-01
       -2   -1    0    0    0  501  0.00000000000E+00  0.00000000000E+00  0.11006600213E+04  0.11006600213E+04  0.25500000920E-02 0.  1.
        2   -1    0    0  501    0  0.00000000000E+00  0.00000000000E+00 -0.12009347971E+04  0.12009347971E+04  0.25500000920E-02 0. -1.
    10030    2    1    2    0    0  0.00000000000E+00  0.00000000000E+00 -0.10027477584E+03  0.23015948184E+04  0.22994094192E+04 0.  0.
        3    1    3    3  502    0 -0.10354562991E+04 -0.94821688522E+02 -0.54117474032E+03  0.11721906883E+04  0.10100000352E+00 0. -1.
       -3    1    3    3    0  502  0.10354562991E+04  0.94821688522E+02  0.44089996448E+03  0.11294041300E+04  0.10100000352E+00 0.  1.
</event>
<event>
 5   0  0.7003852E-06  0.2302853E+04  0.7818609E-02  0.8476797E-01
       -2   -1    0    0    0  501  0.00000000000E+00  0.00000000000E+00  0.17207449014E+04  0.17207449014E+04  0.25500000920E-02 0. -1.
        2   -1    0    0  501    0  0.00000000000E+00  0.00000000000E+00 -0.77047032424E+03  0.77047032425E+03  0.25500000920E-02 0.  1.
    10030    2    1    2    0    0  0.00000000000E+00  0.00000000000E+00  0.95027457711E+03  0.24912152256E+04  0.23028529107E+04 0.  0.
        2    1    3    3  502    0  0.17202761541E+03 -0.67718963429E+03 -0.51492909048E+03  0.86794658216E+03  0.25500000920E-02 0.  1.
       -2    1    3    3    0  502 -0.17202761541E+03  0.67718963429E+03  0.14652036676E+04  0.16232686434E+04  0.25500000920E-02 0. -1.
</event>
<event>
 5   0  0.3238713E-06  0.2297913E+04  0.7818609E-02  0.8478744E-01
       -1   -1    0    0    0  501  0.00000000000E+00  0.00000000000E+00  0.75297592394E+03  0.75297592396E+03  0.50400001928E-02 0. -1.
        1   -1    0    0  501    0  0.00000000000E+00  0.00000000000E+00 -0.17531782627E+04  0.17531782627E+04  0.50400001928E-02 0.  1.
    10030    2    1    2    0    0  0.00000000000E+00  0.00000000000E+00 -0.10002023387E+04  0.25061541866E+04  0.22979129855E+04 0.  0.
        3    1    3    3  502    0  0.48070697452E+03 -0.74227872701E+03 -0.13000885703E+04  0.15723508529E+04  0.10100000352E+00 0.  1.
       -3    1    3    3    0  502 -0.48070697452E+03  0.74227872701E+03  0.29988623156E+03  0.93380333369E+03  0.10100000352E+00 0. -1.
</event>
<event>
 5   0  0.7497344E-06  0.2300370E+04  0.7818609E-02  0.8477775E-01
        2   -1    0    0  501    0  0.00000000000E+00  0.00000000000E+00  0.18732970900E+04  0.18732970900E+04  0.25500000920E-02 0.  1.
       -2   -1    0    0    0  501  0.00000000000E+00  0.00000000000E+00 -0.70620169298E+03  0.70620169299E+03  0.25500000920E-02 0. -1.
    10030    2    1    2    0    0  0.00000000000E+00  0.00000000000E+00  0.11670953971E+04  0.25794987830E+04  0.23003700367E+04 0.  0.
        5    1    3    3  502    0  0.67302178247E+03  0.59226661069E+03 -0.22441350550E+03  0.92418697744E+03  0.46999998093E+01 0. -1.
       -5    1    3    3    0  502 -0.67302178247E+03 -0.59226661069E+03  0.13915089026E+04  0.16553118056E+04  0.46999998093E+01 0.  1.
</event>
<event>
 5   0  0.2519625E-06  0.2285565E+04  0.7818609E-02  0.8483635E-01
       -3   -1    0    0    0  501  0.00000000000E+00  0.00000000000E+00  0.15951080637E+04  0.15951080669E+04  0.10100000352E+00 0.  1.
        3   -1    0    0  501    0  0.00000000000E+00  0.00000000000E+00 -0.81872294649E+03  0.81872295272E+03  0.10100000352E+00 0. -1.
    10030    2    1    2    0    0  0.00000000000E+00  0.00000000000E+00  0.77638511725E+03  0.24138310197E+04  0.22855647751E+04 0.  0.
        1    1    3    3  502    0 -0.86971782015E+02 -0.35403795890E+03  0.15320465595E+04  0.15748249514E+04  0.50400001928E-02 0.  1.
       -1    1    3    3    0  502  0.86971782015E+02  0.35403795890E+03 -0.75566144223E+03  0.83900606822E+03  0.50400001928E-02 0. -1.
</event>
<event>
 5   0  0.7497344E-06  0.2302410E+04  0.7818609E-02  0.8476971E-01
        2   -1    0    0  501    0  0.00000000000E+00  0.00000000000E+00  0.80935125460E+03  0.80935125460E+03  0.25500000920E-02 0. -1.
       -2   -1    0    0    0  501  0.00000000000E+00  0.00000000000E+00 -0.16374514861E+04  0.16374514861E+04  0.25500000920E-02 0.  1.
    10030    2    1    2    0    0  0.00000000000E+00  0.00000000000E+00 -0.82810023150E+03  0.24468027407E+04  0.23024104018E+04 0.  0.
        5    1    3    3  502    0  0.27760947113E+03  0.13520142643E+03 -0.15926108889E+04  0.16222755553E+04  0.46999998093E+01 0.  1.
       -5    1    3    3    0  502 -0.27760947113E+03 -0.13520142643E+03  0.76451065736E+03  0.82452718535E+03  0.46999998093E+01 0. -1.
</event>
<event>
 5   0  0.7242214E-06  0.2298278E+04  0.7818609E-02  0.8478600E-01
       -2   -1    0    0    0  501  0.00000000000E+00  0.00000000000E+00  0.11171459819E+04  0.11171459819E+04  0.25500000920E-02 0. -1.
        2   -1    0    0  501    0  0.00000000000E+00  0.00000000000E+00 -0.11820486470E+04  0.11820486470E+04  0.25500000920E-02 0.  1.
    10030    2    1    2    0    0  0.00000000000E+00  0.00000000000E+00 -0.64902665106E+02  0.22991946289E+04  0.22982783960E+04 0.  0.
        1    1    3    3  502    0 -0.31158285419E+03 -0.73740058765E+01 -0.11389585709E+04  0.11808322816E+04  0.50400001928E-02 0.  1.
       -1    1    3    3    0  502  0.31158285419E+03  0.73740058765E+01  0.10740559058E+04  0.11183623473E+04  0.50400001928E-02 0. -1.
</event>
<event>
 5   0  0.7044981E-06  0.2258889E+04  0.7818609E-02  0.8494309E-01
       -2   -1    0    0    0  501  0.00000000000E+00  0.00000000000E+00  0.50120325774E+03  0.50120325775E+03  0.25500000920E-02 0.  1.
        2   -1    0    0  501    0  0.00000000000E+00  0.00000000000E+00 -0.25451642340E+04  0.25451642340E+04  0.25500000920E-02 0. -1.
    10030    2    1    2    0    0  0.00000000000E+00  0.00000000000E+00 -0.20439609762E+04  0.30463674917E+04  0.22588887583E+04 0.  0.
        4    1    3    3  502    0  0.45299255661E+03 -0.10020092445E+04 -0.13695414839E+04  0.17563798767E+04  0.12699999809E+01 0. -1.
       -4    1    3    3    0  502 -0.45299255661E+03  0.10020092445E+04 -0.67441949231E+03  0.12899876150E+04  0.12699999809E+01 0.  1.
</event>
<event>
 5   0  0.3238713E-06  0.2301679E+04  0.7818609E-02  0.8477259E-01
       -1   -1    0    0    0  501  0.00000000000E+00  0.00000000000E+00  0.18769784704E+04  0.18769784704E+04  0.50400001928E-02 0. -1.
        1   -1    0    0  501    0  0.00000000000E+00  0.00000000000E+00 -0.70561879345E+03  0.70561879346E+03  0.50400001928E-02 0.  1.
    10030    2    1    2    0    0  0.00000000000E+00  0.00000000000E+00  0.11713596770E+04  0.25825972639E+04  0.23016787644E+04 0.  0.
        3    1    3    3  502    0  0.70023856300E+03 -0.11227473414E+03  0.16026624854E+04  0.17525600456E+04  0.10100000352E+00 0. -1.
       -3    1    3    3    0  502 -0.70023856300E+03  0.11227473414E+03 -0.43130280843E+03  0.83003721831E+03  0.10100000352E+00 0.  1.
</event>
<event>
 5   0  0.3226427E-06  0.2300897E+04  0.7818609E-02  0.8477567E-01
       -1   -1    0    0    0  501  0.00000000000E+00  0.00000000000E+00  0.12238273130E+04  0.12238273130E+04  0.50400001928E-02 0. -1.
        1   -1    0    0  501    0  0.00000000000E+00  0.00000000000E+00 -0.10814694415E+04  0.10814694415E+04  0.50400001928E-02 0.  1.
    10030    2    1    2    0    0  0.00000000000E+00  0.00000000000E+00  0.14235787149E+03  0.23052967546E+04  0.23008970779E+04 0.  0.
        4    1    3    3  502    0 -0.83619491189E+03  0.16855010197E+03 -0.70224219451E+03  0.11048876776E+04  0.12699999809E+01 0.  1.
       -4    1    3    3    0  502  0.83619491189E+03 -0.16855010197E+03  0.84460006601E+03  0.12004090769E+04  0.12699999809E+01 0. -1.
</event>
<event>
 5   0  0.7242214E-06  0.2299016E+04  0.7818609E-02  0.8478309E-01
       -2   -1    0    0    0  501  0.00000000000E+00  0.00000000000E+00  0.13514720419E+04  0.13514720419E+04  0.25500000920E-02 0.  1.
        2   -1    0    0  501    0  0.00000000000E+00  0.00000000000E+00 -0.97772553427E+03  0.97772553427E+03  0.25500000920E-02 0. -1.
    10030    2    1    2    0    0  0.00000000000E+00  0.00000000000E+00  0.37374650758E+03  0.23291975761E+04  0.22990160714E+04 0.  0.
        1    1    3    3  502    0  0.21838038428E+03 -0.98378759392E+03  0.74716208218E+03  0.12545035669E+04  0.50400001928E-02 0.  1.
       -1    1    3    3    0  502 -0.21838038428E+03  0.98378759392E+03 -0.37341557459E+03  0.10746940093E+04  0.50400001928E-02 0. -1.
</event>
<event>
 5   0  0.3184492E-06  0.2300886E+04  0.7818609E-02  0.8477572E-01
       -1   -1    0    0    0  501  0.00000000000E+00  0.00000000000E+00  0.98238705319E+03  0.98238705321E+03  0.50400001928E-02 0. -1.
        1   -1    0    0  501    0  0.00000000000E+00  0.00000000000E+00 -0.13472483628E+04  0.13472483628E+04  0.50400001928E-02 0.  1.
    10030    2    1    2    0    0  0.00000000000E+00  0.00000000000E+00 -0.36486130958E+03  0.23296354160E+04  0.23008862197E+04 0.  0.
        1    1    3    3  502    0  0.66279791345E+03 -0.51605422859E+03  0.61346133055E+03  0.10401672197E+04  0.50400001928E-02 0. -1.
       -1    1    3    3    0  502 -0.66279791345E+03  0.51605422859E+03 -0.97832264013E+03  0.12894681962E+04  0.50400001928E-02 0.  1.
</event>
<event>
 5   0  0.7044981E-06  0.2303795E+04  0.7818609E-02  0.8476426E-01
        2   -1    0    0  501    0  0.00000000000E+00  0.00000000000E+00  0.28811944299E+04  0.28811944299E+04  0.25500000920E-02 0.  1.
       -2   -1    0    0    0  501  0.00000000000E+00  0.00000000000E+00 -0.46052717130E+03  0.46052717131E+03  0.25500000920E-02 0. -1.
    10030    2    1    2    0    0  0.00000000000E+00  0.00000000000E+00  0.24206672586E+04  0.33417216012E+04  0.23037954083E+04 0.  0.
        4    1    3    3  502    0 -0.58801857305E+03  0.88126893882E+03  0.18662324143E+04  0.21459789892E+04  0.12699999809E+01 0.  1.
       -4    1    3    3    0  502  0.58801857305E+03 -0.88126893882E+03  0.55443484426E+03  0.11957426120E+04  0.12699999809E+01 0. -1.
</event>
<event>
 5   0  0.7497344E-06  0.2303009E+04  0.7818609E-02  0.8476736E-01
       -2   -1    0    0    0  501  0.00000000000E+00  0.00000000000E+00  0.77573276921E+03  0.77573276921E+03  0.25500000920E-02 0. -1.
        2   -1    0    0  501    0  0.00000000000E+00  0.00000000000E+00 -0.17093037589E+04  0.17093037589E+04  0.25500000920E-02 0.  1.
    10030    2    1    2    0    0  0.00000000000E+00  0.00000000000E+00 -0.93357098969E+03  0.24850365281E+04  0.23030092821E+04 0.  0.
        5    1    3    3  502    0 -0.13905690447E+03 -0.10910625228E+04 -0.83458835710E+03  0.13806933284E+04  0.46999998093E+01 0.  1.
       -5    1    3    3    0  502  0.13905690447E+03  0.10910625228E+04 -0.98982632592E+02  0.11043431997E+04  0.46999998093E+01 0. -1.
</event>
<event>
 5   0  0.7497344E-06  0.2303286E+04  0.7818609E-02  0.8476627E-01
        2   -1    0    0  501    0  0.00000000000E+00  0.00000000000E+00  0.77310589855E+03  0.77310589855E+03  0.25500000920E-02 0.  1.
       -2   -1    0    0    0  501  0.00000000000E+00  0.00000000000E+00 -0.17155233025E+04  0.17155233025E+04  0.25500000920E-02 0. -1.
    10030    2    1    2    0    0  0.00000000000E+00  0.00000000000E+00 -0.94241740393E+03  0.24886292010E+04  0.23032856395E+04 0.  0.
        5    1    3    3  502    0  0.10689326475E+04  0.27018671589E+03 -0.83060275490E+03  0.13804133051E+04  0.46999998093E+01 0. -1.
       -5    1    3    3    0  502 -0.10689326475E+04 -0.27018671589E+03 -0.11181464904E+03  0.11082158960E+04  0.46999998093E+01 0.  1.
</event>
<event>
 5   0  0.3226427E-06  0.2302071E+04  0.7818609E-02  0.8477105E-01
       -1   -1    0    0    0  501  0.00000000000E+00  0.00000000000E+00  0.12627398492E+04  0.12627398492E+04  0.50400001928E-02 0.  1.
        1   -1    0    0  501    0  0.00000000000E+00  0.00000000000E+00 -0.10492125277E+04  0.10492125277E+04  0.50400001928E-02 0. -1.
    10030    2    1    2    0    0  0.00000000000E+00  0.00000000000E+00  0.21352732150E+03  0.23119523769E+04  0.23020707800E+04 0.  0.
        4    1    3    3  502    0  0.56762696239E+03  0.38058238899E+03 -0.82340720684E+03  0.10700674579E+04  0.12699999809E+01 0. -1.
       -4    1    3    3    0  502 -0.56762696239E+03 -0.38058238899E+03  0.10369345283E+04  0.12418849191E+04  0.12699999809E+01 0.  1.
</event>
<event>
 5   0  0.3226427E-06  0.2267309E+04  0.7818609E-02  0.8490923E-01
       -1   -1    0    0    0  501  0.00000000000E+00  0.00000000000E+00  0.43007448718E+03  0.43007448721E+03  0.50400001928E-02 0. -1.
        1   -1    0    0  501    0  0.00000000000E+00  0.00000000000E+00 -0.29882567161E+04  0.29882567161E+04  0.50400001928E-02 0.  1.
    10030    2    1    2    0    0  0.00000000000E+00  0.00000000000E+00 -0.25581822289E+04  0.34183312033E+04  0.22673093964E+04 0.  0.
        4    1    3    3  502    0  0.49107935944E+02 -0.90175764290E+03 -0.24593934343E+03  0.93598408611E+03  0.12699999809E+01 0. -1.
       -4    1    3    3    0  502 -0.49107935944E+02  0.90175764290E+03 -0.23122428855E+04  0.24823471172E+04  0.12699999809E+01 0.  1.
</event>
<event>
 5   0  0.3184492E-06  0.2311359E+04  0.7818609E-02  0.8473456E-01
       -1   -1    0    0    0  501  0.00000000000E+00  0.00000000000E+00  0.96489124613E+03  0.96489124615E+03  0.50400001928E-02 0.  1.
        1   -1    0    0  501    0  0.00000000000E+00  0.00000000000E+00 -0.13841924108E+04  0.13841924109E+04  0.50400001928E-02 0. -1.
    10030    2    1    2    0    0  0.00000000000E+00  0.00000000000E+00 -0.41930116471E+03  0.23490836570E+04  0.23113590290E+04 0.  0.
        1    1    3    3  502    0 -0.10804479243E+04 -0.12546704797E+03  0.18721667111E+03  0.11037027585E+04  0.50400001928E-02 0.  1.
       -1    1    3    3    0  502  0.10804479243E+04  0.12546704797E+03 -0.60651783583E+03  0.12453808985E+04  0.50400001928E-02 0. -1.
</event>
<event>
 5   0  0.7497344E-06  0.2349481E+04  0.7818609E-02  0.8458663E-01
        2   -1    0    0  501    0  0.00000000000E+00  0.00000000000E+00  0.16009231921E+04  0.16009231921E+04  0.25500000920E-02 0. -1.
       -2   -1    0    0    0  501  0.00000000000E+00  0.00000000000E+00 -0.86201214117E+03  0.86201214117E+03  0.25500000920E-02 0.  1.
    10030    2    1    2    0    0  0.00000000000E+00  0.00000000000E+00  0.73891105095E+03  0.24629353333E+04  0.23494809884E+04 0.  0.
        5    1    3    3  502    0  0.25618191840E+03  0.73378679092E+03  0.12928553795E+04  0.15084990395E+04  0.46999998093E+01 0. -1.
       -5    1    3    3    0  502 -0.25618191840E+03 -0.73378679092E+03 -0.55394432854E+03  0.95443629382E+03  0.46999998093E+01 0.  1.
</event>
<event>
 5   0  0.7044981E-06  0.2306330E+04  0.7818609E-02  0.8475429E-01
        2   -1    0    0  501    0  0.00000000000E+00  0.00000000000E+00  0.95374011829E+03  0.95374011829E+03  0.25500000920E-02 0. -1.
       -2   -1    0    0    0  501  0.00000000000E+00  0.00000000000E+00 -0.13942896012E+04  0.13942896012E+04  0.25500000920E-02 0.  1.
    10030    2    1    2    0    0  0.00000000000E+00  0.00000000000E+00 -0.44054948291E+03  0.23480297195E+04  0.23063303572E+04 0.  0.
        4    1    3    3  502    0  0.32604921388E+03  0.13772410025E+03  0.89707129675E+03  0.96437261575E+03  0.12699999809E+01 0. -1.
       -4    1    3    3    0  502 -0.32604921388E+03 -0.13772410025E+03 -0.13376207797E+04  0.13836571037E+04  0.12699999809E+01 0.  1.
</event>
<event>
 5   0  0.7242214E-06  0.2300447E+04  0.7818609E-02  0.8477745E-01
        2   -1    0    0  501    0  0.00000000000E+00  0.00000000000E+00  0.12934991627E+04  0.12934991627E+04  0.25500000920E-02 0.  1.
       -2   -1    0    0    0  501  0.00000000000E+00  0.00000000000E+00 -0.10228175763E+04  0.10228175763E+04  0.25500000920E-02 0. -1.
    10030    2    1    2    0    0  0.00000000000E+00  0.00000000000E+00  0.27068158647E+03  0.23163167390E+04  0.23004466336E+04 0.  0.
        1    1    3    3  502    0  0.77030407324E+03  0.84641540213E+03  0.25113974924E+03  0.11716904761E+04  0.50400001928E-02 0.  1.
       -1    1    3    3    0  502 -0.77030407324E+03 -0.84641540213E+03  0.19541837231E+02  0.11446262629E+04  0.50400001928E-02 0. -1.
</event>
<event>
 5   0  0.7242214E-06  0.2299121E+04  0.7818609E-02  0.8478268E-01
       -2   -1    0    0    0  501  0.00000000000E+00  0.00000000000E+00  0.11700246826E+04  0.11700246826E+04  0.25500000920E-02 0.  1.
        2   -1    0    0  501    0  0.00000000000E+00  0.00000000000E+00 -0.11294540365E+04  0.11294540365E+04  0.25500000920E-02 0. -1.
    10030    2    1    2    0    0  0.00000000000E+00  0.00000000000E+00  0.40570646147E+02  0.22994787191E+04  0.22991207890E+04 0.  0.
        1    1    3    3  502    0 -0.10543570571E+04  0.33763101472E+03 -0.28931996340E+03  0.11442768665E+04  0.50400001928E-02 0. -1.
       -1    1    3    3    0  502  0.10543570571E+04 -0.33763101472E+03  0.32989060955E+03  0.11552018526E+04  0.50400001928E-02 0.  1.
</event>
<event>
 5   0  0.3195296E-06  0.2301757E+04  0.7818609E-02  0.8477229E-01
       -1   -1    0    0    0  501  0.00000000000E+00  0.00000000000E+00  0.62853865280E+03  0.62853865282E+03  0.50400001928E-02 0.  1.
        1   -1    0    0  501    0  0.00000000000E+00  0.00000000000E+00 -0.21073028944E+04  0.21073028944E+04  0.50400001928E-02 0. -1.
    10030    2    1    2    0    0  0.00000000000E+00  0.00000000000E+00 -0.14787642416E+04  0.27358415472E+04  0.23017570005E+04 0.  0.
        2    1    3    3  502    0  0.56408696831E+03  0.98790256835E+03 -0.94653683913E+03  0.14798910704E+04  0.25500000920E-02 0.  1.
       -2    1    3    3    0  502 -0.56408696831E+03 -0.98790256835E+03 -0.53222740249E+03  0.12559504769E+04  0.25500000920E-02 0. -1.
</event>
<event>
 5   0  0.3338758E-06  0.2292338E+04  0.7818609E-02  0.8480948E-01
        1   -1    0    0  501    0  0.00000000000E+00  0.00000000000E+00  0.18673713202E+04  0.18673713202E+04  0.50400001928E-02 0.  1.
       -1   -1    0    0    0  501  0.00000000000E+00  0.00000000000E+00 -0.70350383956E+03  0.70350383958E+03  0.50400001928E-02 0. -1.
    10030    2    1    2    0    0  0.00000000000E+00  0.00000000000E+00  0.11638674807E+04  0.25708751598E+04  0.22923375787E+04 0.  0.
        5    1    3    3  502    0 -0.87040569984E+03  0.10343265407E+03 -0.24629555432E+03  0.91048777385E+03  0.46999998093E+01 0. -1.
       -5    1    3    3    0  502  0.87040569984E+03 -0.10343265407E+03  0.14101630350E+04  0.16603873860E+04  0.46999998093E+01 0.  1.
</event>
<event>
 5   0  0.7497344E-06  0.2302431E+04  0.7818609E-02  0.8476963E-01
       -2   -1    0    0    0  501  0.00000000000E+00  0.00000000000E+00  0.10800760220E+04  0.10800760221E+04  0.25500000920E-02 0. -1.
        2   -1    0    0  501    0  0.00000000000E+00  0.00000000000E+00 -0.12270402855E+04  0.12270402855E+04  0.25500000920E-02 0.  1.
    10030    2    1    2    0    0  0.00000000000E+00  0.00000000000E+00 -0.14696426342E+03  0.23071163075E+04  0.23024307073E+04 0.  0.
        5    1    3    3  502    0  0.52550998592E+03 -0.84489231215E+03  0.50672207546E+03  0.11165989057E+04  0.46999998093E+01 0. -1.
       -5    1    3    3    0  502 -0.52550998592E+03  0.84489231215E+03 -0.65368633888E+03  0.11905174018E+04  0.46999998093E+01 0.  1.
</event>
<event>
 5   0  0.3226427E-06  0.2306793E+04  0.7818609E-02  0.8475248E-01
        1   -1    0    0  501    0  0.00000000000E+00  0.00000000000E+00  0.17117209926E+04  0.17117209926E+04  0.50400001928E-02 0.  1.
       -1   -1    0    0    0  501  0.00000000000E+00  0.00000000000E+00 -0.77718445442E+03  0.77718445444E+03  0.50400001928E-02 0. -1.
    10030    2    1    2    0    0  0.00000000000E+00  0.00000000000E+00  0.93453653813E+03  0.24889054470E+04  0.23067925314E+04 0.  0.
        4    1    3    3  502    0  0.96624733060E+03  0.55054264829E+03  0.79734514392E+03  0.13683902963E+04  0.12699999809E+01 0.  1.
       -4    1    3    3    0  502 -0.96624733060E+03 -0.55054264829E+03  0.13719139421E+03  0.11205151507E+04  0.12699999809E+01 0. -1.
</event>
<event>
 5   0  0.7003852E-06  0.2299174E+04  0.7818609E-02  0.8478247E-01
        2   -1    0    0  501    0  0.00000000000E+00  0.00000000000E+00  0.53152395456E+03  0.53152395457E+03  0.25500000920E-02 0. -1.
       -2   -1    0    0    0  501  0.00000000000E+00  0.00000000000E+00 -0.24863409003E+04  0.24863409003E+04  0.25500000920E-02 0.  1.
    10030    2    1    2    0    0  0.00000000000E+00  0.00000000000E+00 -0.19548169457E+04  0.30178648549E+04  0.22991735452E+04 0.  0.
        2    1    3    3  502    0  0.46302029075E+03 -0.90164830524E+03 -0.16893489387E+04  0.19700906813E+04  0.25500000920E-02 0.  1.
       -2    1    3    3    0  502 -0.46302029075E+03  0.90164830524E+03 -0.26546800706E+03  0.10477741736E+04  0.25500000920E-02 0. -1.
</event>
<event>
 5   0  0.3184492E-06  0.2301615E+04  0.7818609E-02  0.8477285E-01
        1   -1    0    0  501    0  0.00000000000E+00  0.00000000000E+00  0.15172873614E+04  0.15172873614E+04  0.50400001928E-02 0. -1.
       -1   -1    0    0    0  501  0.00000000000E+00  0.00000000000E+00 -0.87284563081E+03  0.87284563082E+03  0.50400001928E-02 0.  1.
    10030    2    1    2    0    0  0.00000000000E+00  0.00000000000E+00  0.64444173055E+03  0.23901329922E+04  0.23016147758E+04 0.  0.
        1    1    3    3  502    0 -0.73869799214E+02 -0.11480473876E+04  0.35316786626E+03  0.12034106087E+04  0.50400001928E-02 0. -1.
       -1    1    3    3    0  502  0.73869799214E+02  0.11480473876E+04  0.29127386429E+03  0.11867223835E+04  0.50400001928E-02 0.  1.
</event>
<event>
 5   0  0.7348107E-06  0.2298238E+04  0.7818609E-02  0.8478616E-01
       -2   -1    0    0    0  501  0.00000000000E+00  0.00000000000E+00  0.77477161325E+03  0.77477161325E+03  0.25500000920E-02 0. -1.
        2   -1    0    0  501    0  0.00000000000E+00  0.00000000000E+00 -0.17043406435E+04  0.17043406435E+04  0.25500000920E-02 0.  1.
    10030    2    1    2    0    0  0.00000000000E+00  0.00000000000E+00 -0.92956903027E+03  0.24791122568E+04  0.22982382382E+04 0.  0.
        3    1    3    3  502    0 -0.36031789948E+03 -0.60133530336E+03  0.51739146522E+03  0.87127898760E+03  0.10100000352E+00 0. -1.
       -3    1    3    3    0  502  0.36031789948E+03  0.60133530336E+03 -0.14469604955E+04  0.16078332692E+04  0.10100000352E+00 0.  1.
</event>
<event>
 5   0  0.7497344E-06  0.2299944E+04  0.7818609E-02  0.8477943E-01
        2   -1    0    0  501    0  0.00000000000E+00  0.00000000000E+00  0.18350255454E+04  0.18350255454E+04  0.25500000920E-02 0.  1.
       -2   -1    0    0    0  501  0.00000000000E+00  0.00000000000E+00 -0.72066340913E+03  0.72066340914E+03  0.25500000920E-02 0. -1.
    10030    2    1    2    0    0  0.00000000000E+00  0.00000000000E+00  0.11143621363E+04  0.25556889545E+04  0.22999441431E+04 0.  0.
        5    1    3    3  502    0  0.54714758648E+03 -0.32818445537E+02 -0.56615308065E+03  0.78803485487E+03  0.46999998093E+01 0. -1.
       -5    1    3    3    0  502 -0.54714758648E+03  0.32818445537E+02  0.16805152169E+04  0.17676540997E+04  0.46999998093E+01 0.  1.
</event>
<event>
 5   0  0.3184492E-06  0.2290350E+04  0.7818609E-02  0.8481736E-01
       -1   -1    0    0    0  501  0.00000000000E+00  0.00000000000E+00  0.11880388902E+04  0.11880388902E+04  0.50400001928E-02 0.  1.
        1   -1    0    0  501    0  0.00000000000E+00  0.00000000000E+00 -0.11038575003E+04  0.11038575003E+04  0.50400001928E-02 0. -1.
    10030    2    1    2    0    0  0.00000000000E+00  0.00000000000E+00  0.84181389872E+02  0.22918963905E+04  0.22903498768E+04 0.  0.
        1    1    3    3  502    0 -0.10448873552E+04  0.24652436454E+03  0.44093452556E+03  0.11605977353E+04  0.50400001928E-02 0.  1.
       -1    1    3    3    0  502  0.10448873552E+04 -0.24652436454E+03 -0.35675313569E+03  0.11312986552E+04  0.50400001928E-02 0. -1.
</event>
<event>
 5   0  0.3226427E-06  0.2302402E+04  0.7818609E-02  0.8476975E-01
        1   -1    0    0  501    0  0.00000000000E+00  0.00000000000E+00  0.13242349108E+04  0.13242349108E+04  0.50400001928E-02 0. -1.
       -1   -1    0    0    0  501  0.00000000000E+00  0.00000000000E+00 -0.10007766324E+04  0.10007766324E+04  0.50400001928E-02 0.  1.
    10030    2    1    2    0    0  0.00000000000E+00  0.00000000000E+00  0.32345827846E+03  0.23250115432E+04  0.23024016631E+04 0.  0.
        4    1    3    3  502    0  0.11195216332E+04  0.59685291291E+02 -0.10231656185E+03  0.11257714302E+04  0.12699999809E+01 0.  1.
       -4    1    3    3    0  502 -0.11195216332E+04 -0.59685291291E+02  0.42577484032E+03  0.11992401131E+04  0.12699999809E+01 0. -1.
</event>
<event>
 5   0  0.2519625E-06  0.2315596E+04  0.7818609E-02  0.8471797E-01
        3   -1    0    0  501    0  0.00000000000E+00  0.00000000000E+00  0.23048058109E+04  0.23048058131E+04  0.10100000352E+00 0.  1.
       -3   -1    0    0    0  501  0.00000000000E+00  0.00000000000E+00 -0.58160901243E+03  0.58160902120E+03  0.10100000352E+00 0. -1.
    10030    2    1    2    0    0  0.00000000000E+00  0.00000000000E+00  0.17231967985E+04  0.28864148343E+04  0.23155956878E+04 0.  0.
        4    1    3    3  502    0 -0.74560333488E+03 -0.79030733796E+03  0.13601780860E+04  0.17408607239E+04  0.12699999809E+01 0.  1.
       -4    1    3    3    0  502  0.74560333488E+03  0.79030733796E+03  0.36301871244E+03  0.11455541104E+04  0.12699999809E+01 0. -1.
</event>
<event>
 5   0  0.3338758E-06  0.2296115E+04  0.7818609E-02  0.8479454E-01
       -1   -1    0    0    0  501  0.00000000000E+00  0.00000000000E+00  0.69251332970E+03  0.69251332972E+03  0.50400001928E-02 0. -1.
        1   -1    0    0  501    0  0.00000000000E+00  0.00000000000E+00 -0.19032644210E+04  0.19032644210E+04  0.50400001928E-02 0.  1.
    10030    2    1    2    0    0  0.00000000000E+00  0.00000000000E+00 -0.12107510913E+04  0.25957777508E+04  0.22961149636E+04 0.  0.
        5    1    3    3  502    0 -0.74628182653E+03 -0.49466452141E+03 -0.14177577617E+04  0.16768090870E+04  0.46999998093E+01 0.  1.
       -5    1    3    3    0  502  0.74628182653E+03  0.49466452141E+03  0.20700667041E+03  0.91896866374E+03  0.46999998093E+01 0. -1.
</event>
<event>
 5   0  0.7497344E-06  0.2300584E+04  0.7818609E-02  0.8477691E-01
       -2   -1    0    0    0  501  0.00000000000E+00  0.00000000000E+00  0.86500913753E+03  0.86500913754E+03  0.25500000920E-02 0.  1.
        2   -1    0    0  501    0  0.00000000000E+00  0.00000000000E+00 -0.15296627144E+04  0.15296627144E+04  0.25500000920E-02 0. -1.
    10030    2    1    2    0    0  0.00000000000E+00  0.00000000000E+00 -0.66465357683E+03  0.23946718519E+04  0.23005844695E+04 0.  0.
        5    1    3    3  502    0  0.50212435510E+01 -0.86089003932E+03  0.46175786743E+03  0.97693361638E+03  0.46999998093E+01 0.  1.
       -5    1    3    3    0  502 -0.50212435510E+01  0.86089003932E+03 -0.11264114443E+04  0.14177382355E+04  0.46999998093E+01 0. -1.
</event>
<event>
 5   0  0.7497344E-06  0.2297555E+04  0.7818609E-02  0.8478886E-01
        2   -1    0    0  501    0  0.00000000000E+00  0.00000000000E+00  0.98079952141E+03  0.98079952141E+03  0.25500000920E-02 0.  1.
       -2   -1    0    0    0  501  0.00000000000E+00  0.00000000000E+00 -0.13455243481E+04  0.13455243481E+04  0.25500000920E-02 0. -1.
    10030    2    1    2    0    0  0.00000000000E+00  0.00000000000E+00 -0.36472482671E+03  0.23263238695E+04  0.22975549061E+04 0.  0.
        5    1    3    3  502    0 -0.34564292118E+03  0.43252715107E+03  0.83677902704E+03  0.10033792879E+04  0.46999998093E+01 0.  1.
       -5    1    3    3    0  502  0.34564292118E+03 -0.43252715107E+03 -0.12015038537E+04  0.13229445816E+04  0.46999998093E+01 0. -1.
</event>
<event>
 5   0  0.7348107E-06  0.2302429E+04  0.7818609E-02  0.8476964E-01
       -2   -1    0    0    0  501  0.00000000000E+00  0.00000000000E+00  0.89911099523E+03  0.89911099523E+03  0.25500000920E-02 0.  1.
        2   -1    0    0  501    0  0.00000000000E+00  0.00000000000E+00 -0.14740054381E+04  0.14740054381E+04  0.25500000920E-02 0. -1.
    10030    2    1    2    0    0  0.00000000000E+00  0.00000000000E+00 -0.57489444289E+03  0.23731164333E+04  0.23024287146E+04 0.  0.
        3    1    3    3  502    0  0.66017318538E+01  0.36098831166E+03 -0.14141402371E+04  0.14595029169E+04  0.10100000352E+00 0. -1.
       -3    1    3    3    0  502 -0.66017318538E+01 -0.36098831166E+03  0.83924579425E+03  0.91361351642E+03  0.10100000352E+00 0.  1.
</event>
<event>
 5   0  0.7497344E-06  0.2298875E+04  0.7818609E-02  0.8478365E-01
        2   -1    0    0  501    0  0.00000000000E+00  0.00000000000E+00  0.81894675383E+03  0.81894675384E+03  0.25500000920E-02 0. -1.
       -2   -1    0    0    0  501  0.00000000000E+00  0.00000000000E+00 -0.16132991703E+04  0.16132991703E+04  0.25500000920E-02 0.  1.
    10030    2    1    2    0    0  0.00000000000E+00  0.00000000000E+00 -0.79435241645E+03  0.24322459241E+04  0.22988746103E+04 0.  0.
        5    1    3    3  502    0 -0.26071743972E+02 -0.85280460199E+03 -0.12120741897E+04  0.14822622428E+04  0.46999998093E+01 0.  1.
       -5    1    3    3    0  502  0.26071743972E+02  0.85280460199E+03  0.41772177324E+03  0.94998368136E+03  0.46999998093E+01 0. -1.
</event>
<event>
 5   0  0.3195296E-06  0.2284488E+04  0.7818609E-02  0.8484062E-01
        1   -1    0    0  501    0  0.00000000000E+00  0.00000000000E+00  0.13870908537E+04  0.13870908537E+04  0.50400001928E-02 0.  1.
       -1   -1    0    0    0  501  0.00000000000E+00  0.00000000000E+00 -0.94061715643E+03  0.94061715644E+03  0.50400001928E-02 0. -1.
    10030    2    1    2    0    0  0.00000000000E+00  0.00000000000E+00  0.44647369724E+03  0.23277080101E+04  0.22844880867E+04 0.  0.
        2    1    3    3  502    0 -0.38971638496E+03 -0.49312741951E+03  0.11950461431E+04  0.13502550858E+04  0.25500000920E-02 0.  1.
       -2    1    3    3    0  502  0.38971638496E+03  0.49312741951E+03 -0.74857244585E+03  0.97745292433E+03  0.25500000920E-02 0. -1.
</event>
<event>
 5   0  0.7348107E-06  0.2316583E+04  0.7818609E-02  0.8471411E-01
        2   -1    0    0  501    0  0.00000000000E+00  0.00000000000E+00  0.16436808372E+04  0.16436808372E+04  0.25500000920E-02 0. -1.
       -2   -1    0    0    0  501  0.00000000000E+00  0.00000000000E+00 -0.81624037798E+03  0.81624037798E+03  0.25500000920E-02 0.  1.
    10030    2    1    2    0    0  0.00000000000E+00  0.00000000000E+00  0.82744045925E+03  0.24599212152E+04  0.23165825415E+04 0.  0.
        3    1    3    3  502    0 -0.22921684383E+03  0.78758935858E+03 -0.45468408543E+03  0.93785659191E+03  0.10100000352E+00 0.  1.
       -3    1    3    3    0  502  0.22921684383E+03 -0.78758935858E+03  0.12821245447E+04  0.15220646233E+04  0.10100000352E+00 0. -1.
</event>
<event>
 5   0  0.7003852E-06  0.2296039E+04  0.7818609E-02  0.8479485E-01
       -2   -1    0    0    0  501  0.00000000000E+00  0.00000000000E+00  0.12953408652E+04  0.12953408652E+04  0.25500000920E-02 0. -1.
        2   -1    0    0  501    0  0.00000000000E+00  0.00000000000E+00 -0.10174532231E+04  0.10174532231E+04  0.25500000920E-02 0.  1.
    10030    2    1    2    0    0  0.00000000000E+00  0.00000000000E+00  0.27788764210E+03  0.23127940882E+04  0.22960389703E+04 0.  0.
        2    1    3    3  502    0 -0.43962464862E+03  0.15976095638E+03 -0.91711291565E+03  0.10295093467E+04  0.25500000920E-02 0.  1.
       -2    1    3    3    0  502  0.43962464862E+03 -0.15976095638E+03  0.11950005577E+04  0.12832847415E+04  0.25500000920E-02 0. -1.
</event>
<event>
 5   0  0.7348107E-06  0.2296680E+04  0.7818609E-02  0.8479231E-01
        2   -1    0    0  501    0  0.00000000000E+00  0.00000000000E+00  0.14611732466E+04  0.14611732466E+04  0.25500000920E-02 0.  1.
       -2   -1    0    0    0  501  0.00000000000E+00  0.00000000000E+00 -0.90248342469E+03  0.90248342469E+03  0.25500000920E-02 0. -1.
    10030    2    1    2    0    0  0.00000000000E+00  0.00000000000E+00  0.55868982189E+03  0.23636566713E+04  0.22966798955E+04 0.  0.
        3    1    3    3  502    0 -0.57988743157E+03  0.64252164017E+02  0.12972728478E+04  0.14224326436E+04  0.10100000352E+00 0.  1.
       -3    1    3    3    0  502  0.57988743157E+03 -0.64252164017E+02 -0.73858302589E+03  0.94122402764E+03  0.10100000352E+00 0. -1.
</event>
<event>
 5   0  0.3195296E-06  0.2295095E+04  0.7818609E-02  0.8479858E-01
       -1   -1    0    0    0  501  0.00000000000E+00  0.00000000000E+00  0.14737787157E+04  0.14737787157E+04  0.50400001928E-02 0. -1.
        1   -1    0    0  501    0  0.00000000000E+00  0.00000000000E+00 -0.89352964233E+03  0.89352964234E+03  0.50400001928E-02 0.  1.
    10030    2    1    2    0    0  0.00000000000E+00  0.00000000000E+00  0.58024907336E+03  0.23673083580E+04  0.22950947420E+04 0.  0.
        2    1    3    3  502    0 -0.72763424457E+03 -0.88720597565E+03  0.30735127628E+03  0.11878766115E+04  0.25500000920E-02 0.  1.
       -2    1    3    3    0  502  0.72763424457E+03  0.88720597565E+03  0.27289779708E+03  0.11794317465E+04  0.25500000920E-02 0. -1.
</event>
<event>
 5   0  0.7003852E-06  0.2322145E+04  0.7818609E-02  0.8469240E-01
       -2   -1    0    0    0  501  0.00000000000E+00  0.00000000000E+00  0.11987047071E+04  0.11987047071E+04  0.25500000920E-02 0. -1.
        2   -1    0    0  501    0  0.00000000000E+00  0.00000000000E+00 -0.11246218594E+04  0.11246218594E+04  0.25500000920E-02 0.  1.
    10030    2    1    2    0    0  0.00000000000E+00  0.00000000000E+00  0.74082847765E+02  0.23233265665E+04  0.23221451432E+04 0.  0.
        2    1    3    3  502    0  0.99509287370E+02 -0.55917605308E+03 -0.97614824719E+03  0.11293561693E+04  0.25500000920E-02 0.  1.
       -2    1    3    3    0  502 -0.99509287370E+02  0.55917605308E+03  0.10502310950E+04  0.11939703972E+04  0.25500000920E-02 0. -1.
</event>
<event>
 5   0  0.3226427E-06  0.2302524E+04  0.7818609E-02  0.8476927E-01
       -1   -1    0    0    0  501  0.00000000000E+00  0.00000000000E+00  0.10146825872E+04  0.10146825873E+04  0.50400001928E-02 0. -1.
        1   -1    0    0  501    0  0.00000000000E+00  0.00000000000E+00 -0.13062254496E+04  0.13062254496E+04  0.50400001928E-02 0.  1.
    10030    2    1    2    0    0  0.00000000000E+00  0.00000000000E+00 -0.29154286234E+03  0.23209080369E+04  0.23025240227E+04 0.  0.
        4    1    3    3  502    0  0.15204962024E+03 -0.43386849803E+03  0.91813755087E+03  0.10268101752E+04  0.12699999809E+01 0. -1.
       -4    1    3    3    0  502 -0.15204962024E+03  0.43386849803E+03 -0.12096804132E+04  0.12940978617E+04  0.12699999809E+01 0.  1.
</event>
<event>
 5   0  0.3226427E-06  0.2303256E+04  0.7818609E-02  0.8476638E-01
        1   -1    0    0  501    0  0.00000000000E+00  0.00000000000E+00  0.14627848253E+04  0.14627848253E+04  0.50400001928E-02 0.  1.
       -1   -1    0    0    0  501  0.00000000000E+00  0.00000000000E+00 -0.90665934345E+03  0.90665934346E+03  0.50400001928E-02 0. -1.
    10030    2    1    2    0    0  0.00000000000E+00  0.00000000000E+00  0.55612548186E+03  0.23694441688E+04  0.23032564159E+04 0.  0.
        4    1    3    3  502    0 -0.44928769409E+03 -0.24662174265E+03 -0.78286558665E+03  0.93571462299E+03  0.12699999809E+01 0. -1.
       -4    1    3    3    0  502  0.44928769409E+03  0.24662174265E+03  0.13389910685E+04  0.14337295458E+04  0.12699999809E+01 0.  1.
</event>
<event>
 5   0  0.7044981E-06  0.2304518E+04  0.7818609E-02  0.8476142E-01
       -2   -1    0    0    0  501  0.00000000000E+00  0.00000000000E+00  0.61605396692E+03  0.61605396692E+03  0.25500000920E-02 0. -1.
        2   -1    0    0  501    0  0.00000000000E+00  0.00000000000E+00 -0.21551700351E+04  0.21551700351E+04  0.25500000920E-02 0.  1.
    10030    2    1    2    0    0  0.00000000000E+00  0.00000000000E+00 -0.15391160682E+04  0.27712240020E+04  0.23045182139E+04 0.  0.
        4    1    3    3  502    0 -0.65434295564E+03  0.18995150271E+02  0.37072677120E+03  0.75230676663E+03  0.12699999809E+01 0. -1.
       -4    1    3    3    0  502  0.65434295564E+03 -0.18995150271E+02 -0.19098428394E+04  0.20189172354E+04  0.12699999809E+01 0.  1.
</event>
<event>
 5   0  0.3238713E-06  0.2306980E+04  0.7818609E-02  0.8475174E-01
       -1   -1    0    0    0  501  0.00000000000E+00  0.00000000000E+00  0.67310627788E+03  0.67310627790E+03  0.50400001928E-02 0. -1.
        1   -1    0    0  501    0  0.00000000000E+00  0.00000000000E+00 -0.19767141021E+04  0.19767141021E+04  0.50400001928E-02 0.  1.
    10030    2    1    2    0    0  0.00000000000E+00  0.00000000000E+00 -0.13036078242E+04  0.26498203800E+04  0.23069795593E+04 0.  0.
        3    1    3    3  502    0  0.54857861487E+03 -0.12753006784E+03  0.50444005082E+03  0.75608345437E+03  0.10100000352E+00 0. -1.
       -3    1    3    3    0  502 -0.54857861487E+03  0.12753006784E+03 -0.18080478750E+04  0.18937369256E+04  0.10100000352E+00 0.  1.
</event>
<event>
 5   0  0.3195296E-06  0.2296796E+04  0.7818609E-02  0.8479186E-01
       -1   -1    0    0    0  501  0.00000000000E+00  0.00000000000E+00  0.13541083991E+04  0.13541083991E+04  0.50400001928E-02 0.  1.
        1   -1    0    0  501    0  0.00000000000E+00  0.00000000000E+00 -0.97393783920E+03  0.97393783921E+03  0.50400001928E-02 0. -1.
    10030    2    1    2    0    0  0.00000000000E+00  0.00000000000E+00  0.38017055987E+03  0.23280462383E+04  0.22967955140E+04 0.  0.
        2    1    3    3  502    0  0.10266033051E+04  0.44632992382E+03 -0.69707871896E+02  0.11215988295E+04  0.25500000920E-02 0. -1.
       -2    1    3    3    0  502 -0.10266033051E+04 -0.44632992382E+03  0.44987843176E+03  0.12064474088E+04  0.25500000920E-02 0.  1.
</event>
<event>
 5   0  0.7242214E-06  0.2305713E+04  0.7818609E-02  0.8475672E-01
       -2   -1    0    0    0  501  0.00000000000E+00  0.00000000000E+00  0.90802903380E+03  0.90802903381E+03  0.25500000920E-02 0. -1.
        2   -1    0    0  501    0  0.00000000000E+00  0.00000000000E+00 -0.14636952327E+04  0.14636952327E+04  0.25500000920E-02 0.  1.
    10030    2    1    2    0    0  0.00000000000E+00  0.00000000000E+00 -0.55566619887E+03  0.23717242665E+04  0.23057127036E+04 0.  0.
        1    1    3    3  502    0 -0.63314302417E+03 -0.39001092312E+03 -0.11840196477E+04  0.13981706388E+04  0.50400001928E-02 0.  1.
       -1    1    3    3    0  502  0.63314302417E+03  0.39001092312E+03  0.62835344881E+03  0.97355362763E+03  0.50400001928E-02 0. -1.
</event>
<event>
 5   0  0.7348107E-06  0.2299508E+04  0.7818609E-02  0.8478115E-01
        2   -1    0    0  501    0  0.00000000000E+00  0.00000000000E+00  0.21615203543E+04  0.21615203543E+04  0.25500000920E-02 0.  1.
       -2   -1    0    0    0  501  0.00000000000E+00  0.00000000000E+00 -0.61157619487E+03  0.61157619488E+03  0.25500000920E-02 0. -1.
    10030    2    1    2    0    0  0.00000000000E+00  0.00000000000E+00  0.15499441595E+04  0.27730965492E+04  0.22995081156E+04 0.  0.
        3    1    3    3  502    0  0.32173040787E+03  0.75559902566E+03  0.17453656973E+04  0.19289224377E+04  0.10100000352E+00 0.  1.
       -3    1    3    3    0  502 -0.32173040787E+03 -0.75559902566E+03 -0.19542153787E+03  0.84417411154E+03  0.10100000352E+00 0. -1.
</event>
<event>
 5   0  0.7003852E-06  0.2281288E+04  0.7818609E-02  0.8485336E-01
        2   -1    0    0  501    0  0.00000000000E+00  0.00000000000E+00  0.11171235400E+04  0.11171235400E+04  0.25500000920E-02 0.  1.
       -2   -1    0    0    0  501  0.00000000000E+00  0.00000000000E+00 -0.11646595788E+04  0.11646595788E+04  0.25500000920E-02 0. -1.
    10030    2    1    2    0    0  0.00000000000E+00  0.00000000000E+00 -0.47536038795E+02  0.22817831187E+04  0.22812879095E+04 0.  0.
        2    1    3    3  502    0 -0.63781092233E+03 -0.55975601312E+03  0.73859102068E+03  0.11250094501E+04  0.25500000920E-02 0.  1.
       -2    1    3    3    0  502  0.63781092233E+03  0.55975601312E+03 -0.78612705948E+03  0.11567736687E+04  0.25500000920E-02 0. -1.
</event>
<event>
 5   0  0.3184492E-06  0.2301822E+04  0.7818609E-02  0.8477203E-01
        1   -1    0    0  501    0  0.00000000000E+00  0.00000000000E+00  0.14732677972E+04  0.14732677972E+04  0.50400001928E-02 0.  1.
       -1   -1    0    0    0  501  0.00000000000E+00  0.00000000000E+00 -0.89908713874E+03  0.89908713876E+03  0.50400001928E-02 0. -1.
    10030    2    1    2    0    0  0.00000000000E+00  0.00000000000E+00  0.57418065844E+03  0.23723549359E+04  0.23018219987E+04 0.  0.
        1    1    3    3  502    0 -0.87802772897E+02  0.11307278677E+04  0.48889968395E+03  0.12350213515E+04  0.50400001928E-02 0. -1.
       -1    1    3    3    0  502  0.87802772897E+02 -0.11307278677E+04  0.85280974496E+02  0.11373335844E+04  0.50400001928E-02 0.  1.
</event>
<event>
 5   0  0.7044981E-06  0.2289539E+04  0.7818609E-02  0.8482057E-01
       -2   -1    0    0    0  501  0.00000000000E+00  0.00000000000E+00  0.89024603247E+03  0.89024603248E+03  0.25500000920E-02 0. -1.
        2   -1    0    0  501    0  0.00000000000E+00  0.00000000000E+00 -0.14720622861E+04  0.14720622861E+04  0.25500000920E-02 0.  1.
    10030    2    1    2    0    0  0.00000000000E+00  0.00000000000E+00 -0.58181625359E+03  0.23623083185E+04  0.22895393508E+04 0.  0.
        4    1    3    3  502    0 -0.16597779095E+03 -0.10120192699E+04  0.23394852189E+03  0.10518864737E+04  0.12699999809E+01 0. -1.
       -4    1    3    3    0  502  0.16597779095E+03  0.10120192699E+04 -0.81576477547E+03  0.13104218449E+04  0.12699999809E+01 0.  1.
</event>
<event>
 5   0  0.3238713E-06  0.2300548E+04  0.7818609E-02  0.8477705E-01
       -1   -1    0    0    0  501  0.00000000000E+00  0.00000000000E+00  0.11814252544E+04  0.11814252545E+04  0.50400001928E-02 0. -1.
        1   -1    0    0  501    0  0.00000000000E+00  0.00000000000E+00 -0.11199437031E+04  0.11199437032E+04  0.50400001928E-02 0.  1.
    10030    2    1    2    0    0  0.00000000000E+00  0.00000000000E+00  0.61481551292E+02  0.23013689576E+04  0.23005475648E+04 0.  0.
        3    1    3    3  502    0  0.11112157627E+04 -0.29282871761E+03 -0.20077313255E+02  0.11493268630E+04  0.10100000352E+00 0.  1.
       -3    1    3    3    0  502 -0.11112157627E+04  0.29282871761E+03  0.81558864548E+02  0.11520420946E+04  0.10100000352E+00 0. -1.
</event>
<event>
 5   0  0.7348107E-06  0.2308870E+04  0.7818609E-02  0.8474432E-01
       -2   -1    0    0    0  501  0.00000000000E+00  0.00000000000E+00  0.99763663949E+03  0.99763663949E+03  0.25500000920E-02 0. -1.
        2   -1    0    0  501    0  0.00000000000E+00  0.00000000000E+00 -0.13358769388E+04  0.13358769388E+04  0.25500000920E-02 0.  1.
    10030    2    1    2    0    0  0.00000000000E+00  0.00000000000E+00 -0.33824029930E+03  0.23335135783E+04  0.23088696628E+04 0.  0.
        3    1    3    3  502    0 -0.58890171164E+03 -0.22496980208E+03  0.80831310167E+03  0.10250788840E+04  0.10100000352E+00 0. -1.
       -3    1    3    3    0  502  0.58890171164E+03  0.22496980208E+03 -0.11465534010E+04  0.13084346943E+04  0.10100000352E+00 0.  1.
</event>
<event>
 5   0  0.7348107E-06  0.2311190E+04  0.7818609E-02  0.8473522E-01
        2   -1    0    0  501    0  0.00000000000E+00  0.00000000000E+00  0.19649522456E+04  0.19649522456E+04  0.25500000920E-02 0. -1.
       -2   -1    0    0    0  501  0.00000000000E+00  0.00000000000E+00 -0.67960937426E+03  0.67960937426E+03  0.25500000920E-02 0.  1.
    10030    2    1    2    0    0  0.00000000000E+00  0.00000000000E+00  0.12853428713E+04  0.26445616199E+04  0.23111901402E+04 0.  0.
        3    1    3    3  502    0 -0.22517060494E+03 -0.11297048280E+04  0.74794892004E+03  0.13734490879E+04  0.10100000352E+00 0.  1.
       -3    1    3    3    0  502  0.22517060494E+03  0.11297048280E+04  0.53739395129E+03  0.12711125320E+04  0.10100000352E+00 0. -1.
</event>
<event>
 5   0  0.3184492E-06  0.2301197E+04  0.7818609E-02  0.8477449E-01
        1   -1    0    0  501    0  0.00000000000E+00  0.00000000000E+00  0.10540047920E+04  0.10540047920E+04  0.50400001928E-02 0.  1.
       -1   -1    0    0    0  501  0.00000000000E+00  0.00000000000E+00 -0.12560439744E+04  0.12560439744E+04  0.50400001928E-02 0. -1.
    10030    2    1    2    0    0  0.00000000000E+00  0.00000000000E+00 -0.20203918245E+03  0.23100487664E+04  0.23011965305E+04 0.  0.
        1    1    3    3  502    0 -0.10981117331E+04  0.34332796171E+03 -0.88606741258E+02  0.11539387429E+04  0.50400001928E-02 0. -1.
       -1    1    3    3    0  502  0.10981117331E+04 -0.34332796171E+03 -0.11343244119E+03  0.11561100235E+04  0.50400001928E-02 0.  1.
</event>
<event>
 5   0  0.3184492E-06  0.2303931E+04  0.7818609E-02  0.8476373E-01
       -1   -1    0    0    0  501  0.00000000000E+00  0.00000000000E+00  0.79289862713E+03  0.79289862714E+03  0.50400001928E-02 0. -1.
        1   -1    0    0  501    0  0.00000000000E+00  0.00000000000E+00 -0.16736373540E+04  0.16736373540E+04  0.50400001928E-02 0.  1.
    10030    2    1    2    0    0  0.00000000000E+00  0.00000000000E+00 -0.88073872685E+03  0.24665359811E+04  0.23039312145E+04 0.  0.
        1    1    3    3  502    0 -0.11168790655E+04  0.26754787899E+03 -0.53626848920E+03  0.12675111861E+04  0.50400001928E-02 0.  1.
       -1    1    3    3    0  502  0.11168790655E+04 -0.26754787899E+03 -0.34447023765E+03  0.11990247950E+04  0.50400001928E-02 0. -1.
</event>
<event>
 5   0  0.7242214E-06  0.2301460E+04  0.7818609E-02  0.8477346E-01
       -2   -1    0    0    0  501  0.00000000000E+00  0.00000000000E+00  0.11496922203E+04  0.11496922203E+04  0.25500000920E-02 0.  1.
        2   -1    0    0  501    0  0.00000000000E+00  0.00000000000E+00 -0.11517683615E+04  0.11517683615E+04  0.25500000920E-02 0. -1.
    10030    2    1    2    0    0  0.00000000000E+00  0.00000000000E+00 -0.20761411583E+01  0.23014605818E+04  0.23014596454E+04 0.  0.
        1    1    3    3  502    0  0.10192375398E+04 -0.53140923456E+03  0.53167003430E+02  0.11506813927E+04  0.50400001928E-02 0.  1.
       -1    1    3    3    0  502 -0.10192375398E+04  0.53140923456E+03 -0.55243144588E+02  0.11507791892E+04  0.50400001928E-02 0. -1.
</event>
<event>
 5   0  0.3226427E-06  0.2298276E+04  0.7818609E-02  0.8478601E-01
        1   -1    0    0  501    0  0.00000000000E+00  0.00000000000E+00  0.11945434859E+04  0.11945434859E+04  0.50400001928E-02 0.  1.
       -1   -1    0    0    0  501  0.00000000000E+00  0.00000000000E+00 -0.11054580074E+04  0.11054580074E+04  0.50400001928E-02 0. -1.
    10030    2    1    2    0    0  0.00000000000E+00  0.00000000000E+00  0.89085478504E+02  0.23000014934E+04  0.22982755812E+04 0.  0.
        4    1    3    3  502    0 -0.38391759640E+03 -0.92595257218E+03  0.60686786662E+03  0.11717811686E+04  0.12699999809E+01 0. -1.
       -4    1    3    3    0  502  0.38391759640E+03  0.92595257218E+03 -0.51778238812E+03  0.11282203247E+04  0.12699999809E+01 0.  1.
</event>
<event>
 5   0  0.7497344E-06  0.2301239E+04  0.7818609E-02  0.8477433E-01
        2   -1    0    0  501    0  0.00000000000E+00  0.00000000000E+00  0.20144169610E+04  0.20144169610E+04  0.25500000920E-02 0.  1.
       -2   -1    0    0    0  501  0.00000000000E+00  0.00000000000E+00 -0.65722489189E+03  0.65722489190E+03  0.25500000920E-02 0. -1.
    10030    2    1    2    0    0  0.00000000000E+00  0.00000000000E+00  0.13571920692E+04  0.26716418529E+04  0.23012387703E+04 0.  0.
        5    1    3    3  502    0  0.29708615095E+03 -0.96452316144E+03  0.13201110418E+04  0.16617100718E+04  0.46999998093E+01 0.  1.
       -5    1    3    3    0  502 -0.29708615095E+03  0.96452316144E+03  0.37081027402E+02  0.10099317812E+04  0.46999998093E+01 0. -1.
</event>
<event>
 5   0  0.3195296E-06  0.2324138E+04  0.7818609E-02  0.8468464E-01
        1   -1    0    0  501    0  0.00000000000E+00  0.00000000000E+00  0.11473409472E+04  0.11473409472E+04  0.50400001928E-02 0. -1.
       -1   -1    0    0    0  501  0.00000000000E+00  0.00000000000E+00 -0.11769859039E+04  0.11769859039E+04  0.50400001928E-02 0.  1.
    10030    2    1    2    0    0  0.00000000000E+00  0.00000000000E+00 -0.29644956691E+02  0.23243268511E+04  0.23241377944E+04 0.  0.
        2    1    3    3  502    0  0.11296393247E+04  0.15668680045E+03  0.20828391230E+03  0.11593178794E+04  0.25500000920E-02 0. -1.
       -2    1    3    3    0  502 -0.11296393247E+04 -0.15668680045E+03 -0.23792886900E+03  0.11650089717E+04  0.25500000920E-02 0.  1.
</event>
<event>
 5   0  0.3338758E-06  0.2299370E+04  0.7818609E-02  0.8478170E-01
        1   -1    0    0  501    0  0.00000000000E+00  0.00000000000E+00  0.10744473375E+04  0.10744473375E+04  0.50400001928E-02 0. -1.
       -1   -1    0    0    0  501  0.00000000000E+00  0.00000000000E+00 -0.12301910392E+04  0.12301910392E+04  0.50400001928E-02 0.  1.
    10030    2    1    2    0    0  0.00000000000E+00  0.00000000000E+00 -0.15574370173E+03  0.23046383767E+04  0.22993699021E+04 0.  0.
        5    1    3    3  502    0  0.51181759866E+03 -0.92391913146E+03  0.37722752639E+03  0.11215643149E+04  0.46999998093E+01 0. -1.
       -5    1    3    3    0  502 -0.51181759866E+03  0.92391913146E+03 -0.53297122812E+03  0.11830740618E+04  0.46999998093E+01 0.  1.
</event>
<event>
 5   0  0.3184492E-06  0.2295780E+04  0.7818609E-02  0.8479587E-01
       -1   -1    0    0    0  501  0.00000000000E+00  0.00000000000E+00  0.73823570646E+03  0.73823570648E+03  0.50400001928E-02 0.  1.
        1   -1    0    0  501    0  0.00000000000E+00  0.00000000000E+00 -0.17848662579E+04  0.17848662579E+04  0.50400001928E-02 0. -1.
    10030    2    1    2    0    0  0.00000000000E+00  0.00000000000E+00 -0.10466305514E+04  0.25231019644E+04  0.22957804798E+04 0.  0.
        1    1    3    3  502    0 -0.66663187560E+03 -0.76573823116E+03 -0.11119811899E+04  0.15057407688E+04  0.50400001928E-02 0.  1.
       -1    1    3    3    0  502  0.66663187560E+03  0.76573823116E+03  0.65350638463E+02  0.10173611955E+04  0.50400001928E-02 0. -1.
</event>
<event>
 5   0  0.7497344E-06  0.2300273E+04  0.7818609E-02  0.8477813E-01
        2   -1    0    0  501    0  0.00000000000E+00  0.00000000000E+00  0.11022251167E+04  0.11022251167E+04  0.25500000920E-02 0.  1.
       -2   -1    0    0    0  501  0.00000000000E+00  0.00000000000E+00 -0.12001309017E+04  0.12001309017E+04  0.25500000920E-02 0. -1.
    10030    2    1    2    0    0  0.00000000000E+00  0.00000000000E+00 -0.97905784971E+02  0.23023560183E+04  0.23002733952E+04 0.  0.
        5    1    3    3  502    0 -0.70759938127E+03 -0.87208152600E+03 -0.29730908522E+03  0.11617391508E+04  0.46999998093E+01 0.  1.
       -5    1    3    3    0  502  0.70759938127E+03  0.87208152600E+03  0.19940330025E+03  0.11406168675E+04  0.46999998093E+01 0. -1.
</event>
<event>
 5   0  0.3195296E-06  0.2297265E+04  0.7818609E-02  0.8479000E-01
        1   -1    0    0  501    0  0.00000000000E+00  0.00000000000E+00  0.18479077972E+04  0.18479077972E+04  0.50400001928E-02 0.  1.
       -1   -1    0    0    0  501  0.00000000000E+00  0.00000000000E+00 -0.71397301979E+03  0.71397301981E+03  0.50400001928E-02 0. -1.
    10030    2    1    2    0    0  0.00000000000E+00  0.00000000000E+00  0.11339347774E+04  0.25618808171E+04  0.22972647303E+04 0.  0.
        2    1    3    3  502    0 -0.31821286734E+03  0.73490678387E+03 -0.35129241621E+03  0.87450201350E+03  0.25500000920E-02 0. -1.
       -2    1    3    3    0  502  0.31821286734E+03 -0.73490678387E+03  0.14852271937E+04  0.16873788036E+04  0.25500000920E-02 0.  1.
</event>
<event>
 5   0  0.3238713E-06  0.2315805E+04  0.7818609E-02  0.8471715E-01
       -1   -1    0    0    0  501  0.00000000000E+00  0.00000000000E+00  0.12365820444E+04  0.12365820444E+04  0.50400001928E-02 0. -1.
        1   -1    0    0  501    0  0.00000000000E+00  0.00000000000E+00 -0.10842294696E+04  0.10842294696E+04  0.50400001928E-02 0.  1.
    10030    2    1    2    0    0  0.00000000000E+00  0.00000000000E+00  0.15235257479E+03  0.23208115140E+04  0.23158054272E+04 0.  0.
        3    1    3    3  502    0  0.37471408371E+03  0.30272914727E+03 -0.97904007618E+03  0.10911347589E+04  0.10100000352E+00 0.  1.
       -3    1    3    3    0  502 -0.37471408371E+03 -0.30272914727E+03  0.11313926510E+04  0.12296767551E+04  0.10100000352E+00 0. -1.
</event>
<event>
 5   0  0.7348107E-06  0.2299495E+04  0.7818609E-02  0.8478120E-01
        2   -1    0    0  501    0  0.00000000000E+00  0.00000000000E+00  0.16542917142E+04  0.16542917142E+04  0.25500000920E-02 0. -1.
       -2   -1    0    0    0  501  0.00000000000E+00  0.00000000000E+00 -0.79908446030E+03  0.79908446031E+03  0.25500000920E-02 0.  1.
    10030    2    1    2    0    0  0.00000000000E+00  0.00000000000E+00  0.85520725394E+03  0.24533761746E+04  0.22994945546E+04 0.  0.
        3    1    3    3  502    0  0.20599788836E+03  0.44244567168E+03  0.15382898936E+04  0.16138553558E+04  0.10100000352E+00 0. -1.
       -3    1    3    3    0  502 -0.20599788836E+03 -0.44244567168E+03 -0.68308263965E+03  0.83952081879E+03  0.10100000352E+00 0.  1.
</event>
<event>
 5   0  0.7497344E-06  0.2298551E+04  0.7818609E-02  0.8478493E-01
        2   -1    0    0  501    0  0.00000000000E+00  0.00000000000E+00  0.19492300232E+04  0.19492300232E+04  0.25500000920E-02 0.  1.
       -2   -1    0    0    0  501  0.00000000000E+00  0.00000000000E+00 -0.67761818532E+03  0.67761818533E+03  0.25500000920E-02 0. -1.
    10030    2    1    2    0    0  0.00000000000E+00  0.00000000000E+00  0.12716118379E+04  0.26268482086E+04  0.22985505965E+04 0.  0.
        5    1    3    3  502    0  0.66097160060E+03 -0.92700495064E+03  0.45659682294E+03  0.12266720768E+04  0.46999998093E+01 0. -1.
       -5    1    3    3    0  502 -0.66097160060E+03  0.92700495064E+03  0.81501501497E+03  0.14001761318E+04  0.46999998093E+01 0.  1.
</event>
<event>
 5   0  0.7242214E-06  0.2296452E+04  0.7818609E-02  0.8479321E-01
        2   -1    0    0  501    0  0.00000000000E+00  0.00000000000E+00  0.15837197787E+04  0.15837197787E+04  0.25500000920E-02 0. -1.
       -2   -1    0    0    0  501  0.00000000000E+00  0.00000000000E+00 -0.83248523879E+03  0.83248523880E+03  0.25500000920E-02 0.  1.
    10030    2    1    2    0    0  0.00000000000E+00  0.00000000000E+00  0.75123453995E+03  0.24162050175E+04  0.22964523406E+04 0.  0.
        1    1    3    3  502    0 -0.21417778469E+03 -0.11266056645E+04  0.31507637906E+03  0.11892794337E+04  0.50400001928E-02 0.  1.
       -1    1    3    3    0  502  0.21417778469E+03  0.11266056645E+04  0.43615816089E+03  0.12269255838E+04  0.50400001928E-02 0. -1.
</event>
<event>
 5   0  0.3226427E-06  0.2298813E+04  0.7818609E-02  0.8478389E-01
       -1   -1    0    0    0  501  0.00000000000E+00  0.00000000000E+00  0.20825587495E+04  0.20825587495E+04  0.50400001928E-02 0.  1.
        1   -1    0    0  501    0  0.00000000000E+00  0.00000000000E+00 -0.63438060866E+03  0.63438060868E+03  0.50400001928E-02 0. -1.
    10030    2    1    2    0    0  0.00000000000E+00  0.00000000000E+00  0.14481781409E+04  0.27169393582E+04  0.22988126389E+04 0.  0.
        4    1    3    3  502    0 -0.10168236200E+03 -0.10311622440E+04  0.13120690854E+04  0.16718737315E+04  0.12699999809E+01 0.  1.
       -4    1    3    3    0  502  0.10168236200E+03  0.10311622440E+04  0.13610905544E+03  0.10450656267E+04  0.12699999809E+01 0. -1.
</event>
<event>
 5   0  0.3338758E-06  0.2301672E+04  0.7818609E-02  0.8477262E-01
        1   -1    0    0  501    0  0.00000000000E+00  0.00000000000E+00  0.20359417294E+04  0.20359417294E+04  0.50400001928E-02 0.  1.
       -1   -1    0    0    0  501  0.00000000000E+00  0.00000000000E+00 -0.65052129159E+03  0.65052129161E+03  0.50400001928E-02 0. -1.
    10030    2    1    2    0    0  0.00000000000E+00  0.00000000000E+00  0.13854204378E+04  0.26864630210E+04  0.23016719518E+04 0.  0.
        5    1    3    3  502    0  0.23905091972E+03 -0.96954349653E+03  0.25025286800E+02  0.99890354332E+03  0.46999998093E+01 0. -1.
       -5    1    3    3    0  502 -0.23905091972E+03  0.96954349653E+03  0.13603951510E+04  0.16875594777E+04  0.46999998093E+01 0.  1.
</event>
<event>
 5   0  0.3184492E-06  0.2306619E+04  0.7818609E-02  0.8475316E-01
        1   -1    0    0  501    0  0.00000000000E+00  0.00000000000E+00  0.19704026789E+04  0.19704026789E+04  0.50400001928E-02 0.  1.
       -1   -1    0    0    0  501  0.00000000000E+00  0.00000000000E+00 -0.67505141516E+03  0.67505141518E+03  0.50400001928E-02 0. -1.
    10030    2    1    2    0    0  0.00000000000E+00  0.00000000000E+00  0.12953512638E+04  0.26454540941E+04  0.23066192723E+04 0.  0.
        1    1    3    3  502    0  0.87801929304E+03  0.74322645135E+03  0.55296334809E+03  0.12763510102E+04  0.50400001928E-02 0.  1.
       -1    1    3    3    0  502 -0.87801929304E+03 -0.74322645135E+03  0.74238791568E+03  0.13691030839E+04  0.50400001928E-02 0. -1.
</event>
<event>
 5   0  0.7003852E-06  0.2299314E+04  0.7818609E-02  0.8478192E-01
       -2   -1    0    0    0  501  0.00000000000E+00  0.00000000000E+00  0.77504755011E+03  0.77504755011E+03  0.25500000920E-02 0.  1.
        2   -1    0    0  501    0  0.00000000000E+00  0.00000000000E+00 -0.17053296427E+04  0.17053296428E+04  0.25500000920E-02 0. -1.
    10030    2    1    2    0    0  0.00000000000E+00  0.00000000000E+00 -0.93028209264E+03  0.24803771929E+04  0.22993142993E+04 0.  0.
        2    1    3    3  502    0 -0.30686039230E+03  0.41590805847E+02  0.72921130502E+03  0.79223874108E+03  0.25500000920E-02 0.  1.
       -2    1    3    3    0  502  0.30686039230E+03 -0.41590805847E+02 -0.16594933977E+04  0.16881384518E+04  0.25500000920E-02 0. -1.
</event>
<event>
 5   0  0.3238713E-06  0.2300403E+04  0.7818609E-02  0.8477762E-01
       -1   -1    0    0    0  501  0.00000000000E+00  0.00000000000E+00  0.14201341563E+04  0.14201341563E+04  0.50400001928E-02 0.  1.
        1   -1    0    0  501    0  0.00000000000E+00  0.00000000000E+00 -0.93157617153E+03  0.93157617154E+03  0.50400001928E-02 0. -1.
    10030    2    1    2    0    0  0.00000000000E+00  0.00000000000E+00  0.48855798477E+03  0.23517103278E+04  0.23004026955E+04 0.  0.
        3    1    3    3  502    0 -0.42400897425E+03 -0.55975556690E+02  0.13358228627E+04  0.14026188377E+04  0.10100000352E+00 0.  1.
       -3    1    3    3    0  502  0.42400897425E+03  0.55975556690E+02 -0.84726487790E+03  0.94909149017E+03  0.10100000352E+00 0. -1.
</event>
<event>
 5   0  0.2519625E-06  0.2290802E+04  0.7818609E-02  0.8481557E-01
        4   -1    0    0  501    0  0.00000000000E+00  0.00000000000E+00  0.18786329809E+04  0.18786334102E+04  0.12699999809E+01 0.  1.
       -4   -1    0    0    0  501  0.00000000000E+00  0.00000000000E+00 -0.69834898651E+03  0.69835014130E+03  0.12699999809E+01 0. -1.
    10030    2    1    2    0    0  0.00000000000E+00  0.00000000000E+00  0.11802839944E+04  0.25769835515E+04  0.22908020249E+04 0.  0.
        5    1    3    3  502    0  0.35723945942E+03 -0.77315793183E+03  0.14516682699E+04  0.16830793430E+04  0.46999998093E+01 0.  1.
       -5    1    3    3    0  502 -0.35723945942E+03  0.77315793183E+03 -0.27138427554E+03  0.89390420848E+03  0.46999998093E+01 0. -1.
</event>
<event>
 5   0  0.3226427E-06  0.2302537E+04  0.7818609E-02  0.8476922E-01
       -1   -1    0    0    0  501  0.00000000000E+00  0.00000000000E+00  0.10049510412E+04  0.10049510412E+04  0.50400001928E-02 0.  1.
        1   -1    0    0  501    0  0.00000000000E+00  0.00000000000E+00 -0.13188888932E+04  0.13188888932E+04  0.50400001928E-02 0. -1.
    10030    2    1    2    0    0  0.00000000000E+00  0.00000000000E+00 -0.31393785198E+03  0.23238399344E+04  0.23025366589E+04 0.  0.
        4    1    3    3  502    0 -0.86305302792E+03 -0.70976574919E+03  0.12270356149E+03  0.11241377694E+04  0.12699999809E+01 0. -1.
       -4    1    3    3    0  502  0.86305302792E+03  0.70976574919E+03 -0.43664141347E+03  0.11997021649E+04  0.12699999809E+01 0.  1.
</event>
<event>
 5   0  0.7242214E-06  0.2301199E+04  0.7818609E-02  0.8477449E-01
        2   -1    0    0  501    0  0.00000000000E+00  0.00000000000E+00  0.18309582766E+04  0.18309582766E+04  0.25500000920E-02 0. -1.
       -2   -1    0    0    0  501  0.00000000000E+00  0.00000000000E+00 -0.72305247739E+03  0.72305247740E+03  0.25500000920E-02 0.  1.
    10030    2    1    2    0    0  0.00000000000E+00  0.00000000000E+00  0.11079057992E+04  0.25540107540E+04  0.23011987466E+04 0.  0.
        1    1    3    3  502    0  0.26421917679E+03 -0.91296228540E+03  0.12737103916E+04  0.15892293949E+04  0.50400001928E-02 0. -1.
       -1    1    3    3    0  502 -0.26421917679E+03  0.91296228540E+03 -0.16580459240E+03  0.96478135908E+03  0.50400001928E-02 0.  1.
</event>
<event>
 5   0  0.7348107E-06  0.2300212E+04  0.7818609E-02  0.8477838E-01
        2   -1    0    0  501    0  0.00000000000E+00  0.00000000000E+00  0.23116959512E+04  0.23116959512E+04  0.25500000920E-02 0. -1.
       -2   -1    0    0    0  501  0.00000000000E+00  0.00000000000E+00 -0.57219627763E+03  0.57219627764E+03  0.25500000920E-02 0.  1.
    10030    2    1    2    0    0  0.00000000000E+00  0.00000000000E+00  0.17394996735E+04  0.28838922288E+04  0.23002120061E+04 0.  0.
        3    1    3    3  502    0  0.69043831483E+03 -0.12975895745E+03  0.20114213433E+04  0.21305769838E+04  0.10100000352E+00 0. -1.
       -3    1    3    3    0  502 -0.69043831483E+03  0.12975895745E+03 -0.27192166975E+03  0.75331524497E+03  0.10100000352E+00 0.  1.
</event>
<event>
 5   0  0.3195296E-06  0.2302153E+04  0.7818609E-02  0.8477073E-01
       -1   -1    0    0    0  501  0.00000000000E+00  0.00000000000E+00  0.65488660615E+03  0.65488660617E+03  0.50400001928E-02 0.  1.
        1   -1    0    0  501    0  0.00000000000E+00  0.00000000000E+00 -0.20232153113E+04  0.20232153113E+04  0.50400001928E-02 0. -1.
    10030    2    1    2    0    0  0.00000000000E+00  0.00000000000E+00 -0.13683287051E+04  0.26781019174E+04  0.23021525655E+04 0.  0.
        2    1    3    3  502    0  0.16554875663E+03 -0.26657772514E+03 -0.19724967626E+04  0.19973015678E+04  0.25500000920E-02 0. -1.
       -2    1    3    3    0  502 -0.16554875663E+03  0.26657772514E+03  0.60416805748E+03  0.68080034962E+03  0.25500000920E-02 0.  1.
</event>
<event>
 5   0  0.3338758E-06  0.2302405E+04  0.7818609E-02  0.8476973E-01
       -1   -1    0    0    0  501  0.00000000000E+00  0.00000000000E+00  0.82574413369E+03  0.82574413370E+03  0.50400001928E-02 0. -1.
        1   -1    0    0  501    0  0.00000000000E+00  0.00000000000E+00 -0.16049367435E+04  0.16049367435E+04  0.50400001928E-02 0.  1.
    10030    2    1    2    0    0  0.00000000000E+00  0.00000000000E+00 -0.77919260985E+03  0.24306808773E+04  0.23024049174E+04 0.  0.
        5    1    3    3  502    0  0.49583789560E+03 -0.76376422430E+03  0.35395462134E+03  0.97698360939E+03  0.46999998093E+01 0. -1.
       -5    1    3    3    0  502 -0.49583789560E+03  0.76376422430E+03 -0.11331472312E+04  0.14536972679E+04  0.46999998093E+01 0.  1.
</event>
<event>
 5   0  0.7497344E-06  0.2302634E+04  0.7818609E-02  0.8476883E-01
       -2   -1    0    0    0  501  0.00000000000E+00  0.00000000000E+00  0.93728639113E+03  0.93728639113E+03  0.25500000920E-02 0. -1.
        2   -1    0    0  501    0  0.00000000000E+00  0.00000000000E+00 -0.14142214330E+04  0.14142214330E+04  0.25500000920E-02 0.  1.
    10030    2    1    2    0    0  0.00000000000E+00  0.00000000000E+00 -0.47693504190E+03  0.23515078242E+04  0.23026337123E+04 0.  0.
        5    1    3    3  502    0 -0.46223660089E+03  0.27259413876E+03  0.80174867545E+03  0.96477627887E+03  0.46999998093E+01 0. -1.
       -5    1    3    3    0  502  0.46223660089E+03 -0.27259413876E+03 -0.12786837174E+04  0.13867315453E+04  0.46999998093E+01 0.  1.
</event>
<event>
 5   0  0.7242214E-06  0.2285336E+04  0.7818609E-02  0.8483725E-01
        2   -1    0    0  501    0  0.00000000000E+00  0.00000000000E+00  0.78587415959E+03  0.78587415960E+03  0.25500000920E-02 0. -1.
       -2   -1    0    0    0  501  0.00000000000E+00  0.00000000000E+00 -0.16614492319E+04  0.16614492319E+04  0.25500000920E-02 0.  1.
    10030    2    1    2    0    0  0.00000000000E+00  0.00000000000E+00 -0.87557507226E+03  0.24473233915E+04  0.22853358780E+04 0.  0.
        1    1    3    3  502    0  0.12024675701E+03  0.87216218642E+03  0.34224039511E+03  0.94459231951E+03  0.50400001928E-02 0. -1.
       -1    1    3    3    0  502 -0.12024675701E+03 -0.87216218642E+03 -0.12178154674E+04  0.15027310719E+04  0.50400001928E-02 0.  1.
</event>
<event>
 5   0  0.2519625E-06  0.2297413E+04  0.7818609E-02  0.8478942E-01
       -3   -1    0    0    0  501  0.00000000000E+00  0.00000000000E+00  0.16886665928E+04  0.16886665958E+04  0.10100000352E+00 0.  1.
        3   -1    0    0  501    0  0.00000000000E+00  0.00000000000E+00 -0.78140145983E+03  0.78140146636E+03  0.10100000352E+00 0. -1.
    10030    2    1    2    0    0  0.00000000000E+00  0.00000000000E+00  0.90726513295E+03  0.24700680622E+04  0.22974129386E+04 0.  0.
        4    1    3    3  502    0 -0.26130534102E+03 -0.10642581615E+04  0.83369481499E+02  0.10990350308E+04  0.12699999809E+01 0. -1.
       -4    1    3    3    0  502  0.26130534102E+03  0.10642581615E+04  0.82389565145E+03  0.13710330313E+04  0.12699999809E+01 0.  1.
</event>
<event>
 5   0  0.3226427E-06  0.2301041E+04  0.7818609E-02  0.8477511E-01
        1   -1    0    0  501    0  0.00000000000E+00  0.00000000000E+00  0.19787177769E+04  0.19787177769E+04  0.50400001928E-02 0.  1.
       -1   -1    0    0    0  501  0.00000000000E+00  0.00000000000E+00 -0.66896734953E+03  0.66896734955E+03  0.50400001928E-02 0. -1.
    10030    2    1    2    0    0  0.00000000000E+00  0.00000000000E+00  0.13097504274E+04  0.26476851265E+04  0.23010411441E+04 0.  0.
        4    1    3    3  502    0  0.29431282248E+03  0.75162944191E+03 -0.28846490977E+03  0.85719336937E+03  0.12699999809E+01 0. -1.
       -4    1    3    3    0  502 -0.29431282248E+03 -0.75162944191E+03  0.15982153372E+04  0.17904917571E+04  0.12699999809E+01 0.  1.
</event>
<event>
 5   0  0.7044981E-06  0.2300409E+04  0.7818609E-02  0.8477760E-01
       -2   -1    0    0    0  501  0.00000000000E+00  0.00000000000E+00  0.13733376969E+04  0.13733376969E+04  0.25500000920E-02 0.  1.
        2   -1    0    0  501    0  0.00000000000E+00  0.00000000000E+00 -0.96332519493E+03  0.96332519493E+03  0.25500000920E-02 0. -1.
    10030    2    1    2    0    0  0.00000000000E+00  0.00000000000E+00  0.41001250199E+03  0.23366628918E+04  0.23004093589E+04 0.  0.
        4    1    3    3  502    0 -0.73419089233E+03 -0.21193638131E+02  0.11041019785E+04  0.13260951054E+04  0.12699999809E+01 0.  1.
       -4    1    3    3    0  502  0.73419089233E+03  0.21193638131E+02 -0.69408947653E+03  0.10105677865E+04  0.12699999809E+01 0. -1.
</event>
<event>
 5   0  0.7242214E-06  0.2293230E+04  0.7818609E-02  0.8480595E-01
        2   -1    0    0  501    0  0.00000000000E+00  0.00000000000E+00  0.19630623699E+04  0.19630623699E+04  0.25500000920E-02 0.  1.
       -2   -1    0    0    0  501  0.00000000000E+00  0.00000000000E+00 -0.66973194167E+03  0.66973194167E+03  0.25500000920E-02 0. -1.
    10030    2    1    2    0    0  0.00000000000E+00  0.00000000000E+00  0.12933304283E+04  0.26327943116E+04  0.22932296637E+04 0.  0.
        1    1    3    3  502    0 -0.88449770449E+03 -0.38808545821E+03  0.13560394850E+04  0.16648692432E+04  0.50400001928E-02 0. -1.
       -1    1    3    3    0  502  0.88449770449E+03  0.38808545821E+03 -0.62709056769E+02  0.96792506836E+03  0.50400001928E-02 0.  1.
</event>
<event>
 5   0  0.7497344E-06  0.2327035E+04  0.7818609E-02  0.8467337E-01
       -2   -1    0    0    0  501  0.00000000000E+00  0.00000000000E+00  0.12166504988E+04  0.12166504988E+04  0.25500000920E-02 0. -1.
        2   -1    0    0  501    0  0.00000000000E+00  0.00000000000E+00 -0.11127053118E+04  0.11127053118E+04  0.25500000920E-02 0.  1.
    10030    2    1    2    0    0  0.00000000000E+00  0.00000000000E+00  0.10394518693E+03  0.23293558106E+04  0.23270354296E+04 0.  0.
        5    1    3    3  502    0  0.96790084680E+03 -0.47879783797E+03 -0.38167060196E+03  0.11453270089E+04  0.46999998093E+01 0.  1.
       -5    1    3    3    0  502 -0.96790084680E+03  0.47879783797E+03  0.48561578889E+03  0.11840288017E+04  0.46999998093E+01 0. -1.
</event>
<event>
 5   0  0.7497344E-06  0.2294579E+04  0.7818609E-02  0.8480062E-01
        2   -1    0    0  501    0  0.00000000000E+00  0.00000000000E+00  0.11535974181E+04  0.11535974181E+04  0.25500000920E-02 0.  1.
       -2   -1    0    0    0  501  0.00000000000E+00  0.00000000000E+00 -0.11410161794E+04  0.11410161794E+04  0.25500000920E-02 0. -1.
    10030    2    1    2    0    0  0.00000000000E+00  0.00000000000E+00  0.12581238753E+02  0.22946135975E+04  0.22945791062E+04 0.  0.
        5    1    3    3  502    0  0.18592068179E+03 -0.99702128351E+03 -0.53003198525E+03  0.11443661718E+04  0.46999998093E+01 0. -1.
       -5    1    3    3    0  502 -0.18592068179E+03  0.99702128351E+03  0.54261322400E+03  0.11502474258E+04  0.46999998093E+01 0.  1.
</event>
<event>
 5   0  0.7497344E-06  0.2293974E+04  0.7818609E-02  0.8480301E-01
       -2   -1    0    0    0  501  0.00000000000E+00  0.00000000000E+00  0.11568563419E+04  0.11568563419E+04  0.25500000920E-02 0.  1.
        2   -1    0    0  501    0  0.00000000000E+00  0.00000000000E+00 -0.11372023340E+04  0.11372023340E+04  0.25500000920E-02 0. -1.
    10030    2    1    2    0    0  0.00000000000E+00  0.00000000000E+00  0.19654007944E+02  0.22940586759E+04  0.22939744830E+04 0.  0.
        5    1    3    3  502    0  0.22991258398E+03  0.72834431651E+03 -0.84589850717E+03  0.11396980364E+04  0.46999998093E+01 0. -1.
       -5    1    3    3    0  502 -0.22991258398E+03 -0.72834431651E+03  0.86555251512E+03  0.11543606395E+04  0.46999998093E+01 0.  1.
</event>
<event>
 5   0  0.3338758E-06  0.2301033E+04  0.7818609E-02  0.8477514E-01
        1   -1    0    0  501    0  0.00000000000E+00  0.00000000000E+00  0.16771623207E+04  0.16771623207E+04  0.50400001928E-02 0.  1.
       -1   -1    0    0    0  501  0.00000000000E+00  0.00000000000E+00 -0.78924277670E+03  0.78924277671E+03  0.50400001928E-02 0. -1.
    10030    2    1    2    0    0  0.00000000000E+00  0.00000000000E+00  0.88791954398E+03  0.24664050974E+04  0.23010330263E+04 0.  0.
        5    1    3    3  502    0  0.67432871536E+02 -0.76088293873E+03  0.13661257415E+04  0.15651874234E+04  0.46999998093E+01 0.  1.
       -5    1    3    3    0  502 -0.67432871536E+02  0.76088293873E+03 -0.47820619755E+03  0.90121767403E+03  0.46999998093E+01 0. -1.
</event>
<event>
 5   0  0.7242214E-06  0.2299938E+04  0.7818609E-02  0.8477946E-01
        2   -1    0    0  501    0  0.00000000000E+00  0.00000000000E+00  0.11249643096E+04  0.11249643096E+04  0.25500000920E-02 0.  1.
       -2   -1    0    0    0  501  0.00000000000E+00  0.00000000000E+00 -0.11755290938E+04  0.11755290938E+04  0.25500000920E-02 0. -1.
    10030    2    1    2    0    0  0.00000000000E+00  0.00000000000E+00 -0.50564784289E+02  0.23004934034E+04  0.22999376300E+04 0.  0.
        1    1    3    3  502    0 -0.73279045503E+03 -0.20664632065E+03  0.83675167319E+03  0.11312992157E+04  0.50400001928E-02 0.  1.
       -1    1    3    3    0  502  0.73279045503E+03  0.20664632065E+03 -0.88731645748E+03  0.11691941877E+04  0.50400001928E-02 0. -1.
</event>
<event>
 5   0  0.3195296E-06  0.2300833E+04  0.7818609E-02  0.8477593E-01
       -1   -1    0    0    0  501  0.00000000000E+00  0.00000000000E+00  0.35420307909E+04  0.35420307909E+04  0.50400001928E-02 0.  1.
        1   -1    0    0  501    0  0.00000000000E+00  0.00000000000E+00 -0.37364398666E+03  0.37364398670E+03  0.50400001928E-02 0. -1.
    10030    2    1    2    0    0  0.00000000000E+00  0.00000000000E+00  0.31683868043E+04  0.39156747776E+04  0.23008333322E+04 0.  0.
        2    1    3    3  502    0  0.25554082786E+03 -0.96036457026E+03  0.25704702501E+04  0.27558879747E+04  0.25500000920E-02 0.  1.
       -2    1    3    3    0  502 -0.25554082786E+03  0.96036457026E+03  0.59791655421E+03  0.11597868030E+04  0.25500000920E-02 0. -1.
</event>
<event>
 5   0  0.3195296E-06  0.2299573E+04  0.7818609E-02  0.8478090E-01
        1   -1    0    0  501    0  0.00000000000E+00  0.00000000000E+00  0.14874683460E+04  0.14874683460E+04  0.50400001928E-02 0. -1.
       -1   -1    0    0    0  501  0.00000000000E+00  0.00000000000E+00 -0.88876424083E+03  0.88876424084E+03  0.50400001928E-02 0.  1.
    10030    2    1    2    0    0  0.00000000000E+00  0.00000000000E+00  0.59870410518E+03  0.23762325869E+04  0.22995727215E+04 0.  0.
        2    1    3    3  502    0  0.58447048961E+03 -0.63657441343E+03  0.10830381707E+04  0.13855700691E+04  0.25500000920E-02 0. -1.
       -2    1    3    3    0  502 -0.58447048961E+03  0.63657441343E+03 -0.48433406556E+03  0.99066251778E+03  0.25500000920E-02 0.  1.
</event>
<event>
 5   0  0.3238713E-06  0.2289347E+04  0.7818609E-02  0.8482133E-01
       -1   -1    0    0    0  501  0.00000000000E+00  0.00000000000E+00  0.66947002056E+03  0.66947002057E+03  0.50400001928E-02 0.  1.
        1   -1    0    0  501    0  0.00000000000E+00  0.00000000000E+00 -0.19571869535E+04  0.19571869535E+04  0.50400001928E-02 0. -1.
    10030    2    1    2    0    0  0.00000000000E+00  0.00000000000E+00 -0.12877169329E+04  0.26266569741E+04  0.22893474966E+04 0.  0.
        3    1    3    3  502    0  0.66785496979E+03 -0.50916877929E+03 -0.15362747558E+04  0.17508350127E+04  0.10100000352E+00 0. -1.
       -3    1    3    3    0  502 -0.66785496979E+03  0.50916877929E+03  0.24855782281E+03  0.87582196134E+03  0.10100000352E+00 0.  1.
</event>
<event>
 5   0  0.7242214E-06  0.2297235E+04  0.7818609E-02  0.8479012E-01
        2   -1    0    0  501    0  0.00000000000E+00  0.00000000000E+00  0.17785968141E+04  0.17785968141E+04  0.25500000920E-02 0. -1.
       -2   -1    0    0    0  501  0.00000000000E+00  0.00000000000E+00 -0.74177714386E+03  0.74177714386E+03  0.25500000920E-02 0.  1.
    10030    2    1    2    0    0  0.00000000000E+00  0.00000000000E+00  0.10368196702E+04  0.25203739579E+04  0.22972352642E+04 0.  0.
        1    1    3    3  502    0  0.38542361586E+03  0.10298532278E+04  0.15424505182E+03  0.11103785708E+04  0.50400001928E-02 0.  1.
       -1    1    3    3    0  502 -0.38542361586E+03 -0.10298532278E+04  0.88257461838E+03  0.14099953871E+04  0.50400001928E-02 0. -1.
</event>
<event>
 5   0  0.3226427E-06  0.2297437E+04  0.7818609E-02  0.8478933E-01
        1   -1    0    0  501    0  0.00000000000E+00  0.00000000000E+00  0.55176892062E+03  0.55176892064E+03  0.50400001928E-02 0.  1.
       -1   -1    0    0    0  501  0.00000000000E+00  0.00000000000E+00 -0.23914968820E+04  0.23914968820E+04  0.50400001928E-02 0. -1.
    10030    2    1    2    0    0  0.00000000000E+00  0.00000000000E+00 -0.18397279613E+04  0.29432658026E+04  0.22974365308E+04 0.  0.
        4    1    3    3  502    0 -0.15922091998E+03  0.69279448211E+03  0.23614513133E+03  0.74905382434E+03  0.12699999809E+01 0.  1.
       -4    1    3    3    0  502  0.15922091998E+03 -0.69279448211E+03 -0.20758730927E+04  0.21942119783E+04  0.12699999809E+01 0. -1.
</event>
<event>
 5   0  0.3226427E-06  0.2297297E+04  0.7818609E-02  0.8478988E-01
        1   -1    0    0  501    0  0.00000000000E+00  0.00000000000E+00  0.14579138846E+04  0.14579138846E+04  0.50400001928E-02 0. -1.
       -1   -1    0    0    0  501  0.00000000000E+00  0.00000000000E+00 -0.90498726850E+03  0.90498726852E+03  0.50400001928E-02 0.  1.
    10030    2    1    2    0    0  0.00000000000E+00  0.00000000000E+00  0.55292661610E+03  0.23629011531E+04  0.22972971111E+04 0.  0.
        4    1    3    3  502    0 -0.25904603801E+03  0.37893155648E+03  0.13594796343E+04  0.14348799473E+04  0.12699999809E+01 0. -1.
       -4    1    3    3    0  502  0.25904603801E+03 -0.37893155648E+03 -0.80655301820E+03  0.92802120578E+03  0.12699999809E+01 0.  1.
</event>
<event>
 5   0  0.3338758E-06  0.2300881E+04  0.7818609E-02  0.8477574E-01
       -1   -1    0    0    0  501  0.00000000000E+00  0.00000000000E+00  0.15098293477E+04  0.15098293477E+04  0.50400001928E-02 0. -1.
        1   -1    0    0  501    0  0.00000000000E+00  0.00000000000E+00 -0.87659782203E+03  0.87659782205E+03  0.50400001928E-02 0.  1.
    10030    2    1    2    0    0  0.00000000000E+00  0.00000000000E+00  0.63323152566E+03  0.23864271698E+04  0.23008808034E+04 0.  0.
        5    1    3    3  502    0 -0.10049130176E+04 -0.40906171718E+03 -0.80109748870E+02  0.10879436214E+04  0.46999998093E+01 0.  1.
       -5    1    3    3    0  502  0.10049130176E+04  0.40906171718E+03  0.71334127453E+03  0.12984835484E+04  0.46999998093E+01 0. -1.
</event>
<event>
 5   0  0.7003852E-06  0.2300010E+04  0.7818609E-02  0.8477917E-01
       -2   -1    0    0    0  501  0.00000000000E+00  0.00000000000E+00  0.11074025130E+04  0.11074025130E+04  0.25500000920E-02 0.  1.
        2   -1    0    0  501    0  0.00000000000E+00  0.00000000000E+00 -0.11942461778E+04  0.11942461778E+04  0.25500000920E-02 0. -1.
    10030    2    1    2    0    0  0.00000000000E+00  0.00000000000E+00 -0.86843664785E+02  0.23016486908E+04  0.23000097551E+04 0.  0.
        2    1    3    3  502    0 -0.81010405976E+03 -0.46995821677E+02 -0.85888532781E+03  0.11815926545E+04  0.25500000920E-02 0. -1.
       -2    1    3    3    0  502  0.81010405976E+03  0.46995821677E+02  0.77204166303E+03  0.11200560363E+04  0.25500000920E-02 0.  1.
</event>
<event>
 5   0  0.7044981E-06  0.2301511E+04  0.7818609E-02  0.8477326E-01
       -2   -1    0    0    0  501  0.00000000000E+00  0.00000000000E+00  0.15865106980E+04  0.15865106980E+04  0.25500000920E-02 0.  1.
        2   -1    0    0  501    0  0.00000000000E+00  0.00000000000E+00 -0.83468577958E+03  0.83468577958E+03  0.25500000920E-02 0. -1.
    10030    2    1    2    0    0  0.00000000000E+00  0.00000000000E+00  0.75182491837E+03  0.24211964775E+04  0.23015107375E+04 0.  0.
        4    1    3    3  502    0 -0.19473402897E+03  0.67085897254E+03 -0.58611733344E+03  0.91187073894E+03  0.12699999809E+01 0. -1.
       -4    1    3    3    0  502  0.19473402897E+03 -0.67085897254E+03  0.13379422518E+04  0.15093257386E+04  0.12699999809E+01 0.  1.
</event>
<event>
 5   0  0.7497344E-06  0.2302434E+04  0.7818609E-02  0.8476962E-01
        2   -1    0    0  501    0  0.00000000000E+00  0.00000000000E+00  0.15778514943E+04  0.15778514943E+04  0.25500000920E-02 0. -1.
       -2   -1    0    0    0  501  0.00000000000E+00  0.00000000000E+00 -0.83993981270E+03  0.83993981270E+03  0.25500000920E-02 0.  1.
    10030    2    1    2    0    0  0.00000000000E+00  0.00000000000E+00  0.73791168162E+03  0.24177913070E+04  0.23024337459E+04 0.  0.
        5    1    3    3  502    0 -0.60402269617E+03  0.62492236762E+03 -0.42378931197E+03  0.96694925099E+03  0.46999998093E+01 0. -1.
       -5    1    3    3    0  502  0.60402269617E+03 -0.62492236762E+03  0.11617009936E+04  0.14508420560E+04  0.46999998093E+01 0.  1.
</event>
<event>
 5   0  0.7348107E-06  0.2301463E+04  0.7818609E-02  0.8477345E-01
        2   -1    0    0  501    0  0.00000000000E+00  0.00000000000E+00  0.10031218173E+04  0.10031218173E+04  0.25500000920E-02 0. -1.
       -2   -1    0    0    0  501  0.00000000000E+00  0.00000000000E+00 -0.13200618447E+04  0.13200618447E+04  0.25500000920E-02 0.  1.
    10030    2    1    2    0    0  0.00000000000E+00  0.00000000000E+00 -0.31694002736E+03  0.23231836620E+04  0.23014628709E+04 0.  0.
        3    1    3    3  502    0 -0.11245272590E+04  0.21774110142E+03 -0.27001212984E+03  0.11768089496E+04  0.10100000352E+00 0.  1.
       -3    1    3    3    0  502  0.11245272590E+04 -0.21774110142E+03 -0.46927897522E+02  0.11463747124E+04  0.10100000352E+00 0. -1.
</event>
<event>
 5   0  0.7497344E-06  0.2300207E+04  0.7818609E-02  0.8477840E-01
       -2   -1    0    0    0  501  0.00000000000E+00  0.00000000000E+00  0.68132563847E+03  0.68132563847E+03  0.25500000920E-02 0. -1.
        2   -1    0    0  501    0  0.00000000000E+00  0.00000000000E+00 -0.19414176929E+04  0.19414176929E+04  0.25500000920E-02 0.  1.
    10030    2    1    2    0    0  0.00000000000E+00  0.00000000000E+00 -0.12600920544E+04  0.26227433314E+04  0.23002066422E+04 0.  0.
        5    1    3    3  502    0 -0.33752697362E+03 -0.17984117863E+03 -0.18667773280E+04  0.19055568713E+04  0.46999998093E+01 0.  1.
       -5    1    3    3    0  502  0.33752697362E+03  0.17984117863E+03  0.60668527353E+03  0.71718646011E+03  0.46999998093E+01 0. -1.
</event>
<event>
 5   0  0.7003852E-06  0.2295083E+04  0.7818609E-02  0.8479862E-01
        2   -1    0    0  501    0  0.00000000000E+00  0.00000000000E+00  0.16313215862E+04  0.16313215862E+04  0.25500000920E-02 0.  1.
       -2   -1    0    0    0  501  0.00000000000E+00  0.00000000000E+00 -0.80722986905E+03  0.80722986906E+03  0.25500000920E-02 0. -1.
    10030    2    1    2    0    0  0.00000000000E+00  0.00000000000E+00  0.82409171715E+03  0.24385514553E+04  0.22950830141E+04 0.  0.
        2    1    3    3  502    0 -0.32791142946E+03  0.61815663483E+03 -0.55431845294E+03  0.89269954522E+03  0.25500000920E-02 0. -1.
       -2    1    3    3    0  502  0.32791142946E+03 -0.61815663483E+03  0.13784101701E+04  0.15458519100E+04  0.25500000920E-02 0.  1.
</event>
<event>
 5   0  0.3184492E-06  0.2298273E+04  0.7818609E-02  0.8478602E-01
       -1   -1    0    0    0  501  0.00000000000E+00  0.00000000000E+00  0.61283047581E+03  0.61283047583E+03  0.50400001928E-02 0.  1.
        1   -1    0    0  501    0  0.00000000000E+00  0.00000000000E+00 -0.21547801705E+04  0.21547801705E+04  0.50400001928E-02 0. -1.
    10030    2    1    2    0    0  0.00000000000E+00  0.00000000000E+00 -0.15419496947E+04  0.27676106464E+04  0.22982732276E+04 0.  0.
        1    1    3    3  502    0 -0.12055710763E+03  0.22015685301E+03  0.57941569136E+03  0.63144722625E+03  0.50400001928E-02 0.  1.
       -1    1    3    3    0  502  0.12055710763E+03 -0.22015685301E+03 -0.21213653861E+04  0.21361634201E+04  0.50400001928E-02 0. -1.
</event>
<event>
 5   0  0.3226427E-06  0.2302700E+04  0.7818609E-02  0.8476857E-01
        1   -1    0    0  501    0  0.00000000000E+00  0.00000000000E+00  0.15468659793E+04  0.15468659793E+04  0.50400001928E-02 0.  1.
       -1   -1    0    0    0  501  0.00000000000E+00  0.00000000000E+00 -0.85696301483E+03  0.85696301485E+03  0.50400001928E-02 0. -1.
    10030    2    1    2    0    0  0.00000000000E+00  0.00000000000E+00  0.68990296447E+03  0.24038289942E+04  0.23027000961E+04 0.  0.
        4    1    3    3  502    0 -0.80555271395E+03  0.33298129956E+03  0.11301923257E+04  0.14272799399E+04  0.12699999809E+01 0.  1.
       -4    1    3    3    0  502  0.80555271395E+03 -0.33298129956E+03 -0.44028936127E+03  0.97654905425E+03  0.12699999809E+01 0. -1.
</event>
<event>
 5   0  0.7044981E-06  0.2290968E+04  0.7818609E-02  0.8481491E-01
        2   -1    0    0  501    0  0.00000000000E+00  0.00000000000E+00  0.16688258862E+04  0.16688258862E+04  0.25500000920E-02 0. -1.
       -2   -1    0    0    0  501  0.00000000000E+00  0.00000000000E+00 -0.78626164710E+03  0.78626164710E+03  0.25500000920E-02 0.  1.
    10030    2    1    2    0    0  0.00000000000E+00  0.00000000000E+00  0.88256423909E+03  0.24550875333E+04  0.22909681709E+04 0.  0.
        4    1    3    3  502    0  0.51001275184E+03 -0.22475059172E+03  0.15137264987E+04  0.16130701663E+04  0.12699999809E+01 0. -1.
       -4    1    3    3    0  502 -0.51001275184E+03  0.22475059172E+03 -0.63116225961E+03  0.84201736703E+03  0.12699999809E+01 0.  1.
</event>
<event>
 5   0  0.7044981E-06  0.2298207E+04  0.7818609E-02  0.8478629E-01
        2   -1    0    0  501    0  0.00000000000E+00  0.00000000000E+00  0.15832216091E+04  0.15832216091E+04  0.25500000920E-02 0.  1.
       -2   -1    0    0    0  501  0.00000000000E+00  0.00000000000E+00 -0.83401995083E+03  0.83401995083E+03  0.25500000920E-02 0. -1.
    10030    2    1    2    0    0  0.00000000000E+00  0.00000000000E+00  0.74920165831E+03  0.24172415600E+04  0.22982066127E+04 0.  0.
        4    1    3    3  502    0 -0.10581531903E+04  0.44374049941E+03  0.43980354002E+03  0.12288297570E+04  0.12699999809E+01 0. -1.
       -4    1    3    3    0  502  0.10581531903E+04 -0.44374049941E+03  0.30939811829E+03  0.11884118030E+04  0.12699999809E+01 0.  1.
</event>
<event>
 5   0  0.3195296E-06  0.2298463E+04  0.7818609E-02  0.8478527E-01
       -1   -1    0    0    0  501  0.00000000000E+00  0.00000000000E+00  0.11707649469E+04  0.11707649469E+04  0.50400001928E-02 0.  1.
        1   -1    0    0  501    0  0.00000000000E+00  0.00000000000E+00 -0.11280943491E+04  0.11280943491E+04  0.50400001928E-02 0. -1.
    10030    2    1    2    0    0  0.00000000000E+00  0.00000000000E+00  0.42670597847E+02  0.22988592960E+04  0.22984632437E+04 0.  0.
        2    1    3    3  502    0  0.39385471540E+03 -0.95387407453E+03  0.52712594143E+03  0.11588179516E+04  0.25500000920E-02 0.  1.
       -2    1    3    3    0  502 -0.39385471540E+03  0.95387407453E+03 -0.48445534358E+03  0.11400413444E+04  0.25500000920E-02 0. -1.
</event>
<event>
 5   0  0.3195296E-06  0.2301014E+04  0.7818609E-02  0.8477521E-01
        1   -1    0    0  501    0  0.00000000000E+00  0.00000000000E+00  0.14242553348E+04  0.14242553348E+04  0.50400001928E-02 0.  1.
       -1   -1    0    0    0  501  0.00000000000E+00  0.00000000000E+00 -0.92937445281E+03  0.92937445282E+03  0.50400001928E-02 0. -1.
    10030    2    1    2    0    0  0.00000000000E+00  0.00000000000E+00  0.49488088199E+03  0.23536297876E+04  0.23010141438E+04 0.  0.
        2    1    3    3  502    0 -0.94853082113E+03  0.29708669573E+03 -0.34520028608E+03  0.10522045718E+04  0.25500000920E-02 0. -1.
       -2    1    3    3    0  502  0.94853082113E+03 -0.29708669573E+03  0.84008116807E+03  0.13014252158E+04  0.25500000920E-02 0.  1.
</event>
<event>
 5   0  0.7003852E-06  0.2302713E+04  0.7818609E-02  0.8476852E-01
       -2   -1    0    0    0  501  0.00000000000E+00  0.00000000000E+00  0.97955237861E+03  0.97955237861E+03  0.25500000920E-02 0.  1.
        2   -1    0    0  501    0  0.00000000000E+00  0.00000000000E+00 -0.13532930169E+04  0.13532930169E+04  0.25500000920E-02 0. -1.
    10030    2    1    2    0    0  0.00000000000E+00  0.00000000000E+00 -0.37374063828E+03  0.23328453955E+04  0.23027126557E+04 0.  0.
        2    1    3    3  502    0  0.46286919651E+03  0.10303173141E+04  0.39253810018E+02  0.11301957894E+04  0.25500000920E-02 0.  1.
       -2    1    3    3    0  502 -0.46286919651E+03 -0.10303173141E+04 -0.41299444830E+03  0.12026496061E+04  0.25500000920E-02 0. -1.
</event>
<event>
 5   0  0.7348107E-06  0.2299299E+04  0.7818609E-02  0.8478198E-01
       -2   -1    0    0    0  501  0.00000000000E+00  0.00000000000E+00  0.59439812990E+03  0.59439812991E+03  0.25500000920E-02 0.  1.
        2   -1    0    0  501    0  0.00000000000E+00  0.00000000000E+00 -0.22235831031E+04  0.22235831031E+04  0.25500000920E-02 0. -1.
    10030    2    1    2    0    0  0.00000000000E+00  0.00000000000E+00 -0.16291849732E+04  0.28179812330E+04  0.22992987089E+04 0.  0.
        3    1    3    3  502    0  0.49830391881E+02 -0.31623469372E+03  0.53866761764E+03  0.62661811493E+03  0.10100000352E+00 0.  1.
       -3    1    3    3    0  502 -0.49830391881E+02  0.31623469372E+03 -0.21678525909E+04  0.21913631181E+04  0.10100000352E+00 0. -1.
</event>
<event>
 5   0  0.7003852E-06  0.2298566E+04  0.7818609E-02  0.8478487E-01
        2   -1    0    0  501    0  0.00000000000E+00  0.00000000000E+00  0.15901376220E+04  0.15901376220E+04  0.25500000920E-02 0.  1.
       -2   -1    0    0    0  501  0.00000000000E+00  0.00000000000E+00 -0.83065239058E+03  0.83065239058E+03  0.25500000920E-02 0. -1.
    10030    2    1    2    0    0  0.00000000000E+00  0.00000000000E+00  0.75948523139E+03  0.24207900126E+04  0.22985661766E+04 0.  0.
        2    1    3    3  502    0  0.82508624239E+03  0.11003234641E+03  0.12143304361E+04  0.14722339599E+04  0.25500000920E-02 0.  1.
       -2    1    3    3    0  502 -0.82508624239E+03 -0.11003234641E+03 -0.45484520476E+03  0.94855605261E+03  0.25500000920E-02 0. -1.
</event>
<event>
 5   0  0.7242214E-06  0.2307995E+04  0.7818609E-02  0.8474775E-01
       -2   -1    0    0    0  501  0.00000000000E+00  0.00000000000E+00  0.16957305084E+04  0.16957305084E+04  0.25500000920E-02 0.  1.
        2   -1    0    0  501    0  0.00000000000E+00  0.00000000000E+00 -0.78533161158E+03  0.78533161159E+03  0.25500000920E-02 0. -1.
    10030    2    1    2    0    0  0.00000000000E+00  0.00000000000E+00  0.91039889677E+03  0.24810621199E+04  0.23079954705E+04 0.  0.
        1    1    3    3  502    0 -0.26458078234E+02 -0.54736594924E+03 -0.63653374491E+03  0.83993137858E+03  0.50400001928E-02 0. -1.
       -1    1    3    3    0  502  0.26458078234E+02  0.54736594924E+03  0.15469326417E+04  0.16411307414E+04  0.50400001928E-02 0.  1.
</event>
<event>
 5   0  0.3338758E-06  0.2296822E+04  0.7818609E-02  0.8479175E-01
        1   -1    0    0  501    0  0.00000000000E+00  0.00000000000E+00  0.12740487582E+04  0.12740487582E+04  0.50400001928E-02 0.  1.
       -1   -1    0    0    0  501  0.00000000000E+00  0.00000000000E+00 -0.10351623266E+04  0.10351623266E+04  0.50400001928E-02 0. -1.
    10030    2    1    2    0    0  0.00000000000E+00  0.00000000000E+00  0.23888643157E+03  0.23092110849E+04  0.22968215227E+04 0.  0.
        5    1    3    3  502    0  0.85871358793E+01  0.43280825582E+03 -0.94998080352E+03  0.10439743015E+04  0.46999998093E+01 0. -1.
       -5    1    3    3    0  502 -0.85871358793E+01 -0.43280825582E+03  0.11888672351E+04  0.12652367833E+04  0.46999998093E+01 0.  1.
</event>
<event>
 5   0  0.7497344E-06  0.2335994E+04  0.7818609E-02  0.8463863E-01
       -2   -1    0    0    0  501  0.00000000000E+00  0.00000000000E+00  0.17676233632E+04  0.17676233632E+04  0.25500000920E-02 0. -1.
        2   -1    0    0  501    0  0.00000000000E+00  0.00000000000E+00 -0.77178049902E+03  0.77178049902E+03  0.25500000920E-02 0.  1.
    10030    2    1    2    0    0  0.00000000000E+00  0.00000000000E+00  0.99584286418E+03  0.25394038622E+04  0.23359942135E+04 0.  0.
        5    1    3    3  502    0  0.98889456203E+03 -0.38396439581E+03 -0.33362043283E+02  0.10613558442E+04  0.46999998093E+01 0.  1.
       -5    1    3    3    0  502 -0.98889456203E+03  0.38396439581E+03  0.10292049075E+04  0.14780480180E+04  0.46999998093E+01 0. -1.
</event>
<event>
 5   0  0.7044981E-06  0.2302028E+04  0.7818609E-02  0.8477122E-01
        2   -1    0    0  501    0  0.00000000000E+00  0.00000000000E+00  0.12448554533E+04  0.12448554533E+04  0.25500000920E-02 0.  1.
       -2   -1    0    0    0  501  0.00000000000E+00  0.00000000000E+00 -0.10642462943E+04  0.10642462943E+04  0.25500000920E-02 0. -1.
    10030    2    1    2    0    0  0.00000000000E+00  0.00000000000E+00  0.18060915904E+03  0.23091017476E+04  0.23020276307E+04 0.  0.
        4    1    3    3  502    0  0.35598567998E+03  0.75997514254E+03  0.88047094131E+03  0.12163546822E+04  0.12699999809E+01 0.  1.
       -4    1    3    3    0  502 -0.35598567998E+03 -0.75997514254E+03 -0.69986178226E+03  0.10927470653E+04  0.12699999809E+01 0. -1.
</event>
<event>
 5   0  0.7003852E-06  0.2300872E+04  0.7818609E-02  0.8477577E-01
        2   -1    0    0  501    0  0.00000000000E+00  0.00000000000E+00  0.22575696106E+04  0.22575696106E+04  0.25500000920E-02 0.  1.
       -2   -1    0    0    0  501  0.00000000000E+00  0.00000000000E+00 -0.58625131414E+03  0.58625131414E+03  0.25500000920E-02 0. -1.
    10030    2    1    2    0    0  0.00000000000E+00  0.00000000000E+00  0.16713182964E+04  0.28438209247E+04  0.23008721398E+04 0.  0.
        2    1    3    3  502    0  0.25781299830E+03  0.89336260732E+03 -0.16525841176E+01  0.92982096196E+03  0.25500000920E-02 0. -1.
       -2    1    3    3    0  502 -0.25781299830E+03 -0.89336260732E+03  0.16729708805E+04  0.19139999627E+04  0.25500000920E-02 0.  1.
</event>
<event>
 5   0  0.3338758E-06  0.2300368E+04  0.7818609E-02  0.8477776E-01
       -1   -1    0    0    0  501  0.00000000000E+00  0.00000000000E+00  0.14236289643E+04  0.14236289643E+04  0.50400001928E-02 0.  1.
        1   -1    0    0  501    0  0.00000000000E+00  0.00000000000E+00 -0.92926096172E+03  0.92926096174E+03  0.50400001928E-02 0. -1.
    10030    2    1    2    0    0  0.00000000000E+00  0.00000000000E+00  0.49436800259E+03  0.23528899261E+04  0.23003676407E+04 0.  0.
        5    1    3    3  502    0 -0.19626968835E+03  0.18558545417E+03  0.13907162561E+04  0.14167136430E+04  0.46999998093E+01 0.  1.
       -5    1    3    3    0  502  0.19626968835E+03 -0.18558545417E+03 -0.89634825350E+03  0.93617628304E+03  0.46999998093E+01 0. -1.
</event>
<event>
 5   0  0.3338758E-06  0.2301183E+04  0.7818609E-02  0.8477455E-01
        1   -1    0    0  501    0  0.00000000000E+00  0.00000000000E+00  0.12465460423E+04  0.12465460423E+04  0.50400001928E-02 0. -1.
       -1   -1    0    0    0  501  0.00000000000E+00  0.00000000000E+00 -0.10620232948E+04  0.10620232948E+04  0.50400001928E-02 0.  1.
    10030    2    1    2    0    0  0.00000000000E+00  0.00000000000E+00  0.18452274753E+03  0.23085693371E+04  0.23011831174E+04 0.  0.
        5    1    3    3  502    0  0.30736231898E+03 -0.78986101207E+03  0.87288932017E+03  0.12166798547E+04  0.46999998093E+01 0. -1.
       -5    1    3    3    0  502 -0.30736231898E+03  0.78986101207E+03 -0.68836657264E+03  0.10918894824E+04  0.46999998093E+01 0.  1.
</event>
<event>
 5   0  0.7242214E-06  0.2304373E+04  0.7818609E-02  0.8476199E-01
        2   -1    0    0  501    0  0.00000000000E+00  0.00000000000E+00  0.12944294753E+04  0.12944294753E+04  0.25500000920E-02 0. -1.
       -2   -1    0    0    0  501  0.00000000000E+00  0.00000000000E+00 -0.10255741824E+04  0.10255741824E+04  0.25500000920E-02 0.  1.
    10030    2    1    2    0    0  0.00000000000E+00  0.00000000000E+00  0.26885529295E+03  0.23200036577E+04  0.23043727570E+04 0.  0.
        1    1    3    3  502    0 -0.82973098724E+03  0.21391912208E+03  0.90992425042E+03  0.12498708107E+04  0.50400001928E-02 0. -1.
       -1    1    3    3    0  502  0.82973098724E+03 -0.21391912208E+03 -0.64106895747E+03  0.10701328470E+04  0.50400001928E-02 0.  1.
</event>
<event>
 5   0  0.7497344E-06  0.2302315E+04  0.7818609E-02  0.8477009E-01
        2   -1    0    0  501    0  0.00000000000E+00  0.00000000000E+00  0.56207289656E+03  0.56207289656E+03  0.25500000920E-02 0. -1.
       -2   -1    0    0    0  501  0.00000000000E+00  0.00000000000E+00 -0.23576357981E+04  0.23576357981E+04  0.25500000920E-02 0.  1.
    10030    2    1    2    0    0  0.00000000000E+00  0.00000000000E+00 -0.17955629015E+04  0.29197086946E+04  0.23023146458E+04 0.  0.
        5    1    3    3  502    0  0.10417109849E+04 -0.48140038865E+03 -0.10128491480E+04  0.15306186975E+04  0.46999998093E+01 0.  1.
       -5    1    3    3    0  502 -0.10417109849E+04  0.48140038865E+03 -0.78271375350E+03  0.13890899972E+04  0.46999998093E+01 0. -1.
</event>
<event>
 5   0  0.7497344E-06  0.2279764E+04  0.7818609E-02  0.8485943E-01
        2   -1    0    0  501    0  0.00000000000E+00  0.00000000000E+00  0.18131079135E+04  0.18131079135E+04  0.25500000920E-02 0.  1.
       -2   -1    0    0    0  501  0.00000000000E+00  0.00000000000E+00 -0.71663197468E+03  0.71663197469E+03  0.25500000920E-02 0. -1.
    10030    2    1    2    0    0  0.00000000000E+00  0.00000000000E+00  0.10964759388E+04  0.25297398882E+04  0.22797641145E+04 0.  0.
        5    1    3    3  502    0 -0.62707765905E+03 -0.68205246909E+03 -0.18856204961E+03  0.94551557239E+03  0.46999998093E+01 0. -1.
       -5    1    3    3    0  502  0.62707765905E+03  0.68205246909E+03  0.12850379885E+04  0.15842243158E+04  0.46999998093E+01 0.  1.
</event>
<event>
 5   0  0.3226427E-06  0.2296812E+04  0.7818609E-02  0.8479179E-01
       -1   -1    0    0    0  501  0.00000000000E+00  0.00000000000E+00  0.15226166737E+04  0.15226166737E+04  0.50400001928E-02 0.  1.
        1   -1    0    0  501    0  0.00000000000E+00  0.00000000000E+00 -0.86616413769E+03  0.86616413771E+03  0.50400001928E-02 0. -1.
    10030    2    1    2    0    0  0.00000000000E+00  0.00000000000E+00  0.65645253604E+03  0.23887808115E+04  0.22968116669E+04 0.  0.
        4    1    3    3  502    0 -0.57875201077E+03  0.81472434772E+03  0.91665915449E+03  0.13560955981E+04  0.12699999809E+01 0.  1.
       -4    1    3    3    0  502  0.57875201077E+03 -0.81472434772E+03 -0.26020661845E+03  0.10326852134E+04  0.12699999809E+01 0. -1.
</event>
<event>
 5   0  0.3226427E-06  0.2301801E+04  0.7818609E-02  0.8477211E-01
        1   -1    0    0  501    0  0.00000000000E+00  0.00000000000E+00  0.11857631825E+04  0.11857631825E+04  0.50400001928E-02 0.  1.
       -1   -1    0    0    0  501  0.00000000000E+00  0.00000000000E+00 -0.11170627301E+04  0.11170627301E+04  0.50400001928E-02 0. -1.
    10030    2    1    2    0    0  0.00000000000E+00  0.00000000000E+00  0.68700452427E+02  0.23028259126E+04  0.23018009105E+04 0.  0.
        4    1    3    3  502    0 -0.25001264210E+02 -0.11370548711E+04 -0.14194232272E+03  0.11461536018E+04  0.12699999809E+01 0. -1.
       -4    1    3    3    0  502  0.25001264210E+02  0.11370548711E+04  0.21064277515E+03  0.11566723108E+04  0.12699999809E+01 0.  1.
</event>
<event>
 5   0  0.3195296E-06  0.2300480E+04  0.7818609E-02  0.8477732E-01
        1   -1    0    0  501    0  0.00000000000E+00  0.00000000000E+00  0.12885318043E+04  0.12885318043E+04  0.50400001928E-02 0. -1.
       -1   -1    0    0    0  501  0.00000000000E+00  0.00000000000E+00 -0.10267903348E+04  0.10267903348E+04  0.50400001928E-02 0.  1.
    10030    2    1    2    0    0  0.00000000000E+00  0.00000000000E+00  0.26174146945E+03  0.23153221391E+04  0.23004799523E+04 0.  0.
        2    1    3    3  502    0 -0.95697595831E+03  0.57932979749E+01 -0.51138072217E+03  0.10850561230E+04  0.25500000920E-02 0.  1.
       -2    1    3    3    0  502  0.95697595831E+03 -0.57932979749E+01  0.77312219162E+03  0.12302660161E+04  0.25500000920E-02 0. -1.
</event>
<event>
 5   0  0.7242214E-06  0.2298118E+04  0.7818609E-02  0.8478663E-01
       -2   -1    0    0    0  501  0.00000000000E+00  0.00000000000E+00  0.13902321008E+04  0.13902321008E+04  0.25500000920E-02 0.  1.
        2   -1    0    0  501    0  0.00000000000E+00  0.00000000000E+00 -0.94972393491E+03  0.94972393492E+03  0.25500000920E-02 0. -1.
    10030    2    1    2    0    0  0.00000000000E+00  0.00000000000E+00  0.44050816590E+03  0.23399560357E+04  0.22981181007E+04 0.  0.
        1    1    3    3  502    0 -0.11385635594E+04  0.11140502277E+03  0.11059642838E+03  0.11493344282E+04  0.50400001928E-02 0. -1.
       -1    1    3    3    0  502  0.11385635594E+04 -0.11140502277E+03  0.32991173752E+03  0.11906216076E+04  0.50400001928E-02 0.  1.
</event>
<event>
 5   0  0.7497344E-06  0.2307818E+04  0.7818609E-02  0.8474845E-01
       -2   -1    0    0    0  501  0.00000000000E+00  0.00000000000E+00  0.69522223443E+03  0.69522223444E+03  0.25500000920E-02 0. -1.
        2   -1    0    0  501    0  0.00000000000E+00  0.00000000000E+00 -0.19152229869E+04  0.19152229869E+04  0.25500000920E-02 0.  1.
    10030    2    1    2    0    0  0.00000000000E+00  0.00000000000E+00 -0.12200007524E+04  0.26104452213E+04  0.23078176742E+04 0.  0.
        5    1    3    3  502    0  0.46319646007E+03 -0.97060908762E+03 -0.10829845333E+04  0.15262734195E+04  0.46999998093E+01 0. -1.
       -5    1    3    3    0  502 -0.46319646007E+03  0.97060908762E+03 -0.13701621912E+03  0.10841718018E+04  0.46999998093E+01 0.  1.
</event>
<event>
 5   0  0.7348107E-06  0.2300210E+04  0.7818609E-02  0.8477838E-01
        2   -1    0    0  501    0  0.00000000000E+00  0.00000000000E+00  0.18217653404E+04  0.18217653404E+04  0.25500000920E-02 0.  1.
       -2   -1    0    0    0  501  0.00000000000E+00  0.00000000000E+00 -0.72607653558E+03  0.72607653558E+03  0.25500000920E-02 0. -1.
    10030    2    1    2    0    0  0.00000000000E+00  0.00000000000E+00  0.10956888049E+04  0.25478418760E+04  0.23002096140E+04 0.  0.
        3    1    3    3  502    0 -0.32244001251E+03  0.80407499012E+03  0.13857459427E+04  0.16342570114E+04  0.10100000352E+00 0.  1.
       -3    1    3    3    0  502  0.32244001251E+03 -0.80407499012E+03 -0.29005713787E+03  0.91358486460E+03  0.10100000352E+00 0. -1.
</event>
<event>
 5   0  0.3226427E-06  0.2302653E+04  0.7818609E-02  0.8476876E-01
        1   -1    0    0  501    0  0.00000000000E+00  0.00000000000E+00  0.23922285907E+04  0.23922285908E+04  0.50400001928E-02 0.  1.
       -1   -1    0    0    0  501  0.00000000000E+00  0.00000000000E+00 -0.55410798901E+03  0.55410798903E+03  0.50400001928E-02 0. -1.
    10030    2    1    2    0    0  0.00000000000E+00  0.00000000000E+00  0.18381206017E+04  0.29463365798E+04  0.23026532294E+04 0.  0.
        4    1    3    3  502    0 -0.59879952119E+03 -0.97291986542E+03  0.73622739895E+03  0.13591049728E+04  0.12699999809E+01 0. -1.
       -4    1    3    3    0  502  0.59879952119E+03  0.97291986542E+03  0.11018932028E+04  0.15872316070E+04  0.12699999809E+01 0.  1.
</event>
<event>
 5   0  0.7242214E-06  0.2283549E+04  0.7818609E-02  0.8484436E-01
        2   -1    0    0  501    0  0.00000000000E+00  0.00000000000E+00  0.15630931336E+04  0.15630931336E+04  0.25500000920E-02 0.  1.
       -2   -1    0    0    0  501  0.00000000000E+00  0.00000000000E+00 -0.83401860440E+03  0.83401860440E+03  0.25500000920E-02 0. -1.
    10030    2    1    2    0    0  0.00000000000E+00  0.00000000000E+00  0.72907452918E+03  0.23971117380E+04  0.22835487766E+04 0.  0.
        1    1    3    3  502    0  0.59507578233E+03  0.88145576533E+03 -0.71536295813E+02  0.10659253701E+04  0.50400001928E-02 0. -1.
       -1    1    3    3    0  502 -0.59507578233E+03 -0.88145576533E+03  0.80061082499E+03  0.13311863679E+04  0.50400001928E-02 0.  1.
</event>
<event>
 5   0  0.3226427E-06  0.2301420E+04  0.7818609E-02  0.8477361E-01
        1   -1    0    0  501    0  0.00000000000E+00  0.00000000000E+00  0.16335468294E+04  0.16335468295E+04  0.50400001928E-02 0.  1.
       -1   -1    0    0    0  501  0.00000000000E+00  0.00000000000E+00 -0.81058809861E+03  0.81058809863E+03  0.50400001928E-02 0. -1.
    10030    2    1    2    0    0  0.00000000000E+00  0.00000000000E+00  0.82295873083E+03  0.24441349281E+04  0.23014200994E+04 0.  0.
        4    1    3    3  502    0  0.48137649489E+03 -0.79601122568E+03  0.11308108262E+04  0.14642718118E+04  0.12699999809E+01 0.  1.
       -4    1    3    3    0  502 -0.48137649489E+03  0.79601122568E+03 -0.30785209533E+03  0.97986311633E+03  0.12699999809E+01 0. -1.
</event>
<event>
 5   0  0.7348107E-06  0.2299927E+04  0.7818609E-02  0.8477950E-01
       -2   -1    0    0    0  501  0.00000000000E+00  0.00000000000E+00  0.85840833394E+03  0.85840833395E+03  0.25500000920E-02 0.  1.
        2   -1    0    0  501    0  0.00000000000E+00  0.00000000000E+00 -0.15405443640E+04  0.15405443640E+04  0.25500000920E-02 0. -1.
    10030    2    1    2    0    0  0.00000000000E+00  0.00000000000E+00 -0.68213603005E+03  0.23989526979E+04  0.22999270605E+04 0.  0.
        3    1    3    3  502    0 -0.55276858000E+03 -0.39690547277E+03 -0.13079809481E+04  0.14744155548E+04  0.10100000352E+00 0. -1.
       -3    1    3    3    0  502  0.55276858000E+03  0.39690547277E+03  0.62584491809E+03  0.92453714314E+03  0.10100000352E+00 0.  1.
</event>
<event>
 5   0  0.7044981E-06  0.2269290E+04  0.7818609E-02  0.8490129E-01
        2   -1    0    0  501    0  0.00000000000E+00  0.00000000000E+00  0.15441896345E+04  0.15441896345E+04  0.25500000920E-02 0. -1.
       -2   -1    0    0    0  501  0.00000000000E+00  0.00000000000E+00 -0.83371861374E+03  0.83371861375E+03  0.25500000920E-02 0.  1.
    10030    2    1    2    0    0  0.00000000000E+00  0.00000000000E+00  0.71047102073E+03  0.23779082482E+04  0.22692903220E+04 0.  0.
        4    1    3    3  502    0 -0.34556470979E+03 -0.58169782094E+03  0.13096728926E+04  0.14741207623E+04  0.12699999809E+01 0. -1.
       -4    1    3    3    0  502  0.34556470979E+03  0.58169782094E+03 -0.59920187183E+03  0.90378748589E+03  0.12699999809E+01 0.  1.
</event>
<event>
 5   0  0.3184492E-06  0.2299678E+04  0.7818609E-02  0.8478048E-01
        1   -1    0    0  501    0  0.00000000000E+00  0.00000000000E+00  0.86644508698E+03  0.86644508700E+03  0.50400001928E-02 0. -1.
       -1   -1    0    0    0  501  0.00000000000E+00  0.00000000000E+00 -0.15259238400E+04  0.15259238400E+04  0.50400001928E-02 0.  1.
    10030    2    1    2    0    0  0.00000000000E+00  0.00000000000E+00 -0.65947875305E+03  0.23923689270E+04  0.22996775551E+04 0.  0.
        1    1    3    3  502    0  0.19366916547E+03 -0.99239965526E+03  0.23983602992E+03  0.10391757035E+04  0.50400001928E-02 0. -1.
       -1    1    3    3    0  502 -0.19366916547E+03  0.99239965526E+03 -0.89931478297E+03  0.13531932236E+04  0.50400001928E-02 0.  1.
</event>
<event>
 5   0  0.7242214E-06  0.2292879E+04  0.7818609E-02  0.8480734E-01
        2   -1    0    0  501    0  0.00000000000E+00  0.00000000000E+00  0.18562890615E+04  0.18562890615E+04  0.25500000920E-02 0.  1.
       -2   -1    0    0    0  501  0.00000000000E+00  0.00000000000E+00 -0.70803839448E+03  0.70803839448E+03  0.25500000920E-02 0. -1.
    10030    2    1    2    0    0  0.00000000000E+00  0.00000000000E+00  0.11482506670E+04  0.25643274560E+04  0.22928793486E+04 0.  0.
        1    1    3    3  502    0 -0.52959371133E+03  0.46745690182E+03 -0.43573484543E+03  0.82997006553E+03  0.50400001928E-02 0. -1.
       -1    1    3    3    0  502  0.52959371133E+03 -0.46745690182E+03  0.15839855125E+04  0.17343573905E+04  0.50400001928E-02 0.  1.
</event>
<event>
 5   0  0.3338758E-06  0.2297838E+04  0.7818609E-02  0.8478774E-01
        1   -1    0    0  501    0  0.00000000000E+00  0.00000000000E+00  0.17392411679E+04  0.17392411679E+04  0.50400001928E-02 0. -1.
       -1   -1    0    0    0  501  0.00000000000E+00  0.00000000000E+00 -0.75896021696E+03  0.75896021698E+03  0.50400001928E-02 0.  1.
    10030    2    1    2    0    0  0.00000000000E+00  0.00000000000E+00  0.98028095090E+03  0.24982013848E+04  0.22978379874E+04 0.  0.
        5    1    3    3  502    0 -0.24585341490E+03 -0.59174175556E+03 -0.54663152543E+03  0.84227686747E+03  0.46999998093E+01 0.  1.
       -5    1    3    3    0  502  0.24585341490E+03  0.59174175556E+03  0.15269124763E+04  0.16559245174E+04  0.46999998093E+01 0. -1.
</event>
<event>
 5   0  0.3338758E-06  0.2295985E+04  0.7818609E-02  0.8479506E-01
       -1   -1    0    0    0  501  0.00000000000E+00  0.00000000000E+00  0.70171034213E+03  0.70171034215E+03  0.50400001928E-02 0.  1.
        1   -1    0    0  501    0  0.00000000000E+00  0.00000000000E+00 -0.18781070635E+04  0.18781070635E+04  0.50400001928E-02 0. -1.
    10030    2    1    2    0    0  0.00000000000E+00  0.00000000000E+00 -0.11763967214E+04  0.25798174057E+04  0.22959853224E+04 0.  0.
        5    1    3    3  502    0  0.21943770246E+03 -0.18790360553E+03 -0.18365834992E+04  0.18591723184E+04  0.46999998093E+01 0. -1.
       -5    1    3    3    0  502 -0.21943770246E+03  0.18790360553E+03  0.66018677777E+03  0.72064508725E+03  0.46999998093E+01 0.  1.
</event>
<event>
 5   0  0.3226427E-06  0.2310869E+04  0.7818609E-02  0.8473648E-01
        1   -1    0    0  501    0  0.00000000000E+00  0.00000000000E+00  0.12560320287E+04  0.12560320287E+04  0.50400001928E-02 0. -1.
       -1   -1    0    0    0  501  0.00000000000E+00  0.00000000000E+00 -0.10628935741E+04  0.10628935742E+04  0.50400001928E-02 0.  1.
    10030    2    1    2    0    0  0.00000000000E+00  0.00000000000E+00  0.19313845457E+03  0.23189256029E+04  0.23108685573E+04 0.  0.
        4    1    3    3  502    0  0.11075426584E+04  0.15293093096E+03 -0.19597447858E+03  0.11350974491E+04  0.12699999809E+01 0.  1.
       -4    1    3    3    0  502 -0.11075426584E+04 -0.15293093096E+03  0.38911293314E+03  0.11838281537E+04  0.12699999809E+01 0. -1.
</event>
<event>
 5   0  0.3238713E-06  0.2294282E+04  0.7818609E-02  0.8480179E-01
        1   -1    0    0  501    0  0.00000000000E+00  0.00000000000E+00  0.18135564530E+04  0.18135564530E+04  0.50400001928E-02 0. -1.
       -1   -1    0    0    0  501  0.00000000000E+00  0.00000000000E+00 -0.72560903994E+03  0.72560903996E+03  0.50400001928E-02 0.  1.
    10030    2    1    2    0    0  0.00000000000E+00  0.00000000000E+00  0.10879474131E+04  0.25391654930E+04  0.22942824209E+04 0.  0.
        3    1    3    3  502    0 -0.50797395263E+03 -0.90396314468E+03  0.10870035636E+04  0.15022528619E+04  0.10100000352E+00 0.  1.
       -3    1    3    3    0  502  0.50797395263E+03  0.90396314468E+03  0.94384946200E+00  0.10369126311E+04  0.10100000352E+00 0. -1.
</event>
<event>
 5   0  0.3238713E-06  0.2297874E+04  0.7818609E-02  0.8478760E-01
       -1   -1    0    0    0  501  0.00000000000E+00  0.00000000000E+00  0.11478398721E+04  0.11478398721E+04  0.50400001928E-02 0. -1.
        1   -1    0    0  501    0  0.00000000000E+00  0.00000000000E+00 -0.11500352566E+04  0.11500352566E+04  0.50400001928E-02 0.  1.
    10030    2    1    2    0    0  0.00000000000E+00  0.00000000000E+00 -0.21953845300E+01  0.22978751287E+04  0.22978740800E+04 0.  0.
        3    1    3    3  502    0  0.24244760430E+03  0.87819036916E+02 -0.11207246086E+04  0.11500072533E+04  0.10100000352E+00 0.  1.
       -3    1    3    3    0  502 -0.24244760430E+03 -0.87819036916E+02  0.11185292241E+04  0.11478678754E+04  0.10100000352E+00 0. -1.
</event>
<event>
 5   0  0.3226427E-06  0.2299956E+04  0.7818609E-02  0.8477939E-01
        1   -1    0    0  501    0  0.00000000000E+00  0.00000000000E+00  0.17170786918E+04  0.17170786919E+04  0.50400001928E-02 0. -1.
       -1   -1    0    0    0  501  0.00000000000E+00  0.00000000000E+00 -0.77017391486E+03  0.77017391487E+03  0.50400001928E-02 0.  1.
    10030    2    1    2    0    0  0.00000000000E+00  0.00000000000E+00  0.94690477699E+03  0.24872526067E+04  0.22999558415E+04 0.  0.
        4    1    3    3  502    0 -0.45024182971E+03  0.30300238446E+03 -0.62297516233E+03  0.82621293623E+03  0.12699999809E+01 0.  1.
       -4    1    3    3    0  502  0.45024182971E+03 -0.30300238446E+03  0.15698799393E+04  0.16610396705E+04  0.12699999809E+01 0. -1.
</event>
<event>
 5   0  0.3238713E-06  0.2292040E+04  0.7818609E-02  0.8481066E-01
       -1   -1    0    0    0  501  0.00000000000E+00  0.00000000000E+00  0.10220636813E+04  0.10220636813E+04  0.50400001928E-02 0. -1.
        1   -1    0    0  501    0  0.00000000000E+00  0.00000000000E+00 -0.12850095094E+04  0.12850095094E+04  0.50400001928E-02 0.  1.
    10030    2    1    2    0    0  0.00000000000E+00  0.00000000000E+00 -0.26294582811E+03  0.23070731907E+04  0.22920397463E+04 0.  0.
        3    1    3    3  502    0  0.69022331971E+03 -0.50523177484E+03 -0.89916414639E+03  0.12410332589E+04  0.10100000352E+00 0.  1.
       -3    1    3    3    0  502 -0.69022331971E+03  0.50523177484E+03  0.63621831827E+03  0.10660399317E+04  0.10100000352E+00 0. -1.
</event>
<event>
 5   0  0.3184492E-06  0.2300032E+04  0.7818609E-02  0.8477908E-01
        1   -1    0    0  501    0  0.00000000000E+00  0.00000000000E+00  0.16856507240E+04  0.16856507240E+04  0.50400001928E-02 0. -1.
       -1   -1    0    0    0  501  0.00000000000E+00  0.00000000000E+00 -0.78458552160E+03  0.78458552162E+03  0.50400001928E-02 0.  1.
    10030    2    1    2    0    0  0.00000000000E+00  0.00000000000E+00  0.90106520240E+03  0.24702362456E+04  0.23000323064E+04 0.  0.
        1    1    3    3  502    0  0.25890058286E+03  0.75070153487E+02 -0.75017522870E+03  0.79713732414E+03  0.50400001928E-02 0.  1.
       -1    1    3    3    0  502 -0.25890058286E+03 -0.75070153487E+02  0.16512404311E+04  0.16730989215E+04  0.50400001928E-02 0. -1.
</event>
<event>
 5   0  0.3338758E-06  0.2301113E+04  0.7818609E-02  0.8477482E-01
        1   -1    0    0  501    0  0.00000000000E+00  0.00000000000E+00  0.12911025076E+04  0.12911025076E+04  0.50400001928E-02 0.  1.
       -1   -1    0    0    0  501  0.00000000000E+00  0.00000000000E+00 -0.10253098577E+04  0.10253098577E+04  0.50400001928E-02 0. -1.
    10030    2    1    2    0    0  0.00000000000E+00  0.00000000000E+00  0.26579264989E+03  0.23164123653E+04  0.23011128858E+04 0.  0.
        5    1    3    3  502    0  0.40663035106E+03 -0.90517594554E+01  0.12163084745E+04  0.12825203982E+04  0.46999998093E+01 0.  1.
       -5    1    3    3    0  502 -0.40663035106E+03  0.90517594554E+01 -0.95051582459E+03  0.10338919671E+04  0.46999998093E+01 0. -1.
</event>
<event>
 5   0  0.7348107E-06  0.2299930E+04  0.7818609E-02  0.8477949E-01
       -2   -1    0    0    0  501  0.00000000000E+00  0.00000000000E+00  0.69834449600E+03  0.69834449600E+03  0.25500000920E-02 0. -1.
        2   -1    0    0  501    0  0.00000000000E+00  0.00000000000E+00 -0.18936499225E+04  0.18936499225E+04  0.25500000920E-02 0.  1.
    10030    2    1    2    0    0  0.00000000000E+00  0.00000000000E+00 -0.11953054265E+04  0.25919944185E+04  0.22999304344E+04 0.  0.
        3    1    3    3  502    0 -0.11434514983E+04  0.43927447074E+02 -0.72619380990E+03  0.13552742931E+04  0.10100000352E+00 0.  1.
       -3    1    3    3    0  502  0.11434514983E+04 -0.43927447074E+02 -0.46911161659E+03  0.12367201254E+04  0.10100000352E+00 0. -1.
</event>
<event>
 5   0  0.7003852E-06  0.2272662E+04  0.7818609E-02  0.8488779E-01
       -2   -1    0    0    0  501  0.00000000000E+00  0.00000000000E+00  0.12790217552E+04  0.12790217552E+04  0.25500000920E-02 0.  1.
        2   -1    0    0  501    0  0.00000000000E+00  0.00000000000E+00 -0.10095594384E+04  0.10095594384E+04  0.25500000920E-02 0. -1.
    10030    2    1    2    0    0  0.00000000000E+00  0.00000000000E+00  0.26946231677E+03  0.22885811936E+04  0.22726623022E+04 0.  0.
        2    1    3    3  502    0 -0.25419085617E+03  0.21541772618E+03 -0.95926266426E+03  0.10154814854E+04  0.25500000920E-02 0. -1.
       -2    1    3    3    0  502  0.25419085617E+03 -0.21541772618E+03  0.12287249810E+04  0.12730997082E+04  0.25500000920E-02 0.  1.
</event>
<event>
 5   0  0.3338758E-06  0.2296995E+04  0.7818609E-02  0.8479107E-01
        1   -1    0    0  501    0  0.00000000000E+00  0.00000000000E+00  0.18713960718E+04  0.18713960718E+04  0.50400001928E-02 0.  1.
       -1   -1    0    0    0  501  0.00000000000E+00  0.00000000000E+00 -0.70484631336E+03  0.70484631338E+03  0.50400001928E-02 0. -1.
    10030    2    1    2    0    0  0.00000000000E+00  0.00000000000E+00  0.11665497584E+04  0.25762423852E+04  0.22969950997E+04 0.  0.
        5    1    3    3  502    0 -0.10640944151E+04  0.38023981377E+03  0.35302405931E+03  0.11838611898E+04  0.46999998093E+01 0.  1.
       -5    1    3    3    0  502  0.10640944151E+04 -0.38023981377E+03  0.81352569911E+03  0.13923811954E+04  0.46999998093E+01 0. -1.
</event>
<event>
 5   0  0.7242214E-06  0.2273964E+04  0.7818609E-02  0.8488258E-01
        2   -1    0    0  501    0  0.00000000000E+00  0.00000000000E+00  0.19321211106E+04  0.19321211106E+04  0.25500000920E-02 0. -1.
       -2   -1    0    0    0  501  0.00000000000E+00  0.00000000000E+00 -0.66907225089E+03  0.66907225090E+03  0.25500000920E-02 0.  1.
    10030    2    1    2    0    0  0.00000000000E+00  0.00000000000E+00  0.12630488597E+04  0.26011933615E+04  0.22739644856E+04 0.  0.
        1    1    3    3  502    0 -0.58208505453E+03 -0.57519647486E+03  0.15344501441E+04  0.17390259458E+04  0.50400001928E-02 0. -1.
       -1    1    3    3    0  502  0.58208505453E+03  0.57519647486E+03 -0.27140128444E+03  0.86216741566E+03  0.50400001928E-02 0.  1.
</event>
<event>
 5   0  0.7242214E-06  0.2273196E+04  0.7818609E-02  0.8488565E-01
       -2   -1    0    0    0  501  0.00000000000E+00  0.00000000000E+00  0.11302293805E+04  0.11302293805E+04  0.25500000920E-02 0.  1.
        2   -1    0    0  501    0  0.00000000000E+00  0.00000000000E+00 -0.11430022391E+04  0.11430022391E+04  0.25500000920E-02 0. -1.
    10030    2    1    2    0    0  0.00000000000E+00  0.00000000000E+00 -0.12772858567E+02  0.22732316196E+04  0.22731957352E+04 0.  0.
        1    1    3    3  502    0 -0.89027621845E+03 -0.69042674796E+03 -0.15663484325E+03  0.11374600272E+04  0.50400001928E-02 0.  1.
       -1    1    3    3    0  502  0.89027621845E+03  0.69042674796E+03  0.14386198468E+03  0.11357715924E+04  0.50400001928E-02 0. -1.
</event>
<event>
 5   0  0.7044981E-06  0.2299926E+04  0.7818609E-02  0.8477950E-01
       -2   -1    0    0    0  501  0.00000000000E+00  0.00000000000E+00  0.59780903392E+03  0.59780903392E+03  0.25500000920E-02 0. -1.
        2   -1    0    0  501    0  0.00000000000E+00  0.00000000000E+00 -0.22121020191E+04  0.22121020191E+04  0.25500000920E-02 0.  1.
    10030    2    1    2    0    0  0.00000000000E+00  0.00000000000E+00 -0.16142929852E+04  0.28099110531E+04  0.22999257127E+04 0.  0.
        4    1    3    3  502    0  0.27188173043E+03 -0.56559521996E+03 -0.19844596880E+04  0.20813215740E+04  0.12699999809E+01 0.  1.
       -4    1    3    3    0  502 -0.27188173043E+03  0.56559521996E+03  0.37016670281E+03  0.72858947903E+03  0.12699999809E+01 0. -1.
</event>
<event>
 5   0  0.7003852E-06  0.2301061E+04  0.7818609E-02  0.8477503E-01
        2   -1    0    0  501    0  0.00000000000E+00  0.00000000000E+00  0.29528364163E+04  0.29528364163E+04  0.25500000920E-02 0.  1.
       -2   -1    0    0    0  501  0.00000000000E+00  0.00000000000E+00 -0.44828758551E+03  0.44828758552E+03  0.25500000920E-02 0. -1.
    10030    2    1    2    0    0  0.00000000000E+00  0.00000000000E+00  0.25045488308E+04  0.34011240018E+04  0.23010605446E+04 0.  0.
        2    1    3    3  502    0  0.81255222263E+03  0.52314293255E+03  0.21750912008E+04  0.23801137314E+04  0.25500000920E-02 0.  1.
       -2    1    3    3    0  502 -0.81255222263E+03 -0.52314293255E+03  0.32945762994E+03  0.10210102704E+04  0.25500000920E-02 0. -1.
</event>
<event>
 5   0  0.3338758E-06  0.2340037E+04  0.7818609E-02  0.8462300E-01
       -1   -1    0    0    0  501  0.00000000000E+00  0.00000000000E+00  0.86693362351E+03  0.86693362352E+03  0.50400001928E-02 0.  1.
        1   -1    0    0  501    0  0.00000000000E+00  0.00000000000E+00 -0.15790640166E+04  0.15790640166E+04  0.50400001928E-02 0. -1.
    10030    2    1    2    0    0  0.00000000000E+00  0.00000000000E+00 -0.71213039306E+03  0.24459976401E+04  0.23400373413E+04 0.  0.
        5    1    3    3  502    0  0.10316046548E+04  0.41773720845E+03  0.21119313259E+02  0.11131849148E+04  0.46999998093E+01 0.  1.
       -5    1    3    3    0  502 -0.10316046548E+04 -0.41773720845E+03 -0.73324970632E+03  0.13328127253E+04  0.46999998093E+01 0. -1.
</event>
<event>
 5   0  0.7003852E-06  0.2304635E+04  0.7818609E-02  0.8476096E-01
       -2   -1    0    0    0  501  0.00000000000E+00  0.00000000000E+00  0.12138446701E+04  0.12138446702E+04  0.25500000920E-02 0.  1.
        2   -1    0    0  501    0  0.00000000000E+00  0.00000000000E+00 -0.10939087227E+04  0.10939087227E+04  0.25500000920E-02 0. -1.
    10030    2    1    2    0    0  0.00000000000E+00  0.00000000000E+00  0.11993594742E+03  0.23077533929E+04  0.23046346979E+04 0.  0.
        2    1    3    3  502    0 -0.92656142067E+03 -0.58590584170E+03 -0.29552448193E+03  0.11354014449E+04  0.25500000920E-02 0. -1.
       -2    1    3    3    0  502  0.92656142067E+03  0.58590584170E+03  0.41546042936E+03  0.11723519480E+04  0.25500000920E-02 0.  1.
</event>
<event>
 5   0  0.3338758E-06  0.2304923E+04  0.7818609E-02  0.8475982E-01
       -1   -1    0    0    0  501  0.00000000000E+00  0.00000000000E+00  0.14516176142E+04  0.14516176142E+04  0.50400001928E-02 0. -1.
        1   -1    0    0  501    0  0.00000000000E+00  0.00000000000E+00 -0.91495712058E+03  0.91495712059E+03  0.50400001928E-02 0.  1.
    10030    2    1    2    0    0  0.00000000000E+00  0.00000000000E+00  0.53666049360E+03  0.23665747348E+04  0.23049233154E+04 0.  0.
        5    1    3    3  502    0  0.82473525190E+03  0.41626345623E+03  0.97573056913E+03  0.13437022491E+04  0.46999998093E+01 0. -1.
       -5    1    3    3    0  502 -0.82473525190E+03 -0.41626345623E+03 -0.43907007554E+03  0.10228724857E+04  0.46999998093E+01 0.  1.
</event>
<event>
 5   0  0.3226427E-06  0.2298490E+04  0.7818609E-02  0.8478517E-01
        1   -1    0    0  501    0  0.00000000000E+00  0.00000000000E+00  0.13622071860E+04  0.13622071860E+04  0.50400001928E-02 0.  1.
       -1   -1    0    0    0  501  0.00000000000E+00  0.00000000000E+00 -0.96957671040E+03  0.96957671041E+03  0.50400001928E-02 0. -1.
    10030    2    1    2    0    0  0.00000000000E+00  0.00000000000E+00  0.39263047558E+03  0.23317838964E+04  0.22984902543E+04 0.  0.
        4    1    3    3  502    0  0.60150543632E+03 -0.97817253672E+03  0.24316256778E+03  0.11737801961E+04  0.12699999809E+01 0.  1.
       -4    1    3    3    0  502 -0.60150543632E+03  0.97817253672E+03  0.14946790780E+03  0.11580037003E+04  0.12699999809E+01 0. -1.
</event>
<event>
 5   0  0.3195296E-06  0.2301090E+04  0.7818609E-02  0.8477491E-01
        1   -1    0    0  501    0  0.00000000000E+00  0.00000000000E+00  0.94667042755E+03  0.94667042756E+03  0.50400001928E-02 0. -1.
       -1   -1    0    0    0  501  0.00000000000E+00  0.00000000000E+00 -0.13983259124E+04  0.13983259125E+04  0.50400001928E-02 0.  1.
    10030    2    1    2    0    0  0.00000000000E+00  0.00000000000E+00 -0.45165548490E+03  0.23449963400E+04  0.23010899934E+04 0.  0.
        2    1    3    3  502    0 -0.88209170416E+02 -0.18152250234E+02 -0.13947285687E+04  0.13976330500E+04  0.25500000920E-02 0.  1.
       -2    1    3    3    0  502  0.88209170416E+02  0.18152250234E+02  0.94307308382E+03  0.94736329006E+03  0.25500000920E-02 0. -1.
</event>
<event>
 5   0  0.3226427E-06  0.2323989E+04  0.7818609E-02  0.8468522E-01
        1   -1    0    0  501    0  0.00000000000E+00  0.00000000000E+00  0.74012187238E+03  0.74012187240E+03  0.50400001928E-02 0. -1.
       -1   -1    0    0    0  501  0.00000000000E+00  0.00000000000E+00 -0.18243358312E+04  0.18243358312E+04  0.50400001928E-02 0.  1.
    10030    2    1    2    0    0  0.00000000000E+00  0.00000000000E+00 -0.10842139589E+04  0.25644577036E+04  0.23239886844E+04 0.  0.
        4    1    3    3  502    0  0.41313567776E+03 -0.10819915941E+04 -0.43834335100E+03  0.12383591580E+04  0.12699999809E+01 0.  1.
       -4    1    3    3    0  502 -0.41313567776E+03  0.10819915941E+04 -0.64587060785E+03  0.13260985457E+04  0.12699999809E+01 0. -1.
</event>
<event>
 5   0  0.7242214E-06  0.2296427E+04  0.7818609E-02  0.8479331E-01
        2   -1    0    0  501    0  0.00000000000E+00  0.00000000000E+00  0.16684515165E+04  0.16684515165E+04  0.25500000920E-02 0. -1.
       -2   -1    0    0    0  501  0.00000000000E+00  0.00000000000E+00 -0.79019026365E+03  0.79019026365E+03  0.25500000920E-02 0.  1.
    10030    2    1    2    0    0  0.00000000000E+00  0.00000000000E+00  0.87826125283E+03  0.24586417801E+04  0.22964269148E+04 0.  0.
        1    1    3    3  502    0 -0.10484189158E+04 -0.11490049096E+03 -0.46813757312E+02  0.10557347554E+04  0.50400001928E-02 0.  1.
       -1    1    3    3    0  502  0.10484189158E+04  0.11490049096E+03  0.92507501014E+03  0.14029070248E+04  0.50400001928E-02 0. -1.
</event>
<event>
 5   0  0.7044981E-06  0.2298947E+04  0.7818609E-02  0.8478337E-01
        2   -1    0    0  501    0  0.00000000000E+00  0.00000000000E+00  0.18673227006E+04  0.18673227006E+04  0.25500000920E-02 0. -1.
       -2   -1    0    0    0  501  0.00000000000E+00  0.00000000000E+00 -0.70758462735E+03  0.70758462736E+03  0.25500000920E-02 0.  1.
    10030    2    1    2    0    0  0.00000000000E+00  0.00000000000E+00  0.11597380733E+04  0.25749073280E+04  0.22989465738E+04 0.  0.
        4    1    3    3  502    0 -0.10468815175E+04 -0.58637108814E+02  0.11074627774E+04  0.15250818465E+04  0.12699999809E+01 0. -1.
       -4    1    3    3    0  502  0.10468815175E+04  0.58637108814E+02  0.52275295888E+02  0.10498254815E+04  0.12699999809E+01 0.  1.
</event>
<event>
 5   0  0.3238713E-06  0.2296709E+04  0.7818609E-02  0.8479220E-01
       -1   -1    0    0    0  501  0.00000000000E+00  0.00000000000E+00  0.97383933160E+03  0.97383933162E+03  0.50400001928E-02 0. -1.
        1   -1    0    0  501    0  0.00000000000E+00  0.00000000000E+00 -0.13541431853E+04  0.13541431853E+04  0.50400001928E-02 0.  1.
    10030    2    1    2    0    0  0.00000000000E+00  0.00000000000E+00 -0.38030385365E+03  0.23279825169E+04  0.22967088579E+04 0.  0.
        3    1    3    3  502    0  0.23871802904E+03  0.57672835823E+03 -0.11671838089E+04  0.13236011297E+04  0.10100000352E+00 0.  1.
       -3    1    3    3    0  502 -0.23871802904E+03 -0.57672835823E+03  0.78687995530E+03  0.10043813871E+04  0.10100000352E+00 0. -1.
</event>
<event>
 5   0  0.7348107E-06  0.2297910E+04  0.7818609E-02  0.8478746E-01
        2   -1    0    0  501    0  0.00000000000E+00  0.00000000000E+00  0.10650343125E+04  0.10650343126E+04  0.25500000920E-02 0. -1.
       -2   -1    0    0    0  501  0.00000000000E+00  0.00000000000E+00 -0.12394879285E+04  0.12394879285E+04  0.25500000920E-02 0.  1.
    10030    2    1    2    0    0  0.00000000000E+00  0.00000000000E+00 -0.17445361597E+03  0.23045222411E+04  0.22979096360E+04 0.  0.
        3    1    3    3  502    0  0.21026617469E+03  0.21169542549E+03 -0.11999557718E+04  0.12364953223E+04  0.10100000352E+00 0.  1.
       -3    1    3    3    0  502 -0.21026617469E+03 -0.21169542549E+03  0.10255021559E+04  0.10680269188E+04  0.10100000352E+00 0. -1.
</event>
<event>
 5   0  0.3238713E-06  0.2334338E+04  0.7818609E-02  0.8464504E-01
       -1   -1    0    0    0  501  0.00000000000E+00  0.00000000000E+00  0.72674088290E+03  0.72674088292E+03  0.50400001928E-02 0.  1.
        1   -1    0    0  501    0  0.00000000000E+00  0.00000000000E+00 -0.18745099129E+04  0.18745099129E+04  0.50400001928E-02 0. -1.
    10030    2    1    2    0    0  0.00000000000E+00  0.00000000000E+00 -0.11477690300E+04  0.26012507958E+04  0.23343375841E+04 0.  0.
        3    1    3    3  502    0 -0.95626367086E+03 -0.56899605438E+03 -0.18134768351E+03  0.11274234833E+04  0.10100000352E+00 0.  1.
       -3    1    3    3    0  502  0.95626367086E+03  0.56899605438E+03 -0.96642134651E+03  0.14738273126E+04  0.10100000352E+00 0. -1.
</event>
<event>
 5   0  0.3195296E-06  0.2299941E+04  0.7818609E-02  0.8477944E-01
        1   -1    0    0  501    0  0.00000000000E+00  0.00000000000E+00  0.13697089501E+04  0.13697089501E+04  0.50400001928E-02 0. -1.
       -1   -1    0    0    0  501  0.00000000000E+00  0.00000000000E+00 -0.96548397102E+03  0.96548397104E+03  0.50400001928E-02 0.  1.
    10030    2    1    2    0    0  0.00000000000E+00  0.00000000000E+00  0.40422497904E+03  0.23351929211E+04  0.22999409004E+04 0.  0.
        2    1    3    3  502    0 -0.45571921062E+03  0.37694171885E+03 -0.79924275078E+03  0.99426054584E+03  0.25500000920E-02 0.  1.
       -2    1    3    3    0  502  0.45571921062E+03 -0.37694171885E+03  0.12034677298E+04  0.13409323753E+04  0.25500000920E-02 0. -1.
</event>
<event>
 5   0  0.7003852E-06  0.2300413E+04  0.7818609E-02  0.8477758E-01
        2   -1    0    0  501    0  0.00000000000E+00  0.00000000000E+00  0.99953738026E+03  0.99953738026E+03  0.25500000920E-02 0. -1.
       -2   -1    0    0    0  501  0.00000000000E+00  0.00000000000E+00 -0.13235867828E+04  0.13235867828E+04  0.25500000920E-02 0.  1.
    10030    2    1    2    0    0  0.00000000000E+00  0.00000000000E+00 -0.32404940250E+03  0.23231241630E+04  0.23004125416E+04 0.  0.
        2    1    3    3  502    0  0.15696691638E+03 -0.63598401753E+03  0.79275129302E+03  0.10283816879E+04  0.25500000920E-02 0. -1.
       -2    1    3    3    0  502 -0.15696691638E+03  0.63598401753E+03 -0.11168006955E+04  0.12947424751E+04  0.25500000920E-02 0.  1.
</event>
<event>
 5   0  0.2519625E-06  0.2300397E+04  0.7818609E-02  0.8477765E-01
       -3   -1    0    0    0  501  0.00000000000E+00  0.00000000000E+00  0.14882619609E+04  0.14882619643E+04  0.10100000352E+00 0. -1.
        3   -1    0    0  501    0  0.00000000000E+00  0.00000000000E+00 -0.88892731403E+03  0.88892731977E+03  0.10100000352E+00 0.  1.
    10030    2    1    2    0    0  0.00000000000E+00  0.00000000000E+00  0.59933464687E+03  0.23771892841E+04  0.23003971121E+04 0.  0.
        2    1    3    3  502    0  0.49972839716E+03 -0.33586440675E+02 -0.77032001453E+03  0.91883047660E+03  0.25500000920E-02 0.  1.
       -2    1    3    3    0  502 -0.49972839716E+03  0.33586440675E+02  0.13696546614E+04  0.14583588075E+04  0.25500000920E-02 0. -1.
</event>
<event>
 5   0  0.3184492E-06  0.2301581E+04  0.7818609E-02  0.8477298E-01
        1   -1    0    0  501    0  0.00000000000E+00  0.00000000000E+00  0.14886047360E+04  0.14886047360E+04  0.50400001928E-02 0.  1.
       -1   -1    0    0    0  501  0.00000000000E+00  0.00000000000E+00 -0.88963760403E+03  0.88963760404E+03  0.50400001928E-02 0. -1.
    10030    2    1    2    0    0  0.00000000000E+00  0.00000000000E+00  0.59896713192E+03  0.23782423400E+04  0.23015809790E+04 0.  0.
        1    1    3    3  502    0  0.16852588359E+03  0.53094572544E+03  0.13400071090E+04  0.14511799988E+04  0.50400001928E-02 0.  1.
       -1    1    3    3    0  502 -0.16852588359E+03 -0.53094572544E+03 -0.74103997707E+03  0.92706234118E+03  0.50400001928E-02 0. -1.
</event>
<event>
 5   0  0.7044981E-06  0.2300963E+04  0.7818609E-02  0.8477541E-01
       -2   -1    0    0    0  501  0.00000000000E+00  0.00000000000E+00  0.68625534638E+03  0.68625534639E+03  0.25500000920E-02 0. -1.
        2   -1    0    0  501    0  0.00000000000E+00  0.00000000000E+00 -0.19287397602E+04  0.19287397602E+04  0.25500000920E-02 0.  1.
    10030    2    1    2    0    0  0.00000000000E+00  0.00000000000E+00 -0.12424844138E+04  0.26149951066E+04  0.23009632524E+04 0.  0.
        4    1    3    3  502    0 -0.89511045851E+03  0.53484712333E+03 -0.11737182376E+04  0.15700000931E+04  0.12699999809E+01 0.  1.
       -4    1    3    3    0  502  0.89511045851E+03 -0.53484712333E+03 -0.68766176226E+02  0.10449950135E+04  0.12699999809E+01 0. -1.
</event>
<event>
 5   0  0.3184492E-06  0.2304870E+04  0.7818609E-02  0.8476003E-01
        1   -1    0    0  501    0  0.00000000000E+00  0.00000000000E+00  0.10742814231E+04  0.10742814231E+04  0.50400001928E-02 0.  1.
       -1   -1    0    0    0  501  0.00000000000E+00  0.00000000000E+00 -0.12362741464E+04  0.12362741464E+04  0.50400001928E-02 0. -1.
    10030    2    1    2    0    0  0.00000000000E+00  0.00000000000E+00 -0.16199272332E+03  0.23105555695E+04  0.23048699307E+04 0.  0.
        1    1    3    3  502    0 -0.27680059737E+03 -0.10943450558E+04 -0.31372562362E+03  0.11715944003E+04  0.50400001928E-02 0.  1.
       -1    1    3    3    0  502  0.27680059737E+03  0.10943450558E+04  0.15173290030E+03  0.11389611692E+04  0.50400001928E-02 0. -1.
</event>
<event>
 5   0  0.7044981E-06  0.2287244E+04  0.7818609E-02  0.8482968E-01
       -2   -1    0    0    0  501  0.00000000000E+00  0.00000000000E+00  0.11138996410E+04  0.11138996410E+04  0.25500000920E-02 0. -1.
        2   -1    0    0  501    0  0.00000000000E+00  0.00000000000E+00 -0.11741369965E+04  0.11741369965E+04  0.25500000920E-02 0.  1.
    10030    2    1    2    0    0  0.00000000000E+00  0.00000000000E+00 -0.60237355536E+02  0.22880366375E+04  0.22872435628E+04 0.  0.
        4    1    3    3  502    0  0.25831677543E+03  0.66553401766E+03 -0.92385225882E+03  0.11675477267E+04  0.12699999809E+01 0.  1.
       -4    1    3    3    0  502 -0.25831677543E+03 -0.66553401766E+03  0.86361490328E+03  0.11204889108E+04  0.12699999809E+01 0. -1.
</event>
<event>
 5   0  0.7497344E-06  0.2297998E+04  0.7818609E-02  0.8478711E-01
       -2   -1    0    0    0  501  0.00000000000E+00  0.00000000000E+00  0.83172349177E+03  0.83172349177E+03  0.25500000920E-02 0.  1.
        2   -1    0    0  501    0  0.00000000000E+00  0.00000000000E+00 -0.15873051807E+04  0.15873051807E+04  0.25500000920E-02 0. -1.
    10030    2    1    2    0    0  0.00000000000E+00  0.00000000000E+00 -0.75558168891E+03  0.24190286724E+04  0.22979982658E+04 0.  0.
        5    1    3    3  502    0  0.20979952863E+02 -0.52846354771E+03  0.69596279214E+03  0.87412823872E+03  0.46999998093E+01 0.  1.
       -5    1    3    3    0  502 -0.20979952863E+02  0.52846354771E+03 -0.14515444811E+04  0.15449004337E+04  0.46999998093E+01 0. -1.
</event>
<event>
 5   0  0.3226427E-06  0.2289567E+04  0.7818609E-02  0.8482046E-01
        1   -1    0    0  501    0  0.00000000000E+00  0.00000000000E+00  0.13835813013E+04  0.13835813013E+04  0.50400001928E-02 0.  1.
       -1   -1    0    0    0  501  0.00000000000E+00  0.00000000000E+00 -0.94720075420E+03  0.94720075422E+03  0.50400001928E-02 0. -1.
    10030    2    1    2    0    0  0.00000000000E+00  0.00000000000E+00  0.43638054709E+03  0.23307820555E+04  0.22895669915E+04 0.  0.
        4    1    3    3  502    0 -0.65314239575E+03 -0.87590013344E+03 -0.12962010854E+03  0.11002722474E+04  0.12699999809E+01 0.  1.
       -4    1    3    3    0  502  0.65314239575E+03  0.87590013344E+03  0.56600065563E+03  0.12305098082E+04  0.12699999809E+01 0. -1.
</event>
<event>
 5   0  0.7497344E-06  0.2301614E+04  0.7818609E-02  0.8477285E-01
       -2   -1    0    0    0  501  0.00000000000E+00  0.00000000000E+00  0.11375696079E+04  0.11375696079E+04  0.25500000920E-02 0.  1.
        2   -1    0    0  501    0  0.00000000000E+00  0.00000000000E+00 -0.11641982242E+04  0.11641982242E+04  0.25500000920E-02 0. -1.
    10030    2    1    2    0    0  0.00000000000E+00  0.00000000000E+00 -0.26628616266E+02  0.23017678321E+04  0.23016137968E+04 0.  0.
        5    1    3    3  502    0 -0.66446952706E+02  0.10229089717E+04  0.50976607284E+03  0.11448325209E+04  0.46999998093E+01 0. -1.
       -5    1    3    3    0  502  0.66446952706E+02 -0.10229089717E+04 -0.53639468911E+03  0.11569353112E+04  0.46999998093E+01 0.  1.
</event>
<event>
 5   0  0.3195296E-06  0.2295343E+04  0.7818609E-02  0.8479759E-01
       -1   -1    0    0    0  501  0.00000000000E+00  0.00000000000E+00  0.79202213619E+03  0.79202213621E+03  0.50400001928E-02 0. -1.
        1   -1    0    0  501    0  0.00000000000E+00  0.00000000000E+00 -0.16630222581E+04  0.16630222581E+04  0.50400001928E-02 0.  1.
    10030    2    1    2    0    0  0.00000000000E+00  0.00000000000E+00 -0.87100012187E+03  0.24550443943E+04  0.22953434962E+04 0.  0.
        2    1    3    3  502    0 -0.47683930252E+03  0.97526796804E+03 -0.37268431930E+02  0.10862376655E+04  0.25500000920E-02 0. -1.
       -2    1    3    3    0  502  0.47683930252E+03 -0.97526796804E+03 -0.83373168994E+03  0.13688067288E+04  0.25500000920E-02 0.  1.
</event>
<event>
 5   0  0.7003852E-06  0.2301102E+04  0.7818609E-02  0.8477487E-01
        2   -1    0    0  501    0  0.00000000000E+00  0.00000000000E+00  0.24246413467E+04  0.24246413467E+04  0.25500000920E-02 0.  1.
       -2   -1    0    0    0  501  0.00000000000E+00  0.00000000000E+00 -0.54596430791E+03  0.54596430792E+03  0.25500000920E-02 0. -1.
    10030    2    1    2    0    0  0.00000000000E+00  0.00000000000E+00  0.18786770388E+04  0.29706056546E+04  0.23011020271E+04 0.  0.
        2    1    3    3  502    0  0.10529509228E+04 -0.15312612255E+03  0.37424129120E+03  0.11279227807E+04  0.25500000920E-02 0. -1.
       -2    1    3    3    0  502 -0.10529509228E+04  0.15312612255E+03  0.15044357476E+04  0.18426828739E+04  0.25500000920E-02 0.  1.
</event>
<event>
 5   0  0.3338758E-06  0.2308897E+04  0.7818609E-02  0.8474421E-01
       -1   -1    0    0    0  501  0.00000000000E+00  0.00000000000E+00  0.13426440717E+04  0.13426440717E+04  0.50400001928E-02 0.  1.
        1   -1    0    0  501    0  0.00000000000E+00  0.00000000000E+00 -0.99263189245E+03  0.99263189247E+03  0.50400001928E-02 0. -1.
    10030    2    1    2    0    0  0.00000000000E+00  0.00000000000E+00  0.35001217921E+03  0.23352759641E+04  0.23088969884E+04 0.  0.
        5    1    3    3  502    0 -0.42253227272E+03  0.10535225081E+04 -0.37840684162E+02  0.11357364149E+04  0.46999998093E+01 0. -1.
       -5    1    3    3    0  502  0.42253227272E+03 -0.10535225081E+04  0.38785286337E+03  0.11995395493E+04  0.46999998093E+01 0.  1.
</event>
</LesHouchesEvents>
