<LesHouchesEvents version="3.0">
<header>
<!--
#*********************************************************************
#                                                                    *
#                        MadGraph5_aMC@NLO                           *
#                                                                    *
#                           Going Beyond                             *
#                                                                    *
#                   http://madgraph.hep.uiuc.edu                     *
#                   http://madgraph.phys.ucl.ac.be                   *
#                   http://amcatnlo.cern.ch                          *
#                                                                    *
#                     The MadGraph5_aMC@NLO team                     *
#                                                                    *
#....................................................................*
#                                                                    *
# This file contains all the information necessary to reproduce      *
# the events generated:                                              *
#                                                                    *
# 1. software version                                                *
# 2. proc_card          : code generation info including model       *
# 3. param_card         : model primary parameters in the LH format  *
# 4. run_card           : running parameters (collider and cuts)     *
# 5. pythia_card        : present only if pythia has been run        *
# 6. pgs_card           : present only if pgs has been run           *
# 7. delphes_cards      : present only if delphes has been run       *
#                                                                    *
#                                                                    *
#*********************************************************************
-->
<MGVersion>
#5.2.2.3
</MGVersion>
<MG5ProcCard>
#************************************************************
#*                     MadGraph5_aMC@NLO                    *
#*                                                          *
#*                *                       *                 *
#*                  *        * *        *                   *
#*                    * * * * 5 * * * *                     *
#*                  *        * *        *                   *
#*                *                       *                 *
#*                                                          *
#*                                                          *
#*         VERSION 2.2.3                 2015-02-10         *
#*                                                          *
#*    The MadGraph5_aMC@NLO Development Team - Find us at   *
#*    https://server06.fynu.ucl.ac.be/projects/madgraph     *
#*                                                          *
#************************************************************
#*                                                          *
#*               Command File for MadGraph5_aMC@NLO         *
#*                                                          *
#*     run as ./bin/mg5_aMC  filename                       *
#*                                                          *
#************************************************************
set group_subprocesses Auto
set ignore_six_quark_processes False
set loop_optimized_output True
set gauge unitary
set complex_mass_scheme False
import model sm
define p = g u c d s u~ c~ d~ s~
define j = g u c d s u~ c~ d~ s~
define l+ = e+ mu+
define l- = e- mu-
define vl = ve vm vt
define vl~ = ve~ vm~ vt~
import model Zprime_UFO
generate p p > zph, zph > j j
add process p p > zph, zph > b b~
output Dijet_signal
</MG5ProcCard>
<MGProcCard>
#*********************************************************************
#                        MadGraph/MadEvent                           *
#                   http://madgraph.hep.uiuc.edu                     *
#                                                                    *
#                          proc_card.dat                             *
#*********************************************************************
#                                                                    *
#            This Files is generated by MADGRAPH 5                   *
#                                                                    *
# WARNING: This Files is generated for MADEVENT (compatibility issue)*
#          This files is NOT a valid MG4 proc_card.dat               *
#          Running this in MG4 will NEVER reproduce the result of MG5*
#                                                                    *
#*********************************************************************
#*********************************************************************
# Process(es) requested : mg2 input                                  *
#*********************************************************************
# Begin PROCESS # This is TAG. Do not modify this line
p p > zph , zph > j j           #Process
# Be carefull the coupling are here in MG5 convention
          
end_coup           # End the couplings input

done               # this tells MG there are no more procs
# End PROCESS  # This is TAG. Do not modify this line
#*********************************************************************
# Model information                                                  *
#*********************************************************************
# Begin MODEL  # This is TAG. Do not modify this line
Zprime_UFO
# End   MODEL  # This is TAG. Do not modify this line
#*********************************************************************
# Start multiparticle definitions                                    *
#*********************************************************************
# Begin MULTIPARTICLES # This is TAG. Do not modify this line

# End  MULTIPARTICLES # This is TAG. Do not modify this line
</MGProcCard>
<MGRunCard>
#*********************************************************************
#                       MadGraph5_aMC@NLO                            *
#                                                                    *
#                     run_card.dat MadEvent                          *
#                                                                    *
#  This file is used to set the parameters of the run.               *
#                                                                    *
#  Some notation/conventions:                                        *
#                                                                    *
#   Lines starting with a '# ' are info or comments                  *
#                                                                    *
#   mind the format:   value    = variable     ! comment             *
#*********************************************************************
#
#*******************                                                 
# Running parameters
#*******************                                                 
#                                                                    
#*********************************************************************
# Tag name for the run (one word)                                    *
#*********************************************************************
  tag_1     = run_tag ! name of the run 
#*********************************************************************
# Run to generate the grid pack                                      *
#*********************************************************************
  .false.     = gridpack  !True = setting up the grid pack
#*********************************************************************
# Number of events and rnd seed                                      *
# Warning: Do not generate more than 1M events in a single run       *
# If you want to run Pythia, avoid more than 50k events in a run.    *
#*********************************************************************
  2000 = nevents ! Number of unweighted events requested 
 1902 = iseed   ! rnd seed (0=assigned automatically=default))
#*********************************************************************
# Collider type and energy                                           *
# lpp: 0=No PDF, 1=proton, -1=antiproton, 2=photon from proton,      *
#                                         3=photon from electron     *
#*********************************************************************
        1     = lpp1    ! beam 1 type 
        1     = lpp2    ! beam 2 type
     4000     = ebeam1  ! beam 1 total energy in GeV
     4000     = ebeam2  ! beam 2 total energy in GeV
#*********************************************************************
# Beam polarization from -100 (left-handed) to 100 (right-handed)    *
#*********************************************************************
        0     = polbeam1 ! beam polarization for beam 1
        0     = polbeam2 ! beam polarization for beam 2
#*********************************************************************
# PDF CHOICE: this automatically fixes also alpha_s and its evol.    *
#*********************************************************************
 'nn23lo1'    = pdlabel     ! PDF set                                     
 230000    = lhaid     ! if pdlabel=lhapdf, this is the lhapdf number
#*********************************************************************
# Renormalization and factorization scales                           *
#*********************************************************************
 F        = fixed_ren_scale  ! if .true. use fixed ren scale
 F        = fixed_fac_scale  ! if .true. use fixed fac scale
 91.1880  = scale            ! fixed ren scale
 91.1880  = dsqrt_q2fact1    ! fixed fact scale for pdf1
 91.1880  = dsqrt_q2fact2    ! fixed fact scale for pdf2
 1        = scalefact        ! scale factor for event-by-event scales
#*********************************************************************
# Matching - Warning! ickkw > 1 is still beta
#*********************************************************************
 0        = ickkw            ! 0 no matching, 1 MLM, 2 CKKW matching
 1        = highestmult      ! for ickkw=2, highest mult group
 1        = ktscheme         ! for ickkw=1, 1 Durham kT, 2 Pythia pTE
 1        = alpsfact         ! scale factor for QCD emission vx
 F        = chcluster        ! cluster only according to channel diag
 T        = pdfwgt           ! for ickkw=1, perform pdf reweighting
 5        = asrwgtflavor     ! highest quark flavor for a_s reweight
 T        = clusinfo         ! include clustering tag in output
 3.0      = lhe_version       ! Change the way clustering information pass to shower.        
#*********************************************************************
#**********************************************************
#
#**********************************************************
# Automatic ptj and mjj cuts if xqcut > 0
# (turn off for VBF and single top processes)
#**********************************************************
   T  = auto_ptj_mjj  ! Automatic setting of ptj and mjj
#**********************************************************
#                                                                    
#**********************************
# BW cutoff (M+/-bwcutoff*Gamma)
#**********************************
  15  = bwcutoff      ! (M+/-bwcutoff*Gamma)
#**********************************************************
# Apply pt/E/eta/dr/mij cuts on decay products or not
# (note that etmiss/ptll/ptheavy/ht/sorted cuts always apply)
#**********************************************************
   T  = cut_decays    ! Cut decay products 
#*************************************************************
# Number of helicities to sum per event (0 = all helicities)
# 0 gives more stable result, but longer run time (needed for
# long decay chains e.g.).
# Use >=2 if most helicities contribute, e.g. pure QCD.
#*************************************************************
   0  = nhel          ! Number of helicities used per event
#*******************                                                 
# Standard Cuts
#*******************                                                 
#                                                                    
#*********************************************************************
# Minimum and maximum pt's (for max, -1 means no cut)                *
#*********************************************************************
 20  = ptj       ! minimum pt for the jets 
  0  = ptb       ! minimum pt for the b 
 10  = pta       ! minimum pt for the photons 
 10  = ptl       ! minimum pt for the charged leptons 
  0  = misset    ! minimum missing Et (sum of neutrino's momenta)
  0  = ptheavy   ! minimum pt for one heavy final state
 1.0 = ptonium   ! minimum pt for the quarkonium states
 -1  = ptjmax    ! maximum pt for the jets
 -1  = ptbmax    ! maximum pt for the b
 -1  = ptamax    ! maximum pt for the photons
 -1  = ptlmax    ! maximum pt for the charged leptons
 -1  = missetmax ! maximum missing Et (sum of neutrino's momenta)
#*********************************************************************
# Minimum and maximum E's (in the center of mass frame)              *
#*********************************************************************
  0  = ej     ! minimum E for the jets 
  0  = eb     ! minimum E for the b 
  0  = ea     ! minimum E for the photons 
  0  = el     ! minimum E for the charged leptons 
 -1   = ejmax ! maximum E for the jets
 -1   = ebmax ! maximum E for the b
 -1   = eamax ! maximum E for the photons
 -1   = elmax ! maximum E for the charged leptons
#*********************************************************************
# Maximum and minimum absolute rapidity (for max, -1 means no cut)   *
#*********************************************************************
   5  = etaj    ! max rap for the jets 
  -1  = etab    ! max rap for the b
 2.5  = etaa    ! max rap for the photons 
 2.5  = etal    ! max rap for the charged leptons 
 0.6  = etaonium ! max rap for the quarkonium states
   0  = etajmin ! min rap for the jets
   0  = etabmin ! min rap for the b
   0  = etaamin ! min rap for the photons
   0  = etalmin ! main rap for the charged leptons
#*********************************************************************
# Minimum and maximum DeltaR distance                                *
#*********************************************************************
 0.4 = drjj    ! min distance between jets 
 0   = drbb    ! min distance between b's 
 0.4 = drll    ! min distance between leptons 
 0.4 = draa    ! min distance between gammas 
 0   = drbj    ! min distance between b and jet 
 0.4 = draj    ! min distance between gamma and jet 
 0.4 = drjl    ! min distance between jet and lepton 
 0   = drab    ! min distance between gamma and b 
 0   = drbl    ! min distance between b and lepton 
 0.4 = dral    ! min distance between gamma and lepton 
 -1  = drjjmax ! max distance between jets
 -1  = drbbmax ! max distance between b's
 -1  = drllmax ! max distance between leptons
 -1  = draamax ! max distance between gammas
 -1  = drbjmax ! max distance between b and jet
 -1  = drajmax ! max distance between gamma and jet
 -1  = drjlmax ! max distance between jet and lepton
 -1  = drabmax ! max distance between gamma and b
 -1  = drblmax ! max distance between b and lepton
 -1  = dralmax ! maxdistance between gamma and lepton
#*********************************************************************
# Minimum and maximum invariant mass for pairs                       *
# WARNING: for four lepton final state mmll cut require to have      *
#          different lepton masses for each flavor!                  *           
#*********************************************************************
 0   = mmjj    ! min invariant mass of a jet pair 
 0   = mmbb    ! min invariant mass of a b pair 
 0   = mmaa    ! min invariant mass of gamma gamma pair
 0   = mmll    ! min invariant mass of l+l- (same flavour) lepton pair
 -1  = mmjjmax ! max invariant mass of a jet pair
 -1  = mmbbmax ! max invariant mass of a b pair
 -1  = mmaamax ! max invariant mass of gamma gamma pair
 -1  = mmllmax ! max invariant mass of l+l- (same flavour) lepton pair
#*********************************************************************
# Minimum and maximum invariant mass for all letpons                 *
#*********************************************************************
 0   = mmnl    ! min invariant mass for all letpons (l+- and vl) 
 -1  = mmnlmax ! max invariant mass for all letpons (l+- and vl) 
#*********************************************************************
# Minimum and maximum pt for 4-momenta sum of leptons                *
#*********************************************************************
 0   = ptllmin  ! Minimum pt for 4-momenta sum of leptons(l and vl)
 -1  = ptllmax  ! Maximum pt for 4-momenta sum of leptons(l and vl)
#*********************************************************************
# Inclusive cuts                                                     *
#*********************************************************************
 0  = xptj ! minimum pt for at least one jet  
 0  = xptb ! minimum pt for at least one b 
 0  = xpta ! minimum pt for at least one photon 
 0  = xptl ! minimum pt for at least one charged lepton 
#*********************************************************************
# Control the pt's of the jets sorted by pt                          *
#*********************************************************************
 0   = ptj1min ! minimum pt for the leading jet in pt
 0   = ptj2min ! minimum pt for the second jet in pt
 0   = ptj3min ! minimum pt for the third jet in pt
 0   = ptj4min ! minimum pt for the fourth jet in pt
 -1  = ptj1max ! maximum pt for the leading jet in pt 
 -1  = ptj2max ! maximum pt for the second jet in pt
 -1  = ptj3max ! maximum pt for the third jet in pt
 -1  = ptj4max ! maximum pt for the fourth jet in pt
 0   = cutuse  ! reject event if fails any (0) / all (1) jet pt cuts
#*********************************************************************
# Control the pt's of leptons sorted by pt                           *
#*********************************************************************
 0   = ptl1min ! minimum pt for the leading lepton in pt
 0   = ptl2min ! minimum pt for the second lepton in pt
 0   = ptl3min ! minimum pt for the third lepton in pt
 0   = ptl4min ! minimum pt for the fourth lepton in pt
 -1  = ptl1max ! maximum pt for the leading lepton in pt 
 -1  = ptl2max ! maximum pt for the second lepton in pt
 -1  = ptl3max ! maximum pt for the third lepton in pt
 -1  = ptl4max ! maximum pt for the fourth lepton in pt
#*********************************************************************
# Control the Ht(k)=Sum of k leading jets                            *
#*********************************************************************
 0   = htjmin ! minimum jet HT=Sum(jet pt)
 -1  = htjmax ! maximum jet HT=Sum(jet pt)
 0   = ihtmin  !inclusive Ht for all partons (including b)
 -1  = ihtmax  !inclusive Ht for all partons (including b)
 0   = ht2min ! minimum Ht for the two leading jets
 0   = ht3min ! minimum Ht for the three leading jets
 0   = ht4min ! minimum Ht for the four leading jets
 -1  = ht2max ! maximum Ht for the two leading jets
 -1  = ht3max ! maximum Ht for the three leading jets
 -1  = ht4max ! maximum Ht for the four leading jets
#***********************************************************************
# Photon-isolation cuts, according to hep-ph/9801442                   *
# When ptgmin=0, all the other parameters are ignored                  *
# When ptgmin>0, pta and draj are not going to be used                 *
#***********************************************************************
   0 = ptgmin ! Min photon transverse momentum
 0.4 = R0gamma ! Radius of isolation code
 1.0 = xn ! n parameter of eq.(3.4) in hep-ph/9801442
 1.0 = epsgamma ! epsilon_gamma parameter of eq.(3.4) in hep-ph/9801442
 .true. = isoEM ! isolate photons from EM energy (photons and leptons)
#*********************************************************************
# WBF cuts                                                           *
#*********************************************************************
 0   = xetamin ! minimum rapidity for two jets in the WBF case  
 0   = deltaeta ! minimum rapidity for two jets in the WBF case 
#*********************************************************************
# KT DURHAM CUT                                                      *
#*********************************************************************
 -1    =  ktdurham        
 0.4  =  dparameter 
#*********************************************************************
# maximal pdg code for quark to be considered as a light jet         *
# (otherwise b cuts are applied)                                     *
#*********************************************************************
 4 = maxjetflavor    ! Maximum jet pdg code
#*********************************************************************
# Jet measure cuts                                                   *
#*********************************************************************
 0   = xqcut   ! minimum kt jet measure between partons
#*********************************************************************
#
#*********************************************************************
# Store info for systematics studies                                 *
# WARNING: If use_syst is T, matched Pythia output is                *
#          meaningful ONLY if plotted taking matchscale              *
#          reweighting into account!                                 *
#*********************************************************************
   F  = use_syst      ! Enable systematics studies
#
#**************************************
# Parameter of the systematics study
#  will be used by SysCalc (if installed)
#**************************************                                  
#
0.5 1 2 = sys_scalefact  # factorization/renormalization scale factor
0.5 1 2 = sys_alpsfact  # \alpha_s emission scale factors
30 50 = sys_matchscale # variation of merging scale
# PDF sets and number of members (0 or none for all members).
CT10nlo.LHgrid = sys_pdf # matching scales
# MSTW2008nlo68cl.LHgrid 1  = sys_pdf
</MGRunCard>
<slha>
######################################################################
## PARAM_CARD AUTOMATICALY GENERATED BY MG5 FOLLOWING UFO MODEL   ####
######################################################################
##                                                                  ##
##  Width set on Auto will be computed following the information    ##
##        present in the decay.py files of the model.               ##
##        See  arXiv:1402.1178 for more details.                    ##
##                                                                  ##
######################################################################

###################################
## INFORMATION FOR CKMBLOCK
###################################
Block ckmblock 
    1 2.277360e-01 # cabi 

###################################
## INFORMATION FOR FRBLOCK
###################################
Block frblock 
    1 1.000000e+00 # gz 

###################################
## INFORMATION FOR MASS
###################################
Block mass 
    1 5.040000e-03 # MD 
    2 2.550000e-03 # MU 
    3 1.010000e-01 # MS 
    4 1.270000e+00 # MC 
    5 4.700000e+00 # MB 
    6 1.720000e+02 # MT 
   11 5.110000e-04 # Me 
   13 1.056600e-01 # MM 
   15 1.777000e+00 # MTA 
   23 9.118760e+01 # MZ 
   25 1.200000e+02 # MH 
  10030 1.700000e+03 # MZph 
  10031 3.000000e+02 # MZpl 
## Dependent parameters, given by model restrictions.
## Those values should be edited following the 
## analytical expression. MG5 ignores those values 
## but they are important for interfacing the output of MG5
## to external program such as Pythia.
  12 0.000000 # ve : 0.0 
  14 0.000000 # vm : 0.0 
  16 0.000000 # vt : 0.0 
  21 0.000000 # g : 0.0 
  22 0.000000 # a : 0.0 
  24 79.824360 # w+ : cmath.sqrt(MZ__exp__2/2. + cmath.sqrt(MZ__exp__4/4. - (aEW*cmath.pi*MZ__exp__2)/(Gf*sqrt__2))) 

###################################
## INFORMATION FOR SMINPUTS
###################################
Block sminputs 
    1 1.279000e+02 # aEWM1 
    2 1.166370e-05 # Gf 
    3 1.184000e-01 # aS 

###################################
## INFORMATION FOR YUKAWA
###################################
Block yukawa 
    1 5.040000e-03 # ymdo 
    2 2.550000e-03 # ymup 
    3 1.010000e-01 # yms 
    4 1.270000e+00 # ymc 
    5 4.700000e+00 # ymb 
    6 1.720000e+02 # ymt 
   11 5.110000e-04 # yme 
   13 1.056600e-01 # ymm 
   15 1.777000e+00 # ymtau 

###################################
## INFORMATION FOR DECAY
###################################
DECAY   6 1.508336e+00 # WT 
DECAY  23 2.495200e+00 # WZ 
DECAY  24 2.085000e+00 # WW 
DECAY  25 5.753088e-03 # WH 
## Dependent parameters, given by model restrictions.
## Those values should be edited following the 
## analytical expression. MG5 ignores those values 
## but they are important for interfacing the output of MG5
## to external program such as Pythia.
DECAY  1 0.000000 # d : 0.0 
DECAY  2 0.000000 # u : 0.0 
DECAY  3 0.000000 # s : 0.0 
DECAY  4 0.000000 # c : 0.0 
DECAY  5 0.000000 # b : 0.0 
DECAY  11 0.000000 # e- : 0.0 
DECAY  12 0.000000 # ve : 0.0 
DECAY  13 0.000000 # mu- : 0.0 
DECAY  14 0.000000 # vm : 0.0 
DECAY  15 0.000000 # ta- : 0.0 
DECAY  16 0.000000 # vt : 0.0 
DECAY  21 0.000000 # g : 0.0 
DECAY  22 0.000000 # a : 0.0 
DECAY  10030 0.308725 # zph : (gz__exp__2*MZph*(5 + cmath.sqrt(1 - (4*MT__exp__2)/MZph__exp__2)))/(144.*cmath.pi) 
DECAY  10031 0.132629 # zpl : (5*gz__exp__2*MZpl)/(144.*cmath.pi) 
#===========================================================
# QUANTUM NUMBERS OF NEW STATE(S) (NON SM PDG CODE)
#===========================================================

Block QNUMBERS 10030  # zph 
        1 0  # 3 times electric charge
        2 3  # number of spin states (2S+1)
        3 1  # colour rep (1: singlet, 3: triplet, 8: octet)
        4 0  # Particle/Antiparticle distinction (0=own anti)
Block QNUMBERS 10031  # zpl 
        1 0  # 3 times electric charge
        2 3  # number of spin states (2S+1)
        3 1  # colour rep (1: singlet, 3: triplet, 8: octet)
        4 0  # Particle/Antiparticle distinction (0=own anti)
</slha>
## END BANNER##
<MGGenerationInfo>
#  Number of Events        :         3935
#  Integrated weight (pb)  :  0.10541E+00
#  Max wgt                 :  0.36789E-04
#  Average wgt             :  0.26788E-04
</MGGenerationInfo>
</header>
<init>
     2212     2212  0.40000000000E+04  0.40000000000E+04 0 0  247000  247000 2   1
  0.10547999798E+00  0.24095990431E-03  0.36788960000E-04   0
</init>
<event>
 5   0  0.3516723E-04  0.1692889E+04  0.7818609E-02  0.8765430E-01
       -2   -1    0    0    0  501  0.00000000000E+00  0.00000000000E+00  0.40155773109E+03  0.40155773110E+03  0.25500000920E-02 0.  1.
        2   -1    0    0  501    0  0.00000000000E+00  0.00000000000E+00 -0.17842227819E+04  0.17842227819E+04  0.25500000920E-02 0. -1.
    10030    2    1    2    0    0  0.00000000000E+00  0.00000000000E+00 -0.13826650508E+04  0.21857805130E+04  0.16928891896E+04 0.  0.
        1    1    3    3  502    0 -0.11857139297E+03  0.10328416153E+03  0.38253320580E+03  0.41359212616E+03  0.50400001928E-02 0.  1.
       -1    1    3    3    0  502  0.11857139297E+03 -0.10328416153E+03 -0.17651982566E+04  0.17721883869E+04  0.50400001928E-02 0. -1.
</event>
<event>
 5   0  0.3516723E-04  0.1702576E+04  0.7818609E-02  0.8759896E-01
        2   -1    0    0  501    0  0.00000000000E+00  0.00000000000E+00  0.10851219631E+04  0.10851219631E+04  0.25500000920E-02 0.  1.
       -2   -1    0    0    0  501  0.00000000000E+00  0.00000000000E+00 -0.66784320023E+03  0.66784320023E+03  0.25500000920E-02 0. -1.
    10030    2    1    2    0    0  0.00000000000E+00  0.00000000000E+00  0.41727876285E+03  0.17529651633E+04  0.17025760770E+04 0.  0.
        1    1    3    3  502    0  0.26899325219E+03 -0.57058902712E+03 -0.37990959547E+03  0.73638339766E+03  0.50400001928E-02 0. -1.
       -1    1    3    3    0  502 -0.26899325219E+03  0.57058902712E+03  0.79718835832E+03  0.10165817657E+04  0.50400001928E-02 0.  1.
</event>
<event>
 5   0  0.3574092E-04  0.1721196E+04  0.7818609E-02  0.8749367E-01
       -2   -1    0    0    0  501  0.00000000000E+00  0.00000000000E+00  0.10419956040E+04  0.10419956040E+04  0.25500000920E-02 0.  1.
        2   -1    0    0  501    0  0.00000000000E+00  0.00000000000E+00 -0.71077919140E+03  0.71077919141E+03  0.25500000920E-02 0. -1.
    10030    2    1    2    0    0  0.00000000000E+00  0.00000000000E+00  0.33121641255E+03  0.17527747954E+04  0.17211958550E+04 0.  0.
        3    1    3    3  502    0 -0.16238070619E+03 -0.15912051332E+03 -0.67964561592E+03  0.71666240653E+03  0.10100000352E+00 0. -1.
       -3    1    3    3    0  502  0.16238070619E+03  0.15912051332E+03  0.10108620285E+04  0.10361123888E+04  0.10100000352E+00 0.  1.
</event>
<event>
 5   0  0.3516723E-04  0.1720533E+04  0.7818609E-02  0.8749740E-01
       -2   -1    0    0    0  501  0.00000000000E+00  0.00000000000E+00  0.87797540467E+03  0.87797540467E+03  0.25500000920E-02 0.  1.
        2   -1    0    0  501    0  0.00000000000E+00  0.00000000000E+00 -0.84291453770E+03  0.84291453771E+03  0.25500000920E-02 0. -1.
    10030    2    1    2    0    0  0.00000000000E+00  0.00000000000E+00  0.35060866969E+02  0.17208899424E+04  0.17205327458E+04 0.  0.
        1    1    3    3  502    0  0.37572574965E+03  0.31186541133E+03 -0.69087387512E+03  0.84601216604E+03  0.50400001928E-02 0. -1.
       -1    1    3    3    0  502 -0.37572574965E+03 -0.31186541133E+03  0.72593474209E+03  0.87487777634E+03  0.50400001928E-02 0.  1.
</event>
<event>
 5   0  0.3574092E-04  0.1694461E+04  0.7818609E-02  0.8764530E-01
       -2   -1    0    0    0  501  0.00000000000E+00  0.00000000000E+00  0.59907935413E+03  0.59907935413E+03  0.25500000920E-02 0.  1.
        2   -1    0    0  501    0  0.00000000000E+00  0.00000000000E+00 -0.11981710923E+04  0.11981710924E+04  0.25500000920E-02 0. -1.
    10030    2    1    2    0    0  0.00000000000E+00  0.00000000000E+00 -0.59909173822E+03  0.17972504465E+04  0.16944610520E+04 0.  0.
        3    1    3    3  502    0 -0.19196261744E+03  0.43969307048E+03 -0.10402038807E+04  0.11455146295E+04  0.10100000352E+00 0. -1.
       -3    1    3    3    0  502  0.19196261744E+03 -0.43969307048E+03  0.44111214248E+03  0.65173581700E+03  0.10100000352E+00 0.  1.
</event>
<event>
 5   0  0.1930116E-04  0.1710018E+04  0.7818609E-02  0.8755671E-01
        1   -1    0    0  501    0  0.00000000000E+00  0.00000000000E+00  0.84128795019E+03  0.84128795020E+03  0.50400001928E-02 0.  1.
       -1   -1    0    0    0  501  0.00000000000E+00  0.00000000000E+00 -0.86895427210E+03  0.86895427211E+03  0.50400001928E-02 0. -1.
    10030    2    1    2    0    0  0.00000000000E+00  0.00000000000E+00 -0.27666321911E+02  0.17102422223E+04  0.17100184308E+04 0.  0.
        1    1    3    3  502    0  0.51539259356E+03  0.61714892355E+03 -0.30462615904E+03  0.85982522417E+03  0.50400001928E-02 0. -1.
       -1    1    3    3    0  502 -0.51539259356E+03 -0.61714892355E+03  0.27695983713E+03  0.85041699815E+03  0.50400001928E-02 0.  1.
</event>
<event>
 5   0  0.1824538E-04  0.1761703E+04  0.7818609E-02  0.8726935E-01
       -1   -1    0    0    0  501  0.00000000000E+00  0.00000000000E+00  0.72160047749E+03  0.72160047751E+03  0.50400001928E-02 0. -1.
        1   -1    0    0  501    0  0.00000000000E+00  0.00000000000E+00 -0.10752476214E+04  0.10752476214E+04  0.50400001928E-02 0.  1.
    10030    2    1    2    0    0  0.00000000000E+00  0.00000000000E+00 -0.35364714394E+03  0.17968480990E+04  0.17617028093E+04 0.  0.
        3    1    3    3  502    0 -0.34939263876E+03 -0.27508277124E+03 -0.95235655800E+03  0.10510607836E+04  0.10100000352E+00 0.  1.
       -3    1    3    3    0  502  0.34939263876E+03  0.27508277124E+03  0.59870941406E+03  0.74578731535E+03  0.10100000352E+00 0. -1.
</event>
<event>
 5   0  0.3516723E-04  0.1782795E+04  0.7818609E-02  0.8715503E-01
        2   -1    0    0  501    0  0.00000000000E+00  0.00000000000E+00  0.11603159964E+04  0.11603159964E+04  0.25500000920E-02 0. -1.
       -2   -1    0    0    0  501  0.00000000000E+00  0.00000000000E+00 -0.68480433381E+03  0.68480433382E+03  0.25500000920E-02 0.  1.
    10030    2    1    2    0    0  0.00000000000E+00  0.00000000000E+00  0.47551166256E+03  0.18451203302E+04  0.17827949101E+04 0.  0.
        1    1    3    3  502    0 -0.18048980026E+02 -0.68220585794E+03  0.83126585580E+03  0.10755154677E+04  0.50400001928E-02 0. -1.
       -1    1    3    3    0  502  0.18048980026E+02  0.68220585794E+03 -0.35575419323E+03  0.76960486246E+03  0.50400001928E-02 0.  1.
</event>
<event>
 5   0  0.1893284E-04  0.1664117E+04  0.7818609E-02  0.8782098E-01
        1   -1    0    0  501    0  0.00000000000E+00  0.00000000000E+00  0.81033005358E+03  0.81033005360E+03  0.50400001928E-02 0. -1.
       -1   -1    0    0    0  501  0.00000000000E+00  0.00000000000E+00 -0.85436969696E+03  0.85436969697E+03  0.50400001928E-02 0.  1.
    10030    2    1    2    0    0  0.00000000000E+00  0.00000000000E+00 -0.44039643376E+02  0.16646997506E+04  0.16641171141E+04 0.  0.
        2    1    3    3  502    0  0.53068550404E+03  0.33030718497E+03  0.52734592494E+03  0.81781640067E+03  0.25500000920E-02 0. -1.
       -2    1    3    3    0  502 -0.53068550404E+03 -0.33030718497E+03 -0.57138556832E+03  0.84688334990E+03  0.25500000920E-02 0.  1.
</event>
<event>
 5   0  0.3516723E-04  0.1721472E+04  0.7818609E-02  0.8749212E-01
       -2   -1    0    0    0  501  0.00000000000E+00  0.00000000000E+00  0.74503119069E+03  0.74503119070E+03  0.25500000920E-02 0.  1.
        2   -1    0    0  501    0  0.00000000000E+00  0.00000000000E+00 -0.99441018509E+03  0.99441018509E+03  0.25500000920E-02 0. -1.
    10030    2    1    2    0    0  0.00000000000E+00  0.00000000000E+00 -0.24937899440E+03  0.17394413758E+04  0.17214721656E+04 0.  0.
        1    1    3    3  502    0 -0.74607738312E+03 -0.22002876014E+03 -0.49707745727E+03  0.92310894018E+03  0.50400001928E-02 0. -1.
       -1    1    3    3    0  502  0.74607738312E+03  0.22002876014E+03  0.24769846287E+03  0.81633243561E+03  0.50400001928E-02 0.  1.
</event>
<event>
 5   0  0.1317625E-04  0.1540892E+04  0.7818609E-02  0.8857707E-01
       -4   -1    0    0    0  501  0.00000000000E+00  0.00000000000E+00  0.11418621861E+04  0.11418628924E+04  0.12699999809E+01 0.  1.
        4   -1    0    0  501    0  0.00000000000E+00  0.00000000000E+00 -0.51983932600E+03  0.51984087735E+03  0.12699999809E+01 0. -1.
    10030    2    1    2    0    0  0.00000000000E+00  0.00000000000E+00  0.62202286011E+03  0.16617037697E+04  0.15408916184E+04 0.  0.
        1    1    3    3  502    0 -0.37760960999E+03  0.37252516515E+03  0.91359012116E+03  0.10564141829E+04  0.50400001928E-02 0.  1.
       -1    1    3    3    0  502  0.37760960999E+03 -0.37252516515E+03 -0.29156726105E+03  0.60528958686E+03  0.50400001928E-02 0. -1.
</event>
<event>
 5   0  0.3573262E-04  0.1696453E+04  0.7818609E-02  0.8763390E-01
       -2   -1    0    0    0  501  0.00000000000E+00  0.00000000000E+00  0.56639611335E+03  0.56639611335E+03  0.25500000920E-02 0.  1.
        2   -1    0    0  501    0  0.00000000000E+00  0.00000000000E+00 -0.12702913580E+04  0.12702913580E+04  0.25500000920E-02 0. -1.
    10030    2    1    2    0    0  0.00000000000E+00  0.00000000000E+00 -0.70389524465E+03  0.18366874714E+04  0.16964528735E+04 0.  0.
        5    1    3    3  502    0  0.17821656810E+03  0.34661749074E+02  0.54509858663E+03  0.57455821388E+03  0.46999998093E+01 0.  1.
       -5    1    3    3    0  502 -0.17821656810E+03 -0.34661749074E+02 -0.12489938313E+04  0.12621292575E+04  0.46999998093E+01 0. -1.
</event>
<event>
 5   0  0.1815663E-04  0.1715485E+04  0.7818609E-02  0.8752582E-01
        1   -1    0    0  501    0  0.00000000000E+00  0.00000000000E+00  0.14309499979E+04  0.14309499979E+04  0.50400001928E-02 0.  1.
       -1   -1    0    0    0  501  0.00000000000E+00  0.00000000000E+00 -0.51414949883E+03  0.51414949886E+03  0.50400001928E-02 0. -1.
    10030    2    1    2    0    0  0.00000000000E+00  0.00000000000E+00  0.91680049903E+03  0.19450994967E+04  0.17154850326E+04 0.  0.
        5    1    3    3  502    0 -0.63065398794E+03  0.58132049391E+03  0.45103764127E+03  0.96907946681E+03  0.46999998093E+01 0. -1.
       -5    1    3    3    0  502  0.63065398794E+03 -0.58132049391E+03  0.46576285777E+03  0.97602002993E+03  0.46999998093E+01 0.  1.
</event>
<event>
 5   0  0.1930116E-04  0.1640592E+04  0.7818609E-02  0.8795992E-01
       -1   -1    0    0    0  501  0.00000000000E+00  0.00000000000E+00  0.49546807074E+03  0.49546807076E+03  0.50400001928E-02 0.  1.
        1   -1    0    0  501    0  0.00000000000E+00  0.00000000000E+00 -0.13580807014E+04  0.13580807014E+04  0.50400001928E-02 0. -1.
    10030    2    1    2    0    0  0.00000000000E+00  0.00000000000E+00 -0.86261263066E+03  0.18535487722E+04  0.16405921188E+04 0.  0.
        1    1    3    3  502    0 -0.64045949466E+03  0.36316388390E+03 -0.22683481017E+02  0.73660770510E+03  0.50400001928E-02 0.  1.
       -1    1    3    3    0  502  0.64045949466E+03 -0.36316388390E+03 -0.83992914965E+03  0.11169410671E+04  0.50400001928E-02 0. -1.
</event>
<event>
 5   0  0.1824538E-04  0.1497886E+04  0.7818609E-02  0.8885860E-01
        1   -1    0    0  501    0  0.00000000000E+00  0.00000000000E+00  0.45984585853E+03  0.45984585856E+03  0.50400001928E-02 0. -1.
       -1   -1    0    0    0  501  0.00000000000E+00  0.00000000000E+00 -0.12197902757E+04  0.12197902758E+04  0.50400001928E-02 0.  1.
    10030    2    1    2    0    0  0.00000000000E+00  0.00000000000E+00 -0.75994441722E+03  0.16796361343E+04  0.14978858523E+04 0.  0.
        3    1    3    3  502    0  0.10750541728E+03 -0.73851105444E+03 -0.30941248176E+03  0.80789361078E+03  0.10100000352E+00 0.  1.
       -3    1    3    3    0  502 -0.10750541728E+03  0.73851105444E+03 -0.45053193546E+03  0.87174252353E+03  0.10100000352E+00 0. -1.
</event>
<event>
 5   0  0.1824538E-04  0.1665420E+04  0.7818609E-02  0.8781336E-01
       -1   -1    0    0    0  501  0.00000000000E+00  0.00000000000E+00  0.64675247335E+03  0.64675247337E+03  0.50400001928E-02 0.  1.
        1   -1    0    0  501    0  0.00000000000E+00  0.00000000000E+00 -0.10721348158E+04  0.10721348158E+04  0.50400001928E-02 0. -1.
    10030    2    1    2    0    0  0.00000000000E+00  0.00000000000E+00 -0.42538234243E+03  0.17188872891E+04  0.16654198797E+04 0.  0.
        3    1    3    3  502    0  0.30372736016E+03 -0.55520726215E+03 -0.77126894807E+03  0.99767791080E+03  0.10100000352E+00 0. -1.
       -3    1    3    3    0  502 -0.30372736016E+03  0.55520726215E+03  0.34588660564E+03  0.72120937835E+03  0.10100000352E+00 0.  1.
</event>
<event>
 5   0  0.3516723E-04  0.1693937E+04  0.7818609E-02  0.8764830E-01
        2   -1    0    0  501    0  0.00000000000E+00  0.00000000000E+00  0.38137067388E+03  0.38137067389E+03  0.25500000920E-02 0.  1.
       -2   -1    0    0    0  501  0.00000000000E+00  0.00000000000E+00 -0.18809939416E+04  0.18809939416E+04  0.25500000920E-02 0. -1.
    10030    2    1    2    0    0  0.00000000000E+00  0.00000000000E+00 -0.14996232677E+04  0.22623646155E+04  0.16939373389E+04 0.  0.
        1    1    3    3  502    0  0.83301058683E+03 -0.13122753215E+03 -0.64440660810E+03  0.10613138930E+04  0.50400001928E-02 0.  1.
       -1    1    3    3    0  502 -0.83301058683E+03  0.13122753215E+03 -0.85521665959E+03  0.12010507224E+04  0.50400001928E-02 0. -1.
</event>
<event>
 5   0  0.1920289E-04  0.1709196E+04  0.7818609E-02  0.8756137E-01
       -1   -1    0    0    0  501  0.00000000000E+00  0.00000000000E+00  0.64226573362E+03  0.64226573364E+03  0.50400001928E-02 0. -1.
        1   -1    0    0  501    0  0.00000000000E+00  0.00000000000E+00 -0.11371266575E+04  0.11371266575E+04  0.50400001928E-02 0.  1.
    10030    2    1    2    0    0  0.00000000000E+00  0.00000000000E+00 -0.49486092383E+03  0.17793923911E+04  0.17091957020E+04 0.  0.
        4    1    3    3  502    0 -0.14464450501E+03 -0.52361822970E+03  0.43939001640E+03  0.69868682736E+03  0.12699999809E+01 0. -1.
       -4    1    3    3    0  502  0.14464450501E+03  0.52361822970E+03 -0.93425094023E+03  0.10807055638E+04  0.12699999809E+01 0.  1.
</event>
<event>
 5   0  0.1930116E-04  0.1704580E+04  0.7818609E-02  0.8758756E-01
        1   -1    0    0  501    0  0.00000000000E+00  0.00000000000E+00  0.10488499658E+04  0.10488499658E+04  0.50400001928E-02 0.  1.
       -1   -1    0    0    0  501  0.00000000000E+00  0.00000000000E+00 -0.69256680442E+03  0.69256680444E+03  0.50400001928E-02 0. -1.
    10030    2    1    2    0    0  0.00000000000E+00  0.00000000000E+00  0.35628316141E+03  0.17414167703E+04  0.17045804987E+04 0.  0.
        1    1    3    3  502    0 -0.57905093441E+03  0.25235453283E+03 -0.40642646631E+03  0.75110935784E+03  0.50400001928E-02 0. -1.
       -1    1    3    3    0  502  0.57905093441E+03 -0.25235453283E+03  0.76270962772E+03  0.99030741244E+03  0.50400001928E-02 0.  1.
</event>
<event>
 5   0  0.3678896E-04  0.1697420E+04  0.7818609E-02  0.8762837E-01
       -2   -1    0    0    0  501  0.00000000000E+00  0.00000000000E+00  0.79426534452E+03  0.79426534452E+03  0.25500000920E-02 0. -1.
        2   -1    0    0  501    0  0.00000000000E+00  0.00000000000E+00 -0.90688685771E+03  0.90688685772E+03  0.25500000920E-02 0.  1.
    10030    2    1    2    0    0  0.00000000000E+00  0.00000000000E+00 -0.11262151320E+03  0.17011522022E+04  0.16974201631E+04 0.  0.
        2    1    3    3  502    0  0.48051022320E+03 -0.69511091914E+03 -0.13547517605E+03  0.85581702942E+03  0.25500000920E-02 0.  1.
       -2    1    3    3    0  502 -0.48051022320E+03  0.69511091914E+03  0.22853662849E+02  0.84533517283E+03  0.25500000920E-02 0. -1.
</event>
<event>
 5   0  0.1824538E-04  0.1707350E+04  0.7818609E-02  0.8757184E-01
       -1   -1    0    0    0  501  0.00000000000E+00  0.00000000000E+00  0.54379375348E+03  0.54379375350E+03  0.50400001928E-02 0.  1.
        1   -1    0    0  501    0  0.00000000000E+00  0.00000000000E+00 -0.13401418979E+04  0.13401418979E+04  0.50400001928E-02 0. -1.
    10030    2    1    2    0    0  0.00000000000E+00  0.00000000000E+00 -0.79634814441E+03  0.18839356514E+04  0.17073497508E+04 0.  0.
        3    1    3    3  502    0 -0.17937399747E+03  0.41710007153E+02  0.52161418048E+03  0.55316915961E+03  0.10100000352E+00 0.  1.
       -3    1    3    3    0  502  0.17937399747E+03 -0.41710007153E+02 -0.13179623249E+04  0.13307664918E+04  0.10100000352E+00 0. -1.
</event>
<event>
 5   0  0.3574092E-04  0.1713253E+04  0.7818609E-02  0.8753842E-01
       -2   -1    0    0    0  501  0.00000000000E+00  0.00000000000E+00  0.89170432749E+03  0.89170432750E+03  0.25500000920E-02 0. -1.
        2   -1    0    0  501    0  0.00000000000E+00  0.00000000000E+00 -0.82292835107E+03  0.82292835107E+03  0.25500000920E-02 0.  1.
    10030    2    1    2    0    0  0.00000000000E+00  0.00000000000E+00  0.68775976428E+02  0.17146326786E+04  0.17132527798E+04 0.  0.
        3    1    3    3  502    0 -0.45683215245E+03 -0.20810233072E+03  0.72906992837E+03  0.88518086639E+03  0.10100000352E+00 0. -1.
       -3    1    3    3    0  502  0.45683215245E+03  0.20810233072E+03 -0.66029395194E+03  0.82945181218E+03  0.10100000352E+00 0.  1.
</event>
<event>
 5   0  0.1930116E-04  0.1695160E+04  0.7818609E-02  0.8764130E-01
        1   -1    0    0  501    0  0.00000000000E+00  0.00000000000E+00  0.55523366268E+03  0.55523366271E+03  0.50400001928E-02 0. -1.
       -1   -1    0    0    0  501  0.00000000000E+00  0.00000000000E+00 -0.12938544389E+04  0.12938544390E+04  0.50400001928E-02 0.  1.
    10030    2    1    2    0    0  0.00000000000E+00  0.00000000000E+00 -0.73862077626E+03  0.18490881017E+04  0.16951596257E+04 0.  0.
        1    1    3    3  502    0  0.18383358568E+03 -0.61483435028E+03  0.23466008575E+03  0.68328721734E+03  0.50400001928E-02 0. -1.
       -1    1    3    3    0  502 -0.18383358568E+03  0.61483435028E+03 -0.97328086200E+03  0.11658008843E+04  0.50400001928E-02 0.  1.
</event>
<event>
 5   0  0.3678896E-04  0.1704839E+04  0.7818609E-02  0.8758609E-01
        2   -1    0    0  501    0  0.00000000000E+00  0.00000000000E+00  0.71168632576E+03  0.71168632577E+03  0.25500000920E-02 0. -1.
       -2   -1    0    0    0  501  0.00000000000E+00  0.00000000000E+00 -0.10209825679E+04  0.10209825679E+04  0.25500000920E-02 0.  1.
    10030    2    1    2    0    0  0.00000000000E+00  0.00000000000E+00 -0.30929624217E+03  0.17326688937E+04  0.17048393853E+04 0.  0.
        2    1    3    3  502    0  0.40232696049E+03  0.56215241217E+03 -0.66152480885E+03  0.95681627828E+03  0.25500000920E-02 0.  1.
       -2    1    3    3    0  502 -0.40232696049E+03 -0.56215241217E+03  0.35222856669E+03  0.77585261542E+03  0.25500000920E-02 0. -1.
</event>
<event>
 5   0  0.1893284E-04  0.1679851E+04  0.7818609E-02  0.8772940E-01
        1   -1    0    0  501    0  0.00000000000E+00  0.00000000000E+00  0.17357264478E+04  0.17357264478E+04  0.50400001928E-02 0.  1.
       -1   -1    0    0    0  501  0.00000000000E+00  0.00000000000E+00 -0.40644344003E+03  0.40644344006E+03  0.50400001928E-02 0. -1.
    10030    2    1    2    0    0  0.00000000000E+00  0.00000000000E+00  0.13292830078E+04  0.21421698879E+04  0.16798507415E+04 0.  0.
        2    1    3    3  502    0  0.77295126756E+02  0.11674522938E+03 -0.39145674387E+03  0.41574315091E+03  0.25500000920E-02 0. -1.
       -2    1    3    3    0  502 -0.77295126756E+02 -0.11674522938E+03  0.17207397517E+04  0.17264267370E+04  0.25500000920E-02 0.  1.
</event>
<event>
 5   0  0.3574092E-04  0.1638430E+04  0.7818609E-02  0.8797281E-01
       -2   -1    0    0    0  501  0.00000000000E+00  0.00000000000E+00  0.14217664026E+04  0.14217664026E+04  0.25500000920E-02 0. -1.
        2   -1    0    0  501    0  0.00000000000E+00  0.00000000000E+00 -0.47202792232E+03  0.47202792232E+03  0.25500000920E-02 0.  1.
    10030    2    1    2    0    0  0.00000000000E+00  0.00000000000E+00  0.94973848031E+03  0.18937943250E+04  0.16384302745E+04 0.  0.
        3    1    3    3  502    0  0.61578796196E+03  0.22239102381E+03  0.10440178215E+04  0.12323253643E+04  0.10100000352E+00 0. -1.
       -3    1    3    3    0  502 -0.61578796196E+03 -0.22239102381E+03 -0.94279341208E+02  0.66146896068E+03  0.10100000352E+00 0.  1.
</event>
<event>
 5   0  0.3573262E-04  0.1689771E+04  0.7818609E-02  0.8767220E-01
       -2   -1    0    0    0  501  0.00000000000E+00  0.00000000000E+00  0.50831426752E+03  0.50831426753E+03  0.25500000920E-02 0.  1.
        2   -1    0    0  501    0  0.00000000000E+00  0.00000000000E+00 -0.14043105844E+04  0.14043105844E+04  0.25500000920E-02 0. -1.
    10030    2    1    2    0    0  0.00000000000E+00  0.00000000000E+00 -0.89599631687E+03  0.19126248519E+04  0.16897705242E+04 0.  0.
        5    1    3    3  502    0  0.35327579356E+02  0.52914333635E+03  0.29644134919E+03  0.60756914978E+03  0.46999998093E+01 0.  1.
       -5    1    3    3    0  502 -0.35327579356E+02 -0.52914333635E+03 -0.11924376661E+04  0.13050557021E+04  0.46999998093E+01 0. -1.
</event>
<event>
 5   0  0.1893284E-04  0.1706759E+04  0.7818609E-02  0.8757519E-01
       -1   -1    0    0    0  501  0.00000000000E+00  0.00000000000E+00  0.15947078746E+04  0.15947078746E+04  0.50400001928E-02 0. -1.
        1   -1    0    0  501    0  0.00000000000E+00  0.00000000000E+00 -0.45667085155E+03  0.45667085158E+03  0.50400001928E-02 0.  1.
    10030    2    1    2    0    0  0.00000000000E+00  0.00000000000E+00  0.11380370231E+04  0.20513787262E+04  0.17067590376E+04 0.  0.
        2    1    3    3  502    0 -0.72911492760E+03 -0.41384195271E+03  0.37752946159E+03  0.91945757589E+03  0.25500000920E-02 0. -1.
       -2    1    3    3    0  502  0.72911492760E+03  0.41384195271E+03  0.76050756146E+03  0.11319211503E+04  0.25500000920E-02 0.  1.
</event>
<event>
 5   0  0.3574092E-04  0.1682680E+04  0.7818609E-02  0.8771305E-01
        2   -1    0    0  501    0  0.00000000000E+00  0.00000000000E+00  0.86164148792E+03  0.86164148792E+03  0.25500000920E-02 0. -1.
       -2   -1    0    0    0  501  0.00000000000E+00  0.00000000000E+00 -0.82151682034E+03  0.82151682034E+03  0.25500000920E-02 0.  1.
    10030    2    1    2    0    0  0.00000000000E+00  0.00000000000E+00  0.40124667582E+02  0.16831583083E+04  0.16826799760E+04 0.  0.
        3    1    3    3  502    0  0.57324458275E+03 -0.20519804770E+03  0.60086270986E+03  0.85542480484E+03  0.10100000352E+00 0. -1.
       -3    1    3    3    0  502 -0.57324458275E+03  0.20519804770E+03 -0.56073804228E+03  0.82773350342E+03  0.10100000352E+00 0.  1.
</event>
<event>
 5   0  0.3516723E-04  0.1705916E+04  0.7818609E-02  0.8757997E-01
        2   -1    0    0  501    0  0.00000000000E+00  0.00000000000E+00  0.70991669054E+03  0.70991669054E+03  0.25500000920E-02 0. -1.
       -2   -1    0    0    0  501  0.00000000000E+00  0.00000000000E+00 -0.10248206994E+04  0.10248206994E+04  0.25500000920E-02 0.  1.
    10030    2    1    2    0    0  0.00000000000E+00  0.00000000000E+00 -0.31490400885E+03  0.17347373899E+04  0.17059159643E+04 0.  0.
        1    1    3    3  502    0  0.81005505768E+03  0.22860185223E+02 -0.42807895061E+03  0.91649515684E+03  0.50400001928E-02 0.  1.
       -1    1    3    3    0  502 -0.81005505768E+03 -0.22860185223E+02  0.11317494176E+03  0.81824223309E+03  0.50400001928E-02 0. -1.
</event>
<event>
 5   0  0.1815663E-04  0.1691547E+04  0.7818609E-02  0.8766200E-01
        1   -1    0    0  501    0  0.00000000000E+00  0.00000000000E+00  0.69801501308E+03  0.69801501309E+03  0.50400001928E-02 0.  1.
       -1   -1    0    0    0  501  0.00000000000E+00  0.00000000000E+00 -0.10248101321E+04  0.10248101321E+04  0.50400001928E-02 0. -1.
    10030    2    1    2    0    0  0.00000000000E+00  0.00000000000E+00 -0.32679511904E+03  0.17228251452E+04  0.16915470526E+04 0.  0.
        5    1    3    3  502    0 -0.33648821818E+03  0.34913764902E+03  0.54237274345E+03  0.72753811018E+03  0.46999998093E+01 0. -1.
       -5    1    3    3    0  502  0.33648821818E+03 -0.34913764902E+03 -0.86916786248E+03  0.99528703504E+03  0.46999998093E+01 0.  1.
</event>
<event>
 5   0  0.3574092E-04  0.1678831E+04  0.7818609E-02  0.8773531E-01
       -2   -1    0    0    0  501  0.00000000000E+00  0.00000000000E+00  0.31005936974E+03  0.31005936975E+03  0.25500000920E-02 0. -1.
        2   -1    0    0  501    0  0.00000000000E+00  0.00000000000E+00 -0.22725276025E+04  0.22725276025E+04  0.25500000920E-02 0.  1.
    10030    2    1    2    0    0  0.00000000000E+00  0.00000000000E+00 -0.19624682327E+04  0.25825869722E+04  0.16788311126E+04 0.  0.
        3    1    3    3  502    0  0.19593932068E+02 -0.70183496063E+03 -0.16889674196E+04  0.18290891692E+04  0.10100000352E+00 0.  1.
       -3    1    3    3    0  502 -0.19593932068E+02  0.70183496063E+03 -0.27350081307E+03  0.75349780298E+03  0.10100000352E+00 0. -1.
</event>
<event>
 5   0  0.1920289E-04  0.1701885E+04  0.7818609E-02  0.8760290E-01
        1   -1    0    0  501    0  0.00000000000E+00  0.00000000000E+00  0.16725624423E+04  0.16725624423E+04  0.50400001928E-02 0.  1.
       -1   -1    0    0    0  501  0.00000000000E+00  0.00000000000E+00 -0.43293034637E+03  0.43293034640E+03  0.50400001928E-02 0. -1.
    10030    2    1    2    0    0  0.00000000000E+00  0.00000000000E+00  0.12396320959E+04  0.21054927887E+04  0.17018848815E+04 0.  0.
        4    1    3    3  502    0  0.44644347891E+03 -0.33578918064E+03 -0.17431243839E+03  0.58519449141E+03  0.12699999809E+01 0. -1.
       -4    1    3    3    0  502 -0.44644347891E+03  0.33578918064E+03  0.14139445343E+04  0.15202982972E+04  0.12699999809E+01 0.  1.
</event>
<event>
 5   0  0.1930116E-04  0.1696832E+04  0.7818609E-02  0.8763173E-01
        1   -1    0    0  501    0  0.00000000000E+00  0.00000000000E+00  0.51128789796E+03  0.51128789798E+03  0.50400001928E-02 0. -1.
       -1   -1    0    0    0  501  0.00000000000E+00  0.00000000000E+00 -0.14078358628E+04  0.14078358628E+04  0.50400001928E-02 0.  1.
    10030    2    1    2    0    0  0.00000000000E+00  0.00000000000E+00 -0.89654796480E+03  0.19191237608E+04  0.16968316817E+04 0.  0.
        1    1    3    3  502    0 -0.20764589160E+03 -0.32652608155E+03 -0.13022183612E+04  0.13584950344E+04  0.50400001928E-02 0.  1.
       -1    1    3    3    0  502  0.20764589160E+03  0.32652608155E+03  0.40567039642E+03  0.56062872633E+03  0.50400001928E-02 0. -1.
</event>
<event>
 5   0  0.1824538E-04  0.1703946E+04  0.7818609E-02  0.8759117E-01
        1   -1    0    0  501    0  0.00000000000E+00  0.00000000000E+00  0.11104509702E+04  0.11104509702E+04  0.50400001928E-02 0.  1.
       -1   -1    0    0    0  501  0.00000000000E+00  0.00000000000E+00 -0.65366050430E+03  0.65366050431E+03  0.50400001928E-02 0. -1.
    10030    2    1    2    0    0  0.00000000000E+00  0.00000000000E+00  0.45679046594E+03  0.17641114746E+04  0.17039459395E+04 0.  0.
        3    1    3    3  502    0  0.57491529782E+03  0.42614637845E+03  0.70702812985E+03  0.10059906173E+04  0.10100000352E+00 0. -1.
       -3    1    3    3    0  502 -0.57491529782E+03 -0.42614637845E+03 -0.25023766392E+03  0.75812085724E+03  0.10100000352E+00 0.  1.
</event>
<event>
 5   0  0.3605571E-04  0.1694132E+04  0.7818609E-02  0.8764718E-01
       -2   -1    0    0    0  501  0.00000000000E+00  0.00000000000E+00  0.71133544891E+03  0.71133544892E+03  0.25500000920E-02 0. -1.
        2   -1    0    0  501    0  0.00000000000E+00  0.00000000000E+00 -0.10086952602E+04  0.10086952602E+04  0.25500000920E-02 0.  1.
    10030    2    1    2    0    0  0.00000000000E+00  0.00000000000E+00 -0.29735981130E+03  0.17200307091E+04  0.16941318671E+04 0.  0.
        4    1    3    3  502    0 -0.54455269435E+03 -0.60668524093E+03 -0.38222792643E+03  0.90039125891E+03  0.12699999809E+01 0.  1.
       -4    1    3    3    0  502  0.54455269435E+03  0.60668524093E+03  0.84868115131E+02  0.81963945022E+03  0.12699999809E+01 0. -1.
</event>
<event>
 5   0  0.3605571E-04  0.1706480E+04  0.7818609E-02  0.8757677E-01
        2   -1    0    0  501    0  0.00000000000E+00  0.00000000000E+00  0.14418920382E+04  0.14418920382E+04  0.25500000920E-02 0.  1.
       -2   -1    0    0    0  501  0.00000000000E+00  0.00000000000E+00 -0.50490510809E+03  0.50490510809E+03  0.25500000920E-02 0. -1.
    10030    2    1    2    0    0  0.00000000000E+00  0.00000000000E+00  0.93698693007E+03  0.19467971463E+04  0.17064801849E+04 0.  0.
        4    1    3    3  502    0 -0.46973654940E+03  0.57446942797E+01  0.12810721287E+04  0.13644899557E+04  0.12699999809E+01 0.  1.
       -4    1    3    3    0  502  0.46973654940E+03 -0.57446942797E+01 -0.34408519864E+03  0.58230719056E+03  0.12699999809E+01 0. -1.
</event>
<event>
 5   0  0.1317625E-04  0.1717975E+04  0.7818609E-02  0.8751179E-01
       -4   -1    0    0    0  501  0.00000000000E+00  0.00000000000E+00  0.12393853143E+04  0.12393859649E+04  0.12699999809E+01 0. -1.
        4   -1    0    0  501    0  0.00000000000E+00  0.00000000000E+00 -0.59534131551E+03  0.59534267011E+03  0.12699999809E+01 0.  1.
    10030    2    1    2    0    0  0.00000000000E+00  0.00000000000E+00  0.64404399875E+03  0.18347286351E+04  0.17179745318E+04 0.  0.
        5    1    3    3  502    0  0.47606520595E+03 -0.67001217797E+03  0.58854739920E+03  0.10109226133E+04  0.46999998093E+01 0. -1.
       -5    1    3    3    0  502 -0.47606520595E+03  0.67001217797E+03  0.55496599541E+02  0.82380602177E+03  0.46999998093E+01 0.  1.
</event>
<event>
 5   0  0.1815663E-04  0.1703645E+04  0.7818609E-02  0.8759288E-01
        1   -1    0    0  501    0  0.00000000000E+00  0.00000000000E+00  0.63100658573E+03  0.63100658575E+03  0.50400001928E-02 0. -1.
       -1   -1    0    0    0  501  0.00000000000E+00  0.00000000000E+00 -0.11499109805E+04  0.11499109805E+04  0.50400001928E-02 0.  1.
    10030    2    1    2    0    0  0.00000000000E+00  0.00000000000E+00 -0.51890439478E+03  0.17809175663E+04  0.17036448007E+04 0.  0.
        5    1    3    3  502    0 -0.44367583305E+03 -0.62161532861E+03 -0.65382417522E+03  0.10053666016E+04  0.46999998093E+01 0.  1.
       -5    1    3    3    0  502  0.44367583305E+03  0.62161532861E+03  0.13491978044E+03  0.77555096463E+03  0.46999998093E+01 0. -1.
</event>
<event>
 5   0  0.1815663E-04  0.1707426E+04  0.7818609E-02  0.8757141E-01
        1   -1    0    0  501    0  0.00000000000E+00  0.00000000000E+00  0.15288255796E+04  0.15288255796E+04  0.50400001928E-02 0. -1.
       -1   -1    0    0    0  501  0.00000000000E+00  0.00000000000E+00 -0.47672251268E+03  0.47672251270E+03  0.50400001928E-02 0.  1.
    10030    2    1    2    0    0  0.00000000000E+00  0.00000000000E+00  0.10521030669E+04  0.20055480923E+04  0.17074256315E+04 0.  0.
        5    1    3    3  502    0 -0.24069823209E+03 -0.74236348224E+03  0.93254631988E+03  0.12160196986E+04  0.46999998093E+01 0. -1.
       -5    1    3    3    0  502  0.24069823209E+03  0.74236348224E+03  0.11955674705E+03  0.78952839370E+03  0.46999998093E+01 0.  1.
</event>
<event>
 5   0  0.3678896E-04  0.1711869E+04  0.7818609E-02  0.8754624E-01
        2   -1    0    0  501    0  0.00000000000E+00  0.00000000000E+00  0.69375742769E+03  0.69375742770E+03  0.25500000920E-02 0. -1.
       -2   -1    0    0    0  501  0.00000000000E+00  0.00000000000E+00 -0.10560235151E+04  0.10560235151E+04  0.25500000920E-02 0.  1.
    10030    2    1    2    0    0  0.00000000000E+00  0.00000000000E+00 -0.36226608745E+03  0.17497809428E+04  0.17118693378E+04 0.  0.
        2    1    3    3  502    0  0.37769146135E+03  0.43513224374E+03  0.46584056159E+03  0.74094422081E+03  0.25500000920E-02 0. -1.
       -2    1    3    3    0  502 -0.37769146135E+03 -0.43513224374E+03 -0.82810664904E+03  0.10088367220E+04  0.25500000920E-02 0.  1.
</event>
<event>
 5   0  0.3574092E-04  0.1678341E+04  0.7818609E-02  0.8773815E-01
       -2   -1    0    0    0  501  0.00000000000E+00  0.00000000000E+00  0.52779883628E+03  0.52779883629E+03  0.25500000920E-02 0.  1.
        2   -1    0    0  501    0  0.00000000000E+00  0.00000000000E+00 -0.13342341238E+04  0.13342341238E+04  0.25500000920E-02 0. -1.
    10030    2    1    2    0    0  0.00000000000E+00  0.00000000000E+00 -0.80643528752E+03  0.18620329601E+04  0.16783411070E+04 0.  0.
        3    1    3    3  502    0  0.12842620681E+03  0.45610144166E+03 -0.11716141455E+04  0.12638043882E+04  0.10100000352E+00 0. -1.
       -3    1    3    3    0  502 -0.12842620681E+03 -0.45610144166E+03  0.36517885795E+03  0.59822857185E+03  0.10100000352E+00 0.  1.
</event>
<event>
 5   0  0.3516723E-04  0.1688414E+04  0.7818609E-02  0.8768000E-01
       -2   -1    0    0    0  501  0.00000000000E+00  0.00000000000E+00  0.39350706402E+03  0.39350706403E+03  0.25500000920E-02 0.  1.
        2   -1    0    0  501    0  0.00000000000E+00  0.00000000000E+00 -0.18111114284E+04  0.18111114284E+04  0.25500000920E-02 0. -1.
    10030    2    1    2    0    0  0.00000000000E+00  0.00000000000E+00 -0.14176043644E+04  0.22046184924E+04  0.16884136233E+04 0.  0.
        1    1    3    3  502    0 -0.60861073834E+03 -0.27179065760E+02 -0.14718908588E+04  0.15929872670E+04  0.50400001928E-02 0. -1.
       -1    1    3    3    0  502  0.60861073834E+03  0.27179065760E+02  0.54286494450E+02  0.61163122545E+03  0.50400001928E-02 0.  1.
</event>
<event>
 5   0  0.3678896E-04  0.1691133E+04  0.7818609E-02  0.8766438E-01
        2   -1    0    0  501    0  0.00000000000E+00  0.00000000000E+00  0.11603891714E+04  0.11603891714E+04  0.25500000920E-02 0.  1.
       -2   -1    0    0    0  501  0.00000000000E+00  0.00000000000E+00 -0.61615786769E+03  0.61615786770E+03  0.25500000920E-02 0. -1.
    10030    2    1    2    0    0  0.00000000000E+00  0.00000000000E+00  0.54423130367E+03  0.17765470391E+04  0.16911332503E+04 0.  0.
        2    1    3    3  502    0  0.25373912934E+03  0.68973935454E+03  0.71139710873E+03  0.10228439614E+04  0.25500000920E-02 0.  1.
       -2    1    3    3    0  502 -0.25373912934E+03 -0.68973935454E+03 -0.16716580506E+03  0.75370307771E+03  0.25500000920E-02 0. -1.
</event>
<event>
 5   0  0.3574092E-04  0.1730568E+04  0.7818609E-02  0.8744120E-01
       -2   -1    0    0    0  501  0.00000000000E+00  0.00000000000E+00  0.47642131376E+03  0.47642131377E+03  0.25500000920E-02 0.  1.
        2   -1    0    0  501    0  0.00000000000E+00  0.00000000000E+00 -0.15715426639E+04  0.15715426639E+04  0.25500000920E-02 0. -1.
    10030    2    1    2    0    0  0.00000000000E+00  0.00000000000E+00 -0.10951213502E+04  0.20479639777E+04  0.17305680230E+04 0.  0.
        3    1    3    3  502    0  0.77881843395E+03 -0.37676351721E+03 -0.53051349492E+03  0.10148662372E+04  0.10100000352E+00 0. -1.
       -3    1    3    3    0  502 -0.77881843395E+03  0.37676351721E+03 -0.56460785524E+03  0.10330977405E+04  0.10100000352E+00 0.  1.
</event>
<event>
 5   0  0.1824538E-04  0.1722644E+04  0.7818609E-02  0.8748554E-01
        1   -1    0    0  501    0  0.00000000000E+00  0.00000000000E+00  0.17395336921E+04  0.17395336921E+04  0.50400001928E-02 0. -1.
       -1   -1    0    0    0  501  0.00000000000E+00  0.00000000000E+00 -0.42647972925E+03  0.42647972928E+03  0.50400001928E-02 0.  1.
    10030    2    1    2    0    0  0.00000000000E+00  0.00000000000E+00  0.13130539628E+04  0.21660134214E+04  0.17226443139E+04 0.  0.
        3    1    3    3  502    0 -0.83284081366E+03 -0.17820488525E+03  0.49503822439E+03  0.98511098656E+03  0.10100000352E+00 0.  1.
       -3    1    3    3    0  502  0.83284081366E+03  0.17820488525E+03  0.81801573846E+03  0.11809024348E+04  0.10100000352E+00 0. -1.
</event>
<event>
 5   0  0.3573262E-04  0.1698161E+04  0.7818609E-02  0.8762414E-01
        2   -1    0    0  501    0  0.00000000000E+00  0.00000000000E+00  0.14292081015E+04  0.14292081015E+04  0.25500000920E-02 0. -1.
       -2   -1    0    0    0  501  0.00000000000E+00  0.00000000000E+00 -0.50443160465E+03  0.50443160466E+03  0.25500000920E-02 0.  1.
    10030    2    1    2    0    0  0.00000000000E+00  0.00000000000E+00  0.92477649684E+03  0.19336397062E+04  0.16981610478E+04 0.  0.
        5    1    3    3  502    0 -0.51836640106E+03  0.47616935083E+03 -0.78298294032E+02  0.70823279313E+03  0.46999998093E+01 0. -1.
       -5    1    3    3    0  502  0.51836640106E+03 -0.47616935083E+03  0.10030747909E+04  0.12254069130E+04  0.46999998093E+01 0.  1.
</event>
<event>
 5   0  0.1815663E-04  0.1694951E+04  0.7818609E-02  0.8764249E-01
        1   -1    0    0  501    0  0.00000000000E+00  0.00000000000E+00  0.11162537691E+04  0.11162537691E+04  0.50400001928E-02 0. -1.
       -1   -1    0    0    0  501  0.00000000000E+00  0.00000000000E+00 -0.64341535380E+03  0.64341535382E+03  0.50400001928E-02 0.  1.
    10030    2    1    2    0    0  0.00000000000E+00  0.00000000000E+00  0.47283841529E+03  0.17596691229E+04  0.16949511070E+04 0.  0.
        5    1    3    3  502    0 -0.18355112518E+03 -0.24425281512E+02 -0.62214299292E+03  0.64913142241E+03  0.46999998093E+01 0.  1.
       -5    1    3    3    0  502  0.18355112518E+03  0.24425281512E+02  0.10949814082E+04  0.11105377005E+04  0.46999998093E+01 0. -1.
</event>
<event>
 5   0  0.1824538E-04  0.1688211E+04  0.7818609E-02  0.8768117E-01
       -1   -1    0    0    0  501  0.00000000000E+00  0.00000000000E+00  0.14153545659E+04  0.14153545659E+04  0.50400001928E-02 0. -1.
        1   -1    0    0  501    0  0.00000000000E+00  0.00000000000E+00 -0.50341720829E+03  0.50341720831E+03  0.50400001928E-02 0.  1.
    10030    2    1    2    0    0  0.00000000000E+00  0.00000000000E+00  0.91193735761E+03  0.19187717742E+04  0.16882107029E+04 0.  0.
        3    1    3    3  502    0  0.44909368610E+03 -0.33258982421E+03  0.11749905603E+04  0.13011164272E+04  0.10100000352E+00 0. -1.
       -3    1    3    3    0  502 -0.44909368610E+03  0.33258982421E+03 -0.26305320270E+03  0.61765534703E+03  0.10100000352E+00 0.  1.
</event>
<event>
 5   0  0.3574092E-04  0.1707197E+04  0.7818609E-02  0.8757270E-01
        2   -1    0    0  501    0  0.00000000000E+00  0.00000000000E+00  0.54841230125E+03  0.54841230126E+03  0.25500000920E-02 0.  1.
       -2   -1    0    0    0  501  0.00000000000E+00  0.00000000000E+00 -0.13286184217E+04  0.13286184217E+04  0.25500000920E-02 0. -1.
    10030    2    1    2    0    0  0.00000000000E+00  0.00000000000E+00 -0.78020612045E+03  0.18770307230E+04  0.17071973361E+04 0.  0.
        3    1    3    3  502    0  0.49745064926E+03 -0.40909182768E+03  0.22581958167E+03  0.68250111032E+03  0.10100000352E+00 0.  1.
       -3    1    3    3    0  502 -0.49745064926E+03  0.40909182768E+03 -0.10060257021E+04  0.11945296126E+04  0.10100000352E+00 0. -1.
</event>
<event>
 5   0  0.1930116E-04  0.1745468E+04  0.7818609E-02  0.8735849E-01
       -1   -1    0    0    0  501  0.00000000000E+00  0.00000000000E+00  0.16867737836E+04  0.16867737836E+04  0.50400001928E-02 0.  1.
        1   -1    0    0  501    0  0.00000000000E+00  0.00000000000E+00 -0.45155092882E+03  0.45155092885E+03  0.50400001928E-02 0. -1.
    10030    2    1    2    0    0  0.00000000000E+00  0.00000000000E+00  0.12352228547E+04  0.21383247124E+04  0.17454675806E+04 0.  0.
        1    1    3    3  502    0  0.69528475056E+03  0.52621111838E+03  0.66254410232E+03  0.10951181274E+04  0.50400001928E-02 0.  1.
       -1    1    3    3    0  502 -0.69528475056E+03 -0.52621111838E+03  0.57267875242E+03  0.10432065850E+04  0.50400001928E-02 0. -1.
</event>
<event>
 5   0  0.1824538E-04  0.1710814E+04  0.7818609E-02  0.8755221E-01
        1   -1    0    0  501    0  0.00000000000E+00  0.00000000000E+00  0.13859027424E+04  0.13859027424E+04  0.50400001928E-02 0. -1.
       -1   -1    0    0    0  501  0.00000000000E+00  0.00000000000E+00 -0.52797419229E+03  0.52797419231E+03  0.50400001928E-02 0.  1.
    10030    2    1    2    0    0  0.00000000000E+00  0.00000000000E+00  0.85792855014E+03  0.19138769347E+04  0.17108137024E+04 0.  0.
        3    1    3    3  502    0 -0.71660466635E+03 -0.30063943856E+03  0.29018201123E+02  0.77765569891E+03  0.10100000352E+00 0.  1.
       -3    1    3    3    0  502  0.71660466635E+03  0.30063943856E+03  0.82891034901E+03  0.11362212358E+04  0.10100000352E+00 0. -1.
</event>
<event>
 5   0  0.1893284E-04  0.1719292E+04  0.7818609E-02  0.8750437E-01
       -1   -1    0    0    0  501  0.00000000000E+00  0.00000000000E+00  0.10828709036E+04  0.10828709036E+04  0.50400001928E-02 0. -1.
        1   -1    0    0  501    0  0.00000000000E+00  0.00000000000E+00 -0.68243683065E+03  0.68243683067E+03  0.50400001928E-02 0.  1.
    10030    2    1    2    0    0  0.00000000000E+00  0.00000000000E+00  0.40043407298E+03  0.17653077343E+04  0.17192917001E+04 0.  0.
        2    1    3    3  502    0 -0.57532292914E+03 -0.37702861750E+03 -0.32918332896E+03  0.76256718739E+03  0.25500000920E-02 0.  1.
       -2    1    3    3    0  502  0.57532292914E+03  0.37702861750E+03  0.72961740195E+03  0.10027405469E+04  0.25500000920E-02 0. -1.
</event>
<event>
 5   0  0.1815663E-04  0.1701509E+04  0.7818609E-02  0.8760504E-01
       -1   -1    0    0    0  501  0.00000000000E+00  0.00000000000E+00  0.62799924999E+03  0.62799925001E+03  0.50400001928E-02 0.  1.
        1   -1    0    0  501    0  0.00000000000E+00  0.00000000000E+00 -0.11525217982E+04  0.11525217982E+04  0.50400001928E-02 0. -1.
    10030    2    1    2    0    0  0.00000000000E+00  0.00000000000E+00 -0.52452254818E+03  0.17805210482E+04  0.17015085364E+04 0.  0.
        5    1    3    3  502    0 -0.42157968343E+03  0.39928661733E+03 -0.91290725066E+03  0.10819339030E+04  0.46999998093E+01 0. -1.
       -5    1    3    3    0  502  0.42157968343E+03 -0.39928661733E+03  0.38838470248E+03  0.69858714515E+03  0.46999998093E+01 0.  1.
</event>
<event>
 5   0  0.3605571E-04  0.1928560E+04  0.7818609E-02  0.8640770E-01
       -2   -1    0    0    0  501  0.00000000000E+00  0.00000000000E+00  0.54880759713E+03  0.54880759713E+03  0.25500000920E-02 0. -1.
        2   -1    0    0  501    0  0.00000000000E+00  0.00000000000E+00 -0.16942834495E+04  0.16942834495E+04  0.25500000920E-02 0.  1.
    10030    2    1    2    0    0  0.00000000000E+00  0.00000000000E+00 -0.11454758524E+04  0.22430910466E+04  0.19285596997E+04 0.  0.
        4    1    3    3  502    0  0.38597956837E+02  0.33310121412E+02  0.54723787905E+03  0.54960920264E+03  0.12699999809E+01 0. -1.
       -4    1    3    3    0  502 -0.38597956837E+02 -0.33310121412E+02 -0.16927137314E+04  0.16934818440E+04  0.12699999809E+01 0.  1.
</event>
<event>
 5   0  0.3516723E-04  0.1724001E+04  0.7818609E-02  0.8747793E-01
       -2   -1    0    0    0  501  0.00000000000E+00  0.00000000000E+00  0.14007366012E+04  0.14007366012E+04  0.25500000920E-02 0.  1.
        2   -1    0    0  501    0  0.00000000000E+00  0.00000000000E+00 -0.53046736195E+03  0.53046736196E+03  0.25500000920E-02 0. -1.
    10030    2    1    2    0    0  0.00000000000E+00  0.00000000000E+00  0.87026923929E+03  0.19312039632E+04  0.17240012177E+04 0.  0.
        1    1    3    3  502    0  0.83097059026E+01  0.80281502761E+03  0.78663789721E+03  0.11240018688E+04  0.50400001928E-02 0.  1.
       -1    1    3    3    0  502 -0.83097059026E+01 -0.80281502761E+03  0.83631342081E+02  0.80720209438E+03  0.50400001928E-02 0. -1.
</event>
<event>
 5   0  0.1920289E-04  0.1639512E+04  0.7818609E-02  0.8796635E-01
       -1   -1    0    0    0  501  0.00000000000E+00  0.00000000000E+00  0.58143925276E+03  0.58143925278E+03  0.50400001928E-02 0. -1.
        1   -1    0    0  501    0  0.00000000000E+00  0.00000000000E+00 -0.11557523095E+04  0.11557523096E+04  0.50400001928E-02 0.  1.
    10030    2    1    2    0    0  0.00000000000E+00  0.00000000000E+00 -0.57431305679E+03  0.17371915623E+04  0.16395118289E+04 0.  0.
        4    1    3    3  502    0  0.32937628147E+03 -0.16905381006E+03 -0.10621208774E+04  0.11247978914E+04  0.12699999809E+01 0.  1.
       -4    1    3    3    0  502 -0.32937628147E+03  0.16905381006E+03  0.48780782057E+03  0.61239367094E+03  0.12699999809E+01 0. -1.
</event>
<event>
 5   0  0.3678896E-04  0.1704729E+04  0.7818609E-02  0.8758672E-01
        2   -1    0    0  501    0  0.00000000000E+00  0.00000000000E+00  0.51869863498E+03  0.51869863499E+03  0.25500000920E-02 0.  1.
       -2   -1    0    0    0  501  0.00000000000E+00  0.00000000000E+00 -0.14006687440E+04  0.14006687441E+04  0.25500000920E-02 0. -1.
    10030    2    1    2    0    0  0.00000000000E+00  0.00000000000E+00 -0.88197010907E+03  0.19193673790E+04  0.17047286771E+04 0.  0.
        2    1    3    3  502    0  0.61086878790E+03 -0.58752697078E+03 -0.33917690804E+03  0.91290174300E+03  0.25500000920E-02 0. -1.
       -2    1    3    3    0  502 -0.61086878790E+03  0.58752697078E+03 -0.54279320103E+03  0.10064656360E+04  0.25500000920E-02 0.  1.
</event>
<event>
 5   0  0.1815663E-04  0.1539359E+04  0.7818609E-02  0.8858693E-01
        1   -1    0    0  501    0  0.00000000000E+00  0.00000000000E+00  0.14715908819E+04  0.14715908819E+04  0.50400001928E-02 0. -1.
       -1   -1    0    0    0  501  0.00000000000E+00  0.00000000000E+00 -0.40256192380E+03  0.40256192383E+03  0.50400001928E-02 0.  1.
    10030    2    1    2    0    0  0.00000000000E+00  0.00000000000E+00  0.10690289581E+04  0.18741528058E+04  0.15393589010E+04 0.  0.
        5    1    3    3  502    0  0.21417304214E+03 -0.27076761825E+03 -0.30298992206E+03  0.45935844167E+03  0.46999998093E+01 0.  1.
       -5    1    3    3    0  502 -0.21417304214E+03  0.27076761825E+03  0.13720188802E+04  0.14147943641E+04  0.46999998093E+01 0. -1.
</event>
<event>
 5   0  0.3678896E-04  0.1706580E+04  0.7818609E-02  0.8757620E-01
        2   -1    0    0  501    0  0.00000000000E+00  0.00000000000E+00  0.19170260524E+04  0.19170260524E+04  0.25500000920E-02 0.  1.
       -2   -1    0    0    0  501  0.00000000000E+00  0.00000000000E+00 -0.37980909681E+03  0.37980909682E+03  0.25500000920E-02 0. -1.
    10030    2    1    2    0    0  0.00000000000E+00  0.00000000000E+00  0.15372169556E+04  0.22968351493E+04  0.17065801283E+04 0.  0.
        2    1    3    3  502    0 -0.33324877553E+03  0.61547288344E+03  0.11168831273E+03  0.70875658434E+03  0.25500000920E-02 0. -1.
       -2    1    3    3    0  502  0.33324877553E+03 -0.61547288344E+03  0.14255286429E+04  0.15880785649E+04  0.25500000920E-02 0.  1.
</event>
<event>
 5   0  0.1920289E-04  0.1800662E+04  0.7818609E-02  0.8705948E-01
        1   -1    0    0  501    0  0.00000000000E+00  0.00000000000E+00  0.15292914658E+04  0.15292914659E+04  0.50400001928E-02 0. -1.
       -1   -1    0    0    0  501  0.00000000000E+00  0.00000000000E+00 -0.53004659165E+03  0.53004659167E+03  0.50400001928E-02 0.  1.
    10030    2    1    2    0    0  0.00000000000E+00  0.00000000000E+00  0.99924487420E+03  0.20593380575E+04  0.18006617996E+04 0.  0.
        4    1    3    3  502    0 -0.61893307860E+03 -0.40693068013E+01  0.12473841932E+04  0.13925026583E+04  0.12699999809E+01 0. -1.
       -4    1    3    3    0  502  0.61893307860E+03  0.40693068013E+01 -0.24813931904E+03  0.66683539918E+03  0.12699999809E+01 0.  1.
</event>
<event>
 5   0  0.1920289E-04  0.1599079E+04  0.7818609E-02  0.8821114E-01
        1   -1    0    0  501    0  0.00000000000E+00  0.00000000000E+00  0.16389515089E+04  0.16389515089E+04  0.50400001928E-02 0.  1.
       -1   -1    0    0    0  501  0.00000000000E+00  0.00000000000E+00 -0.39004411649E+03  0.39004411652E+03  0.50400001928E-02 0. -1.
    10030    2    1    2    0    0  0.00000000000E+00  0.00000000000E+00  0.12489073924E+04  0.20289956254E+04  0.15990789765E+04 0.  0.
        4    1    3    3  502    0  0.76655997574E+03 -0.14609479450E+03  0.84533574575E+03  0.11504573097E+04  0.12699999809E+01 0.  1.
       -4    1    3    3    0  502 -0.76655997574E+03  0.14609479450E+03  0.40357164664E+03  0.87853831576E+03  0.12699999809E+01 0. -1.
</event>
<event>
 5   0  0.1893284E-04  0.1691893E+04  0.7818609E-02  0.8766002E-01
       -1   -1    0    0    0  501  0.00000000000E+00  0.00000000000E+00  0.52208211229E+03  0.52208211231E+03  0.50400001928E-02 0.  1.
        1   -1    0    0  501    0  0.00000000000E+00  0.00000000000E+00 -0.13707139221E+04  0.13707139221E+04  0.50400001928E-02 0. -1.
    10030    2    1    2    0    0  0.00000000000E+00  0.00000000000E+00 -0.84863180984E+03  0.18927960344E+04  0.16918926914E+04 0.  0.
        2    1    3    3  502    0  0.68551472101E+03  0.47532104212E+03 -0.26703498134E+03  0.87588138870E+03  0.25500000920E-02 0.  1.
       -2    1    3    3    0  502 -0.68551472101E+03 -0.47532104212E+03 -0.58159682851E+03  0.10169146458E+04  0.25500000920E-02 0. -1.
</event>
<event>
 5   0  0.3605571E-04  0.1670652E+04  0.7818609E-02  0.8778282E-01
        2   -1    0    0  501    0  0.00000000000E+00  0.00000000000E+00  0.18009161393E+04  0.18009161393E+04  0.25500000920E-02 0. -1.
       -2   -1    0    0    0  501  0.00000000000E+00  0.00000000000E+00 -0.38745245083E+03  0.38745245084E+03  0.25500000920E-02 0.  1.
    10030    2    1    2    0    0  0.00000000000E+00  0.00000000000E+00  0.14134636884E+04  0.21883685901E+04  0.16706518152E+04 0.  0.
        4    1    3    3  502    0  0.46285058941E+03  0.42157207800E+03 -0.17642833238E+02  0.62631187720E+03  0.12699999809E+01 0.  1.
       -4    1    3    3    0  502 -0.46285058941E+03 -0.42157207800E+03  0.14311065217E+04  0.15620567129E+04  0.12699999809E+01 0. -1.
</event>
<event>
 5   0  0.1317625E-04  0.1933052E+04  0.7818609E-02  0.8638577E-01
        3   -1    0    0  501    0  0.00000000000E+00  0.00000000000E+00  0.85774734177E+03  0.85774734772E+03  0.10100000352E+00 0. -1.
       -3   -1    0    0    0  501  0.00000000000E+00  0.00000000000E+00 -0.10890995578E+04  0.10890995625E+04  0.10100000352E+00 0.  1.
    10030    2    1    2    0    0  0.00000000000E+00  0.00000000000E+00 -0.23135221606E+03  0.19468469102E+04  0.19330517438E+04 0.  0.
        4    1    3    3  502    0  0.60781587490E+03  0.12894146324E+03  0.62994818646E+03  0.88481770396E+03  0.12699999809E+01 0. -1.
       -4    1    3    3    0  502 -0.60781587490E+03 -0.12894146324E+03 -0.86130040252E+03  0.10620292063E+04  0.12699999809E+01 0.  1.
</event>
<event>
 5   0  0.3573262E-04  0.1740989E+04  0.7818609E-02  0.8738326E-01
        2   -1    0    0  501    0  0.00000000000E+00  0.00000000000E+00  0.20674881066E+04  0.20674881066E+04  0.25500000920E-02 0. -1.
       -2   -1    0    0    0  501  0.00000000000E+00  0.00000000000E+00 -0.36651266342E+03  0.36651266343E+03  0.25500000920E-02 0.  1.
    10030    2    1    2    0    0  0.00000000000E+00  0.00000000000E+00  0.17009754432E+04  0.24340007701E+04  0.17409888829E+04 0.  0.
        5    1    3    3  502    0 -0.55307345241E+03 -0.35737802940E+02  0.17889273839E+04  0.18728189206E+04  0.46999998093E+01 0. -1.
       -5    1    3    3    0  502  0.55307345241E+03  0.35737802940E+02 -0.87951940706E+02  0.56118184948E+03  0.46999998093E+01 0.  1.
</event>
<event>
 5   0  0.3573262E-04  0.1669429E+04  0.7818609E-02  0.8778995E-01
       -2   -1    0    0    0  501  0.00000000000E+00  0.00000000000E+00  0.46015705612E+03  0.46015705612E+03  0.25500000920E-02 0. -1.
        2   -1    0    0  501    0  0.00000000000E+00  0.00000000000E+00 -0.15141534028E+04  0.15141534028E+04  0.25500000920E-02 0.  1.
    10030    2    1    2    0    0  0.00000000000E+00  0.00000000000E+00 -0.10539963467E+04  0.19743104590E+04  0.16694290909E+04 0.  0.
        5    1    3    3  502    0 -0.25968395733E+03 -0.19738786363E+03  0.38164708589E+03  0.50207002955E+03  0.46999998093E+01 0. -1.
       -5    1    3    3    0  502  0.25968395733E+03  0.19738786363E+03 -0.14356434326E+04  0.14722404294E+04  0.46999998093E+01 0.  1.
</event>
<event>
 5   0  0.3605571E-04  0.1617656E+04  0.7818609E-02  0.8809774E-01
        2   -1    0    0  501    0  0.00000000000E+00  0.00000000000E+00  0.38345115219E+03  0.38345115220E+03  0.25500000920E-02 0. -1.
       -2   -1    0    0    0  501  0.00000000000E+00  0.00000000000E+00 -0.17060912351E+04  0.17060912351E+04  0.25500000920E-02 0.  1.
    10030    2    1    2    0    0  0.00000000000E+00  0.00000000000E+00 -0.13226400829E+04  0.20895423873E+04  0.16176558965E+04 0.  0.
        4    1    3    3  502    0 -0.22278609323E+03 -0.75850325518E+03 -0.88219946003E+03  0.11845836111E+04  0.12699999809E+01 0.  1.
       -4    1    3    3    0  502  0.22278609323E+03  0.75850325518E+03 -0.44044062283E+03  0.90495877618E+03  0.12699999809E+01 0. -1.
</event>
<event>
 5   0  0.1920289E-04  0.1705165E+04  0.7818609E-02  0.8758424E-01
        1   -1    0    0  501    0  0.00000000000E+00  0.00000000000E+00  0.16583749240E+04  0.16583749240E+04  0.50400001928E-02 0.  1.
       -1   -1    0    0    0  501  0.00000000000E+00  0.00000000000E+00 -0.43831887189E+03  0.43831887191E+03  0.50400001928E-02 0. -1.
    10030    2    1    2    0    0  0.00000000000E+00  0.00000000000E+00  0.12200560521E+04  0.20966937959E+04  0.17051651250E+04 0.  0.
        4    1    3    3  502    0 -0.54922209889E+03 -0.20947454640E+03  0.13693786463E+04  0.14902093777E+04  0.12699999809E+01 0.  1.
       -4    1    3    3    0  502  0.54922209889E+03  0.20947454640E+03 -0.14932259421E+03  0.60648441822E+03  0.12699999809E+01 0. -1.
</event>
<event>
 5   0  0.1893284E-04  0.1740071E+04  0.7818609E-02  0.8738834E-01
       -1   -1    0    0    0  501  0.00000000000E+00  0.00000000000E+00  0.87245155092E+03  0.87245155093E+03  0.50400001928E-02 0. -1.
        1   -1    0    0  501    0  0.00000000000E+00  0.00000000000E+00 -0.86762662415E+03  0.86762662416E+03  0.50400001928E-02 0.  1.
    10030    2    1    2    0    0  0.00000000000E+00  0.00000000000E+00  0.48249267700E+01  0.17400781751E+04  0.17400714858E+04 0.  0.
        2    1    3    3  502    0 -0.54987819446E+02  0.34741452058E+03  0.79818036499E+03  0.87224561017E+03  0.25500000920E-02 0. -1.
       -2    1    3    3    0  502  0.54987819446E+02 -0.34741452058E+03 -0.79335543822E+03  0.86783256493E+03  0.25500000920E-02 0.  1.
</event>
<event>
 5   0  0.3678896E-04  0.1620374E+04  0.7818609E-02  0.8808128E-01
       -2   -1    0    0    0  501  0.00000000000E+00  0.00000000000E+00  0.41378206394E+03  0.41378206395E+03  0.25500000920E-02 0. -1.
        2   -1    0    0  501    0  0.00000000000E+00  0.00000000000E+00 -0.15863504643E+04  0.15863504643E+04  0.25500000920E-02 0.  1.
    10030    2    1    2    0    0  0.00000000000E+00  0.00000000000E+00 -0.11725684003E+04  0.20001325282E+04  0.16203744867E+04 0.  0.
        2    1    3    3  502    0  0.62113912670E+03  0.30448906043E+02 -0.12272776464E+04  0.13758456934E+04  0.25500000920E-02 0.  1.
       -2    1    3    3    0  502 -0.62113912670E+03 -0.30448906043E+02  0.54709246052E+02  0.62428683488E+03  0.25500000920E-02 0. -1.
</event>
<event>
 5   0  0.1893284E-04  0.1695543E+04  0.7818609E-02  0.8763911E-01
       -1   -1    0    0    0  501  0.00000000000E+00  0.00000000000E+00  0.53441553985E+03  0.53441553988E+03  0.50400001928E-02 0.  1.
        1   -1    0    0  501    0  0.00000000000E+00  0.00000000000E+00 -0.13448643018E+04  0.13448643018E+04  0.50400001928E-02 0. -1.
    10030    2    1    2    0    0  0.00000000000E+00  0.00000000000E+00 -0.81044876196E+03  0.18792798417E+04  0.16955428416E+04 0.  0.
        2    1    3    3  502    0  0.77875143697E+03 -0.27686186311E+03 -0.19606891259E+03  0.84944058669E+03  0.25500000920E-02 0. -1.
       -2    1    3    3    0  502 -0.77875143697E+03  0.27686186311E+03 -0.61437984937E+03  0.10298392550E+04  0.25500000920E-02 0.  1.
</event>
<event>
 5   0  0.3574092E-04  0.1714953E+04  0.7818609E-02  0.8752882E-01
        2   -1    0    0  501    0  0.00000000000E+00  0.00000000000E+00  0.12179608373E+04  0.12179608373E+04  0.25500000920E-02 0. -1.
       -2   -1    0    0    0  501  0.00000000000E+00  0.00000000000E+00 -0.60368612291E+03  0.60368612291E+03  0.25500000920E-02 0.  1.
    10030    2    1    2    0    0  0.00000000000E+00  0.00000000000E+00  0.61427471435E+03  0.18216469602E+04  0.17149531255E+04 0.  0.
        3    1    3    3  502    0  0.79164269674E+03 -0.43894911035E+02  0.65401340650E+03  0.10277930086E+04  0.10100000352E+00 0. -1.
       -3    1    3    3    0  502 -0.79164269674E+03  0.43894911035E+02 -0.39738692141E+02  0.79385395154E+03  0.10100000352E+00 0.  1.
</event>
<event>
 5   0  0.3573262E-04  0.1694879E+04  0.7818609E-02  0.8764290E-01
        2   -1    0    0  501    0  0.00000000000E+00  0.00000000000E+00  0.85870043053E+03  0.85870043053E+03  0.25500000920E-02 0. -1.
       -2   -1    0    0    0  501  0.00000000000E+00  0.00000000000E+00 -0.83632668477E+03  0.83632668478E+03  0.25500000920E-02 0.  1.
    10030    2    1    2    0    0  0.00000000000E+00  0.00000000000E+00  0.22373745757E+02  0.16950271153E+04  0.16948794462E+04 0.  0.
        5    1    3    3  502    0 -0.47704084062E+03  0.44407015549E+03  0.55286652897E+03  0.85466353349E+03  0.46999998093E+01 0. -1.
       -5    1    3    3    0  502  0.47704084062E+03 -0.44407015549E+03 -0.53049278322E+03  0.84036358182E+03  0.46999998093E+01 0.  1.
</event>
<event>
 5   0  0.1815663E-04  0.1701894E+04  0.7818609E-02  0.8760285E-01
       -1   -1    0    0    0  501  0.00000000000E+00  0.00000000000E+00  0.93044025147E+03  0.93044025149E+03  0.50400001928E-02 0. -1.
        1   -1    0    0  501    0  0.00000000000E+00  0.00000000000E+00 -0.77824551170E+03  0.77824551171E+03  0.50400001928E-02 0.  1.
    10030    2    1    2    0    0  0.00000000000E+00  0.00000000000E+00  0.15219473977E+03  0.17086857632E+04  0.17018941796E+04 0.  0.
        5    1    3    3  502    0  0.17939907472E+03 -0.12560211508E+03  0.90164932563E+03  0.92787580836E+03  0.46999998093E+01 0. -1.
       -5    1    3    3    0  502 -0.17939907472E+03  0.12560211508E+03 -0.74945458586E+03  0.78080995484E+03  0.46999998093E+01 0.  1.
</event>
<event>
 5   0  0.1824538E-04  0.1674974E+04  0.7818609E-02  0.8775768E-01
       -1   -1    0    0    0  501  0.00000000000E+00  0.00000000000E+00  0.28252695340E+03  0.28252695344E+03  0.50400001928E-02 0. -1.
        1   -1    0    0  501    0  0.00000000000E+00  0.00000000000E+00 -0.24825400954E+04  0.24825400955E+04  0.50400001928E-02 0.  1.
    10030    2    1    2    0    0  0.00000000000E+00  0.00000000000E+00 -0.22000131420E+04  0.27650670489E+04  0.16749740176E+04 0.  0.
        3    1    3    3  502    0 -0.22248848317E+02 -0.80017685219E+03 -0.15064097534E+04  0.17058863859E+04  0.10100000352E+00 0.  1.
       -3    1    3    3    0  502  0.22248848317E+02  0.80017685219E+03 -0.69360338861E+03  0.10591806630E+04  0.10100000352E+00 0. -1.
</event>
<event>
 5   0  0.3574092E-04  0.1701780E+04  0.7818609E-02  0.8760350E-01
        2   -1    0    0  501    0  0.00000000000E+00  0.00000000000E+00  0.24209901703E+04  0.24209901703E+04  0.25500000920E-02 0.  1.
       -2   -1    0    0    0  501  0.00000000000E+00  0.00000000000E+00 -0.29905686900E+03  0.29905686901E+03  0.25500000920E-02 0. -1.
    10030    2    1    2    0    0  0.00000000000E+00  0.00000000000E+00  0.21219333013E+04  0.27200470393E+04  0.17017799390E+04 0.  0.
        3    1    3    3  502    0 -0.16860352637E+03 -0.35016103101E+03  0.22708413899E+04  0.23038577485E+04  0.10100000352E+00 0.  1.
       -3    1    3    3    0  502  0.16860352637E+03  0.35016103101E+03 -0.14890808864E+03  0.41618929084E+03  0.10100000352E+00 0. -1.
</event>
<event>
 5   0  0.3516723E-04  0.1696463E+04  0.7818609E-02  0.8763384E-01
       -2   -1    0    0    0  501  0.00000000000E+00  0.00000000000E+00  0.46031379213E+03  0.46031379214E+03  0.25500000920E-02 0.  1.
        2   -1    0    0  501    0  0.00000000000E+00  0.00000000000E+00 -0.15630575739E+04  0.15630575739E+04  0.25500000920E-02 0. -1.
    10030    2    1    2    0    0  0.00000000000E+00  0.00000000000E+00 -0.11027437818E+04  0.20233713661E+04  0.16964633320E+04 0.  0.
        1    1    3    3  502    0  0.64299063126E+03 -0.52128205834E+03 -0.33040025003E+03  0.89125544120E+03  0.50400001928E-02 0. -1.
       -1    1    3    3    0  502 -0.64299063126E+03  0.52128205834E+03 -0.77234353176E+03  0.11321159249E+04  0.50400001928E-02 0.  1.
</event>
<event>
 5   0  0.3516723E-04  0.1685306E+04  0.7818609E-02  0.8769790E-01
       -2   -1    0    0    0  501  0.00000000000E+00  0.00000000000E+00  0.47666804174E+03  0.47666804175E+03  0.25500000920E-02 0.  1.
        2   -1    0    0  501    0  0.00000000000E+00  0.00000000000E+00 -0.14896399582E+04  0.14896399582E+04  0.25500000920E-02 0. -1.
    10030    2    1    2    0    0  0.00000000000E+00  0.00000000000E+00 -0.10129719165E+04  0.19663080000E+04  0.16853056243E+04 0.  0.
        1    1    3    3  502    0  0.50066133107E+03  0.20175993371E+03 -0.12614421010E+04  0.13720805419E+04  0.50400001928E-02 0. -1.
       -1    1    3    3    0  502 -0.50066133107E+03 -0.20175993371E+03  0.24847018453E+03  0.59422745805E+03  0.50400001928E-02 0.  1.
</event>
<event>
 5   0  0.3678896E-04  0.1699917E+04  0.7818609E-02  0.8761412E-01
        2   -1    0    0  501    0  0.00000000000E+00  0.00000000000E+00  0.74678550846E+03  0.74678550846E+03  0.25500000920E-02 0.  1.
       -2   -1    0    0    0  501  0.00000000000E+00  0.00000000000E+00 -0.96738534634E+03  0.96738534635E+03  0.25500000920E-02 0. -1.
    10030    2    1    2    0    0  0.00000000000E+00  0.00000000000E+00 -0.22059983788E+03  0.17141708548E+04  0.16999168894E+04 0.  0.
        2    1    3    3  502    0  0.13962614628E+02 -0.68047276047E+03 -0.62367710524E+03  0.92315289305E+03  0.25500000920E-02 0.  1.
       -2    1    3    3    0  502 -0.13962614628E+02  0.68047276047E+03  0.40307726735E+03  0.79101796175E+03  0.25500000920E-02 0. -1.
</event>
<event>
 5   0  0.1930116E-04  0.1701982E+04  0.7818609E-02  0.8760235E-01
       -1   -1    0    0    0  501  0.00000000000E+00  0.00000000000E+00  0.59402701406E+03  0.59402701408E+03  0.50400001928E-02 0.  1.
        1   -1    0    0  501    0  0.00000000000E+00  0.00000000000E+00 -0.12191128512E+04  0.12191128512E+04  0.50400001928E-02 0. -1.
    10030    2    1    2    0    0  0.00000000000E+00  0.00000000000E+00 -0.62508583717E+03  0.18131398653E+04  0.17019823346E+04 0.  0.
        1    1    3    3  502    0 -0.38185296963E+03  0.75817465584E+03 -0.24911024414E+03  0.88470131283E+03  0.50400001928E-02 0. -1.
       -1    1    3    3    0  502  0.38185296963E+03 -0.75817465584E+03 -0.37597559303E+03  0.92843855249E+03  0.50400001928E-02 0.  1.
</event>
<event>
 5   0  0.3516723E-04  0.1648081E+04  0.7818609E-02  0.8791542E-01
        2   -1    0    0  501    0  0.00000000000E+00  0.00000000000E+00  0.97745095533E+03  0.97745095533E+03  0.25500000920E-02 0. -1.
       -2   -1    0    0    0  501  0.00000000000E+00  0.00000000000E+00 -0.69470785415E+03  0.69470785416E+03  0.25500000920E-02 0.  1.
    10030    2    1    2    0    0  0.00000000000E+00  0.00000000000E+00  0.28274310118E+03  0.16721588095E+04  0.16480811336E+04 0.  0.
        1    1    3    3  502    0 -0.92879341572E+02 -0.30310173715E+03  0.91310573603E+03  0.96657090809E+03  0.50400001928E-02 0. -1.
       -1    1    3    3    0  502  0.92879341572E+02  0.30310173715E+03 -0.63036263485E+03  0.70558790140E+03  0.50400001928E-02 0.  1.
</event>
<event>
 5   0  0.3605571E-04  0.1674942E+04  0.7818609E-02  0.8775786E-01
        2   -1    0    0  501    0  0.00000000000E+00  0.00000000000E+00  0.10143772184E+04  0.10143772184E+04  0.25500000920E-02 0.  1.
       -2   -1    0    0    0  501  0.00000000000E+00  0.00000000000E+00 -0.69141687437E+03  0.69141687437E+03  0.25500000920E-02 0. -1.
    10030    2    1    2    0    0  0.00000000000E+00  0.00000000000E+00  0.32296034405E+03  0.17057940928E+04  0.16749418208E+04 0.  0.
        4    1    3    3  502    0  0.41904004626E+03 -0.31877794468E+02  0.89921638148E+03  0.99257365861E+03  0.12699999809E+01 0.  1.
       -4    1    3    3    0  502 -0.41904004626E+03  0.31877794468E+02 -0.57625603744E+03  0.71322043418E+03  0.12699999809E+01 0. -1.
</event>
<event>
 5   0  0.3574092E-04  0.1679274E+04  0.7818609E-02  0.8773274E-01
       -2   -1    0    0    0  501  0.00000000000E+00  0.00000000000E+00  0.15268691203E+04  0.15268691203E+04  0.25500000920E-02 0. -1.
        2   -1    0    0  501    0  0.00000000000E+00  0.00000000000E+00 -0.46172267464E+03  0.46172267464E+03  0.25500000920E-02 0.  1.
    10030    2    1    2    0    0  0.00000000000E+00  0.00000000000E+00  0.10651464457E+04  0.19885917950E+04  0.16792737645E+04 0.  0.
        3    1    3    3  502    0 -0.16920603285E+03  0.20339290243E+03 -0.41107001613E+03  0.48885368228E+03  0.10100000352E+00 0.  1.
       -3    1    3    3    0  502  0.16920603285E+03 -0.20339290243E+03  0.14762164618E+04  0.14997381127E+04  0.10100000352E+00 0. -1.
</event>
<event>
 5   0  0.1815663E-04  0.1657137E+04  0.7818609E-02  0.8786196E-01
        1   -1    0    0  501    0  0.00000000000E+00  0.00000000000E+00  0.14704636586E+04  0.14704636586E+04  0.50400001928E-02 0.  1.
       -1   -1    0    0    0  501  0.00000000000E+00  0.00000000000E+00 -0.46687683001E+03  0.46687683004E+03  0.50400001928E-02 0. -1.
    10030    2    1    2    0    0  0.00000000000E+00  0.00000000000E+00  0.10035868285E+04  0.19373404886E+04  0.16571365805E+04 0.  0.
        5    1    3    3  502    0 -0.43104930360E+03 -0.20217249980E+03 -0.29097157050E+03  0.55799979090E+03  0.46999998093E+01 0. -1.
       -5    1    3    3    0  502  0.43104930360E+03  0.20217249980E+03  0.12945583990E+04  0.13793406977E+04  0.46999998093E+01 0.  1.
</event>
<event>
 5   0  0.1893284E-04  0.1714552E+04  0.7818609E-02  0.8753108E-01
        1   -1    0    0  501    0  0.00000000000E+00  0.00000000000E+00  0.82493088420E+03  0.82493088422E+03  0.50400001928E-02 0.  1.
       -1   -1    0    0    0  501  0.00000000000E+00  0.00000000000E+00 -0.89088925208E+03  0.89088925209E+03  0.50400001928E-02 0. -1.
    10030    2    1    2    0    0  0.00000000000E+00  0.00000000000E+00 -0.65958367873E+02  0.17158201363E+04  0.17145519047E+04 0.  0.
        2    1    3    3  502    0 -0.77472788763E+03 -0.35808123843E+03 -0.11364020123E+03  0.86101078305E+03  0.25500000920E-02 0. -1.
       -2    1    3    3    0  502  0.77472788763E+03  0.35808123843E+03  0.47681833359E+02  0.85480935326E+03  0.25500000920E-02 0.  1.
</event>
<event>
 5   0  0.3516723E-04  0.1709343E+04  0.7818609E-02  0.8756053E-01
        2   -1    0    0  501    0  0.00000000000E+00  0.00000000000E+00  0.14456024929E+04  0.14456024929E+04  0.25500000920E-02 0.  1.
       -2   -1    0    0    0  501  0.00000000000E+00  0.00000000000E+00 -0.50530043616E+03  0.50530043617E+03  0.25500000920E-02 0. -1.
    10030    2    1    2    0    0  0.00000000000E+00  0.00000000000E+00  0.94030205675E+03  0.19509029291E+04  0.17093432308E+04 0.  0.
        1    1    3    3  502    0  0.75972277596E+02  0.43205181657E+03 -0.36700577238E+03  0.57195611383E+03  0.50400001928E-02 0. -1.
       -1    1    3    3    0  502 -0.75972277596E+02 -0.43205181657E+03  0.13073078291E+04  0.13789468153E+04  0.50400001928E-02 0.  1.
</event>
<event>
 5   0  0.3605571E-04  0.1709317E+04  0.7818609E-02  0.8756068E-01
       -2   -1    0    0    0  501  0.00000000000E+00  0.00000000000E+00  0.56747397416E+03  0.56747397416E+03  0.25500000920E-02 0.  1.
        2   -1    0    0  501    0  0.00000000000E+00  0.00000000000E+00 -0.12871804167E+04  0.12871804167E+04  0.25500000920E-02 0. -1.
    10030    2    1    2    0    0  0.00000000000E+00  0.00000000000E+00 -0.71970644257E+03  0.18546543909E+04  0.17093172749E+04 0.  0.
        4    1    3    3  502    0 -0.69849103832E+03 -0.45063263314E+03 -0.57544410054E+03  0.10109881436E+04  0.12699999809E+01 0. -1.
       -4    1    3    3    0  502  0.69849103832E+03  0.45063263314E+03 -0.14426234202E+03  0.84366624733E+03  0.12699999809E+01 0.  1.
</event>
<event>
 5   0  0.3574092E-04  0.1707978E+04  0.7818609E-02  0.8756827E-01
        2   -1    0    0  501    0  0.00000000000E+00  0.00000000000E+00  0.55495183347E+03  0.55495183347E+03  0.25500000920E-02 0. -1.
       -2   -1    0    0    0  501  0.00000000000E+00  0.00000000000E+00 -0.13141627364E+04  0.13141627364E+04  0.25500000920E-02 0.  1.
    10030    2    1    2    0    0  0.00000000000E+00  0.00000000000E+00 -0.75921090294E+03  0.18691145699E+04  0.17079777751E+04 0.  0.
        3    1    3    3  502    0 -0.71836677852E+03  0.41308729923E+03 -0.15372204860E+03  0.84280627887E+03  0.10100000352E+00 0.  1.
       -3    1    3    3    0  502  0.71836677852E+03 -0.41308729923E+03 -0.60548885433E+03  0.10263082910E+04  0.10100000352E+00 0. -1.
</event>
<event>
 5   0  0.1930116E-04  0.1706510E+04  0.7818609E-02  0.8757660E-01
        1   -1    0    0  501    0  0.00000000000E+00  0.00000000000E+00  0.68748244810E+03  0.68748244812E+03  0.50400001928E-02 0.  1.
       -1   -1    0    0    0  501  0.00000000000E+00  0.00000000000E+00 -0.10589998847E+04  0.10589998847E+04  0.50400001928E-02 0. -1.
    10030    2    1    2    0    0  0.00000000000E+00  0.00000000000E+00 -0.37151743661E+03  0.17464823328E+04  0.17065096933E+04 0.  0.
        1    1    3    3  502    0 -0.10456431660E+03  0.75996747876E+03  0.19656852531E+03  0.79191126413E+03  0.50400001928E-02 0.  1.
       -1    1    3    3    0  502  0.10456431660E+03 -0.75996747876E+03 -0.56808596192E+03  0.95457106872E+03  0.50400001928E-02 0. -1.
</event>
<event>
 5   0  0.3678896E-04  0.1682576E+04  0.7818609E-02  0.8771365E-01
       -2   -1    0    0    0  501  0.00000000000E+00  0.00000000000E+00  0.53841755454E+03  0.53841755454E+03  0.25500000920E-02 0. -1.
        2   -1    0    0  501    0  0.00000000000E+00  0.00000000000E+00 -0.13145296809E+04  0.13145296809E+04  0.25500000920E-02 0.  1.
    10030    2    1    2    0    0  0.00000000000E+00  0.00000000000E+00 -0.77611212634E+03  0.18529472354E+04  0.16825764246E+04 0.  0.
        2    1    3    3  502    0  0.79825644882E+03  0.26551249745E+03 -0.37984363457E+03  0.92303381905E+03  0.25500000920E-02 0. -1.
       -2    1    3    3    0  502 -0.79825644882E+03 -0.26551249745E+03 -0.39626849178E+03  0.92991341638E+03  0.25500000920E-02 0.  1.
</event>
<event>
 5   0  0.1930116E-04  0.1631679E+04  0.7818609E-02  0.8801319E-01
       -1   -1    0    0    0  501  0.00000000000E+00  0.00000000000E+00  0.77919539340E+03  0.77919539342E+03  0.50400001928E-02 0.  1.
        1   -1    0    0  501    0  0.00000000000E+00  0.00000000000E+00 -0.85420691023E+03  0.85420691024E+03  0.50400001928E-02 0. -1.
    10030    2    1    2    0    0  0.00000000000E+00  0.00000000000E+00 -0.75011516824E+02  0.16334023037E+04  0.16316789997E+04 0.  0.
        1    1    3    3  502    0  0.25648708474E+03  0.72403279884E+03  0.23771181743E+03  0.80406220319E+03  0.50400001928E-02 0.  1.
       -1    1    3    3    0  502 -0.25648708474E+03 -0.72403279884E+03 -0.31272333426E+03  0.82934010047E+03  0.50400001928E-02 0. -1.
</event>
<event>
 5   0  0.1893284E-04  0.1693426E+04  0.7818609E-02  0.8765123E-01
       -1   -1    0    0    0  501  0.00000000000E+00  0.00000000000E+00  0.11427934043E+04  0.11427934043E+04  0.50400001928E-02 0. -1.
        1   -1    0    0  501    0  0.00000000000E+00  0.00000000000E+00 -0.62734247197E+03  0.62734247199E+03  0.50400001928E-02 0.  1.
    10030    2    1    2    0    0  0.00000000000E+00  0.00000000000E+00  0.51545093237E+03  0.17701358763E+04  0.16934259231E+04 0.  0.
        2    1    3    3  502    0  0.50909854719E+03  0.73612296801E+02  0.96074049722E+03  0.10897808972E+04  0.25500000920E-02 0. -1.
       -2    1    3    3    0  502 -0.50909854719E+03 -0.73612296801E+02 -0.44528956486E+03  0.68035497909E+03  0.25500000920E-02 0.  1.
</event>
<event>
 5   0  0.3573262E-04  0.1702569E+04  0.7818609E-02  0.8759901E-01
       -2   -1    0    0    0  501  0.00000000000E+00  0.00000000000E+00  0.41854374774E+03  0.41854374775E+03  0.25500000920E-02 0. -1.
        2   -1    0    0  501    0  0.00000000000E+00  0.00000000000E+00 -0.17314444629E+04  0.17314444629E+04  0.25500000920E-02 0.  1.
    10030    2    1    2    0    0  0.00000000000E+00  0.00000000000E+00 -0.13129007152E+04  0.21499882106E+04  0.17025689466E+04 0.  0.
        5    1    3    3  502    0  0.37593130913E+03  0.70841863731E+03 -0.29598643037E+03  0.85487506212E+03  0.46999998093E+01 0. -1.
       -5    1    3    3    0  502 -0.37593130913E+03 -0.70841863731E+03 -0.10169142848E+04  0.12951131485E+04  0.46999998093E+01 0.  1.
</event>
<event>
 5   0  0.1930116E-04  0.1687592E+04  0.7818609E-02  0.8768473E-01
        1   -1    0    0  501    0  0.00000000000E+00  0.00000000000E+00  0.83668979550E+03  0.83668979551E+03  0.50400001928E-02 0. -1.
       -1   -1    0    0    0  501  0.00000000000E+00  0.00000000000E+00 -0.85096279155E+03  0.85096279157E+03  0.50400001928E-02 0.  1.
    10030    2    1    2    0    0  0.00000000000E+00  0.00000000000E+00 -0.14272996054E+02  0.16876525871E+04  0.16875922304E+04 0.  0.
        1    1    3    3  502    0  0.10366412179E+02  0.82883778823E+03 -0.16497858479E+03  0.84516121253E+03  0.50400001928E-02 0. -1.
       -1    1    3    3    0  502 -0.10366412179E+02 -0.82883778823E+03  0.15070558873E+03  0.84249137455E+03  0.50400001928E-02 0.  1.
</event>
<event>
 5   0  0.3605571E-04  0.1686484E+04  0.7818609E-02  0.8769111E-01
       -2   -1    0    0    0  501  0.00000000000E+00  0.00000000000E+00  0.31049151811E+03  0.31049151812E+03  0.25500000920E-02 0.  1.
        2   -1    0    0  501    0  0.00000000000E+00  0.00000000000E+00 -0.22901007136E+04  0.22901007136E+04  0.25500000920E-02 0. -1.
    10030    2    1    2    0    0  0.00000000000E+00  0.00000000000E+00 -0.19796091955E+04  0.26005922317E+04  0.16864837351E+04 0.  0.
        4    1    3    3  502    0 -0.82491086360E+03 -0.17477803840E+03 -0.99824195960E+03  0.13067187603E+04  0.12699999809E+01 0.  1.
       -4    1    3    3    0  502  0.82491086360E+03  0.17477803840E+03 -0.98136723588E+03  0.12938734715E+04  0.12699999809E+01 0. -1.
</event>
<event>
 5   0  0.1317625E-04  0.1701238E+04  0.7818609E-02  0.8760659E-01
       -3   -1    0    0    0  501  0.00000000000E+00  0.00000000000E+00  0.12829896039E+04  0.12829896079E+04  0.10100000352E+00 0. -1.
        3   -1    0    0  501    0  0.00000000000E+00  0.00000000000E+00 -0.56395843866E+03  0.56395844771E+03  0.10100000352E+00 0.  1.
    10030    2    1    2    0    0  0.00000000000E+00  0.00000000000E+00  0.71903116527E+03  0.18469480556E+04  0.17012381678E+04 0.  0.
        4    1    3    3  502    0 -0.10759026986E+03  0.58036113808E+03 -0.30544484249E+03  0.66459979045E+03  0.12699999809E+01 0.  1.
       -4    1    3    3    0  502  0.10759026986E+03 -0.58036113808E+03  0.10244760078E+04  0.11823482652E+04  0.12699999809E+01 0. -1.
</event>
<event>
 5   0  0.3574092E-04  0.1706076E+04  0.7818609E-02  0.8757907E-01
        2   -1    0    0  501    0  0.00000000000E+00  0.00000000000E+00  0.11099309273E+04  0.11099309273E+04  0.25500000920E-02 0. -1.
       -2   -1    0    0    0  501  0.00000000000E+00  0.00000000000E+00 -0.65560257970E+03  0.65560257971E+03  0.25500000920E-02 0.  1.
    10030    2    1    2    0    0  0.00000000000E+00  0.00000000000E+00  0.45432834756E+03  0.17655335070E+04  0.17060757067E+04 0.  0.
        3    1    3    3  502    0  0.73299416274E+03 -0.42863451722E+03  0.14267587960E+03  0.86102520798E+03  0.10100000352E+00 0. -1.
       -3    1    3    3    0  502 -0.73299416274E+03  0.42863451722E+03  0.31165246795E+03  0.90450829899E+03  0.10100000352E+00 0.  1.
</event>
<event>
 5   0  0.3574092E-04  0.1527600E+04  0.7818609E-02  0.8866304E-01
       -2   -1    0    0    0  501  0.00000000000E+00  0.00000000000E+00  0.53266483037E+03  0.53266483038E+03  0.25500000920E-02 0.  1.
        2   -1    0    0  501    0  0.00000000000E+00  0.00000000000E+00 -0.10952293436E+04  0.10952293436E+04  0.25500000920E-02 0. -1.
    10030    2    1    2    0    0  0.00000000000E+00  0.00000000000E+00 -0.56256451321E+03  0.16278941740E+04  0.15275996236E+04 0.  0.
        3    1    3    3  502    0 -0.24382351628E+03 -0.82739046853E+02  0.48502260228E+03  0.54912893922E+03  0.10100000352E+00 0.  1.
       -3    1    3    3    0  502  0.24382351628E+03  0.82739046853E+02 -0.10475871155E+04  0.10787652348E+04  0.10100000352E+00 0. -1.
</event>
<event>
 5   0  0.1824538E-04  0.1689817E+04  0.7818609E-02  0.8767194E-01
       -1   -1    0    0    0  501  0.00000000000E+00  0.00000000000E+00  0.42713524401E+03  0.42713524404E+03  0.50400001928E-02 0.  1.
        1   -1    0    0  501    0  0.00000000000E+00  0.00000000000E+00 -0.16712973302E+04  0.16712973302E+04  0.50400001928E-02 0. -1.
    10030    2    1    2    0    0  0.00000000000E+00  0.00000000000E+00 -0.12441620861E+04  0.20984325742E+04  0.16898165498E+04 0.  0.
        3    1    3    3  502    0  0.50220743116E+03 -0.27627563622E+03 -0.13929340348E+04  0.15062555449E+04  0.10100000352E+00 0. -1.
       -3    1    3    3    0  502 -0.50220743116E+03  0.27627563622E+03  0.14877194867E+03  0.59217702927E+03  0.10100000352E+00 0.  1.
</event>
<event>
 5   0  0.3678896E-04  0.1374527E+04  0.7818609E-02  0.8972467E-01
       -2   -1    0    0    0  501  0.00000000000E+00  0.00000000000E+00  0.19535878609E+03  0.19535878611E+03  0.25500000920E-02 0. -1.
        2   -1    0    0  501    0  0.00000000000E+00  0.00000000000E+00 -0.24177613373E+04  0.24177613373E+04  0.25500000920E-02 0.  1.
    10030    2    1    2    0    0  0.00000000000E+00  0.00000000000E+00 -0.22224025512E+04  0.26131201234E+04  0.13745267112E+04 0.  0.
        2    1    3    3  502    0 -0.66220545074E+03  0.71143239722E+02 -0.78883355264E+03  0.10323932358E+04  0.25500000920E-02 0. -1.
       -2    1    3    3    0  502  0.66220545074E+03 -0.71143239722E+02 -0.14335689986E+04  0.15807268876E+04  0.25500000920E-02 0.  1.
</event>
<event>
 5   0  0.3605571E-04  0.1693229E+04  0.7818609E-02  0.8765236E-01
       -2   -1    0    0    0  501  0.00000000000E+00  0.00000000000E+00  0.42051875302E+03  0.42051875302E+03  0.25500000920E-02 0.  1.
        2   -1    0    0  501    0  0.00000000000E+00  0.00000000000E+00 -0.17044561643E+04  0.17044561643E+04  0.25500000920E-02 0. -1.
    10030    2    1    2    0    0  0.00000000000E+00  0.00000000000E+00 -0.12839374113E+04  0.21249749173E+04  0.16932286092E+04 0.  0.
        4    1    3    3  502    0 -0.30174230029E+03 -0.20797823650E+03  0.31581586230E+03  0.48378159785E+03  0.12699999809E+01 0.  1.
       -4    1    3    3    0  502  0.30174230029E+03  0.20797823650E+03 -0.15997532736E+04  0.16411933194E+04  0.12699999809E+01 0. -1.
</event>
<event>
 5   0  0.3605571E-04  0.1704515E+04  0.7818609E-02  0.8758793E-01
        2   -1    0    0  501    0  0.00000000000E+00  0.00000000000E+00  0.12902594864E+04  0.12902594864E+04  0.25500000920E-02 0. -1.
       -2   -1    0    0    0  501  0.00000000000E+00  0.00000000000E+00 -0.56294342992E+03  0.56294342993E+03  0.25500000920E-02 0.  1.
    10030    2    1    2    0    0  0.00000000000E+00  0.00000000000E+00  0.72731605643E+03  0.18532029163E+04  0.17045152986E+04 0.  0.
        4    1    3    3  502    0  0.32608828231E+03  0.54902960831E+02  0.12176669263E+04  0.12617694953E+04  0.12699999809E+01 0. -1.
       -4    1    3    3    0  502 -0.32608828231E+03 -0.54902960831E+02 -0.49035086987E+03  0.59143342098E+03  0.12699999809E+01 0.  1.
</event>
<event>
 5   0  0.1920289E-04  0.1711657E+04  0.7818609E-02  0.8754744E-01
       -1   -1    0    0    0  501  0.00000000000E+00  0.00000000000E+00  0.51069996172E+03  0.51069996175E+03  0.50400001928E-02 0.  1.
        1   -1    0    0  501    0  0.00000000000E+00  0.00000000000E+00 -0.14341926929E+04  0.14341926929E+04  0.50400001928E-02 0. -1.
    10030    2    1    2    0    0  0.00000000000E+00  0.00000000000E+00 -0.92349273115E+03  0.19448926546E+04  0.17116566868E+04 0.  0.
        4    1    3    3  502    0 -0.37918646201E+03 -0.55068275787E+01  0.41001852712E+03  0.55850649379E+03  0.12699999809E+01 0.  1.
       -4    1    3    3    0  502  0.37918646201E+03  0.55068275787E+01 -0.13335112583E+04  0.13863861608E+04  0.12699999809E+01 0. -1.
</event>
<event>
 5   0  0.1815663E-04  0.1692438E+04  0.7818609E-02  0.8765689E-01
       -1   -1    0    0    0  501  0.00000000000E+00  0.00000000000E+00  0.12837185292E+04  0.12837185292E+04  0.50400001928E-02 0.  1.
        1   -1    0    0  501    0  0.00000000000E+00  0.00000000000E+00 -0.55782188599E+03  0.55782188602E+03  0.50400001928E-02 0. -1.
    10030    2    1    2    0    0  0.00000000000E+00  0.00000000000E+00  0.72589664324E+03  0.18415404153E+04  0.16924376397E+04 0.  0.
        5    1    3    3  502    0  0.42844834890E+03 -0.19819157639E+03  0.11271135901E+04  0.12219881438E+04  0.46999998093E+01 0.  1.
       -5    1    3    3    0  502 -0.42844834890E+03  0.19819157639E+03 -0.40121694686E+03  0.61955227146E+03  0.46999998093E+01 0. -1.
</event>
<event>
 5   0  0.1930116E-04  0.1693212E+04  0.7818609E-02  0.8765245E-01
        1   -1    0    0  501    0  0.00000000000E+00  0.00000000000E+00  0.69477374592E+03  0.69477374594E+03  0.50400001928E-02 0.  1.
       -1   -1    0    0    0  501  0.00000000000E+00  0.00000000000E+00 -0.10316193920E+04  0.10316193920E+04  0.50400001928E-02 0. -1.
    10030    2    1    2    0    0  0.00000000000E+00  0.00000000000E+00 -0.33684564606E+03  0.17263931379E+04  0.16932124136E+04 0.  0.
        1    1    3    3  502    0 -0.30200947939E+03  0.32067738891E+03 -0.90556935111E+03  0.10070251055E+04  0.50400001928E-02 0. -1.
       -1    1    3    3    0  502  0.30200947939E+03 -0.32067738891E+03  0.56872370505E+03  0.71936803244E+03  0.50400001928E-02 0.  1.
</event>
<event>
 5   0  0.1920289E-04  0.1700676E+04  0.7818609E-02  0.8760979E-01
       -1   -1    0    0    0  501  0.00000000000E+00  0.00000000000E+00  0.15325689026E+04  0.15325689026E+04  0.50400001928E-02 0.  1.
        1   -1    0    0  501    0  0.00000000000E+00  0.00000000000E+00 -0.47180580527E+03  0.47180580529E+03  0.50400001928E-02 0. -1.
    10030    2    1    2    0    0  0.00000000000E+00  0.00000000000E+00  0.10607630973E+04  0.20043747079E+04  0.17006762246E+04 0.  0.
        4    1    3    3  502    0  0.29599415045E+03 -0.60707660392E+03 -0.78519632653E+02  0.67994226648E+03  0.12699999809E+01 0. -1.
       -4    1    3    3    0  502 -0.29599415045E+03  0.60707660392E+03  0.11392827299E+04  0.13244324414E+04  0.12699999809E+01 0.  1.
</event>
<event>
 5   0  0.1930116E-04  0.1687995E+04  0.7818609E-02  0.8768241E-01
        1   -1    0    0  501    0  0.00000000000E+00  0.00000000000E+00  0.11488451627E+04  0.11488451627E+04  0.50400001928E-02 0.  1.
       -1   -1    0    0    0  501  0.00000000000E+00  0.00000000000E+00 -0.62004184132E+03  0.62004184134E+03  0.50400001928E-02 0. -1.
    10030    2    1    2    0    0  0.00000000000E+00  0.00000000000E+00  0.52880332137E+03  0.17688870040E+04  0.16879953437E+04 0.  0.
        1    1    3    3  502    0 -0.10258170444E+03 -0.83347908252E+03  0.35283584324E+03  0.91088062851E+03  0.50400001928E-02 0.  1.
       -1    1    3    3    0  502  0.10258170444E+03  0.83347908252E+03  0.17596747812E+03  0.85800637554E+03  0.50400001928E-02 0. -1.
</event>
<event>
 5   0  0.3678896E-04  0.1695200E+04  0.7818609E-02  0.8764106E-01
       -2   -1    0    0    0  501  0.00000000000E+00  0.00000000000E+00  0.46647009481E+03  0.46647009481E+03  0.25500000920E-02 0. -1.
        2   -1    0    0  501    0  0.00000000000E+00  0.00000000000E+00 -0.15401332280E+04  0.15401332280E+04  0.25500000920E-02 0.  1.
    10030    2    1    2    0    0  0.00000000000E+00  0.00000000000E+00 -0.10736631332E+04  0.20066033228E+04  0.16952003927E+04 0.  0.
        2    1    3    3  502    0 -0.81561160935E+03  0.18382551510E+03 -0.37191079779E+03  0.91505833630E+03  0.25500000920E-02 0.  1.
       -2    1    3    3    0  502  0.81561160935E+03 -0.18382551510E+03 -0.70175233537E+03  0.10915449865E+04  0.25500000920E-02 0. -1.
</event>
<event>
 5   0  0.1920289E-04  0.1710889E+04  0.7818609E-02  0.8755178E-01
        1   -1    0    0  501    0  0.00000000000E+00  0.00000000000E+00  0.83042234975E+03  0.83042234977E+03  0.50400001928E-02 0. -1.
       -1   -1    0    0    0  501  0.00000000000E+00  0.00000000000E+00 -0.88122056370E+03  0.88122056371E+03  0.50400001928E-02 0.  1.
    10030    2    1    2    0    0  0.00000000000E+00  0.00000000000E+00 -0.50798213941E+02  0.17116429135E+04  0.17108889516E+04 0.  0.
        4    1    3    3  502    0 -0.29144766017E+03 -0.18992175709E+03 -0.80726230432E+03  0.87902562722E+03  0.12699999809E+01 0.  1.
       -4    1    3    3    0  502  0.29144766017E+03  0.18992175709E+03  0.75646409038E+03  0.83261728626E+03  0.12699999809E+01 0. -1.
</event>
<event>
 5   0  0.3605571E-04  0.1631933E+04  0.7818609E-02  0.8801167E-01
        2   -1    0    0  501    0  0.00000000000E+00  0.00000000000E+00  0.15610002496E+04  0.15610002496E+04  0.25500000920E-02 0. -1.
       -2   -1    0    0    0  501  0.00000000000E+00  0.00000000000E+00 -0.42652204574E+03  0.42652204575E+03  0.25500000920E-02 0.  1.
    10030    2    1    2    0    0  0.00000000000E+00  0.00000000000E+00  0.11344782039E+04  0.19875222954E+04  0.16319326210E+04 0.  0.
        4    1    3    3  502    0 -0.12350064690E+03 -0.80378517751E+03  0.64872332532E+03  0.10402723620E+04  0.12699999809E+01 0. -1.
       -4    1    3    3    0  502  0.12350064690E+03  0.80378517751E+03  0.48575487856E+03  0.94724993340E+03  0.12699999809E+01 0.  1.
</event>
<event>
 5   0  0.1930116E-04  0.1716173E+04  0.7818609E-02  0.8752194E-01
       -1   -1    0    0    0  501  0.00000000000E+00  0.00000000000E+00  0.13889655584E+04  0.13889655584E+04  0.50400001928E-02 0. -1.
        1   -1    0    0  501    0  0.00000000000E+00  0.00000000000E+00 -0.53011571803E+03  0.53011571805E+03  0.50400001928E-02 0.  1.
    10030    2    1    2    0    0  0.00000000000E+00  0.00000000000E+00  0.85884984041E+03  0.19190812765E+04  0.17161730383E+04 0.  0.
        1    1    3    3  502    0 -0.40962932927E+03  0.74662412379E+03  0.31177796433E+03  0.90688988785E+03  0.50400001928E-02 0. -1.
       -1    1    3    3    0  502  0.40962932927E+03 -0.74662412379E+03  0.54707187607E+03  0.10121913886E+04  0.50400001928E-02 0.  1.
</event>
<event>
 5   0  0.1824538E-04  0.1701589E+04  0.7818609E-02  0.8760459E-01
       -1   -1    0    0    0  501  0.00000000000E+00  0.00000000000E+00  0.48330804122E+03  0.48330804125E+03  0.50400001928E-02 0.  1.
        1   -1    0    0  501    0  0.00000000000E+00  0.00000000000E+00 -0.14977018414E+04  0.14977018414E+04  0.50400001928E-02 0. -1.
    10030    2    1    2    0    0  0.00000000000E+00  0.00000000000E+00 -0.10143938001E+04  0.19810098826E+04  0.17015890730E+04 0.  0.
        3    1    3    3  502    0  0.55159280553E+02  0.29226197543E+03  0.42081326044E+03  0.51530905181E+03  0.10100000352E+00 0.  1.
       -3    1    3    3    0  502 -0.55159280553E+02 -0.29226197543E+03 -0.14352070606E+04  0.14657008308E+04  0.10100000352E+00 0. -1.
</event>
<event>
 5   0  0.3678896E-04  0.1688038E+04  0.7818609E-02  0.8768216E-01
       -2   -1    0    0    0  501  0.00000000000E+00  0.00000000000E+00  0.13509160232E+04  0.13509160232E+04  0.25500000920E-02 0.  1.
        2   -1    0    0  501    0  0.00000000000E+00  0.00000000000E+00 -0.52732221846E+03  0.52732221847E+03  0.25500000920E-02 0. -1.
    10030    2    1    2    0    0  0.00000000000E+00  0.00000000000E+00  0.82359380473E+03  0.18782382417E+04  0.16880379549E+04 0.  0.
        2    1    3    3  502    0 -0.66162851929E+03  0.11993840648E+03  0.97940369267E+03  0.11880105690E+04  0.25500000920E-02 0.  1.
       -2    1    3    3    0  502  0.66162851929E+03 -0.11993840648E+03 -0.15580988795E+03  0.69022767263E+03  0.25500000920E-02 0. -1.
</event>
<event>
 5   0  0.3574092E-04  0.1702137E+04  0.7818609E-02  0.8760147E-01
       -2   -1    0    0    0  501  0.00000000000E+00  0.00000000000E+00  0.60896614652E+03  0.60896614652E+03  0.25500000920E-02 0. -1.
        2   -1    0    0  501    0  0.00000000000E+00  0.00000000000E+00 -0.11894215887E+04  0.11894215887E+04  0.25500000920E-02 0.  1.
    10030    2    1    2    0    0  0.00000000000E+00  0.00000000000E+00 -0.58045544217E+03  0.17983877352E+04  0.17021368705E+04 0.  0.
        3    1    3    3  502    0  0.79885623910E+03  0.27066546227E+03 -0.41016507284E+03  0.93790536857E+03  0.10100000352E+00 0. -1.
       -3    1    3    3    0  502 -0.79885623910E+03 -0.27066546227E+03 -0.17029036933E+03  0.86048236665E+03  0.10100000352E+00 0.  1.
</event>
<event>
 5   0  0.3573262E-04  0.1693543E+04  0.7818609E-02  0.8765055E-01
        2   -1    0    0  501    0  0.00000000000E+00  0.00000000000E+00  0.11784597874E+04  0.11784597874E+04  0.25500000920E-02 0. -1.
       -2   -1    0    0    0  501  0.00000000000E+00  0.00000000000E+00 -0.60844025394E+03  0.60844025395E+03  0.25500000920E-02 0.  1.
    10030    2    1    2    0    0  0.00000000000E+00  0.00000000000E+00  0.57001953346E+03  0.17869000414E+04  0.16935434713E+04 0.  0.
        5    1    3    3  502    0  0.36746497145E+03  0.92487996598E+02  0.10839949355E+04  0.11483255832E+04  0.46999998093E+01 0. -1.
       -5    1    3    3    0  502 -0.36746497145E+03 -0.92487996598E+02 -0.51397540204E+03  0.63857445819E+03  0.46999998093E+01 0.  1.
</event>
<event>
 5   0  0.1920289E-04  0.1689635E+04  0.7818609E-02  0.8767298E-01
       -1   -1    0    0    0  501  0.00000000000E+00  0.00000000000E+00  0.50048201985E+03  0.50048201987E+03  0.50400001928E-02 0.  1.
        1   -1    0    0  501    0  0.00000000000E+00  0.00000000000E+00 -0.14260576989E+04  0.14260576990E+04  0.50400001928E-02 0. -1.
    10030    2    1    2    0    0  0.00000000000E+00  0.00000000000E+00 -0.92557567909E+03  0.19265397188E+04  0.16896345612E+04 0.  0.
        4    1    3    3  502    0  0.38790381311E+03  0.11414821964E+03 -0.13085564631E+04  0.13696060800E+04  0.12699999809E+01 0. -1.
       -4    1    3    3    0  502 -0.38790381311E+03 -0.11414821964E+03  0.38298078400E+03  0.55693363886E+03  0.12699999809E+01 0.  1.
</event>
<event>
 5   0  0.1930116E-04  0.1716684E+04  0.7818609E-02  0.8751906E-01
        1   -1    0    0  501    0  0.00000000000E+00  0.00000000000E+00  0.10415474598E+04  0.10415474598E+04  0.50400001928E-02 0.  1.
       -1   -1    0    0    0  501  0.00000000000E+00  0.00000000000E+00 -0.70736208364E+03  0.70736208365E+03  0.50400001928E-02 0. -1.
    10030    2    1    2    0    0  0.00000000000E+00  0.00000000000E+00  0.33418537612E+03  0.17489095434E+04  0.17166842242E+04 0.  0.
        1    1    3    3  502    0 -0.65568989524E+03 -0.38325090495E+03 -0.24034050671E+03  0.79660156544E+03  0.50400001928E-02 0. -1.
       -1    1    3    3    0  502  0.65568989524E+03  0.38325090495E+03  0.57452588283E+03  0.95230797798E+03  0.50400001928E-02 0.  1.
</event>
<event>
 5   0  0.1815663E-04  0.1689447E+04  0.7818609E-02  0.8767406E-01
       -1   -1    0    0    0  501  0.00000000000E+00  0.00000000000E+00  0.12096542143E+04  0.12096542143E+04  0.50400001928E-02 0.  1.
        1   -1    0    0  501    0  0.00000000000E+00  0.00000000000E+00 -0.58988549987E+03  0.58988549989E+03  0.50400001928E-02 0. -1.
    10030    2    1    2    0    0  0.00000000000E+00  0.00000000000E+00  0.61976871442E+03  0.17995397142E+04  0.16894466324E+04 0.  0.
        5    1    3    3  502    0 -0.12021621897E+03  0.18832371793E+03 -0.55782826569E+03  0.60092614026E+03  0.46999998093E+01 0. -1.
       -5    1    3    3    0  502  0.12021621897E+03 -0.18832371793E+03  0.11775969801E+04  0.11986135739E+04  0.46999998093E+01 0.  1.
</event>
<event>
 5   0  0.3574092E-04  0.1695475E+04  0.7818609E-02  0.8763949E-01
        2   -1    0    0  501    0  0.00000000000E+00  0.00000000000E+00  0.22173205470E+04  0.22173205470E+04  0.25500000920E-02 0.  1.
       -2   -1    0    0    0  501  0.00000000000E+00  0.00000000000E+00 -0.32411158526E+03  0.32411158527E+03  0.25500000920E-02 0. -1.
    10030    2    1    2    0    0  0.00000000000E+00  0.00000000000E+00  0.18932089617E+04  0.25414321322E+04  0.16954754820E+04 0.  0.
        3    1    3    3  502    0  0.28116912874E+03 -0.71735133733E+02 -0.24735114970E+03  0.38129333829E+03  0.10100000352E+00 0. -1.
       -3    1    3    3    0  502 -0.28116912874E+03  0.71735133733E+02  0.21405601114E+04  0.21601387939E+04  0.10100000352E+00 0.  1.
</event>
<event>
 5   0  0.3678896E-04  0.1668457E+04  0.7818609E-02  0.8779562E-01
        2   -1    0    0  501    0  0.00000000000E+00  0.00000000000E+00  0.60207034972E+03  0.60207034973E+03  0.25500000920E-02 0. -1.
       -2   -1    0    0    0  501  0.00000000000E+00  0.00000000000E+00 -0.11559070924E+04  0.11559070924E+04  0.25500000920E-02 0.  1.
    10030    2    1    2    0    0  0.00000000000E+00  0.00000000000E+00 -0.55383674269E+03  0.17579774421E+04  0.16684572364E+04 0.  0.
        2    1    3    3  502    0 -0.37763345629E+03 -0.14993303643E+03 -0.10446055915E+04  0.11208424441E+04  0.25500000920E-02 0.  1.
       -2    1    3    3    0  502  0.37763345629E+03  0.14993303643E+03  0.49076884882E+03  0.63713499802E+03  0.25500000920E-02 0. -1.
</event>
<event>
 5   0  0.1893284E-04  0.1701031E+04  0.7818609E-02  0.8760777E-01
       -1   -1    0    0    0  501  0.00000000000E+00  0.00000000000E+00  0.94658474550E+03  0.94658474552E+03  0.50400001928E-02 0. -1.
        1   -1    0    0  501    0  0.00000000000E+00  0.00000000000E+00 -0.76419631210E+03  0.76419631212E+03  0.50400001928E-02 0.  1.
    10030    2    1    2    0    0  0.00000000000E+00  0.00000000000E+00  0.18238843340E+03  0.17107810576E+04  0.17010309481E+04 0.  0.
        2    1    3    3  502    0  0.30366328840E+03 -0.79440699750E+03  0.82048069718E+02  0.85441544705E+03  0.25500000920E-02 0. -1.
       -2    1    3    3    0  502 -0.30366328840E+03  0.79440699750E+03  0.10034036369E+03  0.85636561059E+03  0.25500000920E-02 0.  1.
</event>
<event>
 5   0  0.1893284E-04  0.1715037E+04  0.7818609E-02  0.8752834E-01
       -1   -1    0    0    0  501  0.00000000000E+00  0.00000000000E+00  0.95552978639E+03  0.95552978640E+03  0.50400001928E-02 0. -1.
        1   -1    0    0  501    0  0.00000000000E+00  0.00000000000E+00 -0.76956070927E+03  0.76956070929E+03  0.50400001928E-02 0.  1.
    10030    2    1    2    0    0  0.00000000000E+00  0.00000000000E+00  0.18596907712E+03  0.17250904957E+04  0.17150372359E+04 0.  0.
        2    1    3    3  502    0 -0.12514824016E+03 -0.70091633835E+03 -0.38772101379E+03  0.81072398504E+03  0.25500000920E-02 0.  1.
       -2    1    3    3    0  502  0.12514824016E+03  0.70091633835E+03  0.57369009091E+03  0.91436651065E+03  0.25500000920E-02 0. -1.
</event>
<event>
 5   0  0.3516723E-04  0.1675060E+04  0.7818609E-02  0.8775717E-01
       -2   -1    0    0    0  501  0.00000000000E+00  0.00000000000E+00  0.72508093179E+03  0.72508093180E+03  0.25500000920E-02 0.  1.
        2   -1    0    0  501    0  0.00000000000E+00  0.00000000000E+00 -0.96741874781E+03  0.96741874781E+03  0.25500000920E-02 0. -1.
    10030    2    1    2    0    0  0.00000000000E+00  0.00000000000E+00 -0.24233781601E+03  0.16924996796E+04  0.16750604611E+04 0.  0.
        1    1    3    3  502    0  0.33784183001E+03 -0.45739104474E+03 -0.74247989993E+03  0.93521124444E+03  0.50400001928E-02 0. -1.
       -1    1    3    3    0  502 -0.33784183001E+03  0.45739104474E+03  0.50014208391E+03  0.75728843517E+03  0.50400001928E-02 0.  1.
</event>
<event>
 5   0  0.1824538E-04  0.1691955E+04  0.7818609E-02  0.8765966E-01
        1   -1    0    0  501    0  0.00000000000E+00  0.00000000000E+00  0.17240019542E+04  0.17240019543E+04  0.50400001928E-02 0.  1.
       -1   -1    0    0    0  501  0.00000000000E+00  0.00000000000E+00 -0.41512597831E+03  0.41512597834E+03  0.50400001928E-02 0. -1.
    10030    2    1    2    0    0  0.00000000000E+00  0.00000000000E+00  0.13088759759E+04  0.21391279326E+04  0.16919550797E+04 0.  0.
        3    1    3    3  502    0  0.42883449083E+03  0.66523698071E+03  0.27675744436E+03  0.83847120060E+03  0.10100000352E+00 0. -1.
       -3    1    3    3    0  502 -0.42883449083E+03 -0.66523698071E+03  0.10321185316E+04  0.13006567320E+04  0.10100000352E+00 0.  1.
</event>
<event>
 5   0  0.3516723E-04  0.1703219E+04  0.7818609E-02  0.8759531E-01
        2   -1    0    0  501    0  0.00000000000E+00  0.00000000000E+00  0.12368549971E+04  0.12368549971E+04  0.25500000920E-02 0. -1.
       -2   -1    0    0    0  501  0.00000000000E+00  0.00000000000E+00 -0.58635686351E+03  0.58635686351E+03  0.25500000920E-02 0.  1.
    10030    2    1    2    0    0  0.00000000000E+00  0.00000000000E+00  0.65049813358E+03  0.18232118606E+04  0.17032186198E+04 0.  0.
        1    1    3    3  502    0 -0.80993217811E+03 -0.22839061536E+03  0.46517141147E+03  0.96152839188E+03  0.50400001928E-02 0. -1.
       -1    1    3    3    0  502  0.80993217811E+03  0.22839061536E+03  0.18532672211E+03  0.86168346872E+03  0.50400001928E-02 0.  1.
</event>
<event>
 5   0  0.1893284E-04  0.1689469E+04  0.7818609E-02  0.8767394E-01
        1   -1    0    0  501    0  0.00000000000E+00  0.00000000000E+00  0.10988684785E+04  0.10988684785E+04  0.50400001928E-02 0. -1.
       -1   -1    0    0    0  501  0.00000000000E+00  0.00000000000E+00 -0.64937354572E+03  0.64937354574E+03  0.50400001928E-02 0.  1.
    10030    2    1    2    0    0  0.00000000000E+00  0.00000000000E+00  0.44949493276E+03  0.17482420242E+04  0.16894686978E+04 0.  0.
        2    1    3    3  502    0  0.36862186738E+01  0.97711082200E+02 -0.64349772305E+03  0.65088429338E+03  0.25500000920E-02 0.  1.
       -2    1    3    3    0  502 -0.36862186738E+01 -0.97711082200E+02  0.10929926558E+04  0.10973577308E+04  0.25500000920E-02 0. -1.
</event>
<event>
 5   0  0.1920289E-04  0.1712024E+04  0.7818609E-02  0.8754536E-01
       -1   -1    0    0    0  501  0.00000000000E+00  0.00000000000E+00  0.30950987351E+03  0.30950987355E+03  0.50400001928E-02 0.  1.
        1   -1    0    0  501    0  0.00000000000E+00  0.00000000000E+00 -0.23674736589E+04  0.23674736589E+04  0.50400001928E-02 0. -1.
    10030    2    1    2    0    0  0.00000000000E+00  0.00000000000E+00 -0.20579637854E+04  0.26769835325E+04  0.17120239166E+04 0.  0.
        4    1    3    3  502    0 -0.75316672647E+03  0.40378582716E+03 -0.95155821986E+03  0.12789713721E+04  0.12699999809E+01 0. -1.
       -4    1    3    3    0  502  0.75316672647E+03 -0.40378582716E+03 -0.11064055655E+04  0.13980121603E+04  0.12699999809E+01 0.  1.
</event>
<event>
 5   0  0.3605571E-04  0.1696275E+04  0.7818609E-02  0.8763492E-01
       -2   -1    0    0    0  501  0.00000000000E+00  0.00000000000E+00  0.82662421317E+03  0.82662421317E+03  0.25500000920E-02 0.  1.
        2   -1    0    0  501    0  0.00000000000E+00  0.00000000000E+00 -0.87021074928E+03  0.87021074928E+03  0.25500000920E-02 0. -1.
    10030    2    1    2    0    0  0.00000000000E+00  0.00000000000E+00 -0.43586536114E+02  0.16968349625E+04  0.16962750672E+04 0.  0.
        4    1    3    3  502    0  0.56813835996E+03  0.41744611534E+03  0.44984216117E+03  0.83630259962E+03  0.12699999809E+01 0.  1.
       -4    1    3    3    0  502 -0.56813835996E+03 -0.41744611534E+03 -0.49342869729E+03  0.86053236283E+03  0.12699999809E+01 0. -1.
</event>
<event>
 5   0  0.3678896E-04  0.1697726E+04  0.7818609E-02  0.8762662E-01
        2   -1    0    0  501    0  0.00000000000E+00  0.00000000000E+00  0.11772786120E+04  0.11772786120E+04  0.25500000920E-02 0.  1.
       -2   -1    0    0    0  501  0.00000000000E+00  0.00000000000E+00 -0.61206275416E+03  0.61206275417E+03  0.25500000920E-02 0. -1.
    10030    2    1    2    0    0  0.00000000000E+00  0.00000000000E+00  0.56521585783E+03  0.17893413662E+04  0.16977259964E+04 0.  0.
        2    1    3    3  502    0 -0.66029392075E+03  0.20782826140E+03 -0.23521730390E+03  0.73110042270E+03  0.25500000920E-02 0. -1.
       -2    1    3    3    0  502  0.66029392075E+03 -0.20782826140E+03  0.80043316172E+03  0.10582409435E+04  0.25500000920E-02 0.  1.
</event>
<event>
 5   0  0.1815663E-04  0.1732741E+04  0.7818609E-02  0.8742908E-01
        1   -1    0    0  501    0  0.00000000000E+00  0.00000000000E+00  0.15759115139E+04  0.15759115139E+04  0.50400001928E-02 0.  1.
       -1   -1    0    0    0  501  0.00000000000E+00  0.00000000000E+00 -0.47629445197E+03  0.47629445200E+03  0.50400001928E-02 0. -1.
    10030    2    1    2    0    0  0.00000000000E+00  0.00000000000E+00  0.10996170619E+04  0.20522059659E+04  0.17327410781E+04 0.  0.
        5    1    3    3  502    0 -0.18081316508E+03  0.46036980729E+03 -0.29262892345E+03  0.57470647897E+03  0.46999998093E+01 0. -1.
       -5    1    3    3    0  502  0.18081316508E+03 -0.46036980729E+03  0.13922459854E+04  0.14774994870E+04  0.46999998093E+01 0.  1.
</event>
<event>
 5   0  0.3573262E-04  0.1714603E+04  0.7818609E-02  0.8753079E-01
       -2   -1    0    0    0  501  0.00000000000E+00  0.00000000000E+00  0.37670145513E+03  0.37670145514E+03  0.25500000920E-02 0. -1.
        2   -1    0    0  501    0  0.00000000000E+00  0.00000000000E+00 -0.19510576422E+04  0.19510576422E+04  0.25500000920E-02 0.  1.
    10030    2    1    2    0    0  0.00000000000E+00  0.00000000000E+00 -0.15743561870E+04  0.23277590973E+04  0.17146034560E+04 0.  0.
        5    1    3    3  502    0  0.71817712010E+03 -0.84692662317E+02 -0.14122572778E+04  0.15866454965E+04  0.46999998093E+01 0.  1.
       -5    1    3    3    0  502 -0.71817712010E+03  0.84692662317E+02 -0.16209890920E+03  0.74111360077E+03  0.46999998093E+01 0. -1.
</event>
<event>
 5   0  0.3678896E-04  0.1696956E+04  0.7818609E-02  0.8763102E-01
       -2   -1    0    0    0  501  0.00000000000E+00  0.00000000000E+00  0.70298701104E+03  0.70298701105E+03  0.25500000920E-02 0.  1.
        2   -1    0    0  501    0  0.00000000000E+00  0.00000000000E+00 -0.10240800925E+04  0.10240800925E+04  0.25500000920E-02 0. -1.
    10030    2    1    2    0    0  0.00000000000E+00  0.00000000000E+00 -0.32109308143E+03  0.17270671035E+04  0.16969561023E+04 0.  0.
        2    1    3    3  502    0  0.30900573312E+03  0.23808828439E+03 -0.92740470351E+03  0.10061063852E+04  0.25500000920E-02 0. -1.
       -2    1    3    3    0  502 -0.30900573312E+03 -0.23808828439E+03  0.60631162208E+03  0.72096071831E+03  0.25500000920E-02 0.  1.
</event>
<event>
 5   0  0.1317625E-04  0.1756380E+04  0.7818609E-02  0.8729846E-01
       -4   -1    0    0    0  501  0.00000000000E+00  0.00000000000E+00  0.99558419713E+03  0.99558500716E+03  0.12699999809E+01 0.  1.
        4   -1    0    0  501    0  0.00000000000E+00  0.00000000000E+00 -0.77463665366E+03  0.77463769473E+03  0.12699999809E+01 0. -1.
    10030    2    1    2    0    0  0.00000000000E+00  0.00000000000E+00  0.22094754347E+03  0.17702227019E+04  0.17563799695E+04 0.  0.
        4    1    3    3  502    0  0.80207094840E+03 -0.23788896878E+03  0.37961220645E+03  0.91870343850E+03  0.12699999809E+01 0.  1.
       -4    1    3    3    0  502 -0.80207094840E+03  0.23788896878E+03 -0.15866466298E+03  0.85151926338E+03  0.12699999809E+01 0. -1.
</event>
<event>
 5   0  0.1824538E-04  0.1696993E+04  0.7818609E-02  0.8763081E-01
        1   -1    0    0  501    0  0.00000000000E+00  0.00000000000E+00  0.10753875258E+04  0.10753875258E+04  0.50400001928E-02 0.  1.
       -1   -1    0    0    0  501  0.00000000000E+00  0.00000000000E+00 -0.66947605327E+03  0.66947605329E+03  0.50400001928E-02 0. -1.
    10030    2    1    2    0    0  0.00000000000E+00  0.00000000000E+00  0.40591147256E+03  0.17448635791E+04  0.16969928657E+04 0.  0.
        3    1    3    3  502    0 -0.54720018359E+03 -0.24219919175E+03  0.82147092437E+03  0.10163183454E+04  0.10100000352E+00 0.  1.
       -3    1    3    3    0  502  0.54720018359E+03  0.24219919175E+03 -0.41555945181E+03  0.72854523374E+03  0.10100000352E+00 0. -1.
</event>
<event>
 5   0  0.3516723E-04  0.1669716E+04  0.7818609E-02  0.8778827E-01
       -2   -1    0    0    0  501  0.00000000000E+00  0.00000000000E+00  0.71259915598E+03  0.71259915599E+03  0.25500000920E-02 0. -1.
        2   -1    0    0  501    0  0.00000000000E+00  0.00000000000E+00 -0.97809234083E+03  0.97809234083E+03  0.25500000920E-02 0.  1.
    10030    2    1    2    0    0  0.00000000000E+00  0.00000000000E+00 -0.26549318485E+03  0.16906914968E+04  0.16697158759E+04 0.  0.
        1    1    3    3  502    0  0.47742506604E+03  0.59938968278E+03  0.20275414188E+03  0.79266129437E+03  0.50400001928E-02 0. -1.
       -1    1    3    3    0  502 -0.47742506604E+03 -0.59938968278E+03 -0.46824732673E+03  0.89803020246E+03  0.50400001928E-02 0.  1.
</event>
<event>
 5   0  0.1824538E-04  0.1702913E+04  0.7818609E-02  0.8759705E-01
       -1   -1    0    0    0  501  0.00000000000E+00  0.00000000000E+00  0.10374080691E+04  0.10374080691E+04  0.50400001928E-02 0.  1.
        1   -1    0    0  501    0  0.00000000000E+00  0.00000000000E+00 -0.69883609512E+03  0.69883609513E+03  0.50400001928E-02 0. -1.
    10030    2    1    2    0    0  0.00000000000E+00  0.00000000000E+00  0.33857197397E+03  0.17362441642E+04  0.17029130384E+04 0.  0.
        3    1    3    3  502    0  0.37414852599E+03  0.67842639043E+03 -0.19079611796E+03  0.79790516702E+03  0.10100000352E+00 0.  1.
       -3    1    3    3    0  502 -0.37414852599E+03 -0.67842639043E+03  0.52936809193E+03  0.93833899721E+03  0.10100000352E+00 0. -1.
</event>
<event>
 5   0  0.3678896E-04  0.1592327E+04  0.7818609E-02  0.8825276E-01
        2   -1    0    0  501    0  0.00000000000E+00  0.00000000000E+00  0.92675057212E+03  0.92675057213E+03  0.25500000920E-02 0. -1.
       -2   -1    0    0    0  501  0.00000000000E+00  0.00000000000E+00 -0.68397729394E+03  0.68397729394E+03  0.25500000920E-02 0.  1.
    10030    2    1    2    0    0  0.00000000000E+00  0.00000000000E+00  0.24277327818E+03  0.16107278661E+04  0.15923270374E+04 0.  0.
        2    1    3    3  502    0  0.63409117548E+03 -0.12936399712E+03 -0.34772855904E+03  0.73465761641E+03  0.25500000920E-02 0.  1.
       -2    1    3    3    0  502 -0.63409117548E+03  0.12936399712E+03  0.59050183722E+03  0.87607024966E+03  0.25500000920E-02 0. -1.
</event>
<event>
 5   0  0.3574092E-04  0.1696652E+04  0.7818609E-02  0.8763276E-01
        2   -1    0    0  501    0  0.00000000000E+00  0.00000000000E+00  0.27067387075E+04  0.27067387075E+04  0.25500000920E-02 0. -1.
       -2   -1    0    0    0  501  0.00000000000E+00  0.00000000000E+00 -0.26587599433E+03  0.26587599434E+03  0.25500000920E-02 0.  1.
    10030    2    1    2    0    0  0.00000000000E+00  0.00000000000E+00  0.24408627131E+04  0.29726147018E+04  0.16966518149E+04 0.  0.
        3    1    3    3  502    0 -0.18545630806E+03 -0.74883992961E+03  0.18386374468E+04  0.19939265165E+04  0.10100000352E+00 0. -1.
       -3    1    3    3    0  502  0.18545630806E+03  0.74883992961E+03  0.60222526634E+03  0.97868818527E+03  0.10100000352E+00 0.  1.
</event>
<event>
 5   0  0.3516723E-04  0.1681828E+04  0.7818609E-02  0.8771797E-01
        2   -1    0    0  501    0  0.00000000000E+00  0.00000000000E+00  0.16854088149E+04  0.16854088149E+04  0.25500000920E-02 0.  1.
       -2   -1    0    0    0  501  0.00000000000E+00  0.00000000000E+00 -0.41956369238E+03  0.41956369239E+03  0.25500000920E-02 0. -1.
    10030    2    1    2    0    0  0.00000000000E+00  0.00000000000E+00  0.12658451225E+04  0.21049725073E+04  0.16818279883E+04 0.  0.
        1    1    3    3  502    0 -0.54964383831E+03  0.52015387564E+02  0.14267972526E+04  0.15298903064E+04  0.50400001928E-02 0.  1.
       -1    1    3    3    0  502  0.54964383831E+03 -0.52015387564E+02 -0.16095213012E+03  0.57508220086E+03  0.50400001928E-02 0. -1.
</event>
<event>
 5   0  0.3573262E-04  0.1728057E+04  0.7818609E-02  0.8745522E-01
        2   -1    0    0  501    0  0.00000000000E+00  0.00000000000E+00  0.15852490596E+04  0.15852490596E+04  0.25500000920E-02 0.  1.
       -2   -1    0    0    0  501  0.00000000000E+00  0.00000000000E+00 -0.47093268395E+03  0.47093268396E+03  0.25500000920E-02 0. -1.
    10030    2    1    2    0    0  0.00000000000E+00  0.00000000000E+00  0.11143163757E+04  0.20561817436E+04  0.17280574000E+04 0.  0.
        5    1    3    3  502    0 -0.28799709294E+03  0.54562736654E+03 -0.16256897860E+03  0.63804569700E+03  0.46999998093E+01 0. -1.
       -5    1    3    3    0  502  0.28799709294E+03 -0.54562736654E+03  0.12768853543E+04  0.14181360466E+04  0.46999998093E+01 0.  1.
</event>
<event>
 5   0  0.1920289E-04  0.1707246E+04  0.7818609E-02  0.8757242E-01
       -1   -1    0    0    0  501  0.00000000000E+00  0.00000000000E+00  0.71302340754E+03  0.71302340755E+03  0.50400001928E-02 0.  1.
        1   -1    0    0  501    0  0.00000000000E+00  0.00000000000E+00 -0.10219475714E+04  0.10219475715E+04  0.50400001928E-02 0. -1.
    10030    2    1    2    0    0  0.00000000000E+00  0.00000000000E+00 -0.30892416391E+03  0.17349709790E+04  0.17072463674E+04 0.  0.
        4    1    3    3  502    0  0.39073667079E+03  0.16164964297E+03 -0.90803299090E+03  0.10016642543E+04  0.12699999809E+01 0. -1.
       -4    1    3    3    0  502 -0.39073667079E+03 -0.16164964297E+03  0.59910882699E+03  0.73330672467E+03  0.12699999809E+01 0.  1.
</event>
<event>
 5   0  0.1815663E-04  0.1695117E+04  0.7818609E-02  0.8764154E-01
        1   -1    0    0  501    0  0.00000000000E+00  0.00000000000E+00  0.67713031031E+03  0.67713031033E+03  0.50400001928E-02 0. -1.
       -1   -1    0    0    0  501  0.00000000000E+00  0.00000000000E+00 -0.10608825933E+04  0.10608825933E+04  0.50400001928E-02 0.  1.
    10030    2    1    2    0    0  0.00000000000E+00  0.00000000000E+00 -0.38375228298E+03  0.17380129036E+04  0.16951174114E+04 0.  0.
        5    1    3    3  502    0  0.64269401268E+02 -0.67811761290E+03  0.32522713872E+03  0.75483033500E+03  0.46999998093E+01 0. -1.
       -5    1    3    3    0  502 -0.64269401268E+02  0.67811761290E+03 -0.70897942170E+03  0.98318256863E+03  0.46999998093E+01 0.  1.
</event>
<event>
 5   0  0.3605571E-04  0.1697279E+04  0.7818609E-02  0.8762918E-01
        2   -1    0    0  501    0  0.00000000000E+00  0.00000000000E+00  0.14058894167E+04  0.14058894167E+04  0.25500000920E-02 0. -1.
       -2   -1    0    0    0  501  0.00000000000E+00  0.00000000000E+00 -0.51226575351E+03  0.51226575352E+03  0.25500000920E-02 0.  1.
    10030    2    1    2    0    0  0.00000000000E+00  0.00000000000E+00  0.89362366319E+03  0.19181551702E+04  0.16972790005E+04 0.  0.
        4    1    3    3  502    0  0.25685591945E+01 -0.21622479209E+03  0.13742307790E+04  0.13911403973E+04  0.12699999809E+01 0. -1.
       -4    1    3    3    0  502 -0.25685591945E+01  0.21622479209E+03 -0.48060711580E+03  0.52701477291E+03  0.12699999809E+01 0.  1.
</event>
<event>
 5   0  0.1920289E-04  0.1634236E+04  0.7818609E-02  0.8799787E-01
        1   -1    0    0  501    0  0.00000000000E+00  0.00000000000E+00  0.10633252100E+04  0.10633252100E+04  0.50400001928E-02 0.  1.
       -1   -1    0    0    0  501  0.00000000000E+00  0.00000000000E+00 -0.62791910973E+03  0.62791910975E+03  0.50400001928E-02 0. -1.
    10030    2    1    2    0    0  0.00000000000E+00  0.00000000000E+00  0.43540610029E+03  0.16912443198E+04  0.16342364814E+04 0.  0.
        4    1    3    3  502    0  0.74962422842E+03 -0.16643408683E+03 -0.71405344116E+02  0.77119201575E+03  0.12699999809E+01 0. -1.
       -4    1    3    3    0  502 -0.74962422842E+03  0.16643408683E+03  0.50681144441E+03  0.92005230404E+03  0.12699999809E+01 0.  1.
</event>
<event>
 5   0  0.1930116E-04  0.1693736E+04  0.7818609E-02  0.8764945E-01
       -1   -1    0    0    0  501  0.00000000000E+00  0.00000000000E+00  0.39989816376E+03  0.39989816379E+03  0.50400001928E-02 0.  1.
        1   -1    0    0  501    0  0.00000000000E+00  0.00000000000E+00 -0.17934208733E+04  0.17934208733E+04  0.50400001928E-02 0. -1.
    10030    2    1    2    0    0  0.00000000000E+00  0.00000000000E+00 -0.13935227095E+04  0.21933190371E+04  0.16937363598E+04 0.  0.
        1    1    3    3  502    0 -0.14879289048E+03  0.83013119727E+03 -0.79646970443E+03  0.11600091030E+04  0.50400001928E-02 0.  1.
       -1    1    3    3    0  502  0.14879289048E+03 -0.83013119727E+03 -0.59705300510E+03  0.10333099341E+04  0.50400001928E-02 0. -1.
</event>
<event>
 5   0  0.3516723E-04  0.1697041E+04  0.7818609E-02  0.8763054E-01
       -2   -1    0    0    0  501  0.00000000000E+00  0.00000000000E+00  0.89740834329E+03  0.89740834329E+03  0.25500000920E-02 0. -1.
        2   -1    0    0  501    0  0.00000000000E+00  0.00000000000E+00 -0.80229607738E+03  0.80229607739E+03  0.25500000920E-02 0.  1.
    10030    2    1    2    0    0  0.00000000000E+00  0.00000000000E+00  0.95112265906E+02  0.16997044207E+04  0.16970411823E+04 0.  0.
        1    1    3    3  502    0 -0.48451940567E+03 -0.26907703493E+03 -0.59596732014E+03  0.81384184699E+03  0.50400001928E-02 0.  1.
       -1    1    3    3    0  502  0.48451940567E+03  0.26907703493E+03  0.69107958605E+03  0.88586257370E+03  0.50400001928E-02 0. -1.
</event>
<event>
 5   0  0.1815663E-04  0.1374574E+04  0.7818609E-02  0.8972431E-01
       -1   -1    0    0    0  501  0.00000000000E+00  0.00000000000E+00  0.45272417552E+03  0.45272417555E+03  0.50400001928E-02 0. -1.
        1   -1    0    0  501    0  0.00000000000E+00  0.00000000000E+00 -0.10433806891E+04  0.10433806891E+04  0.50400001928E-02 0.  1.
    10030    2    1    2    0    0  0.00000000000E+00  0.00000000000E+00 -0.59065651362E+03  0.14961048647E+04  0.13745743520E+04 0.  0.
        5    1    3    3  502    0 -0.49145897837E+03  0.38174701921E+03 -0.61279967003E+03  0.87338893952E+03  0.46999998093E+01 0.  1.
       -5    1    3    3    0  502  0.49145897837E+03 -0.38174701921E+03  0.22143156412E+02  0.62271592517E+03  0.46999998093E+01 0. -1.
</event>
<event>
 5   0  0.3605571E-04  0.1661250E+04  0.7818609E-02  0.8783779E-01
        2   -1    0    0  501    0  0.00000000000E+00  0.00000000000E+00  0.11852620706E+04  0.11852620706E+04  0.25500000920E-02 0. -1.
       -2   -1    0    0    0  501  0.00000000000E+00  0.00000000000E+00 -0.58209763913E+03  0.58209763914E+03  0.25500000920E-02 0.  1.
    10030    2    1    2    0    0  0.00000000000E+00  0.00000000000E+00  0.60316443144E+03  0.17673597097E+04  0.16612504363E+04 0.  0.
        4    1    3    3  502    0  0.72420473139E+03  0.58575733422E+02 -0.12666211244E+03  0.73752865242E+03  0.12699999809E+01 0.  1.
       -4    1    3    3    0  502 -0.72420473139E+03 -0.58575733422E+02  0.72982654388E+03  0.10298310573E+04  0.12699999809E+01 0. -1.
</event>
<event>
 5   0  0.3516723E-04  0.1703008E+04  0.7818609E-02  0.8759651E-01
        2   -1    0    0  501    0  0.00000000000E+00  0.00000000000E+00  0.83727775807E+03  0.83727775808E+03  0.25500000920E-02 0. -1.
       -2   -1    0    0    0  501  0.00000000000E+00  0.00000000000E+00 -0.86597185049E+03  0.86597185049E+03  0.25500000920E-02 0.  1.
    10030    2    1    2    0    0  0.00000000000E+00  0.00000000000E+00 -0.28694092416E+02  0.17032496086E+04  0.17030078914E+04 0.  0.
        1    1    3    3  502    0  0.68797185588E+02 -0.53584268474E+03  0.64392456578E+03  0.84053511645E+03  0.50400001928E-02 0. -1.
       -1    1    3    3    0  502 -0.68797185588E+02  0.53584268474E+03 -0.67261865820E+03  0.86271449212E+03  0.50400001928E-02 0.  1.
</event>
<event>
 5   0  0.3574092E-04  0.1677358E+04  0.7818609E-02  0.8774384E-01
        2   -1    0    0  501    0  0.00000000000E+00  0.00000000000E+00  0.14157957708E+04  0.14157957708E+04  0.25500000920E-02 0. -1.
       -2   -1    0    0    0  501  0.00000000000E+00  0.00000000000E+00 -0.49681097344E+03  0.49681097345E+03  0.25500000920E-02 0.  1.
    10030    2    1    2    0    0  0.00000000000E+00  0.00000000000E+00  0.91898479741E+03  0.19126067443E+04  0.16773584889E+04 0.  0.
        3    1    3    3  502    0 -0.51500320475E+03  0.64649721443E+03  0.62153588081E+03  0.10341633384E+04  0.10100000352E+00 0. -1.
       -3    1    3    3    0  502  0.51500320475E+03 -0.64649721443E+03  0.29744891659E+03  0.87844340589E+03  0.10100000352E+00 0.  1.
</event>
<event>
 5   0  0.3678896E-04  0.1696734E+04  0.7818609E-02  0.8763229E-01
        2   -1    0    0  501    0  0.00000000000E+00  0.00000000000E+00  0.10371268859E+04  0.10371268859E+04  0.25500000920E-02 0.  1.
       -2   -1    0    0    0  501  0.00000000000E+00  0.00000000000E+00 -0.69396201433E+03  0.69396201433E+03  0.25500000920E-02 0. -1.
    10030    2    1    2    0    0  0.00000000000E+00  0.00000000000E+00  0.34316487157E+03  0.17310889002E+04  0.16967341134E+04 0.  0.
        2    1    3    3  502    0 -0.29587430170E+02  0.13835175830E+03  0.10250060041E+04  0.10347240856E+04  0.25500000920E-02 0.  1.
       -2    1    3    3    0  502  0.29587430170E+02 -0.13835175830E+03 -0.68184113248E+03  0.69636481459E+03  0.25500000920E-02 0. -1.
</event>
<event>
 5   0  0.3516723E-04  0.1693644E+04  0.7818609E-02  0.8764998E-01
       -2   -1    0    0    0  501  0.00000000000E+00  0.00000000000E+00  0.52677806465E+03  0.52677806465E+03  0.25500000920E-02 0. -1.
        2   -1    0    0  501    0  0.00000000000E+00  0.00000000000E+00 -0.13613078568E+04  0.13613078568E+04  0.25500000920E-02 0.  1.
    10030    2    1    2    0    0  0.00000000000E+00  0.00000000000E+00 -0.83452979212E+03  0.18880859214E+04  0.16936435495E+04 0.  0.
        1    1    3    3  502    0 -0.57343180915E+03 -0.22760563284E+03 -0.10639287189E+04  0.12298669370E+04  0.50400001928E-02 0.  1.
       -1    1    3    3    0  502  0.57343180915E+03  0.22760563284E+03  0.22939892674E+03  0.65821898443E+03  0.50400001928E-02 0. -1.
</event>
<event>
 5   0  0.3573262E-04  0.1683211E+04  0.7818609E-02  0.8770998E-01
        2   -1    0    0  501    0  0.00000000000E+00  0.00000000000E+00  0.54099806880E+03  0.54099806881E+03  0.25500000920E-02 0.  1.
       -2   -1    0    0    0  501  0.00000000000E+00  0.00000000000E+00 -0.13092457873E+04  0.13092457873E+04  0.25500000920E-02 0. -1.
    10030    2    1    2    0    0  0.00000000000E+00  0.00000000000E+00 -0.76824771853E+03  0.18502438561E+04  0.16832105543E+04 0.  0.
        5    1    3    3  502    0 -0.69067761190E+03  0.41281146522E+03 -0.65523291132E+03  0.10376902850E+04  0.46999998093E+01 0. -1.
       -5    1    3    3    0  502  0.69067761190E+03 -0.41281146522E+03 -0.11301480720E+03  0.81255357119E+03  0.46999998093E+01 0.  1.
</event>
<event>
 5   0  0.3678896E-04  0.1692806E+04  0.7818609E-02  0.8765478E-01
       -2   -1    0    0    0  501  0.00000000000E+00  0.00000000000E+00  0.12771385693E+04  0.12771385693E+04  0.25500000920E-02 0. -1.
        2   -1    0    0  501    0  0.00000000000E+00  0.00000000000E+00 -0.56094020212E+03  0.56094020212E+03  0.25500000920E-02 0.  1.
    10030    2    1    2    0    0  0.00000000000E+00  0.00000000000E+00  0.71619836717E+03  0.18380787714E+04  0.16928063885E+04 0.  0.
        2    1    3    3  502    0  0.58692782780E+03 -0.40538253221E+03 -0.13660847840E+03  0.72627897453E+03  0.25500000920E-02 0.  1.
       -2    1    3    3    0  502 -0.58692782780E+03  0.40538253221E+03  0.85280684558E+03  0.11117997969E+04  0.25500000920E-02 0. -1.
</event>
<event>
 5   0  0.1824538E-04  0.1712872E+04  0.7818609E-02  0.8754057E-01
        1   -1    0    0  501    0  0.00000000000E+00  0.00000000000E+00  0.15825317497E+04  0.15825317497E+04  0.50400001928E-02 0. -1.
       -1   -1    0    0    0  501  0.00000000000E+00  0.00000000000E+00 -0.46348669658E+03  0.46348669661E+03  0.50400001928E-02 0.  1.
    10030    2    1    2    0    0  0.00000000000E+00  0.00000000000E+00  0.11190450531E+04  0.20460184463E+04  0.17128717558E+04 0.  0.
        3    1    3    3  502    0 -0.36926541141E+03  0.75654374034E+03  0.37153819998E+03  0.92019346844E+03  0.10100000352E+00 0. -1.
       -3    1    3    3    0  502  0.36926541141E+03 -0.75654374034E+03  0.74750685311E+03  0.11258249779E+04  0.10100000352E+00 0.  1.
</event>
<event>
 5   0  0.1930116E-04  0.1687890E+04  0.7818609E-02  0.8768301E-01
       -1   -1    0    0    0  501  0.00000000000E+00  0.00000000000E+00  0.97849251161E+03  0.97849251162E+03  0.50400001928E-02 0.  1.
        1   -1    0    0  501    0  0.00000000000E+00  0.00000000000E+00 -0.72789833220E+03  0.72789833222E+03  0.50400001928E-02 0. -1.
    10030    2    1    2    0    0  0.00000000000E+00  0.00000000000E+00  0.25059417941E+03  0.17063908438E+04  0.16878898866E+04 0.  0.
        1    1    3    3  502    0  0.16500121535E+03 -0.45379847456E+03  0.82504322958E+03  0.95595752379E+03  0.50400001928E-02 0.  1.
       -1    1    3    3    0  502 -0.16500121535E+03  0.45379847456E+03 -0.57444905018E+03  0.75043332006E+03  0.50400001928E-02 0. -1.
</event>
<event>
 5   0  0.3605571E-04  0.1732354E+04  0.7818609E-02  0.8743124E-01
        2   -1    0    0  501    0  0.00000000000E+00  0.00000000000E+00  0.21586831364E+04  0.21586831364E+04  0.25500000920E-02 0. -1.
       -2   -1    0    0    0  501  0.00000000000E+00  0.00000000000E+00 -0.34755583182E+03  0.34755583183E+03  0.25500000920E-02 0.  1.
    10030    2    1    2    0    0  0.00000000000E+00  0.00000000000E+00  0.18111273046E+04  0.25062389682E+04  0.17323543669E+04 0.  0.
        4    1    3    3  502    0  0.10416406850E+03 -0.15363876436E+03 -0.31844220039E+03  0.36859472456E+03  0.12699999809E+01 0.  1.
       -4    1    3    3    0  502 -0.10416406850E+03  0.15363876436E+03  0.21295695049E+04  0.21376442436E+04  0.12699999809E+01 0. -1.
</event>
<event>
 5   0  0.3573262E-04  0.1724340E+04  0.7818609E-02  0.8747603E-01
        2   -1    0    0  501    0  0.00000000000E+00  0.00000000000E+00  0.15113604270E+04  0.15113604270E+04  0.25500000920E-02 0. -1.
       -2   -1    0    0    0  501  0.00000000000E+00  0.00000000000E+00 -0.49183319707E+03  0.49183319708E+03  0.25500000920E-02 0.  1.
    10030    2    1    2    0    0  0.00000000000E+00  0.00000000000E+00  0.10195272299E+04  0.20031936241E+04  0.17243401413E+04 0.  0.
        5    1    3    3  502    0 -0.26814877536E+02 -0.67355258382E+03 -0.11467688628E+03  0.68378724693E+03  0.46999998093E+01 0.  1.
       -5    1    3    3    0  502  0.26814877536E+02  0.67355258382E+03  0.11342041162E+04  0.13194063772E+04  0.46999998093E+01 0. -1.
</event>
<event>
 5   0  0.3573262E-04  0.1715846E+04  0.7818609E-02  0.8752378E-01
       -2   -1    0    0    0  501  0.00000000000E+00  0.00000000000E+00  0.90533772459E+03  0.90533772459E+03  0.25500000920E-02 0. -1.
        2   -1    0    0  501    0  0.00000000000E+00  0.00000000000E+00 -0.81299191523E+03  0.81299191523E+03  0.25500000920E-02 0.  1.
    10030    2    1    2    0    0  0.00000000000E+00  0.00000000000E+00  0.92345809364E+02  0.17183296398E+04  0.17158464391E+04 0.  0.
        5    1    3    3  502    0  0.11200625211E+03  0.50284522971E+03 -0.64083115187E+03  0.82224411263E+03  0.46999998093E+01 0.  1.
       -5    1    3    3    0  502 -0.11200625211E+03 -0.50284522971E+03  0.73317696124E+03  0.89608552719E+03  0.46999998093E+01 0. -1.
</event>
<event>
 5   0  0.1920289E-04  0.1684628E+04  0.7818609E-02  0.8770180E-01
       -1   -1    0    0    0  501  0.00000000000E+00  0.00000000000E+00  0.56742328673E+03  0.56742328675E+03  0.50400001928E-02 0.  1.
        1   -1    0    0  501    0  0.00000000000E+00  0.00000000000E+00 -0.12503771896E+04  0.12503771896E+04  0.50400001928E-02 0. -1.
    10030    2    1    2    0    0  0.00000000000E+00  0.00000000000E+00 -0.68295390289E+03  0.18178004764E+04  0.16846283087E+04 0.  0.
        4    1    3    3  502    0  0.40291644779E+03 -0.13426019876E+03  0.44343487406E+03  0.61400616064E+03  0.12699999809E+01 0.  1.
       -4    1    3    3    0  502 -0.40291644779E+03  0.13426019876E+03 -0.11263887770E+04  0.12037943157E+04  0.12699999809E+01 0. -1.
</event>
<event>
 5   0  0.1815663E-04  0.1760494E+04  0.7818609E-02  0.8727595E-01
       -1   -1    0    0    0  501  0.00000000000E+00  0.00000000000E+00  0.12171629328E+04  0.12171629328E+04  0.50400001928E-02 0.  1.
        1   -1    0    0  501    0  0.00000000000E+00  0.00000000000E+00 -0.63659070083E+03  0.63659070085E+03  0.50400001928E-02 0. -1.
    10030    2    1    2    0    0  0.00000000000E+00  0.00000000000E+00  0.58057223197E+03  0.18537536337E+04  0.17604937994E+04 0.  0.
        5    1    3    3  502    0  0.80006465813E+03 -0.34985240069E+03  0.40712518284E+03  0.96346933732E+03  0.46999998093E+01 0. -1.
       -5    1    3    3    0  502 -0.80006465813E+03  0.34985240069E+03  0.17344704913E+03  0.89028429634E+03  0.46999998093E+01 0.  1.
</event>
<event>
 5   0  0.3516723E-04  0.1700499E+04  0.7818609E-02  0.8761080E-01
        2   -1    0    0  501    0  0.00000000000E+00  0.00000000000E+00  0.10726818766E+04  0.10726818766E+04  0.25500000920E-02 0.  1.
       -2   -1    0    0    0  501  0.00000000000E+00  0.00000000000E+00 -0.67394113283E+03  0.67394113283E+03  0.25500000920E-02 0. -1.
    10030    2    1    2    0    0  0.00000000000E+00  0.00000000000E+00  0.39874074373E+03  0.17466230094E+04  0.17004992667E+04 0.  0.
        1    1    3    3  502    0 -0.24389591711E+03 -0.15999785595E+03 -0.62094069728E+03  0.68604072901E+03  0.50400001928E-02 0. -1.
       -1    1    3    3    0  502  0.24389591711E+03  0.15999785595E+03  0.10196814410E+04  0.10605822804E+04  0.50400001928E-02 0.  1.
</event>
<event>
 5   0  0.3605571E-04  0.1679758E+04  0.7818609E-02  0.8772994E-01
       -2   -1    0    0    0  501  0.00000000000E+00  0.00000000000E+00  0.11597829101E+04  0.11597829101E+04  0.25500000920E-02 0. -1.
        2   -1    0    0  501    0  0.00000000000E+00  0.00000000000E+00 -0.60821448533E+03  0.60821448533E+03  0.25500000920E-02 0.  1.
    10030    2    1    2    0    0  0.00000000000E+00  0.00000000000E+00  0.55156842474E+03  0.17679973954E+04  0.16797580370E+04 0.  0.
        4    1    3    3  502    0 -0.35885689984E+03 -0.49278289104E+02 -0.52177355505E+03  0.63518176926E+03  0.12699999809E+01 0.  1.
       -4    1    3    3    0  502  0.35885689984E+03  0.49278289104E+02  0.10733419798E+04  0.11328156261E+04  0.12699999809E+01 0. -1.
</event>
<event>
 5   0  0.3678896E-04  0.1708228E+04  0.7818609E-02  0.8756685E-01
        2   -1    0    0  501    0  0.00000000000E+00  0.00000000000E+00  0.10584865330E+04  0.10584865330E+04  0.25500000920E-02 0. -1.
       -2   -1    0    0    0  501  0.00000000000E+00  0.00000000000E+00 -0.68920182389E+03  0.68920182390E+03  0.25500000920E-02 0.  1.
    10030    2    1    2    0    0  0.00000000000E+00  0.00000000000E+00  0.36928470910E+03  0.17476883569E+04  0.17082281453E+04 0.  0.
        2    1    3    3  502    0 -0.15505979903E+03  0.45970861719E+03  0.90382807813E+03  0.10258073644E+04  0.25500000920E-02 0. -1.
       -2    1    3    3    0  502  0.15505979903E+03 -0.45970861719E+03 -0.53454336902E+03  0.72188099252E+03  0.25500000920E-02 0.  1.
</event>
<event>
 5   0  0.3678896E-04  0.1694925E+04  0.7818609E-02  0.8764264E-01
        2   -1    0    0  501    0  0.00000000000E+00  0.00000000000E+00  0.17605958325E+04  0.17605958325E+04  0.25500000920E-02 0. -1.
       -2   -1    0    0    0  501  0.00000000000E+00  0.00000000000E+00 -0.40792586532E+03  0.40792586533E+03  0.25500000920E-02 0.  1.
    10030    2    1    2    0    0  0.00000000000E+00  0.00000000000E+00  0.13526699672E+04  0.21685216978E+04  0.16949248697E+04 0.  0.
        2    1    3    3  502    0  0.39580128975E+03 -0.23841538621E+03 -0.23258685697E+03  0.51729798317E+03  0.25500000920E-02 0.  1.
       -2    1    3    3    0  502 -0.39580128975E+03  0.23841538621E+03  0.15852568242E+04  0.16512237147E+04  0.25500000920E-02 0. -1.
</event>
<event>
 5   0  0.1317625E-04  0.1700388E+04  0.7818609E-02  0.8761143E-01
        4   -1    0    0  501    0  0.00000000000E+00  0.00000000000E+00  0.59808158419E+03  0.59808293259E+03  0.12699999809E+01 0.  1.
       -4   -1    0    0    0  501  0.00000000000E+00  0.00000000000E+00 -0.12085777347E+04  0.12085784019E+04  0.12699999809E+01 0. -1.
    10030    2    1    2    0    0  0.00000000000E+00  0.00000000000E+00 -0.61049615048E+03  0.18066613345E+04  0.17003880816E+04 0.  0.
        5    1    3    3  502    0  0.50837430399E+03  0.19293277184E+03  0.38915875995E+03  0.66868087893E+03  0.46999998093E+01 0.  1.
       -5    1    3    3    0  502 -0.50837430399E+03 -0.19293277184E+03 -0.99965491043E+03  0.11379804556E+04  0.46999998093E+01 0. -1.
</event>
<event>
 5   0  0.1824538E-04  0.1695450E+04  0.7818609E-02  0.8763964E-01
        1   -1    0    0  501    0  0.00000000000E+00  0.00000000000E+00  0.54948631425E+03  0.54948631427E+03  0.50400001928E-02 0.  1.
       -1   -1    0    0    0  501  0.00000000000E+00  0.00000000000E+00 -0.13078347488E+04  0.13078347488E+04  0.50400001928E-02 0. -1.
    10030    2    1    2    0    0  0.00000000000E+00  0.00000000000E+00 -0.75834843456E+03  0.18573210631E+04  0.16954495519E+04 0.  0.
        3    1    3    3  502    0  0.66752159636E+02 -0.67846716340E+03  0.17277923179E+03  0.70329667692E+03  0.10100000352E+00 0.  1.
       -3    1    3    3    0  502 -0.66752159636E+02  0.67846716340E+03 -0.93112766635E+03  0.11540243862E+04  0.10100000352E+00 0. -1.
</event>
<event>
 5   0  0.3573262E-04  0.1711583E+04  0.7818609E-02  0.8754786E-01
        2   -1    0    0  501    0  0.00000000000E+00  0.00000000000E+00  0.18696770061E+04  0.18696770061E+04  0.25500000920E-02 0.  1.
       -2   -1    0    0    0  501  0.00000000000E+00  0.00000000000E+00 -0.39171416676E+03  0.39171416677E+03  0.25500000920E-02 0. -1.
    10030    2    1    2    0    0  0.00000000000E+00  0.00000000000E+00  0.14779628394E+04  0.22613911729E+04  0.17115828587E+04 0.  0.
        5    1    3    3  502    0 -0.10396977733E+03 -0.70221258509E+03  0.13704740132E+04  0.15434161267E+04  0.46999998093E+01 0. -1.
       -5    1    3    3    0  502  0.10396977733E+03  0.70221258509E+03  0.10748882618E+03  0.71797504623E+03  0.46999998093E+01 0.  1.
</event>
<event>
 5   0  0.3516723E-04  0.1678980E+04  0.7818609E-02  0.8773445E-01
       -2   -1    0    0    0  501  0.00000000000E+00  0.00000000000E+00  0.53942282085E+03  0.53942282086E+03  0.25500000920E-02 0. -1.
        2   -1    0    0  501    0  0.00000000000E+00  0.00000000000E+00 -0.13064762638E+04  0.13064762638E+04  0.25500000920E-02 0.  1.
    10030    2    1    2    0    0  0.00000000000E+00  0.00000000000E+00 -0.76705344291E+03  0.18458990846E+04  0.16789795848E+04 0.  0.
        1    1    3    3  502    0  0.71940185613E+03 -0.61827317427E+02  0.87277400473E+02  0.72730942001E+03  0.50400001928E-02 0. -1.
       -1    1    3    3    0  502 -0.71940185613E+03  0.61827317427E+02 -0.85433084338E+03  0.11185896646E+04  0.50400001928E-02 0.  1.
</event>
<event>
 5   0  0.1920289E-04  0.1616895E+04  0.7818609E-02  0.8810236E-01
        1   -1    0    0  501    0  0.00000000000E+00  0.00000000000E+00  0.15821938780E+04  0.15821938780E+04  0.50400001928E-02 0. -1.
       -1   -1    0    0    0  501  0.00000000000E+00  0.00000000000E+00 -0.41308925075E+03  0.41308925078E+03  0.50400001928E-02 0.  1.
    10030    2    1    2    0    0  0.00000000000E+00  0.00000000000E+00  0.11691046273E+04  0.19952831288E+04  0.16168949053E+04 0.  0.
        4    1    3    3  502    0  0.35388138838E+03 -0.67718052978E+02 -0.30853141436E+03  0.47435326318E+03  0.12699999809E+01 0.  1.
       -4    1    3    3    0  502 -0.35388138838E+03  0.67718052978E+02  0.14776360417E+04  0.15209298657E+04  0.12699999809E+01 0. -1.
</event>
<event>
 5   0  0.1824538E-04  0.1723733E+04  0.7818609E-02  0.8747943E-01
        1   -1    0    0  501    0  0.00000000000E+00  0.00000000000E+00  0.12167820669E+04  0.12167820669E+04  0.50400001928E-02 0.  1.
       -1   -1    0    0    0  501  0.00000000000E+00  0.00000000000E+00 -0.61047418688E+03  0.61047418690E+03  0.50400001928E-02 0. -1.
    10030    2    1    2    0    0  0.00000000000E+00  0.00000000000E+00  0.60630788003E+03  0.18272562538E+04  0.17237332078E+04 0.  0.
        3    1    3    3  502    0 -0.85854773471E+03 -0.55661004889E+02  0.35732767342E+03  0.93160369076E+03  0.10100000352E+00 0. -1.
       -3    1    3    3    0  502  0.85854773471E+03  0.55661004889E+02  0.24898020661E+03  0.89565256307E+03  0.10100000352E+00 0.  1.
</event>
<event>
 5   0  0.3573262E-04  0.1703753E+04  0.7818609E-02  0.8759227E-01
        2   -1    0    0  501    0  0.00000000000E+00  0.00000000000E+00  0.14685647669E+04  0.14685647669E+04  0.25500000920E-02 0.  1.
       -2   -1    0    0    0  501  0.00000000000E+00  0.00000000000E+00 -0.49415181810E+03  0.49415181811E+03  0.25500000920E-02 0. -1.
    10030    2    1    2    0    0  0.00000000000E+00  0.00000000000E+00  0.97441294877E+03  0.19627165850E+04  0.17037534441E+04 0.  0.
        5    1    3    3  502    0  0.22903730188E+02  0.58824883196E+03 -0.22209980368E+03  0.62921513169E+03  0.46999998093E+01 0. -1.
       -5    1    3    3    0  502 -0.22903730188E+02 -0.58824883196E+03  0.11965127524E+04  0.13335014533E+04  0.46999998093E+01 0.  1.
</event>
<event>
 5   0  0.3573262E-04  0.1672666E+04  0.7818609E-02  0.8777109E-01
       -2   -1    0    0    0  501  0.00000000000E+00  0.00000000000E+00  0.27153895737E+03  0.27153895738E+03  0.25500000920E-02 0. -1.
        2   -1    0    0  501    0  0.00000000000E+00  0.00000000000E+00 -0.25758844475E+04  0.25758844475E+04  0.25500000920E-02 0.  1.
    10030    2    1    2    0    0  0.00000000000E+00  0.00000000000E+00 -0.23043454901E+04  0.28474234049E+04  0.16726661080E+04 0.  0.
        5    1    3    3  502    0 -0.16107072260E+02  0.82065081145E+03 -0.14250960198E+04  0.16445813898E+04  0.46999998093E+01 0.  1.
       -5    1    3    3    0  502  0.16107072260E+02 -0.82065081145E+03 -0.87924947034E+03  0.12028420151E+04  0.46999998093E+01 0. -1.
</event>
<event>
 5   0  0.3678896E-04  0.1703893E+04  0.7818609E-02  0.8759147E-01
       -2   -1    0    0    0  501  0.00000000000E+00  0.00000000000E+00  0.27365052129E+03  0.27365052130E+03  0.25500000920E-02 0.  1.
        2   -1    0    0  501    0  0.00000000000E+00  0.00000000000E+00 -0.26523350854E+04  0.26523350854E+04  0.25500000920E-02 0. -1.
    10030    2    1    2    0    0  0.00000000000E+00  0.00000000000E+00 -0.23786845641E+04  0.29259856067E+04  0.17038930468E+04 0.  0.
        2    1    3    3  502    0 -0.68521180778E+02  0.50745472581E+03 -0.20098557948E+02  0.51245429357E+03  0.25500000920E-02 0.  1.
       -2    1    3    3    0  502  0.68521180778E+02 -0.50745472581E+03 -0.23585860061E+04  0.24135313131E+04  0.25500000920E-02 0. -1.
</event>
<event>
 5   0  0.3605571E-04  0.1702453E+04  0.7818609E-02  0.8759967E-01
       -2   -1    0    0    0  501  0.00000000000E+00  0.00000000000E+00  0.34473207328E+03  0.34473207329E+03  0.25500000920E-02 0. -1.
        2   -1    0    0  501    0  0.00000000000E+00  0.00000000000E+00 -0.21018822176E+04  0.21018822176E+04  0.25500000920E-02 0.  1.
    10030    2    1    2    0    0  0.00000000000E+00  0.00000000000E+00 -0.17571501443E+04  0.24466142909E+04  0.17024526010E+04 0.  0.
        4    1    3    3  502    0  0.14801151894E+03 -0.63553014901E+03 -0.16641095269E+04  0.17874753454E+04  0.12699999809E+01 0.  1.
       -4    1    3    3    0  502 -0.14801151894E+03  0.63553014901E+03 -0.93040617400E+02  0.65913894546E+03  0.12699999809E+01 0. -1.
</event>
<event>
 5   0  0.1930116E-04  0.1785445E+04  0.7818609E-02  0.8714078E-01
        1   -1    0    0  501    0  0.00000000000E+00  0.00000000000E+00  0.11177653096E+04  0.11177653096E+04  0.50400001928E-02 0. -1.
       -1   -1    0    0    0  501  0.00000000000E+00  0.00000000000E+00 -0.71298792477E+03  0.71298792479E+03  0.50400001928E-02 0.  1.
    10030    2    1    2    0    0  0.00000000000E+00  0.00000000000E+00  0.40477738479E+03  0.18307532344E+04  0.17854446712E+04 0.  0.
        1    1    3    3  502    0  0.24300861455E+03  0.73600953738E+03 -0.25178480041E+03  0.81495939261E+03  0.50400001928E-02 0. -1.
       -1    1    3    3    0  502 -0.24300861455E+03 -0.73600953738E+03  0.65656218520E+03  0.10157938417E+04  0.50400001928E-02 0.  1.
</event>
<event>
 5   0  0.1930116E-04  0.1703409E+04  0.7818609E-02  0.8759423E-01
        1   -1    0    0  501    0  0.00000000000E+00  0.00000000000E+00  0.12717523484E+04  0.12717523484E+04  0.50400001928E-02 0. -1.
       -1   -1    0    0    0  501  0.00000000000E+00  0.00000000000E+00 -0.57039421192E+03  0.57039421194E+03  0.50400001928E-02 0.  1.
    10030    2    1    2    0    0  0.00000000000E+00  0.00000000000E+00  0.70135813649E+03  0.18421465604E+04  0.17034085576E+04 0.  0.
        1    1    3    3  502    0 -0.15691019931E+02  0.82411009438E+03  0.58261490394E+03  0.10093779184E+04  0.50400001928E-02 0.  1.
       -1    1    3    3    0  502  0.15691019931E+02 -0.82411009438E+03  0.11874323254E+03  0.83276864198E+03  0.50400001928E-02 0. -1.
</event>
<event>
 5   0  0.1815663E-04  0.1710190E+04  0.7818609E-02  0.8755574E-01
       -1   -1    0    0    0  501  0.00000000000E+00  0.00000000000E+00  0.79167002610E+03  0.79167002612E+03  0.50400001928E-02 0. -1.
        1   -1    0    0  501    0  0.00000000000E+00  0.00000000000E+00 -0.92360173384E+03  0.92360173386E+03  0.50400001928E-02 0.  1.
    10030    2    1    2    0    0  0.00000000000E+00  0.00000000000E+00 -0.13193170774E+03  0.17152717600E+04  0.17101904090E+04 0.  0.
        5    1    3    3  502    0 -0.50771241024E+03  0.42307065450E+03  0.47823735414E+03  0.81577798886E+03  0.46999998093E+01 0. -1.
       -5    1    3    3    0  502  0.50771241024E+03 -0.42307065450E+03 -0.61016906188E+03  0.89949377112E+03  0.46999998093E+01 0.  1.
</event>
<event>
 5   0  0.3516723E-04  0.1701291E+04  0.7818609E-02  0.8760628E-01
        2   -1    0    0  501    0  0.00000000000E+00  0.00000000000E+00  0.89569758807E+03  0.89569758808E+03  0.25500000920E-02 0.  1.
       -2   -1    0    0    0  501  0.00000000000E+00  0.00000000000E+00 -0.80785951669E+03  0.80785951670E+03  0.25500000920E-02 0. -1.
    10030    2    1    2    0    0  0.00000000000E+00  0.00000000000E+00  0.87838071382E+02  0.17035571048E+04  0.17012910634E+04 0.  0.
        1    1    3    3  502    0 -0.59550542393E+03 -0.75922438482E+02 -0.55955017486E+03  0.82066273511E+03  0.50400001928E-02 0. -1.
       -1    1    3    3    0  502  0.59550542393E+03  0.75922438482E+02  0.64738824624E+03  0.88289436966E+03  0.50400001928E-02 0.  1.
</event>
<event>
 5   0  0.3605571E-04  0.1683870E+04  0.7818609E-02  0.8770618E-01
        2   -1    0    0  501    0  0.00000000000E+00  0.00000000000E+00  0.64040520041E+03  0.64040520042E+03  0.25500000920E-02 0. -1.
       -2   -1    0    0    0  501  0.00000000000E+00  0.00000000000E+00 -0.11068845631E+04  0.11068845631E+04  0.25500000920E-02 0.  1.
    10030    2    1    2    0    0  0.00000000000E+00  0.00000000000E+00 -0.46647936270E+03  0.17472897635E+04  0.16838701025E+04 0.  0.
        4    1    3    3  502    0 -0.40976657440E+03  0.26864210104E+03 -0.94369854276E+03  0.10633182856E+04  0.12699999809E+01 0.  1.
       -4    1    3    3    0  502  0.40976657440E+03 -0.26864210104E+03  0.47721918005E+03  0.68397147796E+03  0.12699999809E+01 0. -1.
</event>
<event>
 5   0  0.1920289E-04  0.1694179E+04  0.7818609E-02  0.8764691E-01
        1   -1    0    0  501    0  0.00000000000E+00  0.00000000000E+00  0.59942120347E+03  0.59942120349E+03  0.50400001928E-02 0. -1.
       -1   -1    0    0    0  501  0.00000000000E+00  0.00000000000E+00 -0.11970889645E+04  0.11970889645E+04  0.50400001928E-02 0.  1.
    10030    2    1    2    0    0  0.00000000000E+00  0.00000000000E+00 -0.59766776100E+03  0.17965101680E+04  0.16941788663E+04 0.  0.
        4    1    3    3  502    0 -0.54301223624E+03  0.41433513626E+03  0.23245065938E+03  0.72150593607E+03  0.12699999809E+01 0. -1.
       -4    1    3    3    0  502  0.54301223624E+03 -0.41433513626E+03 -0.83011842038E+03  0.10750042319E+04  0.12699999809E+01 0.  1.
</event>
<event>
 5   0  0.1815663E-04  0.1683258E+04  0.7818609E-02  0.8770971E-01
       -1   -1    0    0    0  501  0.00000000000E+00  0.00000000000E+00  0.12925390995E+04  0.12925390995E+04  0.50400001928E-02 0. -1.
        1   -1    0    0  501    0  0.00000000000E+00  0.00000000000E+00 -0.54802140197E+03  0.54802140200E+03  0.50400001928E-02 0.  1.
    10030    2    1    2    0    0  0.00000000000E+00  0.00000000000E+00  0.74451769753E+03  0.18405605015E+04  0.16832576623E+04 0.  0.
        5    1    3    3  502    0 -0.55761653380E+03  0.40270464786E+03  0.90256562169E+03  0.11347925025E+04  0.46999998093E+01 0. -1.
       -5    1    3    3    0  502  0.55761653380E+03 -0.40270464786E+03 -0.15804792415E+03  0.70576799906E+03  0.46999998093E+01 0.  1.
</event>
<event>
 5   0  0.3516723E-04  0.1646484E+04  0.7818609E-02  0.8792489E-01
        2   -1    0    0  501    0  0.00000000000E+00  0.00000000000E+00  0.22279517343E+04  0.22279517343E+04  0.25500000920E-02 0. -1.
       -2   -1    0    0    0  501  0.00000000000E+00  0.00000000000E+00 -0.30419297294E+03  0.30419297296E+03  0.25500000920E-02 0.  1.
    10030    2    1    2    0    0  0.00000000000E+00  0.00000000000E+00  0.19237587613E+04  0.25321447072E+04  0.16464838434E+04 0.  0.
        1    1    3    3  502    0  0.51682194959E+03 -0.63732259278E+03  0.85937736928E+03  0.11881979960E+04  0.50400001928E-02 0. -1.
       -1    1    3    3    0  502 -0.51682194959E+03  0.63732259278E+03  0.10643813920E+04  0.13439467112E+04  0.50400001928E-02 0.  1.
</event>
<event>
 5   0  0.1824538E-04  0.1710813E+04  0.7818609E-02  0.8755221E-01
       -1   -1    0    0    0  501  0.00000000000E+00  0.00000000000E+00  0.16774577958E+04  0.16774577958E+04  0.50400001928E-02 0.  1.
        1   -1    0    0  501    0  0.00000000000E+00  0.00000000000E+00 -0.43620777718E+03  0.43620777721E+03  0.50400001928E-02 0. -1.
    10030    2    1    2    0    0  0.00000000000E+00  0.00000000000E+00  0.12412500186E+04  0.21136655730E+04  0.17108128319E+04 0.  0.
        3    1    3    3  502    0  0.20773037037E+03  0.76275136360E+03  0.10243408951E+04  0.12939149234E+04  0.10100000352E+00 0.  1.
       -3    1    3    3    0  502 -0.20773037037E+03 -0.76275136360E+03  0.21690912351E+03  0.81975064959E+03  0.10100000352E+00 0. -1.
</event>
<event>
 5   0  0.3678896E-04  0.1693025E+04  0.7818609E-02  0.8765353E-01
       -2   -1    0    0    0  501  0.00000000000E+00  0.00000000000E+00  0.60627690182E+03  0.60627690183E+03  0.25500000920E-02 0.  1.
        2   -1    0    0  501    0  0.00000000000E+00  0.00000000000E+00 -0.11819402465E+04  0.11819402465E+04  0.25500000920E-02 0. -1.
    10030    2    1    2    0    0  0.00000000000E+00  0.00000000000E+00 -0.57566334469E+03  0.17882171483E+04  0.16930245962E+04 0.  0.
        2    1    3    3  502    0 -0.75659326961E+03 -0.37456845675E+03 -0.35335318399E+03  0.91520127680E+03  0.25500000920E-02 0. -1.
       -2    1    3    3    0  502  0.75659326961E+03  0.37456845675E+03 -0.22231016070E+03  0.87301587155E+03  0.25500000920E-02 0.  1.
</event>
<event>
 5   0  0.3678896E-04  0.1728977E+04  0.7818609E-02  0.8745008E-01
       -2   -1    0    0    0  501  0.00000000000E+00  0.00000000000E+00  0.38407954455E+03  0.38407954456E+03  0.25500000920E-02 0.  1.
        2   -1    0    0  501    0  0.00000000000E+00  0.00000000000E+00 -0.19457962448E+04  0.19457962448E+04  0.25500000920E-02 0. -1.
    10030    2    1    2    0    0  0.00000000000E+00  0.00000000000E+00 -0.15617167003E+04  0.23298757894E+04  0.17289771953E+04 0.  0.
        2    1    3    3  502    0 -0.74882662021E+03  0.58674985499E+02 -0.13575645775E+04  0.15515043162E+04  0.25500000920E-02 0. -1.
       -2    1    3    3    0  502  0.74882662021E+03 -0.58674985499E+02 -0.20415212279E+03  0.77837147321E+03  0.25500000920E-02 0.  1.
</event>
<event>
 5   0  0.3605571E-04  0.1611958E+04  0.7818609E-02  0.8813235E-01
       -2   -1    0    0    0  501  0.00000000000E+00  0.00000000000E+00  0.70777865573E+03  0.70777865574E+03  0.25500000920E-02 0. -1.
        2   -1    0    0  501    0  0.00000000000E+00  0.00000000000E+00 -0.91780372564E+03  0.91780372564E+03  0.25500000920E-02 0.  1.
    10030    2    1    2    0    0  0.00000000000E+00  0.00000000000E+00 -0.21002506990E+03  0.16255823814E+04  0.16119576758E+04 0.  0.
        4    1    3    3  502    0 -0.21636161152E+03 -0.15060974630E+03 -0.87309617604E+03  0.91202751501E+03  0.12699999809E+01 0.  1.
       -4    1    3    3    0  502  0.21636161152E+03  0.15060974630E+03  0.66307110614E+03  0.71355486637E+03  0.12699999809E+01 0. -1.
</event>
<event>
 5   0  0.3574092E-04  0.1528458E+04  0.7818609E-02  0.8865746E-01
       -2   -1    0    0    0  501  0.00000000000E+00  0.00000000000E+00  0.41171339643E+03  0.41171339643E+03  0.25500000920E-02 0.  1.
        2   -1    0    0  501    0  0.00000000000E+00  0.00000000000E+00 -0.14185736062E+04  0.14185736062E+04  0.25500000920E-02 0. -1.
    10030    2    1    2    0    0  0.00000000000E+00  0.00000000000E+00 -0.10068602097E+04  0.18302870026E+04  0.15284577292E+04 0.  0.
        3    1    3    3  502    0 -0.47545553436E+02  0.55545828934E+03 -0.11293904870E+04  0.12594909183E+04  0.10100000352E+00 0. -1.
       -3    1    3    3    0  502  0.47545553436E+02 -0.55545828934E+03  0.12253027727E+03  0.57079608434E+03  0.10100000352E+00 0.  1.
</event>
<event>
 5   0  0.3516723E-04  0.1660670E+04  0.7818609E-02  0.8784119E-01
        2   -1    0    0  501    0  0.00000000000E+00  0.00000000000E+00  0.35402786820E+03  0.35402786821E+03  0.25500000920E-02 0. -1.
       -2   -1    0    0    0  501  0.00000000000E+00  0.00000000000E+00 -0.19474622069E+04  0.19474622069E+04  0.25500000920E-02 0.  1.
    10030    2    1    2    0    0  0.00000000000E+00  0.00000000000E+00 -0.15934343387E+04  0.23014900751E+04  0.16606696162E+04 0.  0.
        1    1    3    3  502    0 -0.32171151838E+03  0.66896603719E+03 -0.13123729034E+04  0.15077587664E+04  0.50400001928E-02 0.  1.
       -1    1    3    3    0  502  0.32171151838E+03 -0.66896603719E+03 -0.28106143522E+03  0.79373130867E+03  0.50400001928E-02 0. -1.
</event>
<event>
 5   0  0.3573262E-04  0.1759461E+04  0.7818609E-02  0.8728160E-01
        2   -1    0    0  501    0  0.00000000000E+00  0.00000000000E+00  0.11675889191E+04  0.11675889191E+04  0.25500000920E-02 0. -1.
       -2   -1    0    0    0  501  0.00000000000E+00  0.00000000000E+00 -0.66284069766E+03  0.66284069766E+03  0.25500000920E-02 0.  1.
    10030    2    1    2    0    0  0.00000000000E+00  0.00000000000E+00  0.50474822148E+03  0.18304296168E+04  0.17594606603E+04 0.  0.
        5    1    3    3  502    0  0.51609699068E+02 -0.67993303010E+02  0.11632571487E+04  0.11663944163E+04  0.46999998093E+01 0. -1.
       -5    1    3    3    0  502 -0.51609699068E+02  0.67993303010E+02 -0.65850892724E+03  0.66403520053E+03  0.46999998093E+01 0.  1.
</event>
<event>
 5   0  0.1920289E-04  0.1694132E+04  0.7818609E-02  0.8764718E-01
        1   -1    0    0  501    0  0.00000000000E+00  0.00000000000E+00  0.11052830661E+04  0.11052830661E+04  0.50400001928E-02 0. -1.
       -1   -1    0    0    0  501  0.00000000000E+00  0.00000000000E+00 -0.64917341756E+03  0.64917341758E+03  0.50400001928E-02 0.  1.
    10030    2    1    2    0    0  0.00000000000E+00  0.00000000000E+00  0.45610964855E+03  0.17544564837E+04  0.16941315007E+04 0.  0.
        4    1    3    3  502    0  0.49592903590E+03 -0.67487716067E+03  0.96593828251E+02  0.84305205723E+03  0.12699999809E+01 0.  1.
       -4    1    3    3    0  502 -0.49592903590E+03  0.67487716067E+03  0.35951582030E+03  0.91140442647E+03  0.12699999809E+01 0. -1.
</event>
<event>
 5   0  0.1815663E-04  0.1687151E+04  0.7818609E-02  0.8768727E-01
       -1   -1    0    0    0  501  0.00000000000E+00  0.00000000000E+00  0.43672093723E+03  0.43672093725E+03  0.50400001928E-02 0. -1.
        1   -1    0    0  501    0  0.00000000000E+00  0.00000000000E+00 -0.16294613007E+04  0.16294613007E+04  0.50400001928E-02 0.  1.
    10030    2    1    2    0    0  0.00000000000E+00  0.00000000000E+00 -0.11927403635E+04  0.20661822380E+04  0.16871512872E+04 0.  0.
        5    1    3    3  502    0  0.74238586035E+03 -0.38612598504E+03 -0.72694263296E+03  0.11084663836E+04  0.46999998093E+01 0. -1.
       -5    1    3    3    0  502 -0.74238586035E+03  0.38612598504E+03 -0.46579773055E+03  0.95771585439E+03  0.46999998093E+01 0.  1.
</event>
<event>
 5   0  0.3605571E-04  0.1699002E+04  0.7818609E-02  0.8761934E-01
        2   -1    0    0  501    0  0.00000000000E+00  0.00000000000E+00  0.89642532071E+03  0.89642532071E+03  0.25500000920E-02 0. -1.
       -2   -1    0    0    0  501  0.00000000000E+00  0.00000000000E+00 -0.80503340547E+03  0.80503340548E+03  0.25500000920E-02 0.  1.
    10030    2    1    2    0    0  0.00000000000E+00  0.00000000000E+00  0.91391915234E+02  0.17014587262E+04  0.16990024470E+04 0.  0.
        4    1    3    3  502    0  0.71965886414E+03  0.92349369846E+02  0.48816435681E+03  0.87449604859E+03  0.12699999809E+01 0. -1.
       -4    1    3    3    0  502 -0.71965886414E+03 -0.92349369846E+02 -0.39677244157E+03  0.82696267760E+03  0.12699999809E+01 0.  1.
</event>
<event>
 5   0  0.3678896E-04  0.1678741E+04  0.7818609E-02  0.8773583E-01
       -2   -1    0    0    0  501  0.00000000000E+00  0.00000000000E+00  0.37589016387E+03  0.37589016388E+03  0.25500000920E-02 0. -1.
        2   -1    0    0  501    0  0.00000000000E+00  0.00000000000E+00 -0.18743324716E+04  0.18743324716E+04  0.25500000920E-02 0.  1.
    10030    2    1    2    0    0  0.00000000000E+00  0.00000000000E+00 -0.14984423077E+04  0.22502226355E+04  0.16787413617E+04 0.  0.
        2    1    3    3  502    0 -0.28044822050E+03 -0.63729443755E+03 -0.13775744566E+04  0.15435371029E+04  0.25500000920E-02 0.  1.
       -2    1    3    3    0  502  0.28044822050E+03  0.63729443755E+03 -0.12086785111E+03  0.70668553257E+03  0.25500000920E-02 0. -1.
</event>
<event>
 5   0  0.1815663E-04  0.1694590E+04  0.7818609E-02  0.8764456E-01
       -1   -1    0    0    0  501  0.00000000000E+00  0.00000000000E+00  0.89007905032E+03  0.89007905033E+03  0.50400001928E-02 0. -1.
        1   -1    0    0  501    0  0.00000000000E+00  0.00000000000E+00 -0.80656734152E+03  0.80656734154E+03  0.50400001928E-02 0.  1.
    10030    2    1    2    0    0  0.00000000000E+00  0.00000000000E+00  0.83511708796E+02  0.16966463919E+04  0.16945898541E+04 0.  0.
        5    1    3    3  502    0 -0.30648450300E+03  0.76528362213E+03 -0.15417228391E+03  0.83867929270E+03  0.46999998093E+01 0.  1.
       -5    1    3    3    0  502  0.30648450300E+03 -0.76528362213E+03  0.23768399270E+03  0.85796709917E+03  0.46999998093E+01 0. -1.
</event>
<event>
 5   0  0.1893284E-04  0.1698239E+04  0.7818609E-02  0.8762369E-01
        1   -1    0    0  501    0  0.00000000000E+00  0.00000000000E+00  0.12272453118E+04  0.12272453118E+04  0.50400001928E-02 0.  1.
       -1   -1    0    0    0  501  0.00000000000E+00  0.00000000000E+00 -0.58749806937E+03  0.58749806940E+03  0.50400001928E-02 0. -1.
    10030    2    1    2    0    0  0.00000000000E+00  0.00000000000E+00  0.63974724243E+03  0.18147433812E+04  0.16982393840E+04 0.  0.
        2    1    3    3  502    0  0.57113743823E+03  0.17778195084E+03  0.96387848373E+03  0.11344012195E+04  0.25500000920E-02 0.  1.
       -2    1    3    3    0  502 -0.57113743823E+03 -0.17778195084E+03 -0.32413124131E+03  0.68034216171E+03  0.25500000920E-02 0. -1.
</event>
<event>
 5   0  0.3573262E-04  0.1710760E+04  0.7818609E-02  0.8755251E-01
       -2   -1    0    0    0  501  0.00000000000E+00  0.00000000000E+00  0.72899693594E+03  0.72899693594E+03  0.25500000920E-02 0. -1.
        2   -1    0    0  501    0  0.00000000000E+00  0.00000000000E+00 -0.10036737791E+04  0.10036737791E+04  0.25500000920E-02 0.  1.
    10030    2    1    2    0    0  0.00000000000E+00  0.00000000000E+00 -0.27467684317E+03  0.17326707151E+04  0.17107601932E+04 0.  0.
        5    1    3    3  502    0  0.45667933733E+03  0.79273880118E+02 -0.86544250781E+03  0.98176025054E+03  0.46999998093E+01 0.  1.
       -5    1    3    3    0  502 -0.45667933733E+03 -0.79273880118E+02  0.59076566464E+03  0.75091046452E+03  0.46999998093E+01 0. -1.
</event>
<event>
 5   0  0.1893284E-04  0.1718587E+04  0.7818609E-02  0.8750834E-01
       -1   -1    0    0    0  501  0.00000000000E+00  0.00000000000E+00  0.63270190842E+03  0.63270190844E+03  0.50400001928E-02 0.  1.
        1   -1    0    0  501    0  0.00000000000E+00  0.00000000000E+00 -0.11670347690E+04  0.11670347690E+04  0.50400001928E-02 0. -1.
    10030    2    1    2    0    0  0.00000000000E+00  0.00000000000E+00 -0.53433286056E+03  0.17997366774E+04  0.17185867747E+04 0.  0.
        2    1    3    3  502    0  0.71903203987E+03  0.46416280984E+03 -0.18651739761E+03  0.87592404238E+03  0.25500000920E-02 0.  1.
       -2    1    3    3    0  502 -0.71903203987E+03 -0.46416280984E+03 -0.34781546295E+03  0.92381263505E+03  0.25500000920E-02 0. -1.
</event>
<event>
 5   0  0.1824538E-04  0.1686205E+04  0.7818609E-02  0.8769271E-01
       -1   -1    0    0    0  501  0.00000000000E+00  0.00000000000E+00  0.17478150939E+04  0.17478150939E+04  0.50400001928E-02 0.  1.
        1   -1    0    0  501    0  0.00000000000E+00  0.00000000000E+00 -0.40669168687E+03  0.40669168690E+03  0.50400001928E-02 0. -1.
    10030    2    1    2    0    0  0.00000000000E+00  0.00000000000E+00  0.13411234070E+04  0.21545067808E+04  0.16862050515E+04 0.  0.
        3    1    3    3  502    0 -0.63968391321E+03 -0.53648188994E+03  0.52038939993E+03  0.98377510886E+03  0.10100000352E+00 0.  1.
       -3    1    3    3    0  502  0.63968391321E+03  0.53648188994E+03  0.82073400707E+03  0.11707316719E+04  0.10100000352E+00 0. -1.
</event>
<event>
 5   0  0.1930116E-04  0.1705046E+04  0.7818609E-02  0.8758492E-01
       -1   -1    0    0    0  501  0.00000000000E+00  0.00000000000E+00  0.10897511499E+04  0.10897511499E+04  0.50400001928E-02 0.  1.
        1   -1    0    0  501    0  0.00000000000E+00  0.00000000000E+00 -0.66693728226E+03  0.66693728228E+03  0.50400001928E-02 0. -1.
    10030    2    1    2    0    0  0.00000000000E+00  0.00000000000E+00  0.42281386760E+03  0.17566884321E+04  0.17050462401E+04 0.  0.
        1    1    3    3  502    0  0.43423755271E+02 -0.84909210104E+03  0.14663261545E+03  0.86275381338E+03  0.50400001928E-02 0. -1.
       -1    1    3    3    0  502 -0.43423755271E+02  0.84909210104E+03  0.27618125215E+03  0.89393461876E+03  0.50400001928E-02 0.  1.
</event>
<event>
 5   0  0.3516723E-04  0.1709134E+04  0.7818609E-02  0.8756172E-01
       -2   -1    0    0    0  501  0.00000000000E+00  0.00000000000E+00  0.42929898108E+03  0.42929898109E+03  0.25500000920E-02 0. -1.
        2   -1    0    0  501    0  0.00000000000E+00  0.00000000000E+00 -0.17011091825E+04  0.17011091825E+04  0.25500000920E-02 0.  1.
    10030    2    1    2    0    0  0.00000000000E+00  0.00000000000E+00 -0.12718102014E+04  0.21304081636E+04  0.17091336270E+04 0.  0.
        1    1    3    3  502    0  0.55945631150E+03 -0.60914954039E+03 -0.36789674728E+03  0.90520856366E+03  0.50400001928E-02 0. -1.
       -1    1    3    3    0  502 -0.55945631150E+03  0.60914954039E+03 -0.90391345411E+03  0.12251995999E+04  0.50400001928E-02 0.  1.
</event>
<event>
 5   0  0.3574092E-04  0.1612459E+04  0.7818609E-02  0.8812930E-01
        2   -1    0    0  501    0  0.00000000000E+00  0.00000000000E+00  0.10831204349E+04  0.10831204349E+04  0.25500000920E-02 0.  1.
       -2   -1    0    0    0  501  0.00000000000E+00  0.00000000000E+00 -0.60012336090E+03  0.60012336091E+03  0.25500000920E-02 0. -1.
    10030    2    1    2    0    0  0.00000000000E+00  0.00000000000E+00  0.48299707395E+03  0.16832437958E+04  0.16124588375E+04 0.  0.
        3    1    3    3  502    0  0.25517535239E+03 -0.36904253249E+03  0.94075412101E+03  0.10422692443E+04  0.10100000352E+00 0.  1.
       -3    1    3    3    0  502 -0.25517535239E+03  0.36904253249E+03 -0.45775704707E+03  0.64097455144E+03  0.10100000352E+00 0. -1.
</event>
<event>
 5   0  0.3573262E-04  0.1712090E+04  0.7818609E-02  0.8754499E-01
       -2   -1    0    0    0  501  0.00000000000E+00  0.00000000000E+00  0.67315516923E+03  0.67315516924E+03  0.25500000920E-02 0. -1.
        2   -1    0    0  501    0  0.00000000000E+00  0.00000000000E+00 -0.10886248685E+04  0.10886248685E+04  0.25500000920E-02 0.  1.
    10030    2    1    2    0    0  0.00000000000E+00  0.00000000000E+00 -0.41546969924E+03  0.17617800377E+04  0.17120904854E+04 0.  0.
        5    1    3    3  502    0  0.30540574835E+03  0.40769070748E+03 -0.91567481001E+03  0.10478391249E+04  0.46999998093E+01 0.  1.
       -5    1    3    3    0  502 -0.30540574835E+03 -0.40769070748E+03  0.50020511076E+03  0.71394091277E+03  0.46999998093E+01 0. -1.
</event>
<event>
 5   0  0.3605571E-04  0.1699296E+04  0.7818609E-02  0.8761766E-01
        2   -1    0    0  501    0  0.00000000000E+00  0.00000000000E+00  0.23016156471E+04  0.23016156471E+04  0.25500000920E-02 0. -1.
       -2   -1    0    0    0  501  0.00000000000E+00  0.00000000000E+00 -0.31365016044E+03  0.31365016045E+03  0.25500000920E-02 0.  1.
    10030    2    1    2    0    0  0.00000000000E+00  0.00000000000E+00  0.19879654867E+04  0.26152658076E+04  0.16992964627E+04 0.  0.
        4    1    3    3  502    0 -0.19520107397E+03 -0.14233159743E+03  0.22476429224E+04  0.22605888751E+04  0.12699999809E+01 0. -1.
       -4    1    3    3    0  502  0.19520107397E+03  0.14233159743E+03 -0.25967743570E+03  0.35467693246E+03  0.12699999809E+01 0.  1.
</event>
<event>
 5   0  0.3516723E-04  0.1692407E+04  0.7818609E-02  0.8765707E-01
       -2   -1    0    0    0  501  0.00000000000E+00  0.00000000000E+00  0.39103194202E+03  0.39103194203E+03  0.25500000920E-02 0. -1.
        2   -1    0    0  501    0  0.00000000000E+00  0.00000000000E+00 -0.18312069787E+04  0.18312069787E+04  0.25500000920E-02 0.  1.
    10030    2    1    2    0    0  0.00000000000E+00  0.00000000000E+00 -0.14401750367E+04  0.22222389208E+04  0.16924070682E+04 0.  0.
        1    1    3    3  502    0 -0.14817324303E+02 -0.72850121291E+03 -0.12850513243E+04  0.14772577556E+04  0.50400001928E-02 0.  1.
       -1    1    3    3    0  502  0.14817324303E+02  0.72850121291E+03 -0.15512371242E+03  0.74498116519E+03  0.50400001928E-02 0. -1.
</event>
<event>
 5   0  0.1893284E-04  0.1722362E+04  0.7818609E-02  0.8748713E-01
        1   -1    0    0  501    0  0.00000000000E+00  0.00000000000E+00  0.19368077067E+04  0.19368077067E+04  0.50400001928E-02 0.  1.
       -1   -1    0    0    0  501  0.00000000000E+00  0.00000000000E+00 -0.38291481688E+03  0.38291481692E+03  0.50400001928E-02 0. -1.
    10030    2    1    2    0    0  0.00000000000E+00  0.00000000000E+00  0.15538928898E+04  0.23197225236E+04  0.17223615978E+04 0.  0.
        2    1    3    3  502    0  0.77573400036E+01 -0.53669091554E+03 -0.13007412217E+03  0.55228307272E+03  0.25500000920E-02 0. -1.
       -2    1    3    3    0  502 -0.77573400036E+01  0.53669091554E+03  0.16839670120E+04  0.17674394509E+04  0.25500000920E-02 0.  1.
</event>
<event>
 5   0  0.1824538E-04  0.1701212E+04  0.7818609E-02  0.8760673E-01
        1   -1    0    0  501    0  0.00000000000E+00  0.00000000000E+00  0.66984707158E+03  0.66984707160E+03  0.50400001928E-02 0. -1.
       -1   -1    0    0    0  501  0.00000000000E+00  0.00000000000E+00 -0.10801433326E+04  0.10801433326E+04  0.50400001928E-02 0.  1.
    10030    2    1    2    0    0  0.00000000000E+00  0.00000000000E+00 -0.41029626100E+03  0.17499904042E+04  0.17012123304E+04 0.  0.
        3    1    3    3  502    0 -0.37966699542E+03  0.39059460238E+03 -0.87719468200E+03  0.10325607445E+04  0.10100000352E+00 0.  1.
       -3    1    3    3    0  502  0.37966699542E+03 -0.39059460238E+03  0.46689842100E+03  0.71742965966E+03  0.10100000352E+00 0. -1.
</event>
<event>
 5   0  0.3574092E-04  0.1716037E+04  0.7818609E-02  0.8752270E-01
        2   -1    0    0  501    0  0.00000000000E+00  0.00000000000E+00  0.90378536863E+03  0.90378536863E+03  0.25500000920E-02 0. -1.
       -2   -1    0    0    0  501  0.00000000000E+00  0.00000000000E+00 -0.81456969791E+03  0.81456969791E+03  0.25500000920E-02 0.  1.
    10030    2    1    2    0    0  0.00000000000E+00  0.00000000000E+00  0.89215670718E+02  0.17183550665E+04  0.17160374992E+04 0.  0.
        3    1    3    3  502    0 -0.24571177481E+03  0.59179783458E+03  0.61598972640E+03  0.88884324069E+03  0.10100000352E+00 0.  1.
       -3    1    3    3    0  502  0.24571177481E+03 -0.59179783458E+03 -0.52677405568E+03  0.82951182585E+03  0.10100000352E+00 0. -1.
</event>
<event>
 5   0  0.3574092E-04  0.1693515E+04  0.7818609E-02  0.8765072E-01
       -2   -1    0    0    0  501  0.00000000000E+00  0.00000000000E+00  0.57332003015E+03  0.57332003016E+03  0.25500000920E-02 0.  1.
        2   -1    0    0  501    0  0.00000000000E+00  0.00000000000E+00 -0.12506074430E+04  0.12506074430E+04  0.25500000920E-02 0. -1.
    10030    2    1    2    0    0  0.00000000000E+00  0.00000000000E+00 -0.67728741280E+03  0.18239274731E+04  0.16935150391E+04 0.  0.
        3    1    3    3  502    0 -0.24796943801E+03 -0.54800848275E+03 -0.98052191305E+03  0.11503153357E+04  0.10100000352E+00 0. -1.
       -3    1    3    3    0  502  0.24796943801E+03  0.54800848275E+03  0.30323450024E+03  0.67361213743E+03  0.10100000352E+00 0.  1.
</event>
<event>
 5   0  0.1893284E-04  0.1685281E+04  0.7818609E-02  0.8769804E-01
        1   -1    0    0  501    0  0.00000000000E+00  0.00000000000E+00  0.72299258682E+03  0.72299258684E+03  0.50400001928E-02 0.  1.
       -1   -1    0    0    0  501  0.00000000000E+00  0.00000000000E+00 -0.98208940094E+03  0.98208940095E+03  0.50400001928E-02 0. -1.
    10030    2    1    2    0    0  0.00000000000E+00  0.00000000000E+00 -0.25909681412E+03  0.17050819878E+04  0.16852814085E+04 0.  0.
        2    1    3    3  502    0 -0.61328275737E+03 -0.55229861810E+03 -0.30152746360E+03  0.87867418043E+03  0.25500000920E-02 0.  1.
       -2    1    3    3    0  502  0.61328275737E+03  0.55229861810E+03  0.42430649478E+02  0.82640780736E+03  0.25500000920E-02 0. -1.
</event>
<event>
 5   0  0.1930116E-04  0.1732470E+04  0.7818609E-02  0.8743059E-01
       -1   -1    0    0    0  501  0.00000000000E+00  0.00000000000E+00  0.52005821838E+03  0.52005821841E+03  0.50400001928E-02 0. -1.
        1   -1    0    0  501    0  0.00000000000E+00  0.00000000000E+00 -0.14428440185E+04  0.14428440185E+04  0.50400001928E-02 0.  1.
    10030    2    1    2    0    0  0.00000000000E+00  0.00000000000E+00 -0.92278580012E+03  0.19629022369E+04  0.17324697858E+04 0.  0.
        1    1    3    3  502    0  0.54453839066E+03  0.32914159354E+03  0.20458712140E+03  0.66836527271E+03  0.50400001928E-02 0. -1.
       -1    1    3    3    0  502 -0.54453839066E+03 -0.32914159354E+03 -0.11273729215E+04  0.12945369642E+04  0.50400001928E-02 0.  1.
</event>
<event>
 5   0  0.3573262E-04  0.1695404E+04  0.7818609E-02  0.8763990E-01
        2   -1    0    0  501    0  0.00000000000E+00  0.00000000000E+00  0.68292519509E+03  0.68292519509E+03  0.25500000920E-02 0.  1.
       -2   -1    0    0    0  501  0.00000000000E+00  0.00000000000E+00 -0.10522366236E+04  0.10522366236E+04  0.25500000920E-02 0. -1.
    10030    2    1    2    0    0  0.00000000000E+00  0.00000000000E+00 -0.36931142851E+03  0.17351618187E+04  0.16954042603E+04 0.  0.
        5    1    3    3  502    0  0.26944791155E+03 -0.79671510298E+03 -0.29306261548E+03  0.89065420840E+03  0.46999998093E+01 0. -1.
       -5    1    3    3    0  502 -0.26944791155E+03  0.79671510298E+03 -0.76248813024E+02  0.84450761029E+03  0.46999998093E+01 0.  1.
</event>
<event>
 5   0  0.1920289E-04  0.1678003E+04  0.7818609E-02  0.8774010E-01
        1   -1    0    0  501    0  0.00000000000E+00  0.00000000000E+00  0.50144829233E+03  0.50144829236E+03  0.50400001928E-02 0. -1.
       -1   -1    0    0    0  501  0.00000000000E+00  0.00000000000E+00 -0.14037812293E+04  0.14037812293E+04  0.50400001928E-02 0.  1.
    10030    2    1    2    0    0  0.00000000000E+00  0.00000000000E+00 -0.90233293697E+03  0.19052295217E+04  0.16780032184E+04 0.  0.
        4    1    3    3  502    0 -0.32439431817E+02 -0.41401922642E+03  0.37656397059E+03  0.56059457135E+03  0.12699999809E+01 0. -1.
       -4    1    3    3    0  502  0.32439431817E+02  0.41401922642E+03 -0.12788969076E+04  0.13446349503E+04  0.12699999809E+01 0.  1.
</event>
<event>
 5   0  0.1930116E-04  0.1696271E+04  0.7818609E-02  0.8763494E-01
       -1   -1    0    0    0  501  0.00000000000E+00  0.00000000000E+00  0.78994495375E+03  0.78994495376E+03  0.50400001928E-02 0. -1.
        1   -1    0    0  501    0  0.00000000000E+00  0.00000000000E+00 -0.91061213288E+03  0.91061213289E+03  0.50400001928E-02 0.  1.
    10030    2    1    2    0    0  0.00000000000E+00  0.00000000000E+00 -0.12066717913E+03  0.17005570867E+04  0.16962705671E+04 0.  0.
        1    1    3    3  502    0 -0.39004707018E+03  0.92058056245E+02  0.68903243220E+03  0.79710544806E+03  0.50400001928E-02 0. -1.
       -1    1    3    3    0  502  0.39004707018E+03 -0.92058056245E+02 -0.80969961133E+03  0.90345163860E+03  0.50400001928E-02 0.  1.
</event>
<event>
 5   0  0.3605571E-04  0.1680102E+04  0.7818609E-02  0.8772795E-01
        2   -1    0    0  501    0  0.00000000000E+00  0.00000000000E+00  0.99019780542E+03  0.99019780542E+03  0.25500000920E-02 0. -1.
       -2   -1    0    0    0  501  0.00000000000E+00  0.00000000000E+00 -0.71267172269E+03  0.71267172270E+03  0.25500000920E-02 0.  1.
    10030    2    1    2    0    0  0.00000000000E+00  0.00000000000E+00  0.27752608272E+03  0.17028695281E+04  0.16801023490E+04 0.  0.
        4    1    3    3  502    0 -0.42441324637E+03 -0.15739636542E+03  0.85601364037E+03  0.96832906852E+03  0.12699999809E+01 0. -1.
       -4    1    3    3    0  502  0.42441324637E+03  0.15739636542E+03 -0.57848755764E+03  0.73454045960E+03  0.12699999809E+01 0.  1.
</event>
<event>
 5   0  0.1824538E-04  0.1711283E+04  0.7818609E-02  0.8754955E-01
       -1   -1    0    0    0  501  0.00000000000E+00  0.00000000000E+00  0.35082155623E+03  0.35082155626E+03  0.50400001928E-02 0.  1.
        1   -1    0    0  501    0  0.00000000000E+00  0.00000000000E+00 -0.20868792661E+04  0.20868792661E+04  0.50400001928E-02 0. -1.
    10030    2    1    2    0    0  0.00000000000E+00  0.00000000000E+00 -0.17360577099E+04  0.24377008224E+04  0.17112828309E+04 0.  0.
        3    1    3    3  502    0 -0.81433060606E+03  0.25253047290E+03 -0.76514727134E+03  0.11455812205E+04  0.10100000352E+00 0.  1.
       -3    1    3    3    0  502  0.81433060606E+03 -0.25253047290E+03 -0.97091043855E+03  0.12921196019E+04  0.10100000352E+00 0. -1.
</event>
<event>
 5   0  0.1824538E-04  0.1726916E+04  0.7818609E-02  0.8746160E-01
        1   -1    0    0  501    0  0.00000000000E+00  0.00000000000E+00  0.14550339445E+04  0.14550339445E+04  0.50400001928E-02 0. -1.
       -1   -1    0    0    0  501  0.00000000000E+00  0.00000000000E+00 -0.51240016557E+03  0.51240016559E+03  0.50400001928E-02 0.  1.
    10030    2    1    2    0    0  0.00000000000E+00  0.00000000000E+00  0.94263377897E+03  0.19674341101E+04  0.17269159031E+04 0.  0.
        3    1    3    3  502    0  0.38907253415E+03  0.76706438386E+03  0.38459396359E+03  0.94216651016E+03  0.10100000352E+00 0.  1.
       -3    1    3    3    0  502 -0.38907253415E+03 -0.76706438386E+03  0.55803981538E+03  0.10252676000E+04  0.10100000352E+00 0. -1.
</event>
<event>
 5   0  0.1930116E-04  0.1702892E+04  0.7818609E-02  0.8759717E-01
        1   -1    0    0  501    0  0.00000000000E+00  0.00000000000E+00  0.14501197979E+04  0.14501197979E+04  0.50400001928E-02 0.  1.
       -1   -1    0    0    0  501  0.00000000000E+00  0.00000000000E+00 -0.49993135542E+03  0.49993135545E+03  0.50400001928E-02 0. -1.
    10030    2    1    2    0    0  0.00000000000E+00  0.00000000000E+00  0.95018844250E+03  0.19500511534E+04  0.17028920766E+04 0.  0.
        1    1    3    3  502    0  0.35000435808E+03  0.66552268240E+03  0.93248710709E+03  0.11978963630E+04  0.50400001928E-02 0.  1.
       -1    1    3    3    0  502 -0.35000435808E+03 -0.66552268240E+03  0.17701335416E+02  0.75215479043E+03  0.50400001928E-02 0. -1.
</event>
<event>
 5   0  0.1815663E-04  0.1707461E+04  0.7818609E-02  0.8757121E-01
       -1   -1    0    0    0  501  0.00000000000E+00  0.00000000000E+00  0.33749987653E+03  0.33749987657E+03  0.50400001928E-02 0.  1.
        1   -1    0    0  501    0  0.00000000000E+00  0.00000000000E+00 -0.21595725925E+04  0.21595725925E+04  0.50400001928E-02 0. -1.
    10030    2    1    2    0    0  0.00000000000E+00  0.00000000000E+00 -0.18220727160E+04  0.24970724691E+04  0.17074606682E+04 0.  0.
        5    1    3    3  502    0  0.82908935352E+03 -0.84467438310E+02 -0.11819229839E+04  0.14461977507E+04  0.46999998093E+01 0. -1.
       -5    1    3    3    0  502 -0.82908935352E+03  0.84467438310E+02 -0.64014973205E+03  0.10508747184E+04  0.46999998093E+01 0.  1.
</event>
<event>
 5   0  0.1815663E-04  0.1683113E+04  0.7818609E-02  0.8771054E-01
        1   -1    0    0  501    0  0.00000000000E+00  0.00000000000E+00  0.70846439383E+03  0.70846439385E+03  0.50400001928E-02 0.  1.
       -1   -1    0    0    0  501  0.00000000000E+00  0.00000000000E+00 -0.99965164961E+03  0.99965164963E+03  0.50400001928E-02 0. -1.
    10030    2    1    2    0    0  0.00000000000E+00  0.00000000000E+00 -0.29118725578E+03  0.17081160435E+04  0.16831133058E+04 0.  0.
        5    1    3    3  502    0 -0.66994529535E+03 -0.24540416829E+03  0.30729287947E+03  0.77685320901E+03  0.46999998093E+01 0.  1.
       -5    1    3    3    0  502  0.66994529535E+03  0.24540416829E+03 -0.59848013525E+03  0.93126283447E+03  0.46999998093E+01 0. -1.
</event>
<event>
 5   0  0.1893284E-04  0.1685679E+04  0.7818609E-02  0.8769574E-01
        1   -1    0    0  501    0  0.00000000000E+00  0.00000000000E+00  0.98948201593E+03  0.98948201594E+03  0.50400001928E-02 0. -1.
       -1   -1    0    0    0  501  0.00000000000E+00  0.00000000000E+00 -0.71792990601E+03  0.71792990602E+03  0.50400001928E-02 0.  1.
    10030    2    1    2    0    0  0.00000000000E+00  0.00000000000E+00  0.27155210992E+03  0.17074119220E+04  0.16856793654E+04 0.  0.
        2    1    3    3  502    0 -0.70091382493E+03  0.45593651665E+03  0.24306825667E+03  0.87077004691E+03  0.25500000920E-02 0. -1.
       -2    1    3    3    0  502  0.70091382493E+03 -0.45593651665E+03  0.28483853252E+02  0.83664187505E+03  0.25500000920E-02 0.  1.
</event>
<event>
 5   0  0.1893284E-04  0.1705232E+04  0.7818609E-02  0.8758386E-01
       -1   -1    0    0    0  501  0.00000000000E+00  0.00000000000E+00  0.56899941273E+03  0.56899941275E+03  0.50400001928E-02 0.  1.
        1   -1    0    0  501    0  0.00000000000E+00  0.00000000000E+00 -0.12776005988E+04  0.12776005988E+04  0.50400001928E-02 0. -1.
    10030    2    1    2    0    0  0.00000000000E+00  0.00000000000E+00 -0.70860118604E+03  0.18466000115E+04  0.17052319378E+04 0.  0.
        2    1    3    3  502    0  0.45554949316E+03  0.95851310738E+02  0.41922934560E+03  0.62647111563E+03  0.25500000920E-02 0.  1.
       -2    1    3    3    0  502 -0.45554949316E+03 -0.95851310738E+02 -0.11278305316E+04  0.12201288959E+04  0.25500000920E-02 0. -1.
</event>
<event>
 5   0  0.1893284E-04  0.1697173E+04  0.7818609E-02  0.8762978E-01
        1   -1    0    0  501    0  0.00000000000E+00  0.00000000000E+00  0.20050233309E+04  0.20050233309E+04  0.50400001928E-02 0.  1.
       -1   -1    0    0    0  501  0.00000000000E+00  0.00000000000E+00 -0.35914757707E+03  0.35914757710E+03  0.50400001928E-02 0. -1.
    10030    2    1    2    0    0  0.00000000000E+00  0.00000000000E+00  0.16458757539E+04  0.23641709080E+04  0.16971732632E+04 0.  0.
        2    1    3    3  502    0  0.48931363858E+03 -0.52759129535E+01 -0.14281112732E+03  0.50975552008E+03  0.25500000920E-02 0. -1.
       -2    1    3    3    0  502 -0.48931363858E+03  0.52759129535E+01  0.17886868812E+04  0.18544153880E+04  0.25500000920E-02 0.  1.
</event>
<event>
 5   0  0.3573262E-04  0.1675713E+04  0.7818609E-02  0.8775339E-01
        2   -1    0    0  501    0  0.00000000000E+00  0.00000000000E+00  0.22840382498E+04  0.22840382498E+04  0.25500000920E-02 0.  1.
       -2   -1    0    0    0  501  0.00000000000E+00  0.00000000000E+00 -0.30735192491E+03  0.30735192492E+03  0.25500000920E-02 0. -1.
    10030    2    1    2    0    0  0.00000000000E+00  0.00000000000E+00  0.19766863249E+04  0.25913901747E+04  0.16757130454E+04 0.  0.
        5    1    3    3  502    0 -0.29126608159E+03  0.32394178313E+02  0.22021718698E+04  0.22215913997E+04  0.46999998093E+01 0.  1.
       -5    1    3    3    0  502  0.29126608159E+03 -0.32394178313E+02 -0.22548554488E+03  0.36979877504E+03  0.46999998093E+01 0. -1.
</event>
<event>
 5   0  0.1930116E-04  0.1420922E+04  0.7818609E-02  0.8938812E-01
        1   -1    0    0  501    0  0.00000000000E+00  0.00000000000E+00  0.10706877629E+04  0.10706877629E+04  0.50400001928E-02 0. -1.
       -1   -1    0    0    0  501  0.00000000000E+00  0.00000000000E+00 -0.47143067390E+03  0.47143067393E+03  0.50400001928E-02 0.  1.
    10030    2    1    2    0    0  0.00000000000E+00  0.00000000000E+00  0.59925708903E+03  0.15421184369E+04  0.14209223112E+04 0.  0.
        1    1    3    3  502    0  0.51490765406E+03 -0.28078666358E+03  0.73480844157E+03  0.94016726622E+03  0.50400001928E-02 0. -1.
       -1    1    3    3    0  502 -0.51490765406E+03  0.28078666358E+03 -0.13555135254E+03  0.60195117065E+03  0.50400001928E-02 0.  1.
</event>
<event>
 5   0  0.1317625E-04  0.1727515E+04  0.7818609E-02  0.8745825E-01
       -3   -1    0    0    0  501  0.00000000000E+00  0.00000000000E+00  0.54658884967E+03  0.54658885900E+03  0.10100000352E+00 0. -1.
        3   -1    0    0  501    0  0.00000000000E+00  0.00000000000E+00 -0.13649699517E+04  0.13649699554E+04  0.10100000352E+00 0.  1.
    10030    2    1    2    0    0  0.00000000000E+00  0.00000000000E+00 -0.81838110198E+03  0.19115588144E+04  0.17275154045E+04 0.  0.
        1    1    3    3  502    0 -0.51991509000E+03  0.64354175870E+01  0.35401827214E+03  0.62903263225E+03  0.50400001928E-02 0. -1.
       -1    1    3    3    0  502  0.51991509000E+03 -0.64354175870E+01 -0.11723993741E+04  0.12825261821E+04  0.50400001928E-02 0.  1.
</event>
<event>
 5   0  0.3574092E-04  0.1710220E+04  0.7818609E-02  0.8755557E-01
       -2   -1    0    0    0  501  0.00000000000E+00  0.00000000000E+00  0.15048757936E+04  0.15048757936E+04  0.25500000920E-02 0.  1.
        2   -1    0    0  501    0  0.00000000000E+00  0.00000000000E+00 -0.48589582213E+03  0.48589582214E+03  0.25500000920E-02 0. -1.
    10030    2    1    2    0    0  0.00000000000E+00  0.00000000000E+00  0.10189799715E+04  0.19907716157E+04  0.17102197063E+04 0.  0.
        3    1    3    3  502    0  0.51739245764E+03  0.47668663499E+03  0.10753254122E+04  0.12850096714E+04  0.10100000352E+00 0.  1.
       -3    1    3    3    0  502 -0.51739245764E+03 -0.47668663499E+03 -0.56345440746E+02  0.70576194435E+03  0.10100000352E+00 0. -1.
</event>
<event>
 5   0  0.1920289E-04  0.1665120E+04  0.7818609E-02  0.8781512E-01
        1   -1    0    0  501    0  0.00000000000E+00  0.00000000000E+00  0.69687480028E+03  0.69687480029E+03  0.50400001928E-02 0.  1.
       -1   -1    0    0    0  501  0.00000000000E+00  0.00000000000E+00 -0.99466375622E+03  0.99466375623E+03  0.50400001928E-02 0. -1.
    10030    2    1    2    0    0  0.00000000000E+00  0.00000000000E+00 -0.29778895595E+03  0.16915385565E+04  0.16651199434E+04 0.  0.
        4    1    3    3  502    0  0.34831896887E+02 -0.26115994466E+03 -0.95119492395E+03  0.98701123296E+03  0.12699999809E+01 0. -1.
       -4    1    3    3    0  502 -0.34831896887E+02  0.26115994466E+03  0.65340596800E+03  0.70452732357E+03  0.12699999809E+01 0.  1.
</event>
<event>
 5   0  0.3605571E-04  0.1734843E+04  0.7818609E-02  0.8741738E-01
        2   -1    0    0  501    0  0.00000000000E+00  0.00000000000E+00  0.90572816326E+03  0.90572816327E+03  0.25500000920E-02 0.  1.
       -2   -1    0    0    0  501  0.00000000000E+00  0.00000000000E+00 -0.83073495466E+03  0.83073495467E+03  0.25500000920E-02 0. -1.
    10030    2    1    2    0    0  0.00000000000E+00  0.00000000000E+00  0.74993208600E+02  0.17364631179E+04  0.17348429838E+04 0.  0.
        4    1    3    3  502    0  0.19048815468E+03 -0.80273885993E+03 -0.23060240473E+03  0.85665307814E+03  0.12699999809E+01 0. -1.
       -4    1    3    3    0  502 -0.19048815468E+03  0.80273885993E+03  0.30559561333E+03  0.87981003979E+03  0.12699999809E+01 0.  1.
</event>
<event>
 5   0  0.3516723E-04  0.1721788E+04  0.7818609E-02  0.8749035E-01
        2   -1    0    0  501    0  0.00000000000E+00  0.00000000000E+00  0.15661250553E+04  0.15661250553E+04  0.25500000920E-02 0.  1.
       -2   -1    0    0    0  501  0.00000000000E+00  0.00000000000E+00 -0.47323066981E+03  0.47323066982E+03  0.25500000920E-02 0. -1.
    10030    2    1    2    0    0  0.00000000000E+00  0.00000000000E+00  0.10928943855E+04  0.20393557252E+04  0.17217879184E+04 0.  0.
        1    1    3    3  502    0 -0.53575330722E+02  0.56024873390E+02 -0.46908851540E+03  0.47545045778E+03  0.50400001928E-02 0. -1.
       -1    1    3    3    0  502  0.53575330722E+02 -0.56024873390E+02  0.15619829009E+04  0.15639052674E+04  0.50400001928E-02 0.  1.
</event>
<event>
 5   0  0.1824538E-04  0.1714406E+04  0.7818609E-02  0.8753191E-01
       -1   -1    0    0    0  501  0.00000000000E+00  0.00000000000E+00  0.47130793502E+03  0.47130793505E+03  0.50400001928E-02 0. -1.
        1   -1    0    0  501    0  0.00000000000E+00  0.00000000000E+00 -0.15590587156E+04  0.15590587156E+04  0.50400001928E-02 0.  1.
    10030    2    1    2    0    0  0.00000000000E+00  0.00000000000E+00 -0.10877507806E+04  0.20303666507E+04  0.17144057208E+04 0.  0.
        3    1    3    3  502    0 -0.67696952490E+03 -0.48900192792E+03 -0.31488565930E+03  0.89250412424E+03  0.10100000352E+00 0. -1.
       -3    1    3    3    0  502  0.67696952490E+03  0.48900192792E+03 -0.77286512129E+03  0.11378625264E+04  0.10100000352E+00 0.  1.
</event>
<event>
 5   0  0.3574092E-04  0.1707338E+04  0.7818609E-02  0.8757191E-01
       -2   -1    0    0    0  501  0.00000000000E+00  0.00000000000E+00  0.93464474613E+03  0.93464474613E+03  0.25500000920E-02 0.  1.
        2   -1    0    0  501    0  0.00000000000E+00  0.00000000000E+00 -0.77970840051E+03  0.77970840051E+03  0.25500000920E-02 0. -1.
    10030    2    1    2    0    0  0.00000000000E+00  0.00000000000E+00  0.15493634562E+03  0.17143531466E+04  0.17073375297E+04 0.  0.
        3    1    3    3  502    0 -0.29091587677E+03 -0.62648656550E+03 -0.42622330298E+03  0.81165496260E+03  0.10100000352E+00 0. -1.
       -3    1    3    3    0  502  0.29091587677E+03  0.62648656550E+03  0.58115964860E+03  0.90269818404E+03  0.10100000352E+00 0.  1.
</event>
<event>
 5   0  0.1920289E-04  0.1756500E+04  0.7818609E-02  0.8729781E-01
       -1   -1    0    0    0  501  0.00000000000E+00  0.00000000000E+00  0.11689488982E+04  0.11689488982E+04  0.50400001928E-02 0. -1.
        1   -1    0    0  501    0  0.00000000000E+00  0.00000000000E+00 -0.65984319415E+03  0.65984319417E+03  0.50400001928E-02 0.  1.
    10030    2    1    2    0    0  0.00000000000E+00  0.00000000000E+00  0.50910570408E+03  0.18287920924E+04  0.17564999002E+04 0.  0.
        4    1    3    3  502    0  0.24771926107E+03  0.82296266028E+03  0.44279503611E+03  0.96679958079E+03  0.12699999809E+01 0. -1.
       -4    1    3    3    0  502 -0.24771926107E+03 -0.82296266028E+03  0.66310667980E+02  0.86199251163E+03  0.12699999809E+01 0.  1.
</event>
<event>
 5   0  0.3678896E-04  0.1699773E+04  0.7818609E-02  0.8761494E-01
        2   -1    0    0  501    0  0.00000000000E+00  0.00000000000E+00  0.10349243862E+04  0.10349243862E+04  0.25500000920E-02 0.  1.
       -2   -1    0    0    0  501  0.00000000000E+00  0.00000000000E+00 -0.69793203239E+03  0.69793203240E+03  0.25500000920E-02 0. -1.
    10030    2    1    2    0    0  0.00000000000E+00  0.00000000000E+00  0.33699235383E+03  0.17328564186E+04  0.16997727851E+04 0.  0.
        2    1    3    3  502    0  0.58181948594E+03  0.25137821796E+03  0.74573401666E+03  0.97868490654E+03  0.25500000920E-02 0.  1.
       -2    1    3    3    0  502 -0.58181948594E+03 -0.25137821796E+03 -0.40874166283E+03  0.75417151208E+03  0.25500000920E-02 0. -1.
</event>
<event>
 5   0  0.1920289E-04  0.1697156E+04  0.7818609E-02  0.8762988E-01
       -1   -1    0    0    0  501  0.00000000000E+00  0.00000000000E+00  0.53223240240E+03  0.53223240243E+03  0.50400001928E-02 0.  1.
        1   -1    0    0  501    0  0.00000000000E+00  0.00000000000E+00 -0.13529520068E+04  0.13529520068E+04  0.50400001928E-02 0. -1.
    10030    2    1    2    0    0  0.00000000000E+00  0.00000000000E+00 -0.82071960439E+03  0.18851844092E+04  0.16971563239E+04 0.  0.
        4    1    3    3  502    0  0.64531897721E+03 -0.29882420739E+03 -0.92463377069E+03  0.11664826240E+04  0.12699999809E+01 0.  1.
       -4    1    3    3    0  502 -0.64531897721E+03  0.29882420739E+03  0.10391416629E+03  0.71870178525E+03  0.12699999809E+01 0. -1.
</event>
<event>
 5   0  0.1920289E-04  0.1705326E+04  0.7818609E-02  0.8758333E-01
        1   -1    0    0  501    0  0.00000000000E+00  0.00000000000E+00  0.55154970341E+03  0.55154970344E+03  0.50400001928E-02 0.  1.
       -1   -1    0    0    0  501  0.00000000000E+00  0.00000000000E+00 -0.13181656230E+04  0.13181656230E+04  0.50400001928E-02 0. -1.
    10030    2    1    2    0    0  0.00000000000E+00  0.00000000000E+00 -0.76661591962E+03  0.18697153265E+04  0.17053256093E+04 0.  0.
        4    1    3    3  502    0  0.58919851946E+03 -0.55054378399E+03 -0.79507032801E+02  0.81029398034E+03  0.12699999809E+01 0.  1.
       -4    1    3    3    0  502 -0.58919851946E+03  0.55054378399E+03 -0.68710888682E+03  0.10594213461E+04  0.12699999809E+01 0. -1.
</event>
<event>
 5   0  0.1893284E-04  0.1724003E+04  0.7818609E-02  0.8747792E-01
        1   -1    0    0  501    0  0.00000000000E+00  0.00000000000E+00  0.93195629593E+03  0.93195629594E+03  0.50400001928E-02 0.  1.
       -1   -1    0    0    0  501  0.00000000000E+00  0.00000000000E+00 -0.79729726573E+03  0.79729726575E+03  0.50400001928E-02 0. -1.
    10030    2    1    2    0    0  0.00000000000E+00  0.00000000000E+00  0.13465903020E+03  0.17292535617E+04  0.17240025598E+04 0.  0.
        2    1    3    3  502    0 -0.41755510106E+03  0.24725867233E+03 -0.64727083267E+03  0.80898000241E+03  0.25500000920E-02 0. -1.
       -2    1    3    3    0  502  0.41755510106E+03 -0.24725867233E+03  0.78192986287E+03  0.92027355928E+03  0.25500000920E-02 0.  1.
</event>
<event>
 5   0  0.3678896E-04  0.1701593E+04  0.7818609E-02  0.8760456E-01
       -2   -1    0    0    0  501  0.00000000000E+00  0.00000000000E+00  0.32389832943E+03  0.32389832944E+03  0.25500000920E-02 0.  1.
        2   -1    0    0  501    0  0.00000000000E+00  0.00000000000E+00 -0.22348210066E+04  0.22348210066E+04  0.25500000920E-02 0. -1.
    10030    2    1    2    0    0  0.00000000000E+00  0.00000000000E+00 -0.19109226772E+04  0.25587193360E+04  0.17015931248E+04 0.  0.
        2    1    3    3  502    0  0.10140283831E+03 -0.20228430625E+03 -0.21887438475E+04  0.22004093042E+04  0.25500000920E-02 0. -1.
       -2    1    3    3    0  502 -0.10140283831E+03  0.20228430625E+03  0.27782117036E+03  0.35831003179E+03  0.25500000920E-02 0.  1.
</event>
<event>
 5   0  0.3516723E-04  0.1883209E+04  0.7818609E-02  0.8663260E-01
        2   -1    0    0  501    0  0.00000000000E+00  0.00000000000E+00  0.18172333362E+04  0.18172333362E+04  0.25500000920E-02 0.  1.
       -2   -1    0    0    0  501  0.00000000000E+00  0.00000000000E+00 -0.48789492527E+03  0.48789492527E+03  0.25500000920E-02 0. -1.
    10030    2    1    2    0    0  0.00000000000E+00  0.00000000000E+00  0.13293384109E+04  0.23051282614E+04  0.18832088814E+04 0.  0.
        1    1    3    3  502    0 -0.81343385700E+03  0.39898643768E+03  0.97854515453E+03  0.13335724340E+04  0.50400001928E-02 0.  1.
       -1    1    3    3    0  502  0.81343385700E+03 -0.39898643768E+03  0.35079325637E+03  0.97155582748E+03  0.50400001928E-02 0. -1.
</event>
<event>
 5   0  0.1317625E-04  0.1691090E+04  0.7818609E-02  0.8766462E-01
       -4   -1    0    0    0  501  0.00000000000E+00  0.00000000000E+00  0.78633137758E+03  0.78633240316E+03  0.12699999809E+01 0.  1.
        4   -1    0    0  501    0  0.00000000000E+00  0.00000000000E+00 -0.90921580233E+03  0.90921668930E+03  0.12699999809E+01 0. -1.
    10030    2    1    2    0    0  0.00000000000E+00  0.00000000000E+00 -0.12288442475E+03  0.16955490925E+04  0.16910902232E+04 0.  0.
        2    1    3    3  502    0  0.38663032992E+03 -0.64015941615E+03  0.33413505837E+03  0.81910519919E+03  0.25500000920E-02 0.  1.
       -2    1    3    3    0  502 -0.38663032992E+03  0.64015941615E+03 -0.45701948312E+03  0.87644389328E+03  0.25500000920E-02 0. -1.
</event>
<event>
 5   0  0.3516723E-04  0.1689594E+04  0.7818609E-02  0.8767321E-01
        2   -1    0    0  501    0  0.00000000000E+00  0.00000000000E+00  0.77445666945E+03  0.77445666945E+03  0.25500000920E-02 0. -1.
       -2   -1    0    0    0  501  0.00000000000E+00  0.00000000000E+00 -0.92152653392E+03  0.92152653393E+03  0.25500000920E-02 0.  1.
    10030    2    1    2    0    0  0.00000000000E+00  0.00000000000E+00 -0.14706986447E+03  0.16959832034E+04  0.16895944724E+04 0.  0.
        1    1    3    3  502    0  0.13622832190E+03  0.51849947609E+03  0.58183697736E+03  0.79115999054E+03  0.50400001928E-02 0. -1.
       -1    1    3    3    0  502 -0.13622832190E+03 -0.51849947609E+03 -0.72890684183E+03  0.90482321283E+03  0.50400001928E-02 0.  1.
</event>
<event>
 5   0  0.1930116E-04  0.1724647E+04  0.7818609E-02  0.8747431E-01
       -1   -1    0    0    0  501  0.00000000000E+00  0.00000000000E+00  0.35266620936E+03  0.35266620939E+03  0.50400001928E-02 0. -1.
        1   -1    0    0  501    0  0.00000000000E+00  0.00000000000E+00 -0.21085152229E+04  0.21085152229E+04  0.50400001928E-02 0.  1.
    10030    2    1    2    0    0  0.00000000000E+00  0.00000000000E+00 -0.17558490136E+04  0.24611814323E+04  0.17246472928E+04 0.  0.
        1    1    3    3  502    0 -0.47772551635E+03 -0.20677102542E+03 -0.18589995097E+04  0.19305064369E+04  0.50400001928E-02 0.  1.
       -1    1    3    3    0  502  0.47772551635E+03  0.20677102542E+03  0.10315049609E+03  0.53067499545E+03  0.50400001928E-02 0. -1.
</event>
<event>
 5   0  0.3573262E-04  0.1700754E+04  0.7818609E-02  0.8760934E-01
        2   -1    0    0  501    0  0.00000000000E+00  0.00000000000E+00  0.12520751330E+04  0.12520751330E+04  0.25500000920E-02 0. -1.
       -2   -1    0    0    0  501  0.00000000000E+00  0.00000000000E+00 -0.57755424890E+03  0.57755424891E+03  0.25500000920E-02 0.  1.
    10030    2    1    2    0    0  0.00000000000E+00  0.00000000000E+00  0.67452088406E+03  0.18296293819E+04  0.17007543185E+04 0.  0.
        5    1    3    3  502    0 -0.30617541949E+03 -0.36128833267E+03 -0.42254962161E+03  0.63469907795E+03  0.46999998093E+01 0.  1.
       -5    1    3    3    0  502  0.30617541949E+03  0.36128833267E+03  0.10970705057E+04  0.11949303039E+04  0.46999998093E+01 0. -1.
</event>
<event>
 5   0  0.1317625E-04  0.1691390E+04  0.7818609E-02  0.8766290E-01
       -3   -1    0    0    0  501  0.00000000000E+00  0.00000000000E+00  0.57082837770E+03  0.57082838664E+03  0.10100000352E+00 0. -1.
        3   -1    0    0  501    0  0.00000000000E+00  0.00000000000E+00 -0.12529158067E+04  0.12529158108E+04  0.10100000352E+00 0.  1.
    10030    2    1    2    0    0  0.00000000000E+00  0.00000000000E+00 -0.68208742900E+03  0.18237441974E+04  0.16913898536E+04 0.  0.
        5    1    3    3  502    0  0.15370459856E+03 -0.71177044739E+03 -0.80473656402E+03  0.10852950294E+04  0.46999998093E+01 0. -1.
       -5    1    3    3    0  502 -0.15370459856E+03  0.71177044739E+03  0.12264913502E+03  0.73844916800E+03  0.46999998093E+01 0.  1.
</event>
<event>
 5   0  0.3605571E-04  0.1711204E+04  0.7818609E-02  0.8755000E-01
        2   -1    0    0  501    0  0.00000000000E+00  0.00000000000E+00  0.99663781541E+03  0.99663781542E+03  0.25500000920E-02 0.  1.
       -2   -1    0    0    0  501  0.00000000000E+00  0.00000000000E+00 -0.73452469144E+03  0.73452469145E+03  0.25500000920E-02 0. -1.
    10030    2    1    2    0    0  0.00000000000E+00  0.00000000000E+00  0.26211312397E+03  0.17311625069E+04  0.17112043523E+04 0.  0.
        4    1    3    3  502    0 -0.29170187167E+03 -0.44194957008E+03 -0.54882633464E+03  0.76264104461E+03  0.12699999809E+01 0. -1.
       -4    1    3    3    0  502  0.29170187167E+03  0.44194957008E+03  0.81093945861E+03  0.96852146226E+03  0.12699999809E+01 0.  1.
</event>
<event>
 5   0  0.3605571E-04  0.1696572E+04  0.7818609E-02  0.8763322E-01
       -2   -1    0    0    0  501  0.00000000000E+00  0.00000000000E+00  0.31986058889E+03  0.31986058890E+03  0.25500000920E-02 0. -1.
        2   -1    0    0  501    0  0.00000000000E+00  0.00000000000E+00 -0.22496949557E+04  0.22496949557E+04  0.25500000920E-02 0.  1.
    10030    2    1    2    0    0  0.00000000000E+00  0.00000000000E+00 -0.19298343668E+04  0.25695555446E+04  0.16965715468E+04 0.  0.
        4    1    3    3  502    0  0.84287315635E+00  0.82817730333E+03 -0.68684510962E+03  0.10759350230E+04  0.12699999809E+01 0. -1.
       -4    1    3    3    0  502 -0.84287315635E+00 -0.82817730333E+03 -0.12429892572E+04  0.14936205216E+04  0.12699999809E+01 0.  1.
</event>
<event>
 5   0  0.1893284E-04  0.1705762E+04  0.7818609E-02  0.8758085E-01
        1   -1    0    0  501    0  0.00000000000E+00  0.00000000000E+00  0.14530077233E+04  0.14530077234E+04  0.50400001928E-02 0.  1.
       -1   -1    0    0    0  501  0.00000000000E+00  0.00000000000E+00 -0.50062085152E+03  0.50062085155E+03  0.50400001928E-02 0. -1.
    10030    2    1    2    0    0  0.00000000000E+00  0.00000000000E+00  0.95238687182E+03  0.19536285749E+04  0.17057619573E+04 0.  0.
        2    1    3    3  502    0 -0.82046960014E+03  0.22653575848E+03  0.41433443649E+03  0.94665824873E+03  0.25500000920E-02 0. -1.
       -2    1    3    3    0  502  0.82046960014E+03 -0.22653575848E+03  0.53805243533E+03  0.10069703262E+04  0.25500000920E-02 0.  1.
</event>
<event>
 5   0  0.1824538E-04  0.1715946E+04  0.7818609E-02  0.8752322E-01
        1   -1    0    0  501    0  0.00000000000E+00  0.00000000000E+00  0.71356547214E+03  0.71356547216E+03  0.50400001928E-02 0. -1.
       -1   -1    0    0    0  501  0.00000000000E+00  0.00000000000E+00 -0.10316052218E+04  0.10316052218E+04  0.50400001928E-02 0.  1.
    10030    2    1    2    0    0  0.00000000000E+00  0.00000000000E+00 -0.31803974964E+03  0.17451706940E+04  0.17159462313E+04 0.  0.
        3    1    3    3  502    0  0.14177933660E+03 -0.65731488644E+03 -0.70096827494E+03  0.97134997447E+03  0.10100000352E+00 0. -1.
       -3    1    3    3    0  502 -0.14177933660E+03  0.65731488644E+03  0.38292852530E+03  0.77382071949E+03  0.10100000352E+00 0.  1.
</event>
<event>
 5   0  0.1815663E-04  0.1697266E+04  0.7818609E-02  0.8762925E-01
        1   -1    0    0  501    0  0.00000000000E+00  0.00000000000E+00  0.77866644210E+03  0.77866644211E+03  0.50400001928E-02 0.  1.
       -1   -1    0    0    0  501  0.00000000000E+00  0.00000000000E+00 -0.92488585397E+03  0.92488585398E+03  0.50400001928E-02 0. -1.
    10030    2    1    2    0    0  0.00000000000E+00  0.00000000000E+00 -0.14621941187E+03  0.17035522961E+04  0.16972655388E+04 0.  0.
        5    1    3    3  502    0  0.59785388270E+03  0.29344563956E+03 -0.60100067233E+03  0.89708611993E+03  0.46999998093E+01 0. -1.
       -5    1    3    3    0  502 -0.59785388270E+03 -0.29344563956E+03  0.45478126046E+03  0.80646617616E+03  0.46999998093E+01 0.  1.
</event>
<event>
 5   0  0.3605571E-04  0.1674390E+04  0.7818609E-02  0.8776107E-01
       -2   -1    0    0    0  501  0.00000000000E+00  0.00000000000E+00  0.31274088650E+03  0.31274088651E+03  0.25500000920E-02 0. -1.
        2   -1    0    0  501    0  0.00000000000E+00  0.00000000000E+00 -0.22411380929E+04  0.22411380929E+04  0.25500000920E-02 0.  1.
    10030    2    1    2    0    0  0.00000000000E+00  0.00000000000E+00 -0.19283972064E+04  0.25538789794E+04  0.16743900549E+04 0.  0.
        4    1    3    3  502    0  0.52316908974E+03  0.64830301382E+03 -0.83758180669E+03  0.11813329717E+04  0.12699999809E+01 0.  1.
       -4    1    3    3    0  502 -0.52316908974E+03 -0.64830301382E+03 -0.10908153997E+04  0.13725460077E+04  0.12699999809E+01 0. -1.
</event>
<event>
 5   0  0.3573262E-04  0.1701270E+04  0.7818609E-02  0.8760640E-01
        2   -1    0    0  501    0  0.00000000000E+00  0.00000000000E+00  0.99749647146E+03  0.99749647147E+03  0.25500000920E-02 0. -1.
       -2   -1    0    0    0  501  0.00000000000E+00  0.00000000000E+00 -0.72539578139E+03  0.72539578139E+03  0.25500000920E-02 0.  1.
    10030    2    1    2    0    0  0.00000000000E+00  0.00000000000E+00  0.27210069008E+03  0.17228922529E+04  0.17012697991E+04 0.  0.
        5    1    3    3  502    0 -0.69413651335E+02  0.53536069441E+02  0.99289679352E+03  0.99677003280E+03  0.46999998093E+01 0. -1.
       -5    1    3    3    0  502  0.69413651335E+02 -0.53536069441E+02 -0.72079610344E+03  0.72612222005E+03  0.46999998093E+01 0.  1.
</event>
<event>
 5   0  0.3516723E-04  0.1644195E+04  0.7818609E-02  0.8793848E-01
        2   -1    0    0  501    0  0.00000000000E+00  0.00000000000E+00  0.17199115938E+04  0.17199115938E+04  0.25500000920E-02 0.  1.
       -2   -1    0    0    0  501  0.00000000000E+00  0.00000000000E+00 -0.39295290670E+03  0.39295290671E+03  0.25500000920E-02 0. -1.
    10030    2    1    2    0    0  0.00000000000E+00  0.00000000000E+00  0.13269586870E+04  0.21128645005E+04  0.16441949520E+04 0.  0.
        1    1    3    3  502    0 -0.74728695266E+03 -0.31276948596E+03  0.48365696267E+03  0.94349700505E+03  0.50400001928E-02 0. -1.
       -1    1    3    3    0  502  0.74728695266E+03  0.31276948596E+03  0.84330172438E+03  0.11693674954E+04  0.50400001928E-02 0.  1.
</event>
<event>
 5   0  0.3516723E-04  0.1704554E+04  0.7818609E-02  0.8758771E-01
        2   -1    0    0  501    0  0.00000000000E+00  0.00000000000E+00  0.97094070511E+03  0.97094070511E+03  0.25500000920E-02 0.  1.
       -2   -1    0    0    0  501  0.00000000000E+00  0.00000000000E+00 -0.74811574741E+03  0.74811574741E+03  0.25500000920E-02 0. -1.
    10030    2    1    2    0    0  0.00000000000E+00  0.00000000000E+00  0.22282495770E+03  0.17190564525E+04  0.17045539373E+04 0.  0.
        1    1    3    3  502    0 -0.41610766996E+03 -0.17517069770E+02 -0.63850236549E+03  0.76232388883E+03  0.50400001928E-02 0. -1.
       -1    1    3    3    0  502  0.41610766996E+03  0.17517069770E+02  0.86132732319E+03  0.95673256369E+03  0.50400001928E-02 0.  1.
</event>
<event>
 5   0  0.1317625E-04  0.1664818E+04  0.7818609E-02  0.8781688E-01
        3   -1    0    0  501    0  0.00000000000E+00  0.00000000000E+00  0.43873848852E+03  0.43873850014E+03  0.10100000352E+00 0.  1.
       -3   -1    0    0    0  501  0.00000000000E+00  0.00000000000E+00 -0.15793107376E+04  0.15793107409E+04  0.10100000352E+00 0. -1.
    10030    2    1    2    0    0  0.00000000000E+00  0.00000000000E+00 -0.11405722491E+04  0.20180492410E+04  0.16648176127E+04 0.  0.
        2    1    3    3  502    0 -0.74100631871E+03  0.35733119613E+03 -0.72422975365E+03  0.10960313336E+04  0.25500000920E-02 0. -1.
       -2    1    3    3    0  502  0.74100631871E+03 -0.35733119613E+03 -0.41634249548E+03  0.92201790744E+03  0.25500000920E-02 0.  1.
</event>
<event>
 5   0  0.1317625E-04  0.1691465E+04  0.7818609E-02  0.8766247E-01
        3   -1    0    0  501    0  0.00000000000E+00  0.00000000000E+00  0.12954198561E+04  0.12954198601E+04  0.10100000352E+00 0.  1.
       -3   -1    0    0    0  501  0.00000000000E+00  0.00000000000E+00 -0.55214779277E+03  0.55214780201E+03  0.10100000352E+00 0. -1.
    10030    2    1    2    0    0  0.00000000000E+00  0.00000000000E+00  0.74327206335E+03  0.18475676621E+04  0.16914647220E+04 0.  0.
        4    1    3    3  502    0 -0.72354818439E+03 -0.17404126575E+03 -0.67253739304E+02  0.74721952307E+03  0.12699999809E+01 0. -1.
       -4    1    3    3    0  502  0.72354818439E+03  0.17404126575E+03  0.81052580265E+03  0.11003481390E+04  0.12699999809E+01 0.  1.
</event>
<event>
 5   0  0.3605571E-04  0.1683228E+04  0.7818609E-02  0.8770988E-01
        2   -1    0    0  501    0  0.00000000000E+00  0.00000000000E+00  0.16184028013E+04  0.16184028013E+04  0.25500000920E-02 0. -1.
       -2   -1    0    0    0  501  0.00000000000E+00  0.00000000000E+00 -0.43766255897E+03  0.43766255898E+03  0.25500000920E-02 0.  1.
    10030    2    1    2    0    0  0.00000000000E+00  0.00000000000E+00  0.11807402423E+04  0.20560653602E+04  0.16832282215E+04 0.  0.
        4    1    3    3  502    0  0.39578524332E+02  0.27717159087E+03  0.15598467667E+04  0.15847757251E+04  0.12699999809E+01 0. -1.
       -4    1    3    3    0  502 -0.39578524332E+02 -0.27717159087E+03 -0.37910652445E+03  0.47128963510E+03  0.12699999809E+01 0.  1.
</event>
<event>
 5   0  0.1920289E-04  0.1694593E+04  0.7818609E-02  0.8764454E-01
       -1   -1    0    0    0  501  0.00000000000E+00  0.00000000000E+00  0.90707360389E+03  0.90707360391E+03  0.50400001928E-02 0. -1.
        1   -1    0    0  501    0  0.00000000000E+00  0.00000000000E+00 -0.79145882526E+03  0.79145882527E+03  0.50400001928E-02 0.  1.
    10030    2    1    2    0    0  0.00000000000E+00  0.00000000000E+00  0.11561477864E+03  0.16985324292E+04  0.16945930591E+04 0.  0.
        4    1    3    3  502    0  0.10332867802E+03 -0.38787440648E+03  0.80572324274E+03  0.90017494282E+03  0.12699999809E+01 0. -1.
       -4    1    3    3    0  502 -0.10332867802E+03  0.38787440648E+03 -0.69010846410E+03  0.79835748636E+03  0.12699999809E+01 0.  1.
</event>
<event>
 5   0  0.3605571E-04  0.1852038E+04  0.7818609E-02  0.8679105E-01
       -2   -1    0    0    0  501  0.00000000000E+00  0.00000000000E+00  0.77663991946E+03  0.77663991946E+03  0.25500000920E-02 0.  1.
        2   -1    0    0  501    0  0.00000000000E+00  0.00000000000E+00 -0.11041296809E+04  0.11041296809E+04  0.25500000920E-02 0. -1.
    10030    2    1    2    0    0  0.00000000000E+00  0.00000000000E+00 -0.32748976144E+03  0.18807696004E+04  0.18520379979E+04 0.  0.
        4    1    3    3  502    0 -0.63384494396E+03 -0.65207733959E+03  0.13738596143E+02  0.90948041854E+03  0.12699999809E+01 0.  1.
       -4    1    3    3    0  502  0.63384494396E+03  0.65207733959E+03 -0.34122835758E+03  0.97128918181E+03  0.12699999809E+01 0. -1.
</event>
<event>
 5   0  0.1824538E-04  0.1712083E+04  0.7818609E-02  0.8754503E-01
        1   -1    0    0  501    0  0.00000000000E+00  0.00000000000E+00  0.77985409668E+03  0.77985409670E+03  0.50400001928E-02 0.  1.
       -1   -1    0    0    0  501  0.00000000000E+00  0.00000000000E+00 -0.93967211059E+03  0.93967211060E+03  0.50400001928E-02 0. -1.
    10030    2    1    2    0    0  0.00000000000E+00  0.00000000000E+00 -0.15981801390E+03  0.17195262073E+04  0.17120831113E+04 0.  0.
        3    1    3    3  502    0  0.75079057273E+03 -0.40964922005E+03 -0.11623484047E+03  0.86313933749E+03  0.10100000352E+00 0. -1.
       -3    1    3    3    0  502 -0.75079057273E+03  0.40964922005E+03 -0.43583173431E+02  0.85638686981E+03  0.10100000352E+00 0.  1.
</event>
<event>
 5   0  0.1920289E-04  0.1702856E+04  0.7818609E-02  0.8759737E-01
        1   -1    0    0  501    0  0.00000000000E+00  0.00000000000E+00  0.51393434080E+03  0.51393434082E+03  0.50400001928E-02 0.  1.
       -1   -1    0    0    0  501  0.00000000000E+00  0.00000000000E+00 -0.14105497260E+04  0.14105497260E+04  0.50400001928E-02 0. -1.
    10030    2    1    2    0    0  0.00000000000E+00  0.00000000000E+00 -0.89661538515E+03  0.19244840668E+04  0.17028563575E+04 0.  0.
        4    1    3    3  502    0 -0.69080476011E+03 -0.36534952669E+03 -0.83028660733E+03  0.11402056641E+04  0.12699999809E+01 0. -1.
       -4    1    3    3    0  502  0.69080476011E+03  0.36534952669E+03 -0.66328777821E+02  0.78427840268E+03  0.12699999809E+01 0.  1.
</event>
<event>
 5   0  0.1893284E-04  0.1695308E+04  0.7818609E-02  0.8764045E-01
        1   -1    0    0  501    0  0.00000000000E+00  0.00000000000E+00  0.19137462190E+04  0.19137462190E+04  0.50400001928E-02 0. -1.
       -1   -1    0    0    0  501  0.00000000000E+00  0.00000000000E+00 -0.37545054822E+03  0.37545054825E+03  0.50400001928E-02 0.  1.
    10030    2    1    2    0    0  0.00000000000E+00  0.00000000000E+00  0.15382956707E+04  0.22891967672E+04  0.16953077209E+04 0.  0.
        2    1    3    3  502    0 -0.11909421217E+02 -0.84306198518E+03  0.88703353737E+03  0.12238152808E+04  0.25500000920E-02 0.  1.
       -2    1    3    3    0  502  0.11909421217E+02  0.84306198518E+03  0.65126213337E+03  0.10653814864E+04  0.25500000920E-02 0. -1.
</event>
<event>
 5   0  0.3516723E-04  0.1698390E+04  0.7818609E-02  0.8762283E-01
       -2   -1    0    0    0  501  0.00000000000E+00  0.00000000000E+00  0.22284668228E+03  0.22284668230E+03  0.25500000920E-02 0. -1.
        2   -1    0    0  501    0  0.00000000000E+00  0.00000000000E+00 -0.32360029075E+04  0.32360029075E+04  0.25500000920E-02 0.  1.
    10030    2    1    2    0    0  0.00000000000E+00  0.00000000000E+00 -0.30131562252E+04  0.34588495898E+04  0.16983904284E+04 0.  0.
        1    1    3    3  502    0  0.60561899552E+03 -0.16653466953E+03 -0.26704854903E+04  0.27433557768E+04  0.50400001928E-02 0.  1.
       -1    1    3    3    0  502 -0.60561899552E+03  0.16653466953E+03 -0.34267073488E+03  0.71549381301E+03  0.50400001928E-02 0. -1.
</event>
<event>
 5   0  0.1824538E-04  0.1730279E+04  0.7818609E-02  0.8744281E-01
       -1   -1    0    0    0  501  0.00000000000E+00  0.00000000000E+00  0.12745502353E+04  0.12745502353E+04  0.50400001928E-02 0. -1.
        1   -1    0    0  501    0  0.00000000000E+00  0.00000000000E+00 -0.58723987220E+03  0.58723987223E+03  0.50400001928E-02 0.  1.
    10030    2    1    2    0    0  0.00000000000E+00  0.00000000000E+00  0.68731036306E+03  0.18617901075E+04  0.17302794194E+04 0.  0.
        3    1    3    3  502    0  0.34751704764E+03 -0.59711243972E+03 -0.21664860763E+03  0.72404971753E+03  0.10100000352E+00 0.  1.
       -3    1    3    3    0  502 -0.34751704764E+03  0.59711243972E+03  0.90395897069E+03  0.11377403900E+04  0.10100000352E+00 0. -1.
</event>
<event>
 5   0  0.3516723E-04  0.1713064E+04  0.7818609E-02  0.8753949E-01
       -2   -1    0    0    0  501  0.00000000000E+00  0.00000000000E+00  0.38350282558E+03  0.38350282559E+03  0.25500000920E-02 0. -1.
        2   -1    0    0  501    0  0.00000000000E+00  0.00000000000E+00 -0.19130151379E+04  0.19130151379E+04  0.25500000920E-02 0.  1.
    10030    2    1    2    0    0  0.00000000000E+00  0.00000000000E+00 -0.15295123123E+04  0.22965179634E+04  0.17130635841E+04 0.  0.
        1    1    3    3  502    0 -0.54484104401E+03  0.58068554960E+03 -0.34167432434E+03  0.86648070647E+03  0.50400001928E-02 0.  1.
       -1    1    3    3    0  502  0.54484104401E+03 -0.58068554960E+03 -0.11878379879E+04  0.14300372570E+04  0.50400001928E-02 0. -1.
</event>
<event>
 5   0  0.3678896E-04  0.1693030E+04  0.7818609E-02  0.8765350E-01
       -2   -1    0    0    0  501  0.00000000000E+00  0.00000000000E+00  0.44008246976E+03  0.44008246976E+03  0.25500000920E-02 0.  1.
        2   -1    0    0  501    0  0.00000000000E+00  0.00000000000E+00 -0.16283028248E+04  0.16283028248E+04  0.25500000920E-02 0. -1.
    10030    2    1    2    0    0  0.00000000000E+00  0.00000000000E+00 -0.11882203550E+04  0.20683852945E+04  0.16930298623E+04 0.  0.
        2    1    3    3  502    0  0.35815196633E+03  0.64575829581E+02  0.33963211164E+03  0.49778794683E+03  0.25500000920E-02 0.  1.
       -2    1    3    3    0  502 -0.35815196633E+03 -0.64575829581E+02 -0.15278524666E+04  0.15705973477E+04  0.25500000920E-02 0. -1.
</event>
<event>
 5   0  0.3605571E-04  0.1695719E+04  0.7818609E-02  0.8763810E-01
       -2   -1    0    0    0  501  0.00000000000E+00  0.00000000000E+00  0.58363639357E+03  0.58363639358E+03  0.25500000920E-02 0.  1.
        2   -1    0    0  501    0  0.00000000000E+00  0.00000000000E+00 -0.12317012190E+04  0.12317012190E+04  0.25500000920E-02 0. -1.
    10030    2    1    2    0    0  0.00000000000E+00  0.00000000000E+00 -0.64806482546E+03  0.18153376126E+04  0.16957189124E+04 0.  0.
        4    1    3    3  502    0  0.35306278685E+03 -0.61678466829E+03  0.17095548506E+03  0.73096104497E+03  0.12699999809E+01 0.  1.
       -4    1    3    3    0  502 -0.35306278685E+03  0.61678466829E+03 -0.81902031052E+03  0.10843765676E+04  0.12699999809E+01 0. -1.
</event>
<event>
 5   0  0.1920289E-04  0.1684815E+04  0.7818609E-02  0.8770072E-01
       -1   -1    0    0    0  501  0.00000000000E+00  0.00000000000E+00  0.61304449037E+03  0.61304449039E+03  0.50400001928E-02 0.  1.
        1   -1    0    0  501    0  0.00000000000E+00  0.00000000000E+00 -0.11575840900E+04  0.11575840901E+04  0.50400001928E-02 0. -1.
    10030    2    1    2    0    0  0.00000000000E+00  0.00000000000E+00 -0.54453959968E+03  0.17706285804E+04  0.16848151810E+04 0.  0.
        4    1    3    3  502    0  0.70168826935E+02  0.78618559321E+03 -0.58160412921E+03  0.98044705479E+03  0.12699999809E+01 0. -1.
       -4    1    3    3    0  502 -0.70168826935E+02 -0.78618559321E+03  0.37064529533E+02  0.79018152566E+03  0.12699999809E+01 0.  1.
</event>
<event>
 5   0  0.1930116E-04  0.1700986E+04  0.7818609E-02  0.8760802E-01
       -1   -1    0    0    0  501  0.00000000000E+00  0.00000000000E+00  0.59378241114E+03  0.59378241116E+03  0.50400001928E-02 0.  1.
        1   -1    0    0  501    0  0.00000000000E+00  0.00000000000E+00 -0.12181869481E+04  0.12181869481E+04  0.50400001928E-02 0. -1.
    10030    2    1    2    0    0  0.00000000000E+00  0.00000000000E+00 -0.62440453696E+03  0.18119693593E+04  0.17009855770E+04 0.  0.
        1    1    3    3  502    0  0.62094317167E+03  0.56030996722E+03 -0.14779392827E+03  0.84932957506E+03  0.50400001928E-02 0. -1.
       -1    1    3    3    0  502 -0.62094317167E+03 -0.56030996722E+03 -0.47661060869E+03  0.96263978422E+03  0.50400001928E-02 0.  1.
</event>
<event>
 5   0  0.3605571E-04  0.1754785E+04  0.7818609E-02  0.8730721E-01
        2   -1    0    0  501    0  0.00000000000E+00  0.00000000000E+00  0.86469226448E+03  0.86469226448E+03  0.25500000920E-02 0. -1.
       -2   -1    0    0    0  501  0.00000000000E+00  0.00000000000E+00 -0.89027900527E+03  0.89027900527E+03  0.25500000920E-02 0.  1.
    10030    2    1    2    0    0  0.00000000000E+00  0.00000000000E+00 -0.25586740789E+02  0.17549712698E+04  0.17547847379E+04 0.  0.
        4    1    3    3  502    0  0.12228141892E+02  0.60191797740E+03  0.62552284117E+03  0.86817925378E+03  0.12699999809E+01 0.  1.
       -4    1    3    3    0  502 -0.12228141892E+02 -0.60191797740E+03 -0.65110958196E+03  0.88679201597E+03  0.12699999809E+01 0. -1.
</event>
<event>
 5   0  0.3573262E-04  0.1709750E+04  0.7818609E-02  0.8755823E-01
        2   -1    0    0  501    0  0.00000000000E+00  0.00000000000E+00  0.19848106619E+04  0.19848106619E+04  0.25500000920E-02 0.  1.
       -2   -1    0    0    0  501  0.00000000000E+00  0.00000000000E+00 -0.36820190101E+03  0.36820190102E+03  0.25500000920E-02 0. -1.
    10030    2    1    2    0    0  0.00000000000E+00  0.00000000000E+00  0.16166087609E+04  0.23530125629E+04  0.17097497581E+04 0.  0.
        5    1    3    3  502    0 -0.15931354283E+03  0.34710425557E+03 -0.24424493936E+03  0.45336502905E+03  0.46999998093E+01 0. -1.
       -5    1    3    3    0  502  0.15931354283E+03 -0.34710425557E+03  0.18608537003E+04  0.18996475339E+04  0.46999998093E+01 0.  1.
</event>
<event>
 5   0  0.1893284E-04  0.1684194E+04  0.7818609E-02  0.8770431E-01
       -1   -1    0    0    0  501  0.00000000000E+00  0.00000000000E+00  0.62639209344E+03  0.62639209346E+03  0.50400001928E-02 0.  1.
        1   -1    0    0  501    0  0.00000000000E+00  0.00000000000E+00 -0.11320828198E+04  0.11320828198E+04  0.50400001928E-02 0. -1.
    10030    2    1    2    0    0  0.00000000000E+00  0.00000000000E+00 -0.50569072634E+03  0.17584749133E+04  0.16841944394E+04 0.  0.
        2    1    3    3  502    0 -0.26297509858E+01 -0.67478409198E+03 -0.77883700131E+03  0.10304986953E+04  0.25500000920E-02 0. -1.
       -2    1    3    3    0  502  0.26297509858E+01  0.67478409198E+03  0.27314627497E+03  0.72797621796E+03  0.25500000920E-02 0.  1.
</event>
<event>
 5   0  0.1824538E-04  0.1865890E+04  0.7818609E-02  0.8672024E-01
       -1   -1    0    0    0  501  0.00000000000E+00  0.00000000000E+00  0.54797763458E+03  0.54797763461E+03  0.50400001928E-02 0.  1.
        1   -1    0    0  501    0  0.00000000000E+00  0.00000000000E+00 -0.15883605120E+04  0.15883605120E+04  0.50400001928E-02 0. -1.
    10030    2    1    2    0    0  0.00000000000E+00  0.00000000000E+00 -0.10403828774E+04  0.21363381466E+04  0.18658896390E+04 0.  0.
        3    1    3    3  502    0 -0.48151805117E+03  0.16024945143E+03 -0.14165048595E+04  0.15046679194E+04  0.10100000352E+00 0. -1.
       -3    1    3    3    0  502  0.48151805117E+03 -0.16024945143E+03  0.37612198215E+03  0.63167022721E+03  0.10100000352E+00 0.  1.
</event>
<event>
 5   0  0.3678896E-04  0.1672845E+04  0.7818609E-02  0.8777005E-01
        2   -1    0    0  501    0  0.00000000000E+00  0.00000000000E+00  0.24374277833E+04  0.24374277833E+04  0.25500000920E-02 0. -1.
       -2   -1    0    0    0  501  0.00000000000E+00  0.00000000000E+00 -0.28702490508E+03  0.28702490509E+03  0.25500000920E-02 0.  1.
    10030    2    1    2    0    0  0.00000000000E+00  0.00000000000E+00  0.21504028783E+04  0.27244526884E+04  0.16728448561E+04 0.  0.
        2    1    3    3  502    0  0.30396471498E+03  0.59512750001E+03  0.25596241161E+03  0.71560327373E+03  0.25500000920E-02 0.  1.
       -2    1    3    3    0  502 -0.30396471498E+03 -0.59512750001E+03  0.18944404667E+04  0.20088494147E+04  0.25500000920E-02 0. -1.
</event>
<event>
 5   0  0.3605571E-04  0.1727754E+04  0.7818609E-02  0.8745691E-01
       -2   -1    0    0    0  501  0.00000000000E+00  0.00000000000E+00  0.29170307529E+03  0.29170307531E+03  0.25500000920E-02 0.  1.
        2   -1    0    0  501    0  0.00000000000E+00  0.00000000000E+00 -0.25583678413E+04  0.25583678413E+04  0.25500000920E-02 0. -1.
    10030    2    1    2    0    0  0.00000000000E+00  0.00000000000E+00 -0.22666647660E+04  0.28500709166E+04  0.17277543425E+04 0.  0.
        4    1    3    3  502    0 -0.22922670181E+03  0.79513672325E+03 -0.15423981137E+04  0.17503659171E+04  0.12699999809E+01 0.  1.
       -4    1    3    3    0  502  0.22922670181E+03 -0.79513672325E+03 -0.72426665223E+03  0.10997049995E+04  0.12699999809E+01 0. -1.
</event>
<event>
 5   0  0.1930116E-04  0.1673045E+04  0.7818609E-02  0.8776889E-01
       -1   -1    0    0    0  501  0.00000000000E+00  0.00000000000E+00  0.70131062742E+03  0.70131062743E+03  0.50400001928E-02 0. -1.
        1   -1    0    0  501    0  0.00000000000E+00  0.00000000000E+00 -0.99780255988E+03  0.99780255990E+03  0.50400001928E-02 0.  1.
    10030    2    1    2    0    0  0.00000000000E+00  0.00000000000E+00 -0.29649193247E+03  0.16991131873E+04  0.16730445772E+04 0.  0.
        1    1    3    3  502    0  0.14925991781E+03 -0.72432730067E+03  0.24879443550E+03  0.78027381907E+03  0.50400001928E-02 0. -1.
       -1    1    3    3    0  502 -0.14925991781E+03  0.72432730067E+03 -0.54528636797E+03  0.91883936827E+03  0.50400001928E-02 0.  1.
</event>
<event>
 5   0  0.1930116E-04  0.1690760E+04  0.7818609E-02  0.8766652E-01
        1   -1    0    0  501    0  0.00000000000E+00  0.00000000000E+00  0.60872990664E+03  0.60872990666E+03  0.50400001928E-02 0.  1.
       -1   -1    0    0    0  501  0.00000000000E+00  0.00000000000E+00 -0.11740301191E+04  0.11740301191E+04  0.50400001928E-02 0. -1.
    10030    2    1    2    0    0  0.00000000000E+00  0.00000000000E+00 -0.56530021247E+03  0.17827600258E+04  0.16907598822E+04 0.  0.
        1    1    3    3  502    0  0.49390644747E+03 -0.48272264182E+03  0.23142650248E+03  0.72837006655E+03  0.50400001928E-02 0.  1.
       -1    1    3    3    0  502 -0.49390644747E+03  0.48272264182E+03 -0.79672671495E+03  0.10543899592E+04  0.50400001928E-02 0. -1.
</event>
<event>
 5   0  0.3574092E-04  0.1712725E+04  0.7818609E-02  0.8754140E-01
        2   -1    0    0  501    0  0.00000000000E+00  0.00000000000E+00  0.21457240688E+04  0.21457240688E+04  0.25500000920E-02 0. -1.
       -2   -1    0    0    0  501  0.00000000000E+00  0.00000000000E+00 -0.34177599694E+03  0.34177599695E+03  0.25500000920E-02 0.  1.
    10030    2    1    2    0    0  0.00000000000E+00  0.00000000000E+00  0.18039480719E+04  0.24875000658E+04  0.17127252936E+04 0.  0.
        3    1    3    3  502    0 -0.15770637622E+03 -0.30519159947E+03  0.20412640469E+04  0.20699691140E+04  0.10100000352E+00 0. -1.
       -3    1    3    3    0  502  0.15770637622E+03  0.30519159947E+03 -0.23731597503E+03  0.41753095178E+03  0.10100000352E+00 0.  1.
</event>
<event>
 5   0  0.1920289E-04  0.1693510E+04  0.7818609E-02  0.8765074E-01
        1   -1    0    0  501    0  0.00000000000E+00  0.00000000000E+00  0.12013562715E+04  0.12013562715E+04  0.50400001928E-02 0. -1.
       -1   -1    0    0    0  501  0.00000000000E+00  0.00000000000E+00 -0.59682062142E+03  0.59682062144E+03  0.50400001928E-02 0.  1.
    10030    2    1    2    0    0  0.00000000000E+00  0.00000000000E+00  0.60453565009E+03  0.17981768930E+04  0.16935101966E+04 0.  0.
        4    1    3    3  502    0 -0.59898532556E+03 -0.53126363182E+03  0.96099079265E+01  0.80069871360E+03  0.12699999809E+01 0.  1.
       -4    1    3    3    0  502  0.59898532556E+03  0.53126363182E+03  0.59492574216E+03  0.99747817936E+03  0.12699999809E+01 0. -1.
</event>
<event>
 5   0  0.1824538E-04  0.1718946E+04  0.7818609E-02  0.8750632E-01
        1   -1    0    0  501    0  0.00000000000E+00  0.00000000000E+00  0.96541791294E+03  0.96541791296E+03  0.50400001928E-02 0.  1.
       -1   -1    0    0    0  501  0.00000000000E+00  0.00000000000E+00 -0.76515484806E+03  0.76515484807E+03  0.50400001928E-02 0. -1.
    10030    2    1    2    0    0  0.00000000000E+00  0.00000000000E+00  0.20026306489E+03  0.17305727610E+04  0.17189464174E+04 0.  0.
        3    1    3    3  502    0 -0.27575318376E+03 -0.22659606513E+03  0.88728202978E+03  0.95637597505E+03  0.10100000352E+00 0.  1.
       -3    1    3    3    0  502  0.27575318376E+03  0.22659606513E+03 -0.68701896489E+03  0.77419678597E+03  0.10100000352E+00 0. -1.
</event>
<event>
 5   0  0.1930116E-04  0.1706367E+04  0.7818609E-02  0.8757741E-01
       -1   -1    0    0    0  501  0.00000000000E+00  0.00000000000E+00  0.16405201922E+04  0.16405201922E+04  0.50400001928E-02 0. -1.
        1   -1    0    0  501    0  0.00000000000E+00  0.00000000000E+00 -0.44371408084E+03  0.44371408087E+03  0.50400001928E-02 0.  1.
    10030    2    1    2    0    0  0.00000000000E+00  0.00000000000E+00  0.11968061114E+04  0.20842342731E+04  0.17063667944E+04 0.  0.
        1    1    3    3  502    0  0.18092902797E+03  0.70410983875E+02 -0.41637416140E+03  0.45941317147E+03  0.50400001928E-02 0.  1.
       -1    1    3    3    0  502 -0.18092902797E+03 -0.70410983875E+02  0.16131802728E+04  0.16248211016E+04  0.50400001928E-02 0. -1.
</event>
<event>
 5   0  0.1824538E-04  0.1672968E+04  0.7818609E-02  0.8776934E-01
        1   -1    0    0  501    0  0.00000000000E+00  0.00000000000E+00  0.46263572032E+03  0.46263572034E+03  0.50400001928E-02 0. -1.
       -1   -1    0    0    0  501  0.00000000000E+00  0.00000000000E+00 -0.15124329030E+04  0.15124329030E+04  0.50400001928E-02 0.  1.
    10030    2    1    2    0    0  0.00000000000E+00  0.00000000000E+00 -0.10497971827E+04  0.19750686234E+04  0.16729680040E+04 0.  0.
        3    1    3    3  502    0  0.35730989348E+03  0.34702535635E+03  0.26847112089E+03  0.56583894430E+03  0.10100000352E+00 0. -1.
       -3    1    3    3    0  502 -0.35730989348E+03 -0.34702535635E+03 -0.13182683036E+04  0.14092296791E+04  0.10100000352E+00 0.  1.
</event>
<event>
 5   0  0.3573262E-04  0.1705118E+04  0.7818609E-02  0.8758450E-01
        2   -1    0    0  501    0  0.00000000000E+00  0.00000000000E+00  0.42743393594E+03  0.42743393594E+03  0.25500000920E-02 0.  1.
       -2   -1    0    0    0  501  0.00000000000E+00  0.00000000000E+00 -0.17005136712E+04  0.17005136712E+04  0.25500000920E-02 0. -1.
    10030    2    1    2    0    0  0.00000000000E+00  0.00000000000E+00 -0.12730797352E+04  0.21279476071E+04  0.17051184728E+04 0.  0.
        5    1    3    3  502    0 -0.79699905027E+03 -0.28321522228E+03 -0.76988550798E+03  0.11437500311E+04  0.46999998093E+01 0. -1.
       -5    1    3    3    0  502  0.79699905027E+03  0.28321522228E+03 -0.50319422724E+03  0.98419757599E+03  0.46999998093E+01 0.  1.
</event>
<event>
 5   0  0.1920289E-04  0.1678008E+04  0.7818609E-02  0.8774008E-01
        1   -1    0    0  501    0  0.00000000000E+00  0.00000000000E+00  0.69433465527E+03  0.69433465529E+03  0.50400001928E-02 0. -1.
       -1   -1    0    0    0  501  0.00000000000E+00  0.00000000000E+00 -0.10138157394E+04  0.10138157394E+04  0.50400001928E-02 0.  1.
    10030    2    1    2    0    0  0.00000000000E+00  0.00000000000E+00 -0.31948108410E+03  0.17081503947E+04  0.16780076304E+04 0.  0.
        4    1    3    3  502    0  0.59940162093E+02 -0.82792551574E+02  0.68797204323E+03  0.69552467591E+03  0.12699999809E+01 0. -1.
       -4    1    3    3    0  502 -0.59940162093E+02  0.82792551574E+02 -0.10074531273E+04  0.10126257188E+04  0.12699999809E+01 0.  1.
</event>
<event>
 5   0  0.1930116E-04  0.1499552E+04  0.7818609E-02  0.8884751E-01
        1   -1    0    0  501    0  0.00000000000E+00  0.00000000000E+00  0.10001612277E+04  0.10001612277E+04  0.50400001928E-02 0. -1.
       -1   -1    0    0    0  501  0.00000000000E+00  0.00000000000E+00 -0.56207329910E+03  0.56207329912E+03  0.50400001928E-02 0.  1.
    10030    2    1    2    0    0  0.00000000000E+00  0.00000000000E+00  0.43808792863E+03  0.15622345269E+04  0.14995518276E+04 0.  0.
        1    1    3    3  502    0  0.44296265487E+03 -0.82341865731E+02  0.84340165189E+03  0.95620209313E+03  0.50400001928E-02 0. -1.
       -1    1    3    3    0  502 -0.44296265487E+03  0.82341865731E+02 -0.40531372326E+03  0.60603243374E+03  0.50400001928E-02 0.  1.
</event>
<event>
 5   0  0.1824538E-04  0.1739669E+04  0.7818609E-02  0.8739057E-01
        1   -1    0    0  501    0  0.00000000000E+00  0.00000000000E+00  0.60273393193E+03  0.60273393195E+03  0.50400001928E-02 0. -1.
       -1   -1    0    0    0  501  0.00000000000E+00  0.00000000000E+00 -0.12553006961E+04  0.12553006961E+04  0.50400001928E-02 0.  1.
    10030    2    1    2    0    0  0.00000000000E+00  0.00000000000E+00 -0.65256676415E+03  0.18580346280E+04  0.17396693069E+04 0.  0.
        3    1    3    3  502    0  0.49513866930E+03  0.66789322488E+03 -0.53214716181E+02  0.83311192399E+03  0.10100000352E+00 0.  1.
       -3    1    3    3    0  502 -0.49513866930E+03 -0.66789322488E+03 -0.59935204797E+03  0.10249227041E+04  0.10100000352E+00 0. -1.
</event>
<event>
 5   0  0.3573262E-04  0.1634074E+04  0.7818609E-02  0.8799884E-01
       -2   -1    0    0    0  501  0.00000000000E+00  0.00000000000E+00  0.60184023455E+03  0.60184023455E+03  0.25500000920E-02 0. -1.
        2   -1    0    0  501    0  0.00000000000E+00  0.00000000000E+00 -0.11091799311E+04  0.11091799311E+04  0.25500000920E-02 0.  1.
    10030    2    1    2    0    0  0.00000000000E+00  0.00000000000E+00 -0.50733969659E+03  0.17110201657E+04  0.16340735723E+04 0.  0.
        5    1    3    3  502    0  0.27080576962E+03 -0.34510915108E+03  0.46805538735E+03  0.64150917893E+03  0.46999998093E+01 0. -1.
       -5    1    3    3    0  502 -0.27080576962E+03  0.34510915108E+03 -0.97539508395E+03  0.10695109868E+04  0.46999998093E+01 0.  1.
</event>
<event>
 5   0  0.3605571E-04  0.1671102E+04  0.7818609E-02  0.8778020E-01
        2   -1    0    0  501    0  0.00000000000E+00  0.00000000000E+00  0.23884970443E+04  0.23884970443E+04  0.25500000920E-02 0. -1.
       -2   -1    0    0    0  501  0.00000000000E+00  0.00000000000E+00 -0.29229472832E+03  0.29229472833E+03  0.25500000920E-02 0.  1.
    10030    2    1    2    0    0  0.00000000000E+00  0.00000000000E+00  0.20962023160E+04  0.26807917727E+04  0.16711015465E+04 0.  0.
        4    1    3    3  502    0  0.67310287148E+02 -0.15000618643E+03  0.23622888747E+04  0.23680039846E+04  0.12699999809E+01 0. -1.
       -4    1    3    3    0  502 -0.67310287148E+02  0.15000618643E+03 -0.26608655870E+03  0.31278778804E+03  0.12699999809E+01 0.  1.
</event>
<event>
 5   0  0.1815663E-04  0.1694741E+04  0.7818609E-02  0.8764369E-01
        1   -1    0    0  501    0  0.00000000000E+00  0.00000000000E+00  0.15349062787E+04  0.15349062787E+04  0.50400001928E-02 0. -1.
       -1   -1    0    0    0  501  0.00000000000E+00  0.00000000000E+00 -0.46780497600E+03  0.46780497602E+03  0.50400001928E-02 0.  1.
    10030    2    1    2    0    0  0.00000000000E+00  0.00000000000E+00  0.10671013027E+04  0.20027112547E+04  0.16947410361E+04 0.  0.
        5    1    3    3  502    0 -0.65319343007E+03 -0.37312422467E+03  0.72631909305E+02  0.75576506162E+03  0.46999998093E+01 0. -1.
       -5    1    3    3    0  502  0.65319343007E+03  0.37312422467E+03  0.99446939339E+03  0.12469461931E+04  0.46999998093E+01 0.  1.
</event>
<event>
 5   0  0.3605571E-04  0.1704586E+04  0.7818609E-02  0.8758753E-01
        2   -1    0    0  501    0  0.00000000000E+00  0.00000000000E+00  0.16143041236E+04  0.16143041236E+04  0.25500000920E-02 0. -1.
       -2   -1    0    0    0  501  0.00000000000E+00  0.00000000000E+00 -0.44997923485E+03  0.44997923486E+03  0.25500000920E-02 0.  1.
    10030    2    1    2    0    0  0.00000000000E+00  0.00000000000E+00  0.11643248888E+04  0.20642833585E+04  0.17045859725E+04 0.  0.
        4    1    3    3  502    0  0.13932616619E+03  0.82962783939E+03  0.41652469862E+03  0.93871644810E+03  0.12699999809E+01 0.  1.
       -4    1    3    3    0  502 -0.13932616619E+03 -0.82962783939E+03  0.74780019017E+03  0.11255669104E+04  0.12699999809E+01 0. -1.
</event>
<event>
 5   0  0.1824538E-04  0.1686722E+04  0.7818609E-02  0.8768974E-01
       -1   -1    0    0    0  501  0.00000000000E+00  0.00000000000E+00  0.55425273096E+03  0.55425273098E+03  0.50400001928E-02 0.  1.
        1   -1    0    0  501    0  0.00000000000E+00  0.00000000000E+00 -0.12832729469E+04  0.12832729469E+04  0.50400001928E-02 0. -1.
    10030    2    1    2    0    0  0.00000000000E+00  0.00000000000E+00 -0.72902021595E+03  0.18375256779E+04  0.16867217144E+04 0.  0.
        3    1    3    3  502    0  0.72144148760E+03 -0.40938696738E+03 -0.53037924404E+03  0.98456978513E+03  0.10100000352E+00 0.  1.
       -3    1    3    3    0  502 -0.72144148760E+03  0.40938696738E+03 -0.19864097191E+03  0.85295589277E+03  0.10100000352E+00 0. -1.
</event>
<event>
 5   0  0.3678896E-04  0.1701299E+04  0.7818609E-02  0.8760624E-01
        2   -1    0    0  501    0  0.00000000000E+00  0.00000000000E+00  0.76095706067E+03  0.76095706067E+03  0.25500000920E-02 0. -1.
       -2   -1    0    0    0  501  0.00000000000E+00  0.00000000000E+00 -0.95091351940E+03  0.95091351940E+03  0.25500000920E-02 0.  1.
    10030    2    1    2    0    0  0.00000000000E+00  0.00000000000E+00 -0.18995645873E+03  0.17118705801E+04  0.17012987471E+04 0.  0.
        2    1    3    3  502    0 -0.43271157932E+03  0.71490600051E+03  0.64989086029E+02  0.83818463464E+03  0.25500000920E-02 0.  1.
       -2    1    3    3    0  502  0.43271157932E+03 -0.71490600051E+03 -0.25494554476E+03  0.87368594543E+03  0.25500000920E-02 0. -1.
</event>
<event>
 5   0  0.3516723E-04  0.1667383E+04  0.7818609E-02  0.8780189E-01
        2   -1    0    0  501    0  0.00000000000E+00  0.00000000000E+00  0.11432191772E+04  0.11432191772E+04  0.25500000920E-02 0. -1.
       -2   -1    0    0    0  501  0.00000000000E+00  0.00000000000E+00 -0.60796855989E+03  0.60796855990E+03  0.25500000920E-02 0.  1.
    10030    2    1    2    0    0  0.00000000000E+00  0.00000000000E+00  0.53525061731E+03  0.17511877371E+04  0.16673827597E+04 0.  0.
        1    1    3    3  502    0  0.10341206764E+03  0.79608599282E+03  0.50386258363E+03  0.94779980318E+03  0.50400001928E-02 0. -1.
       -1    1    3    3    0  502 -0.10341206764E+03 -0.79608599282E+03  0.31388033678E+02  0.80338793393E+03  0.50400001928E-02 0.  1.
</event>
<event>
 5   0  0.1920289E-04  0.1687805E+04  0.7818609E-02  0.8768350E-01
        1   -1    0    0  501    0  0.00000000000E+00  0.00000000000E+00  0.12977054004E+04  0.12977054004E+04  0.50400001928E-02 0. -1.
       -1   -1    0    0    0  501  0.00000000000E+00  0.00000000000E+00 -0.54879284971E+03  0.54879284973E+03  0.50400001928E-02 0.  1.
    10030    2    1    2    0    0  0.00000000000E+00  0.00000000000E+00  0.74891255067E+03  0.18464982501E+04  0.16878050181E+04 0.  0.
        4    1    3    3  502    0 -0.31770858819E+03  0.58330983339E+03  0.94395902510E+03  0.11542310699E+04  0.12699999809E+01 0. -1.
       -4    1    3    3    0  502  0.31770858819E+03 -0.58330983339E+03 -0.19504647442E+03  0.69226718023E+03  0.12699999809E+01 0.  1.
</event>
<event>
 5   0  0.3516723E-04  0.1690961E+04  0.7818609E-02  0.8766537E-01
        2   -1    0    0  501    0  0.00000000000E+00  0.00000000000E+00  0.14849495002E+04  0.14849495002E+04  0.25500000920E-02 0. -1.
       -2   -1    0    0    0  501  0.00000000000E+00  0.00000000000E+00 -0.48138811030E+03  0.48138811031E+03  0.25500000920E-02 0.  1.
    10030    2    1    2    0    0  0.00000000000E+00  0.00000000000E+00  0.10035613899E+04  0.19663376106E+04  0.16909607137E+04 0.  0.
        1    1    3    3  502    0  0.33011550523E+03 -0.13478456110E+03 -0.38967582005E+03  0.52819538947E+03  0.50400001928E-02 0.  1.
       -1    1    3    3    0  502 -0.33011550523E+03  0.13478456110E+03  0.13932372100E+04  0.14381422211E+04  0.50400001928E-02 0. -1.
</event>
<event>
 5   0  0.1893284E-04  0.1672013E+04  0.7818609E-02  0.8777489E-01
        1   -1    0    0  501    0  0.00000000000E+00  0.00000000000E+00  0.56203367897E+03  0.56203367899E+03  0.50400001928E-02 0. -1.
       -1   -1    0    0    0  501  0.00000000000E+00  0.00000000000E+00 -0.12435323975E+04  0.12435323975E+04  0.50400001928E-02 0.  1.
    10030    2    1    2    0    0  0.00000000000E+00  0.00000000000E+00 -0.68149871854E+03  0.18055660765E+04  0.16720132635E+04 0.  0.
        2    1    3    3  502    0  0.23491595418E+03  0.47037187112E+03  0.36114632945E+03  0.63785725202E+03  0.25500000920E-02 0.  1.
       -2    1    3    3    0  502 -0.23491595418E+03 -0.47037187112E+03 -0.10426450480E+04  0.11677088245E+04  0.25500000920E-02 0. -1.
</event>
<event>
 5   0  0.3605571E-04  0.1670378E+04  0.7818609E-02  0.8778442E-01
        2   -1    0    0  501    0  0.00000000000E+00  0.00000000000E+00  0.20681984244E+04  0.20681984244E+04  0.25500000920E-02 0.  1.
       -2   -1    0    0    0  501  0.00000000000E+00  0.00000000000E+00 -0.33726953957E+03  0.33726953958E+03  0.25500000920E-02 0. -1.
    10030    2    1    2    0    0  0.00000000000E+00  0.00000000000E+00  0.17309288848E+04  0.24054679640E+04  0.16703775985E+04 0.  0.
        4    1    3    3  502    0 -0.34917757284E+03 -0.60492208391E+03  0.15248911674E+04  0.16772448808E+04  0.12699999809E+01 0.  1.
       -4    1    3    3    0  502  0.34917757284E+03  0.60492208391E+03  0.20603771747E+03  0.72822308319E+03  0.12699999809E+01 0. -1.
</event>
<event>
 5   0  0.3574092E-04  0.1484000E+04  0.7818609E-02  0.8895163E-01
        2   -1    0    0  501    0  0.00000000000E+00  0.00000000000E+00  0.14340292628E+04  0.14340292628E+04  0.25500000920E-02 0.  1.
       -2   -1    0    0    0  501  0.00000000000E+00  0.00000000000E+00 -0.38392823413E+03  0.38392823414E+03  0.25500000920E-02 0. -1.
    10030    2    1    2    0    0  0.00000000000E+00  0.00000000000E+00  0.10501010286E+04  0.18179574969E+04  0.14840004347E+04 0.  0.
        3    1    3    3  502    0  0.13214963076E+03 -0.17066121557E+03  0.13947203869E+04  0.14113234013E+04  0.10100000352E+00 0.  1.
       -3    1    3    3    0  502 -0.13214963076E+03  0.17066121557E+03 -0.34461935823E+03  0.40663409557E+03  0.10100000352E+00 0. -1.
</event>
<event>
 5   0  0.1893284E-04  0.1693918E+04  0.7818609E-02  0.8764841E-01
       -1   -1    0    0    0  501  0.00000000000E+00  0.00000000000E+00  0.85815709870E+03  0.85815709872E+03  0.50400001928E-02 0. -1.
        1   -1    0    0  501    0  0.00000000000E+00  0.00000000000E+00 -0.83590694242E+03  0.83590694244E+03  0.50400001928E-02 0.  1.
    10030    2    1    2    0    0  0.00000000000E+00  0.00000000000E+00  0.22250156281E+02  0.16940640412E+04  0.16939179160E+04 0.  0.
        2    1    3    3  502    0 -0.15940373433E+03  0.81687768477E+03 -0.14586226390E+03  0.84497011925E+03  0.25500000920E-02 0. -1.
       -2    1    3    3    0  502  0.15940373433E+03 -0.81687768477E+03  0.16811242019E+03  0.84909392191E+03  0.25500000920E-02 0.  1.
</event>
<event>
 5   0  0.1920289E-04  0.1687455E+04  0.7818609E-02  0.8768552E-01
       -1   -1    0    0    0  501  0.00000000000E+00  0.00000000000E+00  0.11384753755E+04  0.11384753755E+04  0.50400001928E-02 0.  1.
        1   -1    0    0  501    0  0.00000000000E+00  0.00000000000E+00 -0.62528885691E+03  0.62528885693E+03  0.50400001928E-02 0. -1.
    10030    2    1    2    0    0  0.00000000000E+00  0.00000000000E+00  0.51318651861E+03  0.17637642325E+04  0.16874548482E+04 0.  0.
        4    1    3    3  502    0 -0.55165451247E+03 -0.38962928444E+03  0.78517027172E+03  0.10356773865E+04  0.12699999809E+01 0.  1.
       -4    1    3    3    0  502  0.55165451247E+03  0.38962928444E+03 -0.27198375311E+03  0.72808684597E+03  0.12699999809E+01 0. -1.
</event>
<event>
 5   0  0.1824538E-04  0.1618865E+04  0.7818609E-02  0.8809042E-01
        1   -1    0    0  501    0  0.00000000000E+00  0.00000000000E+00  0.11752517815E+04  0.11752517815E+04  0.50400001928E-02 0. -1.
       -1   -1    0    0    0  501  0.00000000000E+00  0.00000000000E+00 -0.55748140998E+03  0.55748141000E+03  0.50400001928E-02 0.  1.
    10030    2    1    2    0    0  0.00000000000E+00  0.00000000000E+00  0.61777037154E+03  0.17327331915E+04  0.16188650596E+04 0.  0.
        3    1    3    3  502    0 -0.70819594528E+03 -0.37572666344E+03  0.18936627124E+03  0.82375458568E+03  0.10100000352E+00 0.  1.
       -3    1    3    3    0  502  0.70819594528E+03  0.37572666344E+03  0.42840410030E+03  0.90897860585E+03  0.10100000352E+00 0. -1.
</event>
<event>
 5   0  0.1824538E-04  0.1702296E+04  0.7818609E-02  0.8760056E-01
        1   -1    0    0  501    0  0.00000000000E+00  0.00000000000E+00  0.49129190403E+03  0.49129190405E+03  0.50400001928E-02 0.  1.
       -1   -1    0    0    0  501  0.00000000000E+00  0.00000000000E+00 -0.14745881475E+04  0.14745881475E+04  0.50400001928E-02 0. -1.
    10030    2    1    2    0    0  0.00000000000E+00  0.00000000000E+00 -0.98329624344E+03  0.19658800515E+04  0.17022963534E+04 0.  0.
        3    1    3    3  502    0 -0.45699992431E+03  0.31684718340E+03  0.25249567957E+03  0.61073328618E+03  0.10100000352E+00 0.  1.
       -3    1    3    3    0  502  0.45699992431E+03 -0.31684718340E+03 -0.12357919230E+04  0.13551467653E+04  0.10100000352E+00 0. -1.
</event>
<event>
 5   0  0.3574092E-04  0.1710524E+04  0.7818609E-02  0.8755385E-01
        2   -1    0    0  501    0  0.00000000000E+00  0.00000000000E+00  0.87969075653E+03  0.87969075653E+03  0.25500000920E-02 0.  1.
       -2   -1    0    0    0  501  0.00000000000E+00  0.00000000000E+00 -0.83151132315E+03  0.83151132315E+03  0.25500000920E-02 0. -1.
    10030    2    1    2    0    0  0.00000000000E+00  0.00000000000E+00  0.48179433378E+02  0.17112020797E+04  0.17105236917E+04 0.  0.
        3    1    3    3  502    0  0.49569805151E+03  0.63286295990E+03  0.31616565927E+03  0.86382452998E+03  0.10100000352E+00 0.  1.
       -3    1    3    3    0  502 -0.49569805151E+03 -0.63286295990E+03 -0.26798622589E+03  0.84737754971E+03  0.10100000352E+00 0. -1.
</event>
<event>
 5   0  0.3573262E-04  0.1772240E+04  0.7818609E-02  0.8721203E-01
        2   -1    0    0  501    0  0.00000000000E+00  0.00000000000E+00  0.12711652245E+04  0.12711652245E+04  0.25500000920E-02 0. -1.
       -2   -1    0    0    0  501  0.00000000000E+00  0.00000000000E+00 -0.61770804238E+03  0.61770804239E+03  0.25500000920E-02 0.  1.
    10030    2    1    2    0    0  0.00000000000E+00  0.00000000000E+00  0.65345718210E+03  0.18888732669E+04  0.17722403701E+04 0.  0.
        5    1    3    3  502    0 -0.15546510657E+03 -0.20896671931E+03  0.12294336333E+04  0.12567281479E+04  0.46999998093E+01 0. -1.
       -5    1    3    3    0  502  0.15546510657E+03  0.20896671931E+03 -0.57597645116E+03  0.63214511896E+03  0.46999998093E+01 0.  1.
</event>
<event>
 5   0  0.3678896E-04  0.1664243E+04  0.7818609E-02  0.8782025E-01
       -2   -1    0    0    0  501  0.00000000000E+00  0.00000000000E+00  0.47690613363E+03  0.47690613363E+03  0.25500000920E-02 0.  1.
        2   -1    0    0  501    0  0.00000000000E+00  0.00000000000E+00 -0.14519137208E+04  0.14519137208E+04  0.25500000920E-02 0. -1.
    10030    2    1    2    0    0  0.00000000000E+00  0.00000000000E+00 -0.97500758713E+03  0.19288198544E+04  0.16642434424E+04 0.  0.
        2    1    3    3  502    0  0.17670588048E+03 -0.15228785009E+03 -0.14132427862E+04  0.14323657808E+04  0.25500000920E-02 0. -1.
       -2    1    3    3    0  502 -0.17670588048E+03  0.15228785009E+03  0.43823519902E+03  0.49645407356E+03  0.25500000920E-02 0.  1.
</event>
<event>
 5   0  0.1930116E-04  0.1683490E+04  0.7818609E-02  0.8770837E-01
        1   -1    0    0  501    0  0.00000000000E+00  0.00000000000E+00  0.13066765175E+04  0.13066765175E+04  0.50400001928E-02 0. -1.
       -1   -1    0    0    0  501  0.00000000000E+00  0.00000000000E+00 -0.54224189414E+03  0.54224189416E+03  0.50400001928E-02 0.  1.
    10030    2    1    2    0    0  0.00000000000E+00  0.00000000000E+00  0.76443462333E+03  0.18489184116E+04  0.16834901246E+04 0.  0.
        1    1    3    3  502    0 -0.60045270466E+03 -0.35344217111E+02 -0.26449399306E+03  0.65707665961E+03  0.50400001928E-02 0.  1.
       -1    1    3    3    0  502  0.60045270466E+03  0.35344217111E+02  0.10289286164E+04  0.11918417520E+04  0.50400001928E-02 0. -1.
</event>
<event>
 5   0  0.3678896E-04  0.1651064E+04  0.7818609E-02  0.8789777E-01
       -2   -1    0    0    0  501  0.00000000000E+00  0.00000000000E+00  0.13544164075E+04  0.13544164075E+04  0.25500000920E-02 0. -1.
        2   -1    0    0  501    0  0.00000000000E+00  0.00000000000E+00 -0.50317104261E+03  0.50317104261E+03  0.25500000920E-02 0.  1.
    10030    2    1    2    0    0  0.00000000000E+00  0.00000000000E+00  0.85124536487E+03  0.18575874501E+04  0.16510640398E+04 0.  0.
        2    1    3    3  502    0 -0.86202479239E+02  0.59931351443E+03  0.10569704050E+04  0.12181108296E+04  0.25500000920E-02 0. -1.
       -2    1    3    3    0  502  0.86202479239E+02 -0.59931351443E+03 -0.20572504018E+03  0.63947662050E+03  0.25500000920E-02 0.  1.
</event>
<event>
 5   0  0.1930116E-04  0.1705091E+04  0.7818609E-02  0.8758466E-01
        1   -1    0    0  501    0  0.00000000000E+00  0.00000000000E+00  0.67185984737E+03  0.67185984739E+03  0.50400001928E-02 0. -1.
       -1   -1    0    0    0  501  0.00000000000E+00  0.00000000000E+00 -0.10818237431E+04  0.10818237431E+04  0.50400001928E-02 0.  1.
    10030    2    1    2    0    0  0.00000000000E+00  0.00000000000E+00 -0.40996389568E+03  0.17536835905E+04  0.17050911236E+04 0.  0.
        1    1    3    3  502    0 -0.23946362143E+03  0.15876384576E+03  0.62056676669E+03  0.68385078537E+03  0.50400001928E-02 0. -1.
       -1    1    3    3    0  502  0.23946362143E+03 -0.15876384576E+03 -0.10305306624E+04  0.10698328051E+04  0.50400001928E-02 0.  1.
</event>
<event>
 5   0  0.1815663E-04  0.1603131E+04  0.7818609E-02  0.8818627E-01
        1   -1    0    0  501    0  0.00000000000E+00  0.00000000000E+00  0.16428438441E+04  0.16428438441E+04  0.50400001928E-02 0. -1.
       -1   -1    0    0    0  501  0.00000000000E+00  0.00000000000E+00 -0.39109476128E+03  0.39109476131E+03  0.50400001928E-02 0.  1.
    10030    2    1    2    0    0  0.00000000000E+00  0.00000000000E+00  0.12517490828E+04  0.20339386054E+04  0.16031314619E+04 0.  0.
        5    1    3    3  502    0 -0.17766805102E+03  0.98208371373E+02  0.16096708103E+04  0.16224281273E+04  0.46999998093E+01 0. -1.
       -5    1    3    3    0  502  0.17766805102E+03 -0.98208371373E+02 -0.35792172753E+03  0.41151047812E+03  0.46999998093E+01 0.  1.
</event>
<event>
 5   0  0.3605571E-04  0.1704539E+04  0.7818609E-02  0.8758780E-01
       -2   -1    0    0    0  501  0.00000000000E+00  0.00000000000E+00  0.41896101950E+03  0.41896101951E+03  0.25500000920E-02 0.  1.
        2   -1    0    0  501    0  0.00000000000E+00  0.00000000000E+00 -0.17337244140E+04  0.17337244140E+04  0.25500000920E-02 0. -1.
    10030    2    1    2    0    0  0.00000000000E+00  0.00000000000E+00 -0.13147633945E+04  0.21526854335E+04  0.17045385863E+04 0.  0.
        4    1    3    3  502    0  0.78680746626E+03  0.46972364741E+02 -0.10667858535E+04  0.13263883527E+04  0.12699999809E+01 0. -1.
       -4    1    3    3    0  502 -0.78680746626E+03 -0.46972364741E+02 -0.24797754096E+03  0.82629708079E+03  0.12699999809E+01 0.  1.
</event>
<event>
 5   0  0.1824538E-04  0.1725095E+04  0.7818609E-02  0.8747180E-01
        1   -1    0    0  501    0  0.00000000000E+00  0.00000000000E+00  0.49407049776E+03  0.49407049778E+03  0.50400001928E-02 0. -1.
       -1   -1    0    0    0  501  0.00000000000E+00  0.00000000000E+00 -0.15058334874E+04  0.15058334874E+04  0.50400001928E-02 0.  1.
    10030    2    1    2    0    0  0.00000000000E+00  0.00000000000E+00 -0.10117629897E+04  0.19999039852E+04  0.17250946649E+04 0.  0.
        3    1    3    3  502    0  0.77350897074E+03  0.34598762185E+03 -0.31907810236E+03  0.90544707625E+03  0.10100000352E+00 0.  1.
       -3    1    3    3    0  502 -0.77350897074E+03 -0.34598762185E+03 -0.69268488732E+03  0.10944569090E+04  0.10100000352E+00 0. -1.
</event>
<event>
 5   0  0.1317625E-04  0.1701380E+04  0.7818609E-02  0.8760578E-01
       -3   -1    0    0    0  501  0.00000000000E+00  0.00000000000E+00  0.69775543443E+03  0.69775544174E+03  0.10100000352E+00 0.  1.
        3   -1    0    0  501    0  0.00000000000E+00  0.00000000000E+00 -0.10371447886E+04  0.10371447935E+04  0.10100000352E+00 0. -1.
    10030    2    1    2    0    0  0.00000000000E+00  0.00000000000E+00 -0.33938935417E+03  0.17349002353E+04  0.17013799377E+04 0.  0.
        3    1    3    3  502    0 -0.75012316968E+02  0.18406616934E+03 -0.10131343193E+04  0.10324477524E+04  0.10100000352E+00 0. -1.
       -3    1    3    3    0  502  0.75012316968E+02 -0.18406616934E+03  0.67374496512E+03  0.70245248282E+03  0.10100000352E+00 0.  1.
</event>
<event>
 5   0  0.1930116E-04  0.1707952E+04  0.7818609E-02  0.8756842E-01
        1   -1    0    0  501    0  0.00000000000E+00  0.00000000000E+00  0.19426378276E+04  0.19426378276E+04  0.50400001928E-02 0.  1.
       -1   -1    0    0    0  501  0.00000000000E+00  0.00000000000E+00 -0.37540440294E+03  0.37540440298E+03  0.50400001928E-02 0. -1.
    10030    2    1    2    0    0  0.00000000000E+00  0.00000000000E+00  0.15672334247E+04  0.23180422306E+04  0.17079517486E+04 0.  0.
        1    1    3    3  502    0  0.42950070681E+03  0.20968576779E+03 -0.17687458821E+03  0.50963084516E+03  0.50400001928E-02 0. -1.
       -1    1    3    3    0  502 -0.42950070681E+03 -0.20968576779E+03  0.17441080129E+04  0.18084113855E+04  0.50400001928E-02 0.  1.
</event>
<event>
 5   0  0.1893284E-04  0.1699092E+04  0.7818609E-02  0.8761882E-01
        1   -1    0    0  501    0  0.00000000000E+00  0.00000000000E+00  0.73962610508E+03  0.73962610510E+03  0.50400001928E-02 0.  1.
       -1   -1    0    0    0  501  0.00000000000E+00  0.00000000000E+00 -0.97580172590E+03  0.97580172591E+03  0.50400001928E-02 0. -1.
    10030    2    1    2    0    0  0.00000000000E+00  0.00000000000E+00 -0.23617562081E+03  0.17154278310E+04  0.16990920280E+04 0.  0.
        2    1    3    3  502    0 -0.80023706532E+03  0.26687697311E+03 -0.16493553435E+02  0.84372668370E+03  0.25500000920E-02 0. -1.
       -2    1    3    3    0  502  0.80023706532E+03 -0.26687697311E+03 -0.21968206738E+03  0.87170114731E+03  0.25500000920E-02 0.  1.
</event>
<event>
 5   0  0.1920289E-04  0.1705233E+04  0.7818609E-02  0.8758385E-01
       -1   -1    0    0    0  501  0.00000000000E+00  0.00000000000E+00  0.75932305910E+03  0.75932305911E+03  0.50400001928E-02 0.  1.
        1   -1    0    0  501    0  0.00000000000E+00  0.00000000000E+00 -0.95737250718E+03  0.95737250719E+03  0.50400001928E-02 0. -1.
    10030    2    1    2    0    0  0.00000000000E+00  0.00000000000E+00 -0.19804944808E+03  0.17166955663E+04  0.17052331464E+04 0.  0.
        4    1    3    3  502    0 -0.10284292621E+03 -0.84465007275E+03 -0.15363876212E+03  0.86464842277E+03  0.12699999809E+01 0. -1.
       -4    1    3    3    0  502  0.10284292621E+03  0.84465007275E+03 -0.44410685965E+02  0.85204714353E+03  0.12699999809E+01 0.  1.
</event>
<event>
 5   0  0.1317625E-04  0.1688455E+04  0.7818609E-02  0.8767976E-01
       -3   -1    0    0    0  501  0.00000000000E+00  0.00000000000E+00  0.18865728669E+04  0.18865728696E+04  0.10100000352E+00 0.  1.
        3   -1    0    0  501    0  0.00000000000E+00  0.00000000000E+00 -0.37778571911E+03  0.37778573261E+03  0.10100000352E+00 0. -1.
    10030    2    1    2    0    0  0.00000000000E+00  0.00000000000E+00  0.15087871478E+04  0.22643586022E+04  0.16884552769E+04 0.  0.
        2    1    3    3  502    0  0.28664174447E+03 -0.67606035268E+03  0.19578910962E+03  0.75997004256E+03  0.25500000920E-02 0. -1.
       -2    1    3    3    0  502 -0.28664174447E+03  0.67606035268E+03  0.13129980381E+04  0.15043885596E+04  0.25500000920E-02 0.  1.
</event>
<event>
 5   0  0.3516723E-04  0.1669858E+04  0.7818609E-02  0.8778745E-01
        2   -1    0    0  501    0  0.00000000000E+00  0.00000000000E+00  0.11555809637E+04  0.11555809637E+04  0.25500000920E-02 0. -1.
       -2   -1    0    0    0  501  0.00000000000E+00  0.00000000000E+00 -0.60325167716E+03  0.60325167717E+03  0.25500000920E-02 0.  1.
    10030    2    1    2    0    0  0.00000000000E+00  0.00000000000E+00  0.55232928658E+03  0.17588326409E+04  0.16698576640E+04 0.  0.
        1    1    3    3  502    0  0.37360471002E+03  0.74530072564E+03  0.32388316843E+03  0.89440145226E+03  0.50400001928E-02 0.  1.
       -1    1    3    3    0  502 -0.37360471002E+03 -0.74530072564E+03  0.22844611815E+03  0.86443118865E+03  0.50400001928E-02 0. -1.
</event>
<event>
 5   0  0.1893284E-04  0.1704515E+04  0.7818609E-02  0.8758794E-01
       -1   -1    0    0    0  501  0.00000000000E+00  0.00000000000E+00  0.10924788555E+04  0.10924788555E+04  0.50400001928E-02 0.  1.
        1   -1    0    0  501    0  0.00000000000E+00  0.00000000000E+00 -0.66485741216E+03  0.66485741218E+03  0.50400001928E-02 0. -1.
    10030    2    1    2    0    0  0.00000000000E+00  0.00000000000E+00  0.42762144335E+03  0.17573362677E+04  0.17045147870E+04 0.  0.
        2    1    3    3  502    0 -0.22138491779E+03 -0.18667777716E+03  0.10402003320E+04  0.10797576603E+04  0.25500000920E-02 0.  1.
       -2    1    3    3    0  502  0.22138491779E+03  0.18667777716E+03 -0.61257888867E+03  0.67757860737E+03  0.25500000920E-02 0. -1.
</event>
<event>
 5   0  0.3574092E-04  0.1688672E+04  0.7818609E-02  0.8767852E-01
       -2   -1    0    0    0  501  0.00000000000E+00  0.00000000000E+00  0.52579412746E+03  0.52579412747E+03  0.25500000920E-02 0.  1.
        2   -1    0    0  501    0  0.00000000000E+00  0.00000000000E+00 -0.13558595538E+04  0.13558595538E+04  0.25500000920E-02 0. -1.
    10030    2    1    2    0    0  0.00000000000E+00  0.00000000000E+00 -0.83006542631E+03  0.18816536812E+04  0.16886716567E+04 0.  0.
        3    1    3    3  502    0  0.47651772994E+03 -0.65479793416E+03 -0.14883045764E+03  0.82339540735E+03  0.10100000352E+00 0.  1.
       -3    1    3    3    0  502 -0.47651772994E+03  0.65479793416E+03 -0.68123496867E+03  0.10582582739E+04  0.10100000352E+00 0. -1.
</event>
<event>
 5   0  0.1920289E-04  0.1716705E+04  0.7818609E-02  0.8751894E-01
        1   -1    0    0  501    0  0.00000000000E+00  0.00000000000E+00  0.14569341490E+04  0.14569341490E+04  0.50400001928E-02 0. -1.
       -1   -1    0    0    0  501  0.00000000000E+00  0.00000000000E+00 -0.50569848330E+03  0.50569848333E+03  0.50400001928E-02 0.  1.
    10030    2    1    2    0    0  0.00000000000E+00  0.00000000000E+00  0.95123566568E+03  0.19626326323E+04  0.17167054371E+04 0.  0.
        4    1    3    3  502    0  0.81545596767E+03 -0.16591201542E+03  0.23506500077E+03  0.86472677741E+03  0.12699999809E+01 0.  1.
       -4    1    3    3    0  502 -0.81545596767E+03  0.16591201542E+03  0.71617066491E+03  0.10979058549E+04  0.12699999809E+01 0. -1.
</event>
<event>
 5   0  0.3516723E-04  0.1714762E+04  0.7818609E-02  0.8752990E-01
        2   -1    0    0  501    0  0.00000000000E+00  0.00000000000E+00  0.16863247047E+04  0.16863247047E+04  0.25500000920E-02 0. -1.
       -2   -1    0    0    0  501  0.00000000000E+00  0.00000000000E+00 -0.43591948060E+03  0.43591948061E+03  0.25500000920E-02 0.  1.
    10030    2    1    2    0    0  0.00000000000E+00  0.00000000000E+00  0.12504052241E+04  0.21222441853E+04  0.17147615454E+04 0.  0.
        1    1    3    3  502    0  0.35829928210E+03 -0.76187010845E+03  0.82582639422E+03  0.11793276352E+04  0.50400001928E-02 0. -1.
       -1    1    3    3    0  502 -0.35829928210E+03  0.76187010845E+03  0.42457882991E+03  0.94291655015E+03  0.50400001928E-02 0.  1.
</event>
<event>
 5   0  0.1824538E-04  0.1652400E+04  0.7818609E-02  0.8788988E-01
       -1   -1    0    0    0  501  0.00000000000E+00  0.00000000000E+00  0.38978886538E+03  0.38978886541E+03  0.50400001928E-02 0.  1.
        1   -1    0    0  501    0  0.00000000000E+00  0.00000000000E+00 -0.17512216128E+04  0.17512216128E+04  0.50400001928E-02 0. -1.
    10030    2    1    2    0    0  0.00000000000E+00  0.00000000000E+00 -0.13614327474E+04  0.21410104782E+04  0.16524002972E+04 0.  0.
        3    1    3    3  502    0 -0.16668225337E+03  0.45062168862E+03  0.19016547737E+03  0.51672603846E+03  0.10100000352E+00 0.  1.
       -3    1    3    3    0  502  0.16668225337E+03 -0.45062168862E+03 -0.15515982248E+04  0.16242844397E+04  0.10100000352E+00 0. -1.
</event>
<event>
 5   0  0.3605571E-04  0.1702499E+04  0.7818609E-02  0.8759940E-01
       -2   -1    0    0    0  501  0.00000000000E+00  0.00000000000E+00  0.81327345203E+03  0.81327345204E+03  0.25500000920E-02 0. -1.
        2   -1    0    0  501    0  0.00000000000E+00  0.00000000000E+00 -0.89099883729E+03  0.89099883729E+03  0.25500000920E-02 0.  1.
    10030    2    1    2    0    0  0.00000000000E+00  0.00000000000E+00 -0.77725385252E+02  0.17042722893E+04  0.17024989870E+04 0.  0.
        4    1    3    3  502    0 -0.51435493026E+03 -0.19102111862E+03  0.61264084837E+03  0.82242354297E+03  0.12699999809E+01 0. -1.
       -4    1    3    3    0  502  0.51435493026E+03  0.19102111862E+03 -0.69036623362E+03  0.88184874636E+03  0.12699999809E+01 0.  1.
</event>
<event>
 5   0  0.3605571E-04  0.1691273E+04  0.7818609E-02  0.8766357E-01
        2   -1    0    0  501    0  0.00000000000E+00  0.00000000000E+00  0.40381050440E+03  0.40381050441E+03  0.25500000920E-02 0.  1.
       -2   -1    0    0    0  501  0.00000000000E+00  0.00000000000E+00 -0.17708828955E+04  0.17708828955E+04  0.25500000920E-02 0. -1.
    10030    2    1    2    0    0  0.00000000000E+00  0.00000000000E+00 -0.13670723911E+04  0.21746933999E+04  0.16912730297E+04 0.  0.
        4    1    3    3  502    0 -0.71575227836E+03  0.43912247578E+03 -0.55514837517E+03  0.10066385667E+04  0.12699999809E+01 0.  1.
       -4    1    3    3    0  502  0.71575227836E+03 -0.43912247578E+03 -0.81192401592E+03  0.11680548331E+04  0.12699999809E+01 0. -1.
</event>
<event>
 5   0  0.3573262E-04  0.1670488E+04  0.7818609E-02  0.8778377E-01
        2   -1    0    0  501    0  0.00000000000E+00  0.00000000000E+00  0.69259862633E+03  0.69259862634E+03  0.25500000920E-02 0.  1.
       -2   -1    0    0    0  501  0.00000000000E+00  0.00000000000E+00 -0.10072685043E+04  0.10072685043E+04  0.25500000920E-02 0. -1.
    10030    2    1    2    0    0  0.00000000000E+00  0.00000000000E+00 -0.31466987796E+03  0.16998671306E+04  0.16704882908E+04 0.  0.
        5    1    3    3  502    0 -0.49445885137E+03  0.45443632589E+03  0.34799588775E+03  0.75638955431E+03  0.46999998093E+01 0.  1.
       -5    1    3    3    0  502  0.49445885137E+03 -0.45443632589E+03 -0.66266576571E+03  0.94347757633E+03  0.46999998093E+01 0. -1.
</event>
<event>
 5   0  0.3678896E-04  0.1696174E+04  0.7818609E-02  0.8763549E-01
        2   -1    0    0  501    0  0.00000000000E+00  0.00000000000E+00  0.12465152203E+04  0.12465152203E+04  0.25500000920E-02 0. -1.
       -2   -1    0    0    0  501  0.00000000000E+00  0.00000000000E+00 -0.57700985023E+03  0.57700985023E+03  0.25500000920E-02 0.  1.
    10030    2    1    2    0    0  0.00000000000E+00  0.00000000000E+00  0.66950537005E+03  0.18235250705E+04  0.16961740012E+04 0.  0.
        2    1    3    3  502    0 -0.69985404593E+03 -0.18070735216E+03 -0.14217736457E+03  0.73665815391E+03  0.25500000920E-02 0.  1.
       -2    1    3    3    0  502  0.69985404593E+03  0.18070735216E+03  0.81168273462E+03  0.10868669166E+04  0.25500000920E-02 0. -1.
</event>
<event>
 5   0  0.3574092E-04  0.1704548E+04  0.7818609E-02  0.8758775E-01
        2   -1    0    0  501    0  0.00000000000E+00  0.00000000000E+00  0.23256296793E+04  0.23256296793E+04  0.25500000920E-02 0. -1.
       -2   -1    0    0    0  501  0.00000000000E+00  0.00000000000E+00 -0.31233298287E+03  0.31233298288E+03  0.25500000920E-02 0.  1.
    10030    2    1    2    0    0  0.00000000000E+00  0.00000000000E+00  0.20132966964E+04  0.26379626622E+04  0.17045478636E+04 0.  0.
        3    1    3    3  502    0  0.10887088372E+03 -0.35435484141E+03 -0.18103012743E+03  0.41254350097E+03  0.10100000352E+00 0.  1.
       -3    1    3    3    0  502 -0.10887088372E+03  0.35435484141E+03  0.21943268239E+04  0.22254191612E+04  0.10100000352E+00 0. -1.
</event>
<event>
 5   0  0.3574092E-04  0.1721439E+04  0.7818609E-02  0.8749231E-01
        2   -1    0    0  501    0  0.00000000000E+00  0.00000000000E+00  0.92913665343E+03  0.92913665343E+03  0.25500000920E-02 0. -1.
       -2   -1    0    0    0  501  0.00000000000E+00  0.00000000000E+00 -0.79734023187E+03  0.79734023187E+03  0.25500000920E-02 0.  1.
    10030    2    1    2    0    0  0.00000000000E+00  0.00000000000E+00  0.13179642156E+03  0.17264768853E+04  0.17214389733E+04 0.  0.
        3    1    3    3  502    0 -0.41932673574E+03  0.52183221340E+03  0.60849377073E+03  0.90465930022E+03  0.10100000352E+00 0.  1.
       -3    1    3    3    0  502  0.41932673574E+03 -0.52183221340E+03 -0.47669734917E+03  0.82181758509E+03  0.10100000352E+00 0. -1.
</event>
<event>
 5   0  0.3678896E-04  0.1705348E+04  0.7818609E-02  0.8758320E-01
       -2   -1    0    0    0  501  0.00000000000E+00  0.00000000000E+00  0.75698873914E+03  0.75698873914E+03  0.25500000920E-02 0.  1.
        2   -1    0    0  501    0  0.00000000000E+00  0.00000000000E+00 -0.96045381164E+03  0.96045381164E+03  0.25500000920E-02 0. -1.
    10030    2    1    2    0    0  0.00000000000E+00  0.00000000000E+00 -0.20346507250E+03  0.17174425508E+04  0.17053477298E+04 0.  0.
        2    1    3    3  502    0  0.24609000950E+03 -0.79974683820E+03 -0.26690003755E+03  0.87828863595E+03  0.25500000920E-02 0. -1.
       -2    1    3    3    0  502 -0.24609000950E+03  0.79974683820E+03  0.63434965055E+02  0.83915391483E+03  0.25500000920E-02 0.  1.
</event>
<event>
 5   0  0.1317625E-04  0.1700644E+04  0.7818609E-02  0.8760997E-01
       -3   -1    0    0    0  501  0.00000000000E+00  0.00000000000E+00  0.89683402685E+03  0.89683403253E+03  0.10100000352E+00 0. -1.
        3   -1    0    0  501    0  0.00000000000E+00  0.00000000000E+00 -0.80622219439E+03  0.80622220072E+03  0.10100000352E+00 0.  1.
    10030    2    1    2    0    0  0.00000000000E+00  0.00000000000E+00  0.90611832458E+02  0.17030562333E+04  0.17006440043E+04 0.  0.
        5    1    3    3  502    0 -0.15452697322E+03  0.36219519157E+03  0.80000707206E+03  0.89168231315E+03  0.46999998093E+01 0. -1.
       -5    1    3    3    0  502  0.15452697322E+03 -0.36219519157E+03 -0.70939523960E+03  0.81137392010E+03  0.46999998093E+01 0.  1.
</event>
<event>
 5   0  0.1317625E-04  0.1668764E+04  0.7818609E-02  0.8779382E-01
       -4   -1    0    0    0  501  0.00000000000E+00  0.00000000000E+00  0.68791339904E+03  0.68791457135E+03  0.12699999809E+01 0. -1.
        4   -1    0    0  501    0  0.00000000000E+00  0.00000000000E+00 -0.10120342463E+04  0.10120350432E+04  0.12699999809E+01 0.  1.
    10030    2    1    2    0    0  0.00000000000E+00  0.00000000000E+00 -0.32412084725E+03  0.16999496145E+04  0.16687643238E+04 0.  0.
        2    1    3    3  502    0  0.27237053430E+03 -0.27145678995E+03 -0.91638408047E+03  0.99379790687E+03  0.25500000920E-02 0.  1.
       -2    1    3    3    0  502 -0.27237053430E+03  0.27145678995E+03  0.59226323321E+03  0.70615170763E+03  0.25500000920E-02 0. -1.
</event>
<event>
 5   0  0.3574092E-04  0.1703846E+04  0.7818609E-02  0.8759174E-01
        2   -1    0    0  501    0  0.00000000000E+00  0.00000000000E+00  0.14556292751E+04  0.14556292751E+04  0.25500000920E-02 0.  1.
       -2   -1    0    0    0  501  0.00000000000E+00  0.00000000000E+00 -0.49859718725E+03  0.49859718725E+03  0.25500000920E-02 0. -1.
    10030    2    1    2    0    0  0.00000000000E+00  0.00000000000E+00  0.95703208784E+03  0.19542264623E+04  0.17038458407E+04 0.  0.
        3    1    3    3  502    0 -0.54473101578E+03 -0.15633800304E+03  0.12080694710E+04  0.13343932358E+04  0.10100000352E+00 0.  1.
       -3    1    3    3    0  502  0.54473101578E+03  0.15633800304E+03 -0.25103738319E+03  0.61983322653E+03  0.10100000352E+00 0. -1.
</event>
<event>
 5   0  0.1920289E-04  0.1687727E+04  0.7818609E-02  0.8768395E-01
       -1   -1    0    0    0  501  0.00000000000E+00  0.00000000000E+00  0.24810718952E+03  0.24810718957E+03  0.50400001928E-02 0.  1.
        1   -1    0    0  501    0  0.00000000000E+00  0.00000000000E+00 -0.28701526932E+04  0.28701526933E+04  0.50400001928E-02 0. -1.
    10030    2    1    2    0    0  0.00000000000E+00  0.00000000000E+00 -0.26220455037E+04  0.31182598828E+04  0.16877268953E+04 0.  0.
        4    1    3    3  502    0  0.23810603580E+03 -0.26489791519E+03 -0.27244601763E+04  0.27476444921E+04  0.12699999809E+01 0. -1.
       -4    1    3    3    0  502 -0.23810603580E+03  0.26489791519E+03  0.10241467261E+03  0.37061539070E+03  0.12699999809E+01 0.  1.
</event>
<event>
 5   0  0.3516723E-04  0.1459781E+04  0.7818609E-02  0.8911647E-01
        2   -1    0    0  501    0  0.00000000000E+00  0.00000000000E+00  0.76142115251E+03  0.76142115251E+03  0.25500000920E-02 0.  1.
       -2   -1    0    0    0  501  0.00000000000E+00  0.00000000000E+00 -0.69966570995E+03  0.69966570996E+03  0.25500000920E-02 0. -1.
    10030    2    1    2    0    0  0.00000000000E+00  0.00000000000E+00  0.61755442557E+02  0.14610868625E+04  0.14597811771E+04 0.  0.
        1    1    3    3  502    0  0.61784457130E+02 -0.20778517680E+03  0.72845754144E+03  0.76002788669E+03  0.50400001928E-02 0.  1.
       -1    1    3    3    0  502 -0.61784457130E+02  0.20778517680E+03 -0.66670209888E+03  0.70105897578E+03  0.50400001928E-02 0. -1.
</event>
<event>
 5   0  0.3678896E-04  0.1709496E+04  0.7818609E-02  0.8755967E-01
       -2   -1    0    0    0  501  0.00000000000E+00  0.00000000000E+00  0.39599556328E+03  0.39599556329E+03  0.25500000920E-02 0.  1.
        2   -1    0    0  501    0  0.00000000000E+00  0.00000000000E+00 -0.18449558688E+04  0.18449558688E+04  0.25500000920E-02 0. -1.
    10030    2    1    2    0    0  0.00000000000E+00  0.00000000000E+00 -0.14489603055E+04  0.22409514321E+04  0.17094962281E+04 0.  0.
        2    1    3    3  502    0 -0.13930945247E+03  0.68959060179E+03 -0.13608357638E+04  0.15319322106E+04  0.25500000920E-02 0. -1.
       -2    1    3    3    0  502  0.13930945247E+03 -0.68959060179E+03 -0.88124541673E+02  0.70901922152E+03  0.25500000920E-02 0.  1.
</event>
<event>
 5   0  0.1893284E-04  0.1709873E+04  0.7818609E-02  0.8755753E-01
        1   -1    0    0  501    0  0.00000000000E+00  0.00000000000E+00  0.54003608198E+03  0.54003608200E+03  0.50400001928E-02 0.  1.
       -1   -1    0    0    0  501  0.00000000000E+00  0.00000000000E+00 -0.13534589762E+04  0.13534589762E+04  0.50400001928E-02 0. -1.
    10030    2    1    2    0    0  0.00000000000E+00  0.00000000000E+00 -0.81342289422E+03  0.18934950582E+04  0.17098733084E+04 0.  0.
        2    1    3    3  502    0  0.45066082236E+03 -0.70014374865E+03 -0.19192295600E+03  0.85447695500E+03  0.25500000920E-02 0.  1.
       -2    1    3    3    0  502 -0.45066082236E+03  0.70014374865E+03 -0.62149993822E+03  0.10390181032E+04  0.25500000920E-02 0. -1.
</event>
<event>
 5   0  0.3573262E-04  0.1691782E+04  0.7818609E-02  0.8766065E-01
        2   -1    0    0  501    0  0.00000000000E+00  0.00000000000E+00  0.12852336238E+04  0.12852336238E+04  0.25500000920E-02 0.  1.
       -2   -1    0    0    0  501  0.00000000000E+00  0.00000000000E+00 -0.55673287911E+03  0.55673287912E+03  0.25500000920E-02 0. -1.
    10030    2    1    2    0    0  0.00000000000E+00  0.00000000000E+00  0.72850074472E+03  0.18419665030E+04  0.16917822741E+04 0.  0.
        5    1    3    3  502    0  0.94691111478E+02 -0.82185239315E+03  0.55626360452E+03  0.99692479678E+03  0.46999998093E+01 0.  1.
       -5    1    3    3    0  502 -0.94691111478E+02  0.82185239315E+03  0.17223714021E+03  0.84504170618E+03  0.46999998093E+01 0. -1.
</event>
<event>
 5   0  0.1824538E-04  0.1703634E+04  0.7818609E-02  0.8759294E-01
       -1   -1    0    0    0  501  0.00000000000E+00  0.00000000000E+00  0.54077904226E+03  0.54077904228E+03  0.50400001928E-02 0. -1.
        1   -1    0    0  501    0  0.00000000000E+00  0.00000000000E+00 -0.13417540021E+04  0.13417540021E+04  0.50400001928E-02 0.  1.
    10030    2    1    2    0    0  0.00000000000E+00  0.00000000000E+00 -0.80097495979E+03  0.18825330443E+04  0.17036342849E+04 0.  0.
        3    1    3    3  502    0 -0.58553429208E+03 -0.51829007801E+03 -0.27201041295E+02  0.78244163936E+03  0.10100000352E+00 0. -1.
       -3    1    3    3    0  502  0.58553429208E+03  0.51829007801E+03 -0.77377391850E+03  0.11000914050E+04  0.10100000352E+00 0.  1.
</event>
<event>
 5   0  0.1824538E-04  0.1680910E+04  0.7818609E-02  0.8772328E-01
        1   -1    0    0  501    0  0.00000000000E+00  0.00000000000E+00  0.13238521057E+04  0.13238521057E+04  0.50400001928E-02 0. -1.
       -1   -1    0    0    0  501  0.00000000000E+00  0.00000000000E+00 -0.53356750336E+03  0.53356750338E+03  0.50400001928E-02 0.  1.
    10030    2    1    2    0    0  0.00000000000E+00  0.00000000000E+00  0.79028460231E+03  0.18574196091E+04  0.16809098285E+04 0.  0.
        3    1    3    3  502    0  0.61054439192E+03  0.44973955432E+03  0.79559824433E+03  0.10990935801E+04  0.10100000352E+00 0. -1.
       -3    1    3    3    0  502 -0.61054439192E+03 -0.44973955432E+03 -0.53136420182E+01  0.75832602897E+03  0.10100000352E+00 0.  1.
</event>
<event>
 5   0  0.1920289E-04  0.1542660E+04  0.7818609E-02  0.8856570E-01
       -1   -1    0    0    0  501  0.00000000000E+00  0.00000000000E+00  0.40834624045E+03  0.40834624048E+03  0.50400001928E-02 0.  1.
        1   -1    0    0  501    0  0.00000000000E+00  0.00000000000E+00 -0.14569739826E+04  0.14569739826E+04  0.50400001928E-02 0. -1.
    10030    2    1    2    0    0  0.00000000000E+00  0.00000000000E+00 -0.10486277422E+04  0.18653202231E+04  0.15426598436E+04 0.  0.
        4    1    3    3  502    0  0.51505425979E+03  0.29348212842E+03 -0.11210254132E+04  0.12681136543E+04  0.12699999809E+01 0. -1.
       -4    1    3    3    0  502 -0.51505425979E+03 -0.29348212842E+03  0.72397671001E+02  0.59720656886E+03  0.12699999809E+01 0.  1.
</event>
<event>
 5   0  0.3605571E-04  0.1715385E+04  0.7818609E-02  0.8752638E-01
       -2   -1    0    0    0  501  0.00000000000E+00  0.00000000000E+00  0.72273063670E+03  0.72273063671E+03  0.25500000920E-02 0. -1.
        2   -1    0    0  501    0  0.00000000000E+00  0.00000000000E+00 -0.10178574387E+04  0.10178574387E+04  0.25500000920E-02 0.  1.
    10030    2    1    2    0    0  0.00000000000E+00  0.00000000000E+00 -0.29512680204E+03  0.17405880755E+04  0.17153853850E+04 0.  0.
        4    1    3    3  502    0  0.58580452012E+03 -0.41442454332E+03 -0.62427491097E+03  0.95112323874E+03  0.12699999809E+01 0.  1.
       -4    1    3    3    0  502 -0.58580452012E+03  0.41442454332E+03  0.32914810893E+03  0.78946483672E+03  0.12699999809E+01 0. -1.
</event>
<event>
 5   0  0.3678896E-04  0.1710122E+04  0.7818609E-02  0.8755612E-01
       -2   -1    0    0    0  501  0.00000000000E+00  0.00000000000E+00  0.10119864314E+04  0.10119864314E+04  0.25500000920E-02 0. -1.
        2   -1    0    0  501    0  0.00000000000E+00  0.00000000000E+00 -0.72246979076E+03  0.72246979076E+03  0.25500000920E-02 0.  1.
    10030    2    1    2    0    0  0.00000000000E+00  0.00000000000E+00  0.28951664060E+03  0.17344562221E+04  0.17101223644E+04 0.  0.
        2    1    3    3  502    0  0.67063264554E+02 -0.13763529060E+03  0.99797095420E+03  0.10096469582E+04  0.25500000920E-02 0. -1.
       -2    1    3    3    0  502 -0.67063264554E+02  0.13763529060E+03 -0.70845431360E+03  0.72480926397E+03  0.25500000920E-02 0.  1.
</event>
<event>
 5   0  0.3605571E-04  0.1699791E+04  0.7818609E-02  0.8761483E-01
        2   -1    0    0  501    0  0.00000000000E+00  0.00000000000E+00  0.10556378891E+04  0.10556378892E+04  0.25500000920E-02 0.  1.
       -2   -1    0    0    0  501  0.00000000000E+00  0.00000000000E+00 -0.68425239155E+03  0.68425239155E+03  0.25500000920E-02 0. -1.
    10030    2    1    2    0    0  0.00000000000E+00  0.00000000000E+00  0.37138549760E+03  0.17398902807E+04  0.16997914581E+04 0.  0.
        4    1    3    3  502    0  0.27236678008E+03  0.46136295307E+03 -0.48963006937E+03  0.72579518811E+03  0.12699999809E+01 0. -1.
       -4    1    3    3    0  502 -0.27236678008E+03 -0.46136295307E+03  0.86101556697E+03  0.10140950926E+04  0.12699999809E+01 0.  1.
</event>
<event>
 5   0  0.3516723E-04  0.1700241E+04  0.7818609E-02  0.8761227E-01
        2   -1    0    0  501    0  0.00000000000E+00  0.00000000000E+00  0.15824006209E+04  0.15824006209E+04  0.25500000920E-02 0. -1.
       -2   -1    0    0    0  501  0.00000000000E+00  0.00000000000E+00 -0.45671403451E+03  0.45671403452E+03  0.25500000920E-02 0.  1.
    10030    2    1    2    0    0  0.00000000000E+00  0.00000000000E+00  0.11256865864E+04  0.20391146554E+04  0.17002406557E+04 0.  0.
        1    1    3    3  502    0  0.10820853604E+03 -0.39282741241E+03 -0.33197505579E+03  0.52557578036E+03  0.50400001928E-02 0.  1.
       -1    1    3    3    0  502 -0.10820853604E+03  0.39282741241E+03  0.14576616422E+04  0.15135388750E+04  0.50400001928E-02 0. -1.
</event>
<event>
 5   0  0.3574092E-04  0.1701822E+04  0.7818609E-02  0.8760326E-01
       -2   -1    0    0    0  501  0.00000000000E+00  0.00000000000E+00  0.14413748200E+04  0.14413748200E+04  0.25500000920E-02 0. -1.
        2   -1    0    0  501    0  0.00000000000E+00  0.00000000000E+00 -0.50233254587E+03  0.50233254587E+03  0.25500000920E-02 0.  1.
    10030    2    1    2    0    0  0.00000000000E+00  0.00000000000E+00  0.93904227413E+03  0.19437073659E+04  0.17018219447E+04 0.  0.
        3    1    3    3  502    0  0.30732491014E+02  0.13415882115E+02  0.14406198601E+04  0.14410100844E+04  0.10100000352E+00 0. -1.
       -3    1    3    3    0  502 -0.30732491014E+02 -0.13415882115E+02 -0.50157758594E+03  0.50269728148E+03  0.10100000352E+00 0.  1.
</event>
<event>
 5   0  0.1930116E-04  0.1728091E+04  0.7818609E-02  0.8745503E-01
        1   -1    0    0  501    0  0.00000000000E+00  0.00000000000E+00  0.16728694798E+04  0.16728694798E+04  0.50400001928E-02 0. -1.
       -1   -1    0    0    0  501  0.00000000000E+00  0.00000000000E+00 -0.44628401793E+03  0.44628401796E+03  0.50400001928E-02 0.  1.
    10030    2    1    2    0    0  0.00000000000E+00  0.00000000000E+00  0.12265854618E+04  0.21191534977E+04  0.17280913320E+04 0.  0.
        1    1    3    3  502    0 -0.49041476145E+03 -0.59525099713E+02  0.14826025311E+04  0.15627412265E+04  0.50400001928E-02 0. -1.
       -1    1    3    3    0  502  0.49041476145E+03  0.59525099713E+02 -0.25601706931E+03  0.55641227120E+03  0.50400001928E-02 0.  1.
</event>
<event>
 5   0  0.3678896E-04  0.1715062E+04  0.7818609E-02  0.8752820E-01
        2   -1    0    0  501    0  0.00000000000E+00  0.00000000000E+00  0.61858141478E+03  0.61858141478E+03  0.25500000920E-02 0.  1.
       -2   -1    0    0    0  501  0.00000000000E+00  0.00000000000E+00 -0.11887838208E+04  0.11887838208E+04  0.25500000920E-02 0. -1.
    10030    2    1    2    0    0  0.00000000000E+00  0.00000000000E+00 -0.57020240604E+03  0.18073652356E+04  0.17150621887E+04 0.  0.
        2    1    3    3  502    0 -0.54968484573E+03 -0.25018472481E+03  0.35644334262E+03  0.70128288348E+03  0.25500000920E-02 0.  1.
       -2    1    3    3    0  502  0.54968484573E+03  0.25018472481E+03 -0.92664574866E+03  0.11060823521E+04  0.25500000920E-02 0. -1.
</event>
<event>
 5   0  0.1893284E-04  0.1703792E+04  0.7818609E-02  0.8759205E-01
        1   -1    0    0  501    0  0.00000000000E+00  0.00000000000E+00  0.14168074153E+04  0.14168074153E+04  0.50400001928E-02 0.  1.
       -1   -1    0    0    0  501  0.00000000000E+00  0.00000000000E+00 -0.51222677246E+03  0.51222677249E+03  0.50400001928E-02 0. -1.
    10030    2    1    2    0    0  0.00000000000E+00  0.00000000000E+00  0.90458064281E+03  0.19290341878E+04  0.17037918764E+04 0.  0.
        2    1    3    3  502    0  0.41427967866E+03 -0.68478022534E+03  0.12186017908E+03  0.80956872001E+03  0.25500000920E-02 0. -1.
       -2    1    3    3    0  502 -0.41427967866E+03  0.68478022534E+03  0.78272046373E+03  0.11194654678E+04  0.25500000920E-02 0.  1.
</event>
<event>
 5   0  0.3605571E-04  0.1634775E+04  0.7818609E-02  0.8799465E-01
       -2   -1    0    0    0  501  0.00000000000E+00  0.00000000000E+00  0.86396724326E+03  0.86396724327E+03  0.25500000920E-02 0. -1.
        2   -1    0    0  501    0  0.00000000000E+00  0.00000000000E+00 -0.77331868550E+03  0.77331868550E+03  0.25500000920E-02 0.  1.
    10030    2    1    2    0    0  0.00000000000E+00  0.00000000000E+00  0.90648557765E+02  0.16372859288E+04  0.16347746180E+04 0.  0.
        4    1    3    3  502    0 -0.92952437052E+02  0.22804240142E+03  0.82592964072E+03  0.86186128624E+03  0.12699999809E+01 0. -1.
       -4    1    3    3    0  502  0.92952437052E+02 -0.22804240142E+03 -0.73528108295E+03  0.77542464253E+03  0.12699999809E+01 0.  1.
</event>
<event>
 5   0  0.3605571E-04  0.1691501E+04  0.7818609E-02  0.8766227E-01
       -2   -1    0    0    0  501  0.00000000000E+00  0.00000000000E+00  0.51785416116E+03  0.51785416117E+03  0.25500000920E-02 0. -1.
        2   -1    0    0  501    0  0.00000000000E+00  0.00000000000E+00 -0.13812651607E+04  0.13812651607E+04  0.25500000920E-02 0.  1.
    10030    2    1    2    0    0  0.00000000000E+00  0.00000000000E+00 -0.86341099954E+03  0.18991193219E+04  0.16915010034E+04 0.  0.
        4    1    3    3  502    0 -0.68268230093E+03  0.20740250677E+03 -0.94156067406E+03  0.11813589800E+04  0.12699999809E+01 0.  1.
       -4    1    3    3    0  502  0.68268230093E+03 -0.20740250677E+03  0.78149674527E+02  0.71776034186E+03  0.12699999809E+01 0. -1.
</event>
<event>
 5   0  0.1930116E-04  0.1730431E+04  0.7818609E-02  0.8744196E-01
        1   -1    0    0  501    0  0.00000000000E+00  0.00000000000E+00  0.12340100541E+04  0.12340100541E+04  0.50400001928E-02 0.  1.
       -1   -1    0    0    0  501  0.00000000000E+00  0.00000000000E+00 -0.60663832706E+03  0.60663832708E+03  0.50400001928E-02 0. -1.
    10030    2    1    2    0    0  0.00000000000E+00  0.00000000000E+00  0.62737172701E+03  0.18406483812E+04  0.17304309230E+04 0.  0.
        1    1    3    3  502    0 -0.76904635144E+03 -0.46379613566E+02 -0.10511024494E+03  0.77758055714E+03  0.50400001928E-02 0. -1.
       -1    1    3    3    0  502  0.76904635144E+03  0.46379613566E+02  0.73248197196E+03  0.10630678240E+04  0.50400001928E-02 0.  1.
</event>
<event>
 5   0  0.1824538E-04  0.1689936E+04  0.7818609E-02  0.8767125E-01
       -1   -1    0    0    0  501  0.00000000000E+00  0.00000000000E+00  0.98984861904E+03  0.98984861905E+03  0.50400001928E-02 0.  1.
        1   -1    0    0  501    0  0.00000000000E+00  0.00000000000E+00 -0.72129289866E+03  0.72129289868E+03  0.50400001928E-02 0. -1.
    10030    2    1    2    0    0  0.00000000000E+00  0.00000000000E+00  0.26855572038E+03  0.17111415177E+04  0.16899358327E+04 0.  0.
        3    1    3    3  502    0  0.75238690571E+03 -0.60419833936E+02  0.51882516764E+03  0.91592367422E+03  0.10100000352E+00 0.  1.
       -3    1    3    3    0  502 -0.75238690571E+03  0.60419833936E+02 -0.25026944726E+03  0.79521784352E+03  0.10100000352E+00 0. -1.
</event>
<event>
 5   0  0.3574092E-04  0.1686067E+04  0.7818609E-02  0.8769351E-01
        2   -1    0    0  501    0  0.00000000000E+00  0.00000000000E+00  0.11370836864E+04  0.11370836864E+04  0.25500000920E-02 0.  1.
       -2   -1    0    0    0  501  0.00000000000E+00  0.00000000000E+00 -0.62502503602E+03  0.62502503603E+03  0.25500000920E-02 0. -1.
    10030    2    1    2    0    0  0.00000000000E+00  0.00000000000E+00  0.51205865039E+03  0.17621087224E+04  0.16860673439E+04 0.  0.
        3    1    3    3  502    0  0.28938376904E+03 -0.10333242363E+03  0.10764727812E+04  0.11194705063E+04  0.10100000352E+00 0.  1.
       -3    1    3    3    0  502 -0.28938376904E+03  0.10333242363E+03 -0.56441413084E+03  0.64263821614E+03  0.10100000352E+00 0. -1.
</event>
<event>
 5   0  0.1815663E-04  0.1709049E+04  0.7818609E-02  0.8756220E-01
        1   -1    0    0  501    0  0.00000000000E+00  0.00000000000E+00  0.15485595916E+04  0.15485595916E+04  0.50400001928E-02 0. -1.
       -1   -1    0    0    0  501  0.00000000000E+00  0.00000000000E+00 -0.47154302664E+03  0.47154302667E+03  0.50400001928E-02 0.  1.
    10030    2    1    2    0    0  0.00000000000E+00  0.00000000000E+00  0.10770165650E+04  0.20201026183E+04  0.17090494163E+04 0.  0.
        5    1    3    3  502    0 -0.65766093865E+03 -0.33490284175E+03  0.10476110692E+04  0.12814791711E+04  0.46999998093E+01 0. -1.
       -5    1    3    3    0  502  0.65766093865E+03  0.33490284175E+03  0.29405495831E+02  0.73862344724E+03  0.46999998093E+01 0.  1.
</event>
<event>
 5   0  0.1920289E-04  0.1697398E+04  0.7818609E-02  0.8762850E-01
       -1   -1    0    0    0  501  0.00000000000E+00  0.00000000000E+00  0.49433224993E+03  0.49433224995E+03  0.50400001928E-02 0. -1.
        1   -1    0    0  501    0  0.00000000000E+00  0.00000000000E+00 -0.14570969265E+04  0.14570969265E+04  0.50400001928E-02 0.  1.
    10030    2    1    2    0    0  0.00000000000E+00  0.00000000000E+00 -0.96276467660E+03  0.19514291765E+04  0.16973980112E+04 0.  0.
        4    1    3    3  502    0  0.17156448972E+03  0.79337539482E+03 -0.19648599276E+03  0.83515702086E+03  0.12699999809E+01 0. -1.
       -4    1    3    3    0  502 -0.17156448972E+03 -0.79337539482E+03 -0.76627868384E+03  0.11162721556E+04  0.12699999809E+01 0.  1.
</event>
<event>
 5   0  0.3605571E-04  0.1617468E+04  0.7818609E-02  0.8809888E-01
       -2   -1    0    0    0  501  0.00000000000E+00  0.00000000000E+00  0.84866362672E+03  0.84866362672E+03  0.25500000920E-02 0. -1.
        2   -1    0    0  501    0  0.00000000000E+00  0.00000000000E+00 -0.77068265196E+03  0.77068265197E+03  0.25500000920E-02 0.  1.
    10030    2    1    2    0    0  0.00000000000E+00  0.00000000000E+00  0.77980974755E+02  0.16193462787E+04  0.16174675693E+04 0.  0.
        4    1    3    3  502    0 -0.33568354013E+03 -0.44060500307E+02 -0.69631746049E+03  0.77426376997E+03  0.12699999809E+01 0.  1.
       -4    1    3    3    0  502  0.33568354013E+03  0.44060500307E+02  0.77429843525E+03  0.84508250871E+03  0.12699999809E+01 0. -1.
</event>
<event>
 5   0  0.3516723E-04  0.1661961E+04  0.7818609E-02  0.8783362E-01
        2   -1    0    0  501    0  0.00000000000E+00  0.00000000000E+00  0.12409014528E+04  0.12409014528E+04  0.25500000920E-02 0. -1.
       -2   -1    0    0    0  501  0.00000000000E+00  0.00000000000E+00 -0.55647334608E+03  0.55647334609E+03  0.25500000920E-02 0.  1.
    10030    2    1    2    0    0  0.00000000000E+00  0.00000000000E+00  0.68442810669E+03  0.17973747989E+04  0.16619609906E+04 0.  0.
        1    1    3    3  502    0  0.44660696385E+03 -0.68891837441E+03  0.48097356807E+03  0.95152607950E+03  0.50400001928E-02 0. -1.
       -1    1    3    3    0  502 -0.44660696385E+03  0.68891837441E+03  0.20345453863E+03  0.84584871938E+03  0.50400001928E-02 0.  1.
</event>
<event>
 5   0  0.1893284E-04  0.1710889E+04  0.7818609E-02  0.8755178E-01
        1   -1    0    0  501    0  0.00000000000E+00  0.00000000000E+00  0.64759230699E+03  0.64759230701E+03  0.50400001928E-02 0. -1.
       -1   -1    0    0    0  501  0.00000000000E+00  0.00000000000E+00 -0.11300090145E+04  0.11300090145E+04  0.50400001928E-02 0.  1.
    10030    2    1    2    0    0  0.00000000000E+00  0.00000000000E+00 -0.48241670753E+03  0.17776013215E+04  0.17108888271E+04 0.  0.
        2    1    3    3  502    0 -0.62552696399E+03 -0.56808687616E+03 -0.10267329865E+03  0.85120413991E+03  0.25500000920E-02 0. -1.
       -2    1    3    3    0  502  0.62552696399E+03  0.56808687616E+03 -0.37974340888E+03  0.92639718163E+03  0.25500000920E-02 0.  1.
</event>
<event>
 5   0  0.3678896E-04  0.1756353E+04  0.7818609E-02  0.8729861E-01
        2   -1    0    0  501    0  0.00000000000E+00  0.00000000000E+00  0.11344957040E+04  0.11344957040E+04  0.25500000920E-02 0. -1.
       -2   -1    0    0    0  501  0.00000000000E+00  0.00000000000E+00 -0.67976812492E+03  0.67976812492E+03  0.25500000920E-02 0.  1.
    10030    2    1    2    0    0  0.00000000000E+00  0.00000000000E+00  0.45472757909E+03  0.18142638289E+04  0.17563530596E+04 0.  0.
        2    1    3    3  502    0  0.28848371374E+03  0.41977285555E+03  0.96632663266E+03  0.10923457623E+04  0.25500000920E-02 0. -1.
       -2    1    3    3    0  502 -0.28848371374E+03 -0.41977285555E+03 -0.51159905358E+03  0.72191806666E+03  0.25500000920E-02 0.  1.
</event>
<event>
 5   0  0.3516723E-04  0.1525302E+04  0.7818609E-02  0.8867799E-01
       -2   -1    0    0    0  501  0.00000000000E+00  0.00000000000E+00  0.32713329096E+03  0.32713329097E+03  0.25500000920E-02 0. -1.
        2   -1    0    0  501    0  0.00000000000E+00  0.00000000000E+00 -0.17779812217E+04  0.17779812217E+04  0.25500000920E-02 0.  1.
    10030    2    1    2    0    0  0.00000000000E+00  0.00000000000E+00 -0.14508479307E+04  0.21051145127E+04  0.15253023941E+04 0.  0.
        1    1    3    3  502    0  0.56291226276E+02  0.13570970555E+03 -0.17582652053E+04  0.17643929150E+04  0.50400001928E-02 0.  1.
       -1    1    3    3    0  502 -0.56291226276E+02 -0.13570970555E+03  0.30741727460E+03  0.34072159762E+03  0.50400001928E-02 0. -1.
</event>
<event>
 5   0  0.3574092E-04  0.1693394E+04  0.7818609E-02  0.8765141E-01
        2   -1    0    0  501    0  0.00000000000E+00  0.00000000000E+00  0.96544268433E+03  0.96544268433E+03  0.25500000920E-02 0. -1.
       -2   -1    0    0    0  501  0.00000000000E+00  0.00000000000E+00 -0.74255627478E+03  0.74255627478E+03  0.25500000920E-02 0.  1.
    10030    2    1    2    0    0  0.00000000000E+00  0.00000000000E+00  0.22288640955E+03  0.17079989591E+04  0.16933936615E+04 0.  0.
        3    1    3    3  502    0  0.75008789184E+03  0.36461362781E+03  0.25871822014E+03  0.87321822627E+03  0.10100000352E+00 0. -1.
       -3    1    3    3    0  502 -0.75008789184E+03 -0.36461362781E+03 -0.35831810587E+02  0.83478073284E+03  0.10100000352E+00 0.  1.
</event>
<event>
 5   0  0.3678896E-04  0.1703761E+04  0.7818609E-02  0.8759222E-01
       -2   -1    0    0    0  501  0.00000000000E+00  0.00000000000E+00  0.44210821847E+03  0.44210821848E+03  0.25500000920E-02 0.  1.
        2   -1    0    0  501    0  0.00000000000E+00  0.00000000000E+00 -0.16414533284E+04  0.16414533284E+04  0.25500000920E-02 0. -1.
    10030    2    1    2    0    0  0.00000000000E+00  0.00000000000E+00 -0.11993451099E+04  0.20835615469E+04  0.17037605545E+04 0.  0.
        2    1    3    3  502    0  0.51636878423E+03 -0.43872342769E+03 -0.12310886691E+04  0.14052381573E+04  0.25500000920E-02 0. -1.
       -2    1    3    3    0  502 -0.51636878423E+03  0.43872342769E+03  0.31743559230E+02  0.67832338961E+03  0.25500000920E-02 0.  1.
</event>
<event>
 5   0  0.1815663E-04  0.1710423E+04  0.7818609E-02  0.8755442E-01
       -1   -1    0    0    0  501  0.00000000000E+00  0.00000000000E+00  0.69260381818E+03  0.69260381820E+03  0.50400001928E-02 0. -1.
        1   -1    0    0  501    0  0.00000000000E+00  0.00000000000E+00 -0.10559963128E+04  0.10559963128E+04  0.50400001928E-02 0.  1.
    10030    2    1    2    0    0  0.00000000000E+00  0.00000000000E+00 -0.36339249460E+03  0.17486001310E+04  0.17104234309E+04 0.  0.
        5    1    3    3  502    0 -0.41630251533E+03  0.73908482949E+03 -0.70592969321E+02  0.85121068295E+03  0.46999998093E+01 0. -1.
       -5    1    3    3    0  502  0.41630251533E+03 -0.73908482949E+03 -0.29279952527E+03  0.89738944804E+03  0.46999998093E+01 0.  1.
</event>
<event>
 5   0  0.3605571E-04  0.1685776E+04  0.7818609E-02  0.8769519E-01
        2   -1    0    0  501    0  0.00000000000E+00  0.00000000000E+00  0.72019062140E+03  0.72019062141E+03  0.25500000920E-02 0. -1.
       -2   -1    0    0    0  501  0.00000000000E+00  0.00000000000E+00 -0.98648878855E+03  0.98648878856E+03  0.25500000920E-02 0.  1.
    10030    2    1    2    0    0  0.00000000000E+00  0.00000000000E+00 -0.26629816715E+03  0.17066794100E+04  0.16857757545E+04 0.  0.
        4    1    3    3  502    0 -0.27830842862E+03 -0.45056871434E+03 -0.79701692746E+03  0.95692494133E+03  0.12699999809E+01 0.  1.
       -4    1    3    3    0  502  0.27830842862E+03  0.45056871434E+03  0.53071876031E+03  0.74975446863E+03  0.12699999809E+01 0. -1.
</event>
<event>
 5   0  0.1824538E-04  0.1754746E+04  0.7818609E-02  0.8730742E-01
       -1   -1    0    0    0  501  0.00000000000E+00  0.00000000000E+00  0.82585244733E+03  0.82585244735E+03  0.50400001928E-02 0. -1.
        1   -1    0    0  501    0  0.00000000000E+00  0.00000000000E+00 -0.93210768155E+03  0.93210768156E+03  0.50400001928E-02 0.  1.
    10030    2    1    2    0    0  0.00000000000E+00  0.00000000000E+00 -0.10625523422E+03  0.17579601289E+04  0.17547460329E+04 0.  0.
        3    1    3    3  502    0 -0.58905358421E+03  0.29612411536E+03 -0.63307461545E+03  0.91403342154E+03  0.10100000352E+00 0.  1.
       -3    1    3    3    0  502  0.58905358421E+03 -0.29612411536E+03  0.52681938124E+03  0.84392670737E+03  0.10100000352E+00 0. -1.
</event>
<event>
 5   0  0.1824538E-04  0.1712222E+04  0.7818609E-02  0.8754424E-01
        1   -1    0    0  501    0  0.00000000000E+00  0.00000000000E+00  0.11418483515E+04  0.11418483515E+04  0.50400001928E-02 0. -1.
       -1   -1    0    0    0  501  0.00000000000E+00  0.00000000000E+00 -0.64187705085E+03  0.64187705087E+03  0.50400001928E-02 0.  1.
    10030    2    1    2    0    0  0.00000000000E+00  0.00000000000E+00  0.49997130060E+03  0.17837254023E+04  0.17122222430E+04 0.  0.
        3    1    3    3  502    0  0.10069384544E+03  0.80072417532E+03 -0.47651318695E+02  0.80843621506E+03  0.10100000352E+00 0.  1.
       -3    1    3    3    0  502 -0.10069384544E+03 -0.80072417532E+03  0.54762261930E+03  0.97528918728E+03  0.10100000352E+00 0. -1.
</event>
<event>
 5   0  0.3574092E-04  0.1701689E+04  0.7818609E-02  0.8760402E-01
       -2   -1    0    0    0  501  0.00000000000E+00  0.00000000000E+00  0.71702927486E+03  0.71702927486E+03  0.25500000920E-02 0. -1.
        2   -1    0    0  501    0  0.00000000000E+00  0.00000000000E+00 -0.10096327909E+04  0.10096327909E+04  0.25500000920E-02 0.  1.
    10030    2    1    2    0    0  0.00000000000E+00  0.00000000000E+00 -0.29260351603E+03  0.17266620658E+04  0.17016888881E+04 0.  0.
        3    1    3    3  502    0 -0.21814264616E+03  0.17830569747E+03  0.66832353564E+03  0.72528304428E+03  0.10100000352E+00 0. -1.
       -3    1    3    3    0  502  0.21814264616E+03 -0.17830569747E+03 -0.96092705167E+03  0.10013790215E+04  0.10100000352E+00 0.  1.
</event>
<event>
 5   0  0.1317625E-04  0.1685822E+04  0.7818609E-02  0.8769492E-01
        3   -1    0    0  501    0  0.00000000000E+00  0.00000000000E+00  0.67763323540E+03  0.67763324293E+03  0.10100000352E+00 0. -1.
       -3   -1    0    0    0  501  0.00000000000E+00  0.00000000000E+00 -0.10485003927E+04  0.10485003975E+04  0.10100000352E+00 0.  1.
    10030    2    1    2    0    0  0.00000000000E+00  0.00000000000E+00 -0.37086715726E+03  0.17261336404E+04  0.16858217273E+04 0.  0.
        3    1    3    3  502    0  0.33260372154E+03 -0.74181561955E+03 -0.41343074735E+03  0.91205298204E+03  0.10100000352E+00 0.  1.
       -3    1    3    3    0  502 -0.33260372154E+03  0.74181561955E+03  0.42563590099E+02  0.81408065840E+03  0.10100000352E+00 0. -1.
</event>
<event>
 5   0  0.1824538E-04  0.1702241E+04  0.7818609E-02  0.8760087E-01
        1   -1    0    0  501    0  0.00000000000E+00  0.00000000000E+00  0.13138137727E+04  0.13138137727E+04  0.50400001928E-02 0.  1.
       -1   -1    0    0    0  501  0.00000000000E+00  0.00000000000E+00 -0.55137682788E+03  0.55137682790E+03  0.50400001928E-02 0. -1.
    10030    2    1    2    0    0  0.00000000000E+00  0.00000000000E+00  0.76243694481E+03  0.18651906006E+04  0.17022414288E+04 0.  0.
        3    1    3    3  502    0 -0.76394282509E+03 -0.36159526379E+03  0.27139037386E+03  0.88770069281E+03  0.10100000352E+00 0. -1.
       -3    1    3    3    0  502  0.76394282509E+03  0.36159526379E+03  0.49104657096E+03  0.97748990780E+03  0.10100000352E+00 0.  1.
</event>
<event>
 5   0  0.1920289E-04  0.1693616E+04  0.7818609E-02  0.8765014E-01
        1   -1    0    0  501    0  0.00000000000E+00  0.00000000000E+00  0.91777360486E+03  0.91777360488E+03  0.50400001928E-02 0. -1.
       -1   -1    0    0    0  501  0.00000000000E+00  0.00000000000E+00 -0.78132940469E+03  0.78132940470E+03  0.50400001928E-02 0.  1.
    10030    2    1    2    0    0  0.00000000000E+00  0.00000000000E+00  0.13644420018E+03  0.16991030096E+04  0.16936156640E+04 0.  0.
        4    1    3    3  502    0  0.80088537649E+03  0.88739490673E+02 -0.19298624593E+03  0.82857551708E+03  0.12699999809E+01 0.  1.
       -4    1    3    3    0  502 -0.80088537649E+03 -0.88739490673E+02  0.32943044610E+03  0.87052749250E+03  0.12699999809E+01 0. -1.
</event>
<event>
 5   0  0.1815663E-04  0.1769686E+04  0.7818609E-02  0.8722588E-01
       -1   -1    0    0    0  501  0.00000000000E+00  0.00000000000E+00  0.90764255091E+03  0.90764255092E+03  0.50400001928E-02 0. -1.
        1   -1    0    0  501    0  0.00000000000E+00  0.00000000000E+00 -0.86261644629E+03  0.86261644630E+03  0.50400001928E-02 0.  1.
    10030    2    1    2    0    0  0.00000000000E+00  0.00000000000E+00  0.45026104622E+02  0.17702589972E+04  0.17696862906E+04 0.  0.
        5    1    3    3  502    0  0.44277038567E+03 -0.56496823461E+03  0.54006872039E+03  0.89829340044E+03  0.46999998093E+01 0. -1.
       -5    1    3    3    0  502 -0.44277038567E+03  0.56496823461E+03 -0.49504261577E+03  0.87196559678E+03  0.46999998093E+01 0.  1.
</event>
<event>
 5   0  0.1920289E-04  0.1694636E+04  0.7818609E-02  0.8764430E-01
       -1   -1    0    0    0  501  0.00000000000E+00  0.00000000000E+00  0.96784552562E+03  0.96784552563E+03  0.50400001928E-02 0.  1.
        1   -1    0    0  501    0  0.00000000000E+00  0.00000000000E+00 -0.74179999325E+03  0.74179999327E+03  0.50400001928E-02 0. -1.
    10030    2    1    2    0    0  0.00000000000E+00  0.00000000000E+00  0.22604553237E+03  0.17096455189E+04  0.16946360133E+04 0.  0.
        4    1    3    3  502    0 -0.61019891969E+03 -0.48622160739E+03  0.44639167060E+03  0.89890005538E+03  0.12699999809E+01 0.  1.
       -4    1    3    3    0  502  0.61019891969E+03  0.48622160739E+03 -0.22034613823E+03  0.81074546352E+03  0.12699999809E+01 0. -1.
</event>
<event>
 5   0  0.3574092E-04  0.1695509E+04  0.7818609E-02  0.8763930E-01
        2   -1    0    0  501    0  0.00000000000E+00  0.00000000000E+00  0.16344260867E+04  0.16344260867E+04  0.25500000920E-02 0.  1.
       -2   -1    0    0    0  501  0.00000000000E+00  0.00000000000E+00 -0.43971887859E+03  0.43971887859E+03  0.25500000920E-02 0. -1.
    10030    2    1    2    0    0  0.00000000000E+00  0.00000000000E+00  0.11947072081E+04  0.20741449653E+04  0.16955093700E+04 0.  0.
        3    1    3    3  502    0 -0.66762334668E+03  0.31082593676E+03  0.83627139547E+02  0.74116611139E+03  0.10100000352E+00 0. -1.
       -3    1    3    3    0  502  0.66762334668E+03 -0.31082593676E+03  0.11110800685E+04  0.13329788539E+04  0.10100000352E+00 0.  1.
</event>
<event>
 5   0  0.1930116E-04  0.1708977E+04  0.7818609E-02  0.8756261E-01
        1   -1    0    0  501    0  0.00000000000E+00  0.00000000000E+00  0.14764551021E+04  0.14764551021E+04  0.50400001928E-02 0.  1.
       -1   -1    0    0    0  501  0.00000000000E+00  0.00000000000E+00 -0.49452938878E+03  0.49452938880E+03  0.50400001928E-02 0. -1.
    10030    2    1    2    0    0  0.00000000000E+00  0.00000000000E+00  0.98192571329E+03  0.19709844909E+04  0.17089768158E+04 0.  0.
        1    1    3    3  502    0 -0.82220676844E+03 -0.22551836066E+02  0.75801856809E+03  0.11185368590E+04  0.50400001928E-02 0. -1.
       -1    1    3    3    0  502  0.82220676844E+03  0.22551836066E+02  0.22390714520E+03  0.85244763186E+03  0.50400001928E-02 0.  1.
</event>
<event>
 5   0  0.3574092E-04  0.1714072E+04  0.7818609E-02  0.8753379E-01
       -2   -1    0    0    0  501  0.00000000000E+00  0.00000000000E+00  0.79582991068E+03  0.79582991068E+03  0.25500000920E-02 0.  1.
        2   -1    0    0  501    0  0.00000000000E+00  0.00000000000E+00 -0.92294900926E+03  0.92294900926E+03  0.25500000920E-02 0. -1.
    10030    2    1    2    0    0  0.00000000000E+00  0.00000000000E+00 -0.12711909858E+03  0.17187789199E+04  0.17140716760E+04 0.  0.
        3    1    3    3  502    0 -0.76338283905E+03 -0.37856683364E+03 -0.15570429515E+03  0.86620438940E+03  0.10100000352E+00 0. -1.
       -3    1    3    3    0  502  0.76338283905E+03  0.37856683364E+03  0.28585196571E+02  0.85257453055E+03  0.10100000352E+00 0.  1.
</event>
<event>
 5   0  0.3605571E-04  0.1661350E+04  0.7818609E-02  0.8783720E-01
       -2   -1    0    0    0  501  0.00000000000E+00  0.00000000000E+00  0.63939477438E+03  0.63939477438E+03  0.25500000920E-02 0. -1.
        2   -1    0    0  501    0  0.00000000000E+00  0.00000000000E+00 -0.10791778196E+04  0.10791778196E+04  0.25500000920E-02 0.  1.
    10030    2    1    2    0    0  0.00000000000E+00  0.00000000000E+00 -0.43978304525E+03  0.17185725940E+04  0.16613496423E+04 0.  0.
        4    1    3    3  502    0  0.48971295378E+03  0.65982785774E+03 -0.93929299303E+02  0.82705254072E+03  0.12699999809E+01 0. -1.
       -4    1    3    3    0  502 -0.48971295378E+03 -0.65982785774E+03 -0.34585374595E+03  0.89152005330E+03  0.12699999809E+01 0.  1.
</event>
<event>
 5   0  0.1920289E-04  0.1698934E+04  0.7818609E-02  0.8761973E-01
       -1   -1    0    0    0  501  0.00000000000E+00  0.00000000000E+00  0.12686310933E+04  0.12686310933E+04  0.50400001928E-02 0.  1.
        1   -1    0    0  501    0  0.00000000000E+00  0.00000000000E+00 -0.56879726730E+03  0.56879726732E+03  0.50400001928E-02 0. -1.
    10030    2    1    2    0    0  0.00000000000E+00  0.00000000000E+00  0.69983382601E+03  0.18374283606E+04  0.16989336645E+04 0.  0.
        4    1    3    3  502    0  0.15859670166E+03 -0.17122018396E+02  0.12522860324E+04  0.12624056389E+04  0.12699999809E+01 0.  1.
       -4    1    3    3    0  502 -0.15859670166E+03  0.17122018396E+02 -0.55245220638E+03  0.57502272174E+03  0.12699999809E+01 0. -1.
</event>
<event>
 5   0  0.1930116E-04  0.1686819E+04  0.7818609E-02  0.8768918E-01
        1   -1    0    0  501    0  0.00000000000E+00  0.00000000000E+00  0.88227815887E+03  0.88227815888E+03  0.50400001928E-02 0. -1.
       -1   -1    0    0    0  501  0.00000000000E+00  0.00000000000E+00 -0.80625358931E+03  0.80625358933E+03  0.50400001928E-02 0.  1.
    10030    2    1    2    0    0  0.00000000000E+00  0.00000000000E+00  0.76024569555E+02  0.16885317482E+04  0.16868194122E+04 0.  0.
        1    1    3    3  502    0 -0.94422386060E+02 -0.45684618964E+02  0.87572335979E+03  0.88198303516E+03  0.50400001928E-02 0. -1.
       -1    1    3    3    0  502  0.94422386060E+02  0.45684618964E+02 -0.79969879023E+03  0.80654871305E+03  0.50400001928E-02 0.  1.
</event>
<event>
 5   0  0.3678896E-04  0.1646224E+04  0.7818609E-02  0.8792643E-01
       -2   -1    0    0    0  501  0.00000000000E+00  0.00000000000E+00  0.17102596295E+04  0.17102596295E+04  0.25500000920E-02 0.  1.
        2   -1    0    0  501    0  0.00000000000E+00  0.00000000000E+00 -0.39614651799E+03  0.39614651799E+03  0.25500000920E-02 0. -1.
    10030    2    1    2    0    0  0.00000000000E+00  0.00000000000E+00  0.13141131115E+04  0.21064061475E+04  0.16462240395E+04 0.  0.
        2    1    3    3  502    0 -0.71976870399E+03  0.36444426042E+03  0.86584794700E+03  0.11834607190E+04  0.25500000920E-02 0.  1.
       -2    1    3    3    0  502  0.71976870399E+03 -0.36444426042E+03  0.44826516454E+03  0.92294542847E+03  0.25500000920E-02 0. -1.
</event>
<event>
 5   0  0.3574092E-04  0.1694293E+04  0.7818609E-02  0.8764626E-01
        2   -1    0    0  501    0  0.00000000000E+00  0.00000000000E+00  0.90587958405E+03  0.90587958406E+03  0.25500000920E-02 0. -1.
       -2   -1    0    0    0  501  0.00000000000E+00  0.00000000000E+00 -0.79222147556E+03  0.79222147557E+03  0.25500000920E-02 0.  1.
    10030    2    1    2    0    0  0.00000000000E+00  0.00000000000E+00  0.11365810849E+03  0.16981010596E+04  0.16942930806E+04 0.  0.
        3    1    3    3  502    0 -0.49782950869E+03  0.32382717258E+02  0.74303888361E+03  0.89498025278E+03  0.10100000352E+00 0. -1.
       -3    1    3    3    0  502  0.49782950869E+03 -0.32382717258E+02 -0.62938077512E+03  0.80312080685E+03  0.10100000352E+00 0.  1.
</event>
<event>
 5   0  0.1920289E-04  0.1703319E+04  0.7818609E-02  0.8759473E-01
       -1   -1    0    0    0  501  0.00000000000E+00  0.00000000000E+00  0.78744800208E+03  0.78744800210E+03  0.50400001928E-02 0. -1.
        1   -1    0    0  501    0  0.00000000000E+00  0.00000000000E+00 -0.92110752745E+03  0.92110752746E+03  0.50400001928E-02 0.  1.
    10030    2    1    2    0    0  0.00000000000E+00  0.00000000000E+00 -0.13365952537E+03  0.17085555296E+04  0.17033194442E+04 0.  0.
        4    1    3    3  502    0  0.85096797298E+03  0.31827614054E+02 -0.54016251752E+02  0.85327536962E+03  0.12699999809E+01 0.  1.
       -4    1    3    3    0  502 -0.85096797298E+03 -0.31827614054E+02 -0.79643273614E+02  0.85528015994E+03  0.12699999809E+01 0. -1.
</event>
<event>
 5   0  0.1893284E-04  0.1677487E+04  0.7818609E-02  0.8774310E-01
       -1   -1    0    0    0  501  0.00000000000E+00  0.00000000000E+00  0.37055347026E+03  0.37055347029E+03  0.50400001928E-02 0. -1.
        1   -1    0    0  501    0  0.00000000000E+00  0.00000000000E+00 -0.18984862341E+04  0.18984862341E+04  0.50400001928E-02 0.  1.
    10030    2    1    2    0    0  0.00000000000E+00  0.00000000000E+00 -0.15279327638E+04  0.22690397044E+04  0.16774870042E+04 0.  0.
        2    1    3    3  502    0  0.26250489325E+03 -0.54483774874E+03  0.22119707936E+02  0.60518284255E+03  0.25500000920E-02 0. -1.
       -2    1    3    3    0  502 -0.26250489325E+03  0.54483774874E+03 -0.15500524718E+04  0.16638568618E+04  0.25500000920E-02 0.  1.
</event>
<event>
 5   0  0.1930116E-04  0.1696563E+04  0.7818609E-02  0.8763327E-01
        1   -1    0    0  501    0  0.00000000000E+00  0.00000000000E+00  0.86215997259E+03  0.86215997261E+03  0.50400001928E-02 0.  1.
       -1   -1    0    0    0  501  0.00000000000E+00  0.00000000000E+00 -0.83462606987E+03  0.83462606989E+03  0.50400001928E-02 0. -1.
    10030    2    1    2    0    0  0.00000000000E+00  0.00000000000E+00  0.27533902717E+02  0.16967860425E+04  0.16965626302E+04 0.  0.
        1    1    3    3  502    0  0.58079559013E+03 -0.51989328035E+03 -0.32089428068E+03  0.84296244274E+03  0.50400001928E-02 0. -1.
       -1    1    3    3    0  502 -0.58079559013E+03  0.51989328035E+03  0.34842818340E+03  0.85382359975E+03  0.50400001928E-02 0.  1.
</event>
<event>
 5   0  0.3678896E-04  0.1732721E+04  0.7818609E-02  0.8742919E-01
        2   -1    0    0  501    0  0.00000000000E+00  0.00000000000E+00  0.13951844231E+04  0.13951844231E+04  0.25500000920E-02 0.  1.
       -2   -1    0    0    0  501  0.00000000000E+00  0.00000000000E+00 -0.53797969940E+03  0.53797969941E+03  0.25500000920E-02 0. -1.
    10030    2    1    2    0    0  0.00000000000E+00  0.00000000000E+00  0.85720472372E+03  0.19331641225E+04  0.17327214393E+04 0.  0.
        2    1    3    3  502    0  0.19853783451E+03  0.33692272133E+03  0.12911085945E+04  0.13490350606E+04  0.25500000920E-02 0.  1.
       -2    1    3    3    0  502 -0.19853783451E+03 -0.33692272133E+03 -0.43390387081E+03  0.58412906193E+03  0.25500000920E-02 0. -1.
</event>
<event>
 5   0  0.1815663E-04  0.1689070E+04  0.7818609E-02  0.8767623E-01
       -1   -1    0    0    0  501  0.00000000000E+00  0.00000000000E+00  0.75406133272E+03  0.75406133273E+03  0.50400001928E-02 0. -1.
        1   -1    0    0  501    0  0.00000000000E+00  0.00000000000E+00 -0.94586404077E+03  0.94586404078E+03  0.50400001928E-02 0.  1.
    10030    2    1    2    0    0  0.00000000000E+00  0.00000000000E+00 -0.19180270805E+03  0.16999253735E+04  0.16890701574E+04 0.  0.
        5    1    3    3  502    0  0.59766698181E+03  0.48564806255E+03  0.25296388221E+03  0.81060019585E+03  0.46999998093E+01 0. -1.
       -5    1    3    3    0  502 -0.59766698181E+03 -0.48564806255E+03 -0.44476659026E+03  0.88932517766E+03  0.46999998093E+01 0.  1.
</event>
<event>
 5   0  0.1824538E-04  0.1711198E+04  0.7818609E-02  0.8755004E-01
        1   -1    0    0  501    0  0.00000000000E+00  0.00000000000E+00  0.10497469853E+04  0.10497469853E+04  0.50400001928E-02 0. -1.
       -1   -1    0    0    0  501  0.00000000000E+00  0.00000000000E+00 -0.69735779309E+03  0.69735779311E+03  0.50400001928E-02 0.  1.
    10030    2    1    2    0    0  0.00000000000E+00  0.00000000000E+00  0.35238919217E+03  0.17471047784E+04  0.17111975233E+04 0.  0.
        3    1    3    3  502    0  0.64015829987E+03 -0.53309293535E+03 -0.22984916844E+02  0.83337809139E+03  0.10100000352E+00 0.  1.
       -3    1    3    3    0  502 -0.64015829987E+03  0.53309293535E+03  0.37537410901E+03  0.91372668699E+03  0.10100000352E+00 0. -1.
</event>
<event>
 5   0  0.3574092E-04  0.1687481E+04  0.7818609E-02  0.8768537E-01
        2   -1    0    0  501    0  0.00000000000E+00  0.00000000000E+00  0.15076653563E+04  0.15076653563E+04  0.25500000920E-02 0.  1.
       -2   -1    0    0    0  501  0.00000000000E+00  0.00000000000E+00 -0.47218594588E+03  0.47218594589E+03  0.25500000920E-02 0. -1.
    10030    2    1    2    0    0  0.00000000000E+00  0.00000000000E+00  0.10354794104E+04  0.19798513022E+04  0.16874814279E+04 0.  0.
        3    1    3    3  502    0  0.54799070489E+03  0.55849617705E+03  0.88817464352E+03  0.11836663381E+04  0.10100000352E+00 0.  1.
       -3    1    3    3    0  502 -0.54799070489E+03 -0.55849617705E+03  0.14730476687E+03  0.79618496404E+03  0.10100000352E+00 0. -1.
</event>
<event>
 5   0  0.3574092E-04  0.1691307E+04  0.7818609E-02  0.8766338E-01
        2   -1    0    0  501    0  0.00000000000E+00  0.00000000000E+00  0.74019447412E+03  0.74019447412E+03  0.25500000920E-02 0. -1.
       -2   -1    0    0    0  501  0.00000000000E+00  0.00000000000E+00 -0.96613752316E+03  0.96613752316E+03  0.25500000920E-02 0.  1.
    10030    2    1    2    0    0  0.00000000000E+00  0.00000000000E+00 -0.22594304904E+03  0.17063319973E+04  0.16913067798E+04 0.  0.
        3    1    3    3  502    0  0.18808439061E+03 -0.82256972969E+03 -0.56501535554E+02  0.84568855492E+03  0.10100000352E+00 0.  1.
       -3    1    3    3    0  502 -0.18808439061E+03  0.82256972969E+03 -0.16944151349E+03  0.86064344237E+03  0.10100000352E+00 0. -1.
</event>
<event>
 5   0  0.1930116E-04  0.1700952E+04  0.7818609E-02  0.8760822E-01
        1   -1    0    0  501    0  0.00000000000E+00  0.00000000000E+00  0.83634586002E+03  0.83634586003E+03  0.50400001928E-02 0.  1.
       -1   -1    0    0    0  501  0.00000000000E+00  0.00000000000E+00 -0.86484487235E+03  0.86484487237E+03  0.50400001928E-02 0. -1.
    10030    2    1    2    0    0  0.00000000000E+00  0.00000000000E+00 -0.28499012332E+02  0.17011907324E+04  0.17009520024E+04 0.  0.
        1    1    3    3  502    0 -0.68116119347E+03 -0.13557276755E+03  0.47668482881E+03  0.84237104226E+03  0.50400001928E-02 0.  1.
       -1    1    3    3    0  502  0.68116119347E+03  0.13557276755E+03 -0.50518384114E+03  0.85881969014E+03  0.50400001928E-02 0. -1.
</event>
<event>
 5   0  0.3516723E-04  0.1668497E+04  0.7818609E-02  0.8779539E-01
       -2   -1    0    0    0  501  0.00000000000E+00  0.00000000000E+00  0.10300854762E+04  0.10300854762E+04  0.25500000920E-02 0.  1.
        2   -1    0    0  501    0  0.00000000000E+00  0.00000000000E+00 -0.67564324047E+03  0.67564324048E+03  0.25500000920E-02 0. -1.
    10030    2    1    2    0    0  0.00000000000E+00  0.00000000000E+00  0.35444223576E+03  0.17057287167E+04  0.16684966756E+04 0.  0.
        1    1    3    3  502    0  0.26213328158E+03  0.36721730771E+03  0.89459756339E+03  0.10019317386E+04  0.50400001928E-02 0.  1.
       -1    1    3    3    0  502 -0.26213328158E+03 -0.36721730771E+03 -0.54015532763E+03  0.70379697810E+03  0.50400001928E-02 0. -1.
</event>
<event>
 5   0  0.1893284E-04  0.1465115E+04  0.7818609E-02  0.8907989E-01
        1   -1    0    0  501    0  0.00000000000E+00  0.00000000000E+00  0.21734621390E+04  0.21734621390E+04  0.50400001928E-02 0. -1.
       -1   -1    0    0    0  501  0.00000000000E+00  0.00000000000E+00 -0.24690570214E+03  0.24690570219E+03  0.50400001928E-02 0.  1.
    10030    2    1    2    0    0  0.00000000000E+00  0.00000000000E+00  0.19265564369E+04  0.24203678412E+04  0.14651145970E+04 0.  0.
        2    1    3    3  502    0  0.19349849234E+03  0.17609637187E+03  0.20936471039E+04  0.21099312298E+04  0.25500000920E-02 0. -1.
       -2    1    3    3    0  502 -0.19349849234E+03 -0.17609637187E+03 -0.16709066700E+03  0.31043661145E+03  0.25500000920E-02 0.  1.
</event>
<event>
 5   0  0.1930116E-04  0.1704928E+04  0.7818609E-02  0.8758559E-01
       -1   -1    0    0    0  501  0.00000000000E+00  0.00000000000E+00  0.10127428636E+04  0.10127428637E+04  0.50400001928E-02 0.  1.
        1   -1    0    0  501    0  0.00000000000E+00  0.00000000000E+00 -0.71755118560E+03  0.71755118562E+03  0.50400001928E-02 0. -1.
    10030    2    1    2    0    0  0.00000000000E+00  0.00000000000E+00  0.29519167804E+03  0.17302940493E+04  0.17049279663E+04 0.  0.
        1    1    3    3  502    0 -0.39211990519E+03 -0.63179285575E+03  0.57066078334E+03  0.93732276314E+03  0.50400001928E-02 0.  1.
       -1    1    3    3    0  502  0.39211990519E+03  0.63179285575E+03 -0.27546910530E+03  0.79297128613E+03  0.50400001928E-02 0. -1.
</event>
<event>
 5   0  0.1317625E-04  0.1698248E+04  0.7818609E-02  0.8762364E-01
        4   -1    0    0  501    0  0.00000000000E+00  0.00000000000E+00  0.19391816611E+04  0.19391820770E+04  0.12699999809E+01 0.  1.
       -4   -1    0    0    0  501  0.00000000000E+00  0.00000000000E+00 -0.37181089751E+03  0.37181306649E+03  0.12699999809E+01 0. -1.
    10030    2    1    2    0    0  0.00000000000E+00  0.00000000000E+00  0.15673707636E+04  0.23109951435E+04  0.16982483454E+04 0.  0.
        4    1    3    3  502    0 -0.49272747729E+03 -0.37451731849E+03 -0.74207704638E+01  0.61895094269E+03  0.12699999809E+01 0. -1.
       -4    1    3    3    0  502  0.49272747729E+03  0.37451731849E+03  0.15747915340E+04  0.16920442008E+04  0.12699999809E+01 0.  1.
</event>
<event>
 5   0  0.3516723E-04  0.1698224E+04  0.7818609E-02  0.8762378E-01
        2   -1    0    0  501    0  0.00000000000E+00  0.00000000000E+00  0.10965072918E+04  0.10965072918E+04  0.25500000920E-02 0. -1.
       -2   -1    0    0    0  501  0.00000000000E+00  0.00000000000E+00 -0.65753427645E+03  0.65753427646E+03  0.25500000920E-02 0.  1.
    10030    2    1    2    0    0  0.00000000000E+00  0.00000000000E+00  0.43897301532E+03  0.17540415682E+04  0.16982239296E+04 0.  0.
        1    1    3    3  502    0  0.19748048139E+03 -0.70006297770E+03 -0.23298101188E+03  0.76378456727E+03  0.50400001928E-02 0.  1.
       -1    1    3    3    0  502 -0.19748048139E+03  0.70006297770E+03  0.67195402721E+03  0.99025700097E+03  0.50400001928E-02 0. -1.
</event>
<event>
 5   0  0.1893284E-04  0.1695286E+04  0.7818609E-02  0.8764057E-01
       -1   -1    0    0    0  501  0.00000000000E+00  0.00000000000E+00  0.71048586133E+03  0.71048586134E+03  0.50400001928E-02 0. -1.
        1   -1    0    0  501    0  0.00000000000E+00  0.00000000000E+00 -0.10112784610E+04  0.10112784610E+04  0.50400001928E-02 0.  1.
    10030    2    1    2    0    0  0.00000000000E+00  0.00000000000E+00 -0.30079259967E+03  0.17217643223E+04  0.16952864636E+04 0.  0.
        2    1    3    3  502    0  0.44260973071E+03  0.33173618114E+02 -0.88382138808E+03  0.98901168279E+03  0.25500000920E-02 0.  1.
       -2    1    3    3    0  502 -0.44260973071E+03 -0.33173618114E+02  0.58302878841E+03  0.73275263956E+03  0.25500000920E-02 0. -1.
</event>
<event>
 5   0  0.1893284E-04  0.1717937E+04  0.7818609E-02  0.8751200E-01
       -1   -1    0    0    0  501  0.00000000000E+00  0.00000000000E+00  0.96091270253E+03  0.96091270254E+03  0.50400001928E-02 0.  1.
        1   -1    0    0  501    0  0.00000000000E+00  0.00000000000E+00 -0.76783958521E+03  0.76783958522E+03  0.50400001928E-02 0. -1.
    10030    2    1    2    0    0  0.00000000000E+00  0.00000000000E+00  0.19307311732E+03  0.17287522878E+04  0.17179369150E+04 0.  0.
        2    1    3    3  502    0  0.53000564658E+03 -0.33768854782E+03 -0.49271567437E+03  0.79856638830E+03  0.25500000920E-02 0. -1.
       -2    1    3    3    0  502 -0.53000564658E+03  0.33768854782E+03  0.68578879169E+03  0.93018589946E+03  0.25500000920E-02 0.  1.
</event>
<event>
 5   0  0.3678896E-04  0.1706415E+04  0.7818609E-02  0.8757714E-01
        2   -1    0    0  501    0  0.00000000000E+00  0.00000000000E+00  0.19216120250E+04  0.19216120250E+04  0.25500000920E-02 0.  1.
       -2   -1    0    0    0  501  0.00000000000E+00  0.00000000000E+00 -0.37882937016E+03  0.37882937017E+03  0.25500000920E-02 0. -1.
    10030    2    1    2    0    0  0.00000000000E+00  0.00000000000E+00  0.15427826549E+04  0.23004413952E+04  0.17064150411E+04 0.  0.
        2    1    3    3  502    0  0.16417743870E+03  0.33101136818E+03 -0.26537758394E+03  0.45491539797E+03  0.25500000920E-02 0. -1.
       -2    1    3    3    0  502 -0.16417743870E+03 -0.33101136818E+03  0.18081602388E+04  0.18455259972E+04  0.25500000920E-02 0.  1.
</event>
<event>
 5   0  0.1824538E-04  0.1707617E+04  0.7818609E-02  0.8757032E-01
        1   -1    0    0  501    0  0.00000000000E+00  0.00000000000E+00  0.94217335150E+03  0.94217335152E+03  0.50400001928E-02 0.  1.
       -1   -1    0    0    0  501  0.00000000000E+00  0.00000000000E+00 -0.77373153291E+03  0.77373153292E+03  0.50400001928E-02 0. -1.
    10030    2    1    2    0    0  0.00000000000E+00  0.00000000000E+00  0.16844181860E+03  0.17159048844E+04  0.17076173243E+04 0.  0.
        3    1    3    3  502    0  0.27749810399E+03  0.49901198393E+03  0.72210179569E+03  0.92057002524E+03  0.10100000352E+00 0.  1.
       -3    1    3    3    0  502 -0.27749810399E+03 -0.49901198393E+03 -0.55365997710E+03  0.79533485920E+03  0.10100000352E+00 0. -1.
</event>
<event>
 5   0  0.3573262E-04  0.1684088E+04  0.7818609E-02  0.8770492E-01
       -2   -1    0    0    0  501  0.00000000000E+00  0.00000000000E+00  0.70091996051E+03  0.70091996052E+03  0.25500000920E-02 0. -1.
        2   -1    0    0  501    0  0.00000000000E+00  0.00000000000E+00 -0.10115825274E+04  0.10115825274E+04  0.25500000920E-02 0.  1.
    10030    2    1    2    0    0  0.00000000000E+00  0.00000000000E+00 -0.31066256685E+03  0.17125024879E+04  0.16840883411E+04 0.  0.
        5    1    3    3  502    0  0.37908830158E+03  0.34064263791E+03  0.52625447883E+03  0.73260576960E+03  0.46999998093E+01 0. -1.
       -5    1    3    3    0  502 -0.37908830158E+03 -0.34064263791E+03 -0.83691704568E+03  0.97989671828E+03  0.46999998093E+01 0.  1.
</event>
<event>
 5   0  0.1824538E-04  0.1779680E+04  0.7818609E-02  0.8717180E-01
       -1   -1    0    0    0  501  0.00000000000E+00  0.00000000000E+00  0.54215910659E+03  0.54215910661E+03  0.50400001928E-02 0.  1.
        1   -1    0    0  501    0  0.00000000000E+00  0.00000000000E+00 -0.14604856536E+04  0.14604856536E+04  0.50400001928E-02 0. -1.
    10030    2    1    2    0    0  0.00000000000E+00  0.00000000000E+00 -0.91832654696E+03  0.20026447602E+04  0.17796804175E+04 0.  0.
        3    1    3    3  502    0 -0.46648101929E+03 -0.38020414388E+03 -0.11967655762E+04  0.13395549958E+04  0.10100000352E+00 0. -1.
       -3    1    3    3    0  502  0.46648101929E+03  0.38020414388E+03  0.27843902920E+03  0.66308976434E+03  0.10100000352E+00 0.  1.
</event>
<event>
 5   0  0.3678896E-04  0.1596301E+04  0.7818609E-02  0.8822824E-01
       -2   -1    0    0    0  501  0.00000000000E+00  0.00000000000E+00  0.73615211818E+03  0.73615211818E+03  0.25500000920E-02 0. -1.
        2   -1    0    0  501    0  0.00000000000E+00  0.00000000000E+00 -0.86537032949E+03  0.86537032950E+03  0.25500000920E-02 0.  1.
    10030    2    1    2    0    0  0.00000000000E+00  0.00000000000E+00 -0.12921821132E+03  0.16015224477E+04  0.15963009755E+04 0.  0.
        2    1    3    3  502    0  0.53835379567E+03  0.58911558527E+03 -0.51830924532E+02  0.79973022130E+03  0.25500000920E-02 0. -1.
       -2    1    3    3    0  502 -0.53835379567E+03 -0.58911558527E+03 -0.77387286785E+02  0.80179222638E+03  0.25500000920E-02 0.  1.
</event>
<event>
 5   0  0.3678896E-04  0.1699565E+04  0.7818609E-02  0.8761613E-01
       -2   -1    0    0    0  501  0.00000000000E+00  0.00000000000E+00  0.55959638365E+03  0.55959638366E+03  0.25500000920E-02 0.  1.
        2   -1    0    0  501    0  0.00000000000E+00  0.00000000000E+00 -0.12904480548E+04  0.12904480549E+04  0.25500000920E-02 0. -1.
    10030    2    1    2    0    0  0.00000000000E+00  0.00000000000E+00 -0.73085167120E+03  0.18500444385E+04  0.16995647264E+04 0.  0.
        2    1    3    3  502    0 -0.28633367833E+03 -0.62297310504E+02  0.50285954834E+03  0.58201001332E+03  0.25500000920E-02 0.  1.
       -2    1    3    3    0  502  0.28633367833E+03  0.62297310504E+02 -0.12337112195E+04  0.12680344252E+04  0.25500000920E-02 0. -1.
</event>
<event>
 5   0  0.1930116E-04  0.1692354E+04  0.7818609E-02  0.8765737E-01
        1   -1    0    0  501    0  0.00000000000E+00  0.00000000000E+00  0.97588524779E+03  0.97588524780E+03  0.50400001928E-02 0.  1.
       -1   -1    0    0    0  501  0.00000000000E+00  0.00000000000E+00 -0.73370869101E+03  0.73370869102E+03  0.50400001928E-02 0. -1.
    10030    2    1    2    0    0  0.00000000000E+00  0.00000000000E+00  0.24217655678E+03  0.17095939388E+04  0.16923539674E+04 0.  0.
        1    1    3    3  502    0 -0.36865446138E+03 -0.50257425258E+03  0.69921935028E+03  0.93669348833E+03  0.50400001928E-02 0.  1.
       -1    1    3    3    0  502  0.36865446138E+03  0.50257425258E+03 -0.45704279350E+03  0.77290045049E+03  0.50400001928E-02 0. -1.
</event>
<event>
 5   0  0.3574092E-04  0.1700198E+04  0.7818609E-02  0.8761252E-01
       -2   -1    0    0    0  501  0.00000000000E+00  0.00000000000E+00  0.16761432692E+04  0.16761432692E+04  0.25500000920E-02 0.  1.
        2   -1    0    0  501    0  0.00000000000E+00  0.00000000000E+00 -0.43114935996E+03  0.43114935997E+03  0.25500000920E-02 0. -1.
    10030    2    1    2    0    0  0.00000000000E+00  0.00000000000E+00  0.12449939092E+04  0.21072926291E+04  0.17001977505E+04 0.  0.
        3    1    3    3  502    0 -0.38140090817E+03 -0.68879311662E+03  0.10198248278E+04  0.12883886447E+04  0.10100000352E+00 0. -1.
       -3    1    3    3    0  502  0.38140090817E+03  0.68879311662E+03  0.22516908139E+03  0.81890398440E+03  0.10100000352E+00 0.  1.
</event>
<event>
 5   0  0.3678896E-04  0.1682102E+04  0.7818609E-02  0.8771638E-01
        2   -1    0    0  501    0  0.00000000000E+00  0.00000000000E+00  0.18316413808E+04  0.18316413809E+04  0.25500000920E-02 0. -1.
       -2   -1    0    0    0  501  0.00000000000E+00  0.00000000000E+00 -0.38619296978E+03  0.38619296979E+03  0.25500000920E-02 0.  1.
    10030    2    1    2    0    0  0.00000000000E+00  0.00000000000E+00  0.14454484111E+04  0.22178343506E+04  0.16821022852E+04 0.  0.
        2    1    3    3  502    0  0.55108240166E+03  0.39548106042E+03  0.13783595658E+04  0.15362200934E+04  0.25500000920E-02 0. -1.
       -2    1    3    3    0  502 -0.55108240166E+03 -0.39548106042E+03  0.67088845271E+02  0.68161425729E+03  0.25500000920E-02 0.  1.
</event>
<event>
 5   0  0.1824538E-04  0.1707735E+04  0.7818609E-02  0.8756965E-01
        1   -1    0    0  501    0  0.00000000000E+00  0.00000000000E+00  0.36055340339E+03  0.36055340343E+03  0.50400001928E-02 0.  1.
       -1   -1    0    0    0  501  0.00000000000E+00  0.00000000000E+00 -0.20221402558E+04  0.20221402559E+04  0.50400001928E-02 0. -1.
    10030    2    1    2    0    0  0.00000000000E+00  0.00000000000E+00 -0.16615868524E+04  0.23826936593E+04  0.17077348172E+04 0.  0.
        3    1    3    3  502    0 -0.11431929987E+03 -0.71445416891E+02  0.34561189149E+03  0.37097296351E+03  0.10100000352E+00 0.  1.
       -3    1    3    3    0  502  0.11431929987E+03  0.71445416891E+02 -0.20071987439E+04  0.20117206958E+04  0.10100000352E+00 0. -1.
</event>
<event>
 5   0  0.1824538E-04  0.1661328E+04  0.7818609E-02  0.8783733E-01
        1   -1    0    0  501    0  0.00000000000E+00  0.00000000000E+00  0.12438270847E+04  0.12438270847E+04  0.50400001928E-02 0.  1.
       -1   -1    0    0    0  501  0.00000000000E+00  0.00000000000E+00 -0.55474154282E+03  0.55474154284E+03  0.50400001928E-02 0. -1.
    10030    2    1    2    0    0  0.00000000000E+00  0.00000000000E+00  0.68908554188E+03  0.17985686276E+04  0.16613278496E+04 0.  0.
        3    1    3    3  502    0 -0.46944008270E+03  0.74563680504E+00  0.10864483874E+04  0.11835305894E+04  0.10100000352E+00 0.  1.
       -3    1    3    3    0  502  0.46944008270E+03 -0.74563680504E+00 -0.39736284554E+03  0.61503803820E+03  0.10100000352E+00 0. -1.
</event>
<event>
 5   0  0.1920289E-04  0.1744546E+04  0.7818609E-02  0.8736358E-01
       -1   -1    0    0    0  501  0.00000000000E+00  0.00000000000E+00  0.34700521325E+03  0.34700521328E+03  0.50400001928E-02 0.  1.
        1   -1    0    0  501    0  0.00000000000E+00  0.00000000000E+00 -0.21926478135E+04  0.21926478135E+04  0.50400001928E-02 0. -1.
    10030    2    1    2    0    0  0.00000000000E+00  0.00000000000E+00 -0.18456426003E+04  0.25396530268E+04  0.17445460409E+04 0.  0.
        4    1    3    3  502    0 -0.15732962374E+03 -0.73794511536E+03 -0.28569563553E+03  0.80680803966E+03  0.12699999809E+01 0.  1.
       -4    1    3    3    0  502  0.15732962374E+03  0.73794511536E+03 -0.15599469648E+04  0.17328449872E+04  0.12699999809E+01 0. -1.
</event>
<event>
 5   0  0.3574092E-04  0.1708084E+04  0.7818609E-02  0.8756767E-01
       -2   -1    0    0    0  501  0.00000000000E+00  0.00000000000E+00  0.38781525832E+03  0.38781525833E+03  0.25500000920E-02 0.  1.
        2   -1    0    0  501    0  0.00000000000E+00  0.00000000000E+00 -0.18807602096E+04  0.18807602096E+04  0.25500000920E-02 0. -1.
    10030    2    1    2    0    0  0.00000000000E+00  0.00000000000E+00 -0.14929449513E+04  0.22685754680E+04  0.17080837293E+04 0.  0.
        3    1    3    3  502    0 -0.13796967183E+03 -0.68291871219E+03 -0.90454471406E+02  0.70256360524E+03  0.10100000352E+00 0.  1.
       -3    1    3    3    0  502  0.13796967183E+03  0.68291871219E+03 -0.14024904799E+04  0.15660118627E+04  0.10100000352E+00 0. -1.
</event>
<event>
 5   0  0.3678896E-04  0.1692402E+04  0.7818609E-02  0.8765709E-01
        2   -1    0    0  501    0  0.00000000000E+00  0.00000000000E+00  0.95060466163E+03  0.95060466164E+03  0.25500000920E-02 0. -1.
       -2   -1    0    0    0  501  0.00000000000E+00  0.00000000000E+00 -0.75326417237E+03  0.75326417237E+03  0.25500000920E-02 0.  1.
    10030    2    1    2    0    0  0.00000000000E+00  0.00000000000E+00  0.19734048926E+03  0.17038688340E+04  0.16924023561E+04 0.  0.
        2    1    3    3  502    0 -0.10321850129E+03  0.41734000342E+03  0.83246349076E+03  0.93692166210E+03  0.25500000920E-02 0. -1.
       -2    1    3    3    0  502  0.10321850129E+03 -0.41734000342E+03 -0.63512300150E+03  0.76694717191E+03  0.25500000920E-02 0.  1.
</event>
<event>
 5   0  0.3605571E-04  0.1688638E+04  0.7818609E-02  0.8767871E-01
       -2   -1    0    0    0  501  0.00000000000E+00  0.00000000000E+00  0.33817092309E+03  0.33817092310E+03  0.25500000920E-02 0. -1.
        2   -1    0    0  501    0  0.00000000000E+00  0.00000000000E+00 -0.21080303154E+04  0.21080303154E+04  0.25500000920E-02 0.  1.
    10030    2    1    2    0    0  0.00000000000E+00  0.00000000000E+00 -0.17698593923E+04  0.24462012385E+04  0.16886379810E+04 0.  0.
        4    1    3    3  502    0  0.82095966495E+02  0.14764197426E+03 -0.20832971863E+04  0.20901355649E+04  0.12699999809E+01 0.  1.
       -4    1    3    3    0  502 -0.82095966495E+02 -0.14764197426E+03  0.31343779403E+03  0.35606567358E+03  0.12699999809E+01 0. -1.
</event>
<event>
 5   0  0.1893284E-04  0.1724745E+04  0.7818609E-02  0.8747376E-01
       -1   -1    0    0    0  501  0.00000000000E+00  0.00000000000E+00  0.10162989401E+04  0.10162989401E+04  0.50400001928E-02 0. -1.
        1   -1    0    0  501    0  0.00000000000E+00  0.00000000000E+00 -0.73175967827E+03  0.73175967829E+03  0.50400001928E-02 0.  1.
    10030    2    1    2    0    0  0.00000000000E+00  0.00000000000E+00  0.28453926179E+03  0.17480586184E+04  0.17247452976E+04 0.  0.
        2    1    3    3  502    0  0.60928249325E+03 -0.53278090182E+03  0.44396069009E+03  0.92313690224E+03  0.25500000920E-02 0. -1.
       -2    1    3    3    0  502 -0.60928249325E+03  0.53278090182E+03 -0.15942142830E+03  0.82492171612E+03  0.25500000920E-02 0.  1.
</event>
<event>
 5   0  0.1317625E-04  0.1710699E+04  0.7818609E-02  0.8755285E-01
       -3   -1    0    0    0  501  0.00000000000E+00  0.00000000000E+00  0.11506500751E+04  0.11506500795E+04  0.10100000352E+00 0.  1.
        3   -1    0    0  501    0  0.00000000000E+00  0.00000000000E+00 -0.63583461071E+03  0.63583461874E+03  0.10100000352E+00 0. -1.
    10030    2    1    2    0    0  0.00000000000E+00  0.00000000000E+00  0.51481546436E+03  0.17864846982E+04  0.17106994519E+04 0.  0.
        3    1    3    3  502    0 -0.37553075569E+03 -0.75127606972E+03  0.42639115218E+03  0.94193869560E+03  0.10100000352E+00 0. -1.
       -3    1    3    3    0  502  0.37553075569E+03  0.75127606972E+03  0.88424312182E+02  0.84454600265E+03  0.10100000352E+00 0.  1.
</event>
<event>
 5   0  0.3574092E-04  0.1690624E+04  0.7818609E-02  0.8766730E-01
       -2   -1    0    0    0  501  0.00000000000E+00  0.00000000000E+00  0.15775755406E+04  0.15775755406E+04  0.25500000920E-02 0.  1.
        2   -1    0    0  501    0  0.00000000000E+00  0.00000000000E+00 -0.45294345672E+03  0.45294345673E+03  0.25500000920E-02 0. -1.
    10030    2    1    2    0    0  0.00000000000E+00  0.00000000000E+00  0.11246320838E+04  0.20305189973E+04  0.16906241671E+04 0.  0.
        3    1    3    3  502    0 -0.38502861846E+03  0.38456622354E+03 -0.21458059064E+03  0.58496415053E+03  0.10100000352E+00 0. -1.
       -3    1    3    3    0  502  0.38502861846E+03 -0.38456622354E+03  0.13392126745E+04  0.14455548468E+04  0.10100000352E+00 0.  1.
</event>
<event>
 5   0  0.3678896E-04  0.1596938E+04  0.7818609E-02  0.8822432E-01
       -2   -1    0    0    0  501  0.00000000000E+00  0.00000000000E+00  0.56617904431E+03  0.56617904432E+03  0.25500000920E-02 0.  1.
        2   -1    0    0  501    0  0.00000000000E+00  0.00000000000E+00 -0.11260615001E+04  0.11260615001E+04  0.25500000920E-02 0. -1.
    10030    2    1    2    0    0  0.00000000000E+00  0.00000000000E+00 -0.55988245576E+03  0.16922405444E+04  0.15969375992E+04 0.  0.
        2    1    3    3  502    0 -0.79619678676E+03 -0.14390489720E+02 -0.34187592287E+03  0.86661153701E+03  0.25500000920E-02 0. -1.
       -2    1    3    3    0  502  0.79619678676E+03  0.14390489720E+02 -0.21800653290E+03  0.82562900738E+03  0.25500000920E-02 0.  1.
</event>
<event>
 5   0  0.1930116E-04  0.1588158E+04  0.7818609E-02  0.8827856E-01
       -1   -1    0    0    0  501  0.00000000000E+00  0.00000000000E+00  0.13936143133E+04  0.13936143133E+04  0.50400001928E-02 0. -1.
        1   -1    0    0  501    0  0.00000000000E+00  0.00000000000E+00 -0.45246459974E+03  0.45246459977E+03  0.50400001928E-02 0.  1.
    10030    2    1    2    0    0  0.00000000000E+00  0.00000000000E+00  0.94114971358E+03  0.18460789131E+04  0.15881576024E+04 0.  0.
        1    1    3    3  502    0 -0.32216454240E+03 -0.52981638697E+03 -0.10603524214E+03  0.62907779240E+03  0.50400001928E-02 0.  1.
       -1    1    3    3    0  502  0.32216454240E+03  0.52981638697E+03  0.10471849557E+04  0.12170011207E+04  0.50400001928E-02 0. -1.
</event>
<event>
 5   0  0.1824538E-04  0.1682287E+04  0.7818609E-02  0.8771532E-01
       -1   -1    0    0    0  501  0.00000000000E+00  0.00000000000E+00  0.74123305206E+03  0.74123305208E+03  0.50400001928E-02 0.  1.
        1   -1    0    0  501    0  0.00000000000E+00  0.00000000000E+00 -0.95452098147E+03  0.95452098149E+03  0.50400001928E-02 0. -1.
    10030    2    1    2    0    0  0.00000000000E+00  0.00000000000E+00 -0.21328792941E+03  0.16957540336E+04  0.16822871341E+04 0.  0.
        3    1    3    3  502    0  0.34968301520E+03 -0.20899026401E+03  0.63515969493E+03  0.75457470792E+03  0.10100000352E+00 0.  1.
       -3    1    3    3    0  502 -0.34968301520E+03  0.20899026401E+03 -0.84844762434E+03  0.94117932564E+03  0.10100000352E+00 0. -1.
</event>
<event>
 5   0  0.1920289E-04  0.1694773E+04  0.7818609E-02  0.8764351E-01
        1   -1    0    0  501    0  0.00000000000E+00  0.00000000000E+00  0.14383266296E+04  0.14383266296E+04  0.50400001928E-02 0. -1.
       -1   -1    0    0    0  501  0.00000000000E+00  0.00000000000E+00 -0.49923534444E+03  0.49923534447E+03  0.50400001928E-02 0.  1.
    10030    2    1    2    0    0  0.00000000000E+00  0.00000000000E+00  0.93909128516E+03  0.19375619741E+04  0.16947725398E+04 0.  0.
        4    1    3    3  502    0 -0.48707988784E+03  0.24194778036E+03  0.12124665050E+04  0.13288574733E+04  0.12699999809E+01 0. -1.
       -4    1    3    3    0  502  0.48707988784E+03 -0.24194778036E+03 -0.27337521987E+03  0.60870450080E+03  0.12699999809E+01 0.  1.
</event>
<event>
 5   0  0.1824538E-04  0.1703164E+04  0.7818609E-02  0.8759562E-01
       -1   -1    0    0    0  501  0.00000000000E+00  0.00000000000E+00  0.71816780389E+03  0.71816780391E+03  0.50400001928E-02 0.  1.
        1   -1    0    0  501    0  0.00000000000E+00  0.00000000000E+00 -0.10097811546E+04  0.10097811546E+04  0.50400001928E-02 0. -1.
    10030    2    1    2    0    0  0.00000000000E+00  0.00000000000E+00 -0.29161335067E+03  0.17279489585E+04  0.17031644832E+04 0.  0.
        3    1    3    3  502    0 -0.63542102529E+03  0.42920135818E+03  0.23001414788E+03  0.80054993827E+03  0.10100000352E+00 0.  1.
       -3    1    3    3    0  502  0.63542102529E+03 -0.42920135818E+03 -0.52162749856E+03  0.92739902021E+03  0.10100000352E+00 0. -1.
</event>
<event>
 5   0  0.3574092E-04  0.1712238E+04  0.7818609E-02  0.8754415E-01
        2   -1    0    0  501    0  0.00000000000E+00  0.00000000000E+00  0.22317897355E+04  0.22317897355E+04  0.25500000920E-02 0. -1.
       -2   -1    0    0    0  501  0.00000000000E+00  0.00000000000E+00 -0.32840905116E+03  0.32840905117E+03  0.25500000920E-02 0.  1.
    10030    2    1    2    0    0  0.00000000000E+00  0.00000000000E+00  0.19033806844E+04  0.25601987867E+04  0.17122382421E+04 0.  0.
        3    1    3    3  502    0 -0.62730199546E+03 -0.55348923027E+03  0.67973087788E+03  0.10779110344E+04  0.10100000352E+00 0. -1.
       -3    1    3    3    0  502  0.62730199546E+03  0.55348923027E+03  0.12236498065E+04  0.14822877523E+04  0.10100000352E+00 0.  1.
</event>
<event>
 5   0  0.1893284E-04  0.2004921E+04  0.7818609E-02  0.8604323E-01
       -1   -1    0    0    0  501  0.00000000000E+00  0.00000000000E+00  0.60746046938E+03  0.60746046940E+03  0.50400001928E-02 0. -1.
        1   -1    0    0  501    0  0.00000000000E+00  0.00000000000E+00 -0.16543090272E+04  0.16543090272E+04  0.50400001928E-02 0.  1.
    10030    2    1    2    0    0  0.00000000000E+00  0.00000000000E+00 -0.10468485578E+04  0.22617694966E+04  0.20049212834E+04 0.  0.
        2    1    3    3  502    0  0.68848900378E+03  0.42017702022E+03 -0.11949679849E+04  0.14417053519E+04  0.25500000920E-02 0.  1.
       -2    1    3    3    0  502 -0.68848900378E+03 -0.42017702022E+03  0.14811942717E+03  0.82006414467E+03  0.25500000920E-02 0. -1.
</event>
<event>
 5   0  0.3516723E-04  0.1718922E+04  0.7818609E-02  0.8750646E-01
        2   -1    0    0  501    0  0.00000000000E+00  0.00000000000E+00  0.10093892958E+04  0.10093892958E+04  0.25500000920E-02 0. -1.
       -2   -1    0    0    0  501  0.00000000000E+00  0.00000000000E+00 -0.73180184502E+03  0.73180184503E+03  0.25500000920E-02 0.  1.
    10030    2    1    2    0    0  0.00000000000E+00  0.00000000000E+00  0.27758745076E+03  0.17411911408E+04  0.17189216957E+04 0.  0.
        1    1    3    3  502    0 -0.62595153834E+03 -0.24889680176E+02 -0.45724955870E+03  0.77557203629E+03  0.50400001928E-02 0.  1.
       -1    1    3    3    0  502  0.62595153834E+03  0.24889680176E+02  0.73483700946E+03  0.96561910452E+03  0.50400001928E-02 0. -1.
</event>
<event>
 5   0  0.1893284E-04  0.1685303E+04  0.7818609E-02  0.8769791E-01
       -1   -1    0    0    0  501  0.00000000000E+00  0.00000000000E+00  0.41386010381E+03  0.41386010384E+03  0.50400001928E-02 0. -1.
        1   -1    0    0  501    0  0.00000000000E+00  0.00000000000E+00 -0.17157040344E+04  0.17157040344E+04  0.50400001928E-02 0.  1.
    10030    2    1    2    0    0  0.00000000000E+00  0.00000000000E+00 -0.13018439306E+04  0.21295641382E+04  0.16853028806E+04 0.  0.
        2    1    3    3  502    0 -0.21328345058E+03 -0.13607096946E+03  0.36473709760E+03  0.44388995189E+03  0.25500000920E-02 0. -1.
       -2    1    3    3    0  502  0.21328345058E+03  0.13607096946E+03 -0.16665810282E+04  0.16856741863E+04  0.25500000920E-02 0.  1.
</event>
<event>
 5   0  0.1824538E-04  0.1704329E+04  0.7818609E-02  0.8758899E-01
       -1   -1    0    0    0  501  0.00000000000E+00  0.00000000000E+00  0.88673654427E+03  0.88673654429E+03  0.50400001928E-02 0.  1.
        1   -1    0    0  501    0  0.00000000000E+00  0.00000000000E+00 -0.81894039488E+03  0.81894039489E+03  0.50400001928E-02 0. -1.
    10030    2    1    2    0    0  0.00000000000E+00  0.00000000000E+00  0.67796149395E+02  0.17056769392E+04  0.17043290477E+04 0.  0.
        3    1    3    3  502    0  0.60840170527E+03  0.23716841291E+03  0.58185540569E+03  0.87461832498E+03  0.10100000352E+00 0.  1.
       -3    1    3    3    0  502 -0.60840170527E+03 -0.23716841291E+03 -0.51405925629E+03  0.83105861420E+03  0.10100000352E+00 0. -1.
</event>
<event>
 5   0  0.3516723E-04  0.1681838E+04  0.7818609E-02  0.8771791E-01
       -2   -1    0    0    0  501  0.00000000000E+00  0.00000000000E+00  0.17094199692E+04  0.17094199692E+04  0.25500000920E-02 0.  1.
        2   -1    0    0  501    0  0.00000000000E+00  0.00000000000E+00 -0.41367548822E+03  0.41367548823E+03  0.25500000920E-02 0. -1.
    10030    2    1    2    0    0  0.00000000000E+00  0.00000000000E+00  0.12957444810E+04  0.21230954574E+04  0.16818384469E+04 0.  0.
        1    1    3    3  502    0  0.65775349982E+03 -0.11217220060E+03  0.12939309064E+04  0.14558432126E+04  0.50400001928E-02 0.  1.
       -1    1    3    3    0  502 -0.65775349982E+03  0.11217220060E+03  0.18135745465E+01  0.66725224480E+03  0.50400001928E-02 0. -1.
</event>
<event>
 5   0  0.1920289E-04  0.1707242E+04  0.7818609E-02  0.8757245E-01
        1   -1    0    0  501    0  0.00000000000E+00  0.00000000000E+00  0.10947789074E+04  0.10947789075E+04  0.50400001928E-02 0. -1.
       -1   -1    0    0    0  501  0.00000000000E+00  0.00000000000E+00 -0.66558511766E+03  0.66558511768E+03  0.50400001928E-02 0.  1.
    10030    2    1    2    0    0  0.00000000000E+00  0.00000000000E+00  0.42919378979E+03  0.17603640251E+04  0.17072416911E+04 0.  0.
        4    1    3    3  502    0 -0.44176486284E+03  0.65280194833E+03  0.55245119511E+03  0.96255416141E+03  0.12699999809E+01 0. -1.
       -4    1    3    3    0  502  0.44176486284E+03 -0.65280194833E+03 -0.12325740532E+03  0.79780986372E+03  0.12699999809E+01 0.  1.
</event>
<event>
 5   0  0.3678896E-04  0.1700740E+04  0.7818609E-02  0.8760943E-01
       -2   -1    0    0    0  501  0.00000000000E+00  0.00000000000E+00  0.61871856732E+03  0.61871856732E+03  0.25500000920E-02 0. -1.
        2   -1    0    0  501    0  0.00000000000E+00  0.00000000000E+00 -0.11687523273E+04  0.11687523273E+04  0.25500000920E-02 0.  1.
    10030    2    1    2    0    0  0.00000000000E+00  0.00000000000E+00 -0.55003375999E+03  0.17874708946E+04  0.17007395633E+04 0.  0.
        2    1    3    3  502    0  0.98353043905E+01 -0.19903676611E+03  0.59383123240E+03  0.62637680357E+03  0.25500000920E-02 0. -1.
       -2    1    3    3    0  502 -0.98353043905E+01  0.19903676611E+03 -0.11438649924E+04  0.11610940911E+04  0.25500000920E-02 0.  1.
</event>
<event>
 5   0  0.1815663E-04  0.1699281E+04  0.7818609E-02  0.8761775E-01
        1   -1    0    0  501    0  0.00000000000E+00  0.00000000000E+00  0.13970030746E+04  0.13970030746E+04  0.50400001928E-02 0.  1.
       -1   -1    0    0    0  501  0.00000000000E+00  0.00000000000E+00 -0.51674115148E+03  0.51674115151E+03  0.50400001928E-02 0. -1.
    10030    2    1    2    0    0  0.00000000000E+00  0.00000000000E+00  0.88026192310E+03  0.19137442261E+04  0.16992809979E+04 0.  0.
        5    1    3    3  502    0  0.38068563647E+03 -0.40563292960E+03  0.11633699723E+04  0.12895392238E+04  0.46999998093E+01 0.  1.
       -5    1    3    3    0  502 -0.38068563647E+03  0.40563292960E+03 -0.28310804916E+03  0.62420500229E+03  0.46999998093E+01 0. -1.
</event>
<event>
 5   0  0.3574092E-04  0.1625172E+04  0.7818609E-02  0.8805232E-01
       -2   -1    0    0    0  501  0.00000000000E+00  0.00000000000E+00  0.39036008433E+03  0.39036008434E+03  0.25500000920E-02 0.  1.
        2   -1    0    0  501    0  0.00000000000E+00  0.00000000000E+00 -0.16915044780E+04  0.16915044780E+04  0.25500000920E-02 0. -1.
    10030    2    1    2    0    0  0.00000000000E+00  0.00000000000E+00 -0.13011443936E+04  0.20818645623E+04  0.16251717825E+04 0.  0.
        3    1    3    3  502    0  0.19067682054E+03 -0.61749989271E+03 -0.12815691846E+04  0.14352990464E+04  0.10100000352E+00 0. -1.
       -3    1    3    3    0  502 -0.19067682054E+03  0.61749989271E+03 -0.19575209034E+02  0.64656551594E+03  0.10100000352E+00 0.  1.
</event>
<event>
 5   0  0.1893284E-04  0.1625310E+04  0.7818609E-02  0.8805148E-01
       -1   -1    0    0    0  501  0.00000000000E+00  0.00000000000E+00  0.66413477061E+03  0.66413477063E+03  0.50400001928E-02 0.  1.
        1   -1    0    0  501    0  0.00000000000E+00  0.00000000000E+00 -0.99438886745E+03  0.99438886746E+03  0.50400001928E-02 0. -1.
    10030    2    1    2    0    0  0.00000000000E+00  0.00000000000E+00 -0.33025409684E+03  0.16585236381E+04  0.16253100903E+04 0.  0.
        2    1    3    3  502    0 -0.73696478078E+03 -0.47848330763E+02 -0.51117597825E+03  0.89816893267E+03  0.25500000920E-02 0. -1.
       -2    1    3    3    0  502  0.73696478078E+03  0.47848330763E+02  0.18092188141E+03  0.76035470542E+03  0.25500000920E-02 0.  1.
</event>
<event>
 5   0  0.3678896E-04  0.1627324E+04  0.7818609E-02  0.8803935E-01
        2   -1    0    0  501    0  0.00000000000E+00  0.00000000000E+00  0.10400526514E+04  0.10400526514E+04  0.25500000920E-02 0.  1.
       -2   -1    0    0    0  501  0.00000000000E+00  0.00000000000E+00 -0.63655066623E+03  0.63655066624E+03  0.25500000920E-02 0. -1.
    10030    2    1    2    0    0  0.00000000000E+00  0.00000000000E+00  0.40350198519E+03  0.16766033177E+04  0.16273244399E+04 0.  0.
        2    1    3    3  502    0 -0.73052398049E+03 -0.24817049950E+03 -0.64517301479E+02  0.77421984287E+03  0.25500000920E-02 0. -1.
       -2    1    3    3    0  502  0.73052398049E+03  0.24817049950E+03  0.46801928667E+03  0.90238347480E+03  0.25500000920E-02 0.  1.
</event>
<event>
 5   0  0.3516723E-04  0.1703833E+04  0.7818609E-02  0.8759181E-01
       -2   -1    0    0    0  501  0.00000000000E+00  0.00000000000E+00  0.52689344615E+03  0.52689344616E+03  0.25500000920E-02 0. -1.
        2   -1    0    0  501    0  0.00000000000E+00  0.00000000000E+00 -0.13774358470E+04  0.13774358470E+04  0.25500000920E-02 0.  1.
    10030    2    1    2    0    0  0.00000000000E+00  0.00000000000E+00 -0.85054240085E+03  0.19043292932E+04  0.17038332316E+04 0.  0.
        1    1    3    3  502    0 -0.22662195888E+03  0.81049764082E+03 -0.27742541489E+03  0.88613136661E+03  0.50400001928E-02 0. -1.
       -1    1    3    3    0  502  0.22662195888E+03 -0.81049764082E+03 -0.57311698596E+03  0.10181979266E+04  0.50400001928E-02 0.  1.
</event>
<event>
 5   0  0.1824538E-04  0.1700681E+04  0.7818609E-02  0.8760976E-01
        1   -1    0    0  501    0  0.00000000000E+00  0.00000000000E+00  0.77562585157E+03  0.77562585159E+03  0.50400001928E-02 0. -1.
       -1   -1    0    0    0  501  0.00000000000E+00  0.00000000000E+00 -0.93225207145E+03  0.93225207146E+03  0.50400001928E-02 0.  1.
    10030    2    1    2    0    0  0.00000000000E+00  0.00000000000E+00 -0.15662621987E+03  0.17078779231E+04  0.17006808129E+04 0.  0.
        3    1    3    3  502    0  0.80874957988E+03 -0.65492958732E+02 -0.33377830866E+03  0.87736718660E+03  0.10100000352E+00 0.  1.
       -3    1    3    3    0  502 -0.80874957988E+03  0.65492958732E+02  0.17715208879E+03  0.83051073645E+03  0.10100000352E+00 0. -1.
</event>
<event>
 5   0  0.1920289E-04  0.1702594E+04  0.7818609E-02  0.8759886E-01
        1   -1    0    0  501    0  0.00000000000E+00  0.00000000000E+00  0.99872358675E+03  0.99872358676E+03  0.50400001928E-02 0. -1.
       -1   -1    0    0    0  501  0.00000000000E+00  0.00000000000E+00 -0.72563281371E+03  0.72563281373E+03  0.50400001928E-02 0.  1.
    10030    2    1    2    0    0  0.00000000000E+00  0.00000000000E+00  0.27309077304E+03  0.17243564005E+04  0.17025940284E+04 0.  0.
        4    1    3    3  502    0  0.49796562833E+03  0.25739214394E+03  0.78542527625E+03  0.96494298289E+03  0.12699999809E+01 0. -1.
       -4    1    3    3    0  502 -0.49796562833E+03 -0.25739214394E+03 -0.51233450321E+03  0.75941341760E+03  0.12699999809E+01 0.  1.
</event>
<event>
 5   0  0.3678896E-04  0.1697462E+04  0.7818609E-02  0.8762813E-01
        2   -1    0    0  501    0  0.00000000000E+00  0.00000000000E+00  0.86153136919E+03  0.86153136920E+03  0.25500000920E-02 0.  1.
       -2   -1    0    0    0  501  0.00000000000E+00  0.00000000000E+00 -0.83612076536E+03  0.83612076536E+03  0.25500000920E-02 0. -1.
    10030    2    1    2    0    0  0.00000000000E+00  0.00000000000E+00  0.25410603837E+02  0.16976521346E+04  0.16974619498E+04 0.  0.
        2    1    3    3  502    0  0.41392845327E+03 -0.47186418162E+03 -0.55863070331E+03  0.84027426059E+03  0.25500000920E-02 0. -1.
       -2    1    3    3    0  502 -0.41392845327E+03  0.47186418162E+03  0.58404130714E+03  0.85737787397E+03  0.25500000920E-02 0.  1.
</event>
<event>
 5   0  0.3605571E-04  0.1719332E+04  0.7818609E-02  0.8750415E-01
        2   -1    0    0  501    0  0.00000000000E+00  0.00000000000E+00  0.64082966818E+03  0.64082966819E+03  0.25500000920E-02 0. -1.
       -2   -1    0    0    0  501  0.00000000000E+00  0.00000000000E+00 -0.11532331497E+04  0.11532331497E+04  0.25500000920E-02 0.  1.
    10030    2    1    2    0    0  0.00000000000E+00  0.00000000000E+00 -0.51240348147E+03  0.17940628178E+04  0.17193324479E+04 0.  0.
        4    1    3    3  502    0  0.30031538671E+03 -0.22541628642E+03  0.55072958152E+03  0.66656321421E+03  0.12699999809E+01 0. -1.
       -4    1    3    3    0  502 -0.30031538671E+03  0.22541628642E+03 -0.10631330630E+04  0.11274996036E+04  0.12699999809E+01 0.  1.
</event>
<event>
 5   0  0.3574092E-04  0.1701500E+04  0.7818609E-02  0.8760510E-01
       -2   -1    0    0    0  501  0.00000000000E+00  0.00000000000E+00  0.95591864830E+03  0.95591864830E+03  0.25500000920E-02 0. -1.
        2   -1    0    0  501    0  0.00000000000E+00  0.00000000000E+00 -0.75715140954E+03  0.75715140954E+03  0.25500000920E-02 0.  1.
    10030    2    1    2    0    0  0.00000000000E+00  0.00000000000E+00  0.19876723876E+03  0.17130700578E+04  0.17014995175E+04 0.  0.
        3    1    3    3  502    0  0.73560506443E+03  0.56614502553E+02  0.52588577624E+03  0.90602200446E+03  0.10100000352E+00 0. -1.
       -3    1    3    3    0  502 -0.73560506443E+03 -0.56614502553E+02 -0.32711853748E+03  0.80704805339E+03  0.10100000352E+00 0.  1.
</event>
<event>
 5   0  0.3573262E-04  0.1698666E+04  0.7818609E-02  0.8762125E-01
       -2   -1    0    0    0  501  0.00000000000E+00  0.00000000000E+00  0.78974224826E+03  0.78974224826E+03  0.25500000920E-02 0. -1.
        2   -1    0    0  501    0  0.00000000000E+00  0.00000000000E+00 -0.91342053890E+03  0.91342053890E+03  0.25500000920E-02 0.  1.
    10030    2    1    2    0    0  0.00000000000E+00  0.00000000000E+00 -0.12367829064E+03  0.17031627872E+04  0.16986662886E+04 0.  0.
        5    1    3    3  502    0 -0.37489268095E+03  0.76046093933E+03 -0.11713434269E+02  0.84794142311E+03  0.46999998093E+01 0. -1.
       -5    1    3    3    0  502  0.37489268095E+03 -0.76046093933E+03 -0.11196485637E+03  0.85522136406E+03  0.46999998093E+01 0.  1.
</event>
<event>
 5   0  0.1920289E-04  0.1700904E+04  0.7818609E-02  0.8760849E-01
        1   -1    0    0  501    0  0.00000000000E+00  0.00000000000E+00  0.14718883999E+04  0.14718883999E+04  0.50400001928E-02 0. -1.
       -1   -1    0    0    0  501  0.00000000000E+00  0.00000000000E+00 -0.49138846901E+03  0.49138846904E+03  0.50400001928E-02 0.  1.
    10030    2    1    2    0    0  0.00000000000E+00  0.00000000000E+00  0.98049993092E+03  0.19632768690E+04  0.17009044505E+04 0.  0.
        4    1    3    3  502    0  0.20731358470E+03  0.70654389535E+03  0.98143133198E+03  0.12269442818E+04  0.12699999809E+01 0. -1.
       -4    1    3    3    0  502 -0.20731358470E+03 -0.70654389535E+03 -0.93140106192E+00  0.73633258713E+03  0.12699999809E+01 0.  1.
</event>
<event>
 5   0  0.1815663E-04  0.1644974E+04  0.7818609E-02  0.8793385E-01
       -1   -1    0    0    0  501  0.00000000000E+00  0.00000000000E+00  0.13820927783E+04  0.13820927783E+04  0.50400001928E-02 0. -1.
        1   -1    0    0  501    0  0.00000000000E+00  0.00000000000E+00 -0.48946437753E+03  0.48946437756E+03  0.50400001928E-02 0.  1.
    10030    2    1    2    0    0  0.00000000000E+00  0.00000000000E+00  0.89262840079E+03  0.18715571559E+04  0.16449743846E+04 0.  0.
        5    1    3    3  502    0  0.45067866021E+03 -0.75938843900E+02  0.12243047118E+04  0.13068366692E+04  0.46999998093E+01 0. -1.
       -5    1    3    3    0  502 -0.45067866021E+03  0.75938843900E+02 -0.33167631098E+03  0.56472048666E+03  0.46999998093E+01 0.  1.
</event>
<event>
 5   0  0.1930116E-04  0.1712372E+04  0.7818609E-02  0.8754340E-01
        1   -1    0    0  501    0  0.00000000000E+00  0.00000000000E+00  0.19718099925E+04  0.19718099925E+04  0.50400001928E-02 0. -1.
       -1   -1    0    0    0  501  0.00000000000E+00  0.00000000000E+00 -0.37176717764E+03  0.37176717767E+03  0.50400001928E-02 0.  1.
    10030    2    1    2    0    0  0.00000000000E+00  0.00000000000E+00  0.16000428148E+04  0.23435771701E+04  0.17123717304E+04 0.  0.
        1    1    3    3  502    0  0.15550620362E+03 -0.13244259701E+03  0.19379741574E+04  0.19487090742E+04  0.50400001928E-02 0. -1.
       -1    1    3    3    0  502 -0.15550620362E+03  0.13244259701E+03 -0.33793134261E+03  0.39486809597E+03  0.50400001928E-02 0.  1.
</event>
<event>
 5   0  0.3605571E-04  0.1536843E+04  0.7818609E-02  0.8860316E-01
        2   -1    0    0  501    0  0.00000000000E+00  0.00000000000E+00  0.10056822617E+04  0.10056822617E+04  0.25500000920E-02 0.  1.
       -2   -1    0    0    0  501  0.00000000000E+00  0.00000000000E+00 -0.58713501026E+03  0.58713501026E+03  0.25500000920E-02 0. -1.
    10030    2    1    2    0    0  0.00000000000E+00  0.00000000000E+00  0.41854725143E+03  0.15928172719E+04  0.15368425619E+04 0.  0.
        4    1    3    3  502    0 -0.27573104414E+03 -0.70743459048E+03  0.33180983270E+03  0.82860767948E+03  0.12699999809E+01 0. -1.
       -4    1    3    3    0  502  0.27573104414E+03  0.70743459048E+03  0.86737418730E+02  0.76420959247E+03  0.12699999809E+01 0.  1.
</event>
<event>
 5   0  0.3605571E-04  0.1703959E+04  0.7818609E-02  0.8759110E-01
       -2   -1    0    0    0  501  0.00000000000E+00  0.00000000000E+00  0.10700516102E+04  0.10700516102E+04  0.25500000920E-02 0. -1.
        2   -1    0    0  501    0  0.00000000000E+00  0.00000000000E+00 -0.67834949315E+03  0.67834949315E+03  0.25500000920E-02 0.  1.
    10030    2    1    2    0    0  0.00000000000E+00  0.00000000000E+00  0.39170211702E+03  0.17484011033E+04  0.17039588814E+04 0.  0.
        4    1    3    3  502    0  0.70007566099E+03 -0.45015820873E+03  0.91182462907E+01  0.83236596478E+03  0.12699999809E+01 0.  1.
       -4    1    3    3    0  502 -0.70007566099E+03  0.45015820873E+03  0.38258387073E+03  0.91603513855E+03  0.12699999809E+01 0. -1.
</event>
<event>
 5   0  0.1317625E-04  0.1700594E+04  0.7818609E-02  0.8761026E-01
       -3   -1    0    0    0  501  0.00000000000E+00  0.00000000000E+00  0.12169601069E+04  0.12169601111E+04  0.10100000352E+00 0. -1.
        3   -1    0    0  501    0  0.00000000000E+00  0.00000000000E+00 -0.59410713416E+03  0.59410714274E+03  0.10100000352E+00 0.  1.
    10030    2    1    2    0    0  0.00000000000E+00  0.00000000000E+00  0.62285297273E+03  0.18110672538E+04  0.17005936529E+04 0.  0.
        4    1    3    3  502    0 -0.54431680054E+03  0.36433129622E+03 -0.26599988668E+03  0.70694810656E+03  0.12699999809E+01 0.  1.
       -4    1    3    3    0  502  0.54431680054E+03 -0.36433129622E+03  0.88885285941E+03  0.11041191473E+04  0.12699999809E+01 0. -1.
</event>
<event>
 5   0  0.3678896E-04  0.1699513E+04  0.7818609E-02  0.8761642E-01
        2   -1    0    0  501    0  0.00000000000E+00  0.00000000000E+00  0.12168890857E+04  0.12168890857E+04  0.25500000920E-02 0. -1.
       -2   -1    0    0    0  501  0.00000000000E+00  0.00000000000E+00 -0.59338708997E+03  0.59338708997E+03  0.25500000920E-02 0.  1.
    10030    2    1    2    0    0  0.00000000000E+00  0.00000000000E+00  0.62350199569E+03  0.18102761756E+04  0.16995131931E+04 0.  0.
        2    1    3    3  502    0 -0.25361703654E+03 -0.30948763332E+03 -0.48676115108E+03  0.63011158902E+03  0.25500000920E-02 0.  1.
       -2    1    3    3    0  502  0.25361703654E+03  0.30948763332E+03  0.11102631468E+04  0.11801645866E+04  0.25500000920E-02 0. -1.
</event>
<event>
 5   0  0.1893284E-04  0.1647642E+04  0.7818609E-02  0.8791803E-01
        1   -1    0    0  501    0  0.00000000000E+00  0.00000000000E+00  0.71481819342E+03  0.71481819344E+03  0.50400001928E-02 0.  1.
       -1   -1    0    0    0  501  0.00000000000E+00  0.00000000000E+00 -0.94944583043E+03  0.94944583044E+03  0.50400001928E-02 0. -1.
    10030    2    1    2    0    0  0.00000000000E+00  0.00000000000E+00 -0.23462763700E+03  0.16642640239E+04  0.16476421375E+04 0.  0.
        2    1    3    3  502    0 -0.17128788442E+03  0.17548624667E+03  0.67709746386E+03  0.72013605498E+03  0.25500000920E-02 0.  1.
       -2    1    3    3    0  502  0.17128788442E+03 -0.17548624667E+03 -0.91172510086E+03  0.94412796890E+03  0.25500000920E-02 0. -1.
</event>
<event>
 5   0  0.1824538E-04  0.1638511E+04  0.7818609E-02  0.8797233E-01
        1   -1    0    0  501    0  0.00000000000E+00  0.00000000000E+00  0.10652311793E+04  0.10652311793E+04  0.50400001928E-02 0. -1.
       -1   -1    0    0    0  501  0.00000000000E+00  0.00000000000E+00 -0.63007856347E+03  0.63007856349E+03  0.50400001928E-02 0.  1.
    10030    2    1    2    0    0  0.00000000000E+00  0.00000000000E+00  0.43515261581E+03  0.16953097428E+04  0.16385107033E+04 0.  0.
        3    1    3    3  502    0  0.51004471109E+03  0.24059311913E+03 -0.39728697485E+03  0.68983157863E+03  0.10100000352E+00 0.  1.
       -3    1    3    3    0  502 -0.51004471109E+03 -0.24059311913E+03  0.83243959066E+03  0.10054781642E+04  0.10100000352E+00 0. -1.
</event>
<event>
 5   0  0.3573262E-04  0.1575328E+04  0.7818609E-02  0.8835850E-01
        2   -1    0    0  501    0  0.00000000000E+00  0.00000000000E+00  0.98497959452E+03  0.98497959452E+03  0.25500000920E-02 0.  1.
       -2   -1    0    0    0  501  0.00000000000E+00  0.00000000000E+00 -0.62987541859E+03  0.62987541859E+03  0.25500000920E-02 0. -1.
    10030    2    1    2    0    0  0.00000000000E+00  0.00000000000E+00  0.35510417593E+03  0.16148550131E+04  0.15753278191E+04 0.  0.
        5    1    3    3  502    0  0.68521141498E+03  0.38797993210E+03  0.15839539550E+03  0.80321497885E+03  0.46999998093E+01 0. -1.
       -5    1    3    3    0  502 -0.68521141498E+03 -0.38797993210E+03  0.19670878043E+03  0.81164003427E+03  0.46999998093E+01 0.  1.
</event>
<event>
 5   0  0.3516723E-04  0.1706108E+04  0.7818609E-02  0.8757888E-01
       -2   -1    0    0    0  501  0.00000000000E+00  0.00000000000E+00  0.29417052078E+03  0.29417052079E+03  0.25500000920E-02 0.  1.
        2   -1    0    0  501    0  0.00000000000E+00  0.00000000000E+00 -0.24737391175E+04  0.24737391175E+04  0.25500000920E-02 0. -1.
    10030    2    1    2    0    0  0.00000000000E+00  0.00000000000E+00 -0.21795685967E+04  0.27679096382E+04  0.17061079971E+04 0.  0.
        1    1    3    3  502    0  0.83248795675E+03  0.89098860075E+02 -0.82455898775E+03  0.11751052418E+04  0.50400001928E-02 0. -1.
       -1    1    3    3    0  502 -0.83248795675E+03 -0.89098860075E+02 -0.13550096089E+04  0.15928043964E+04  0.50400001928E-02 0.  1.
</event>
<event>
 5   0  0.1920289E-04  0.1695348E+04  0.7818609E-02  0.8764022E-01
        1   -1    0    0  501    0  0.00000000000E+00  0.00000000000E+00  0.48312038298E+03  0.48312038301E+03  0.50400001928E-02 0.  1.
       -1   -1    0    0    0  501  0.00000000000E+00  0.00000000000E+00 -0.14873135135E+04  0.14873135135E+04  0.50400001928E-02 0. -1.
    10030    2    1    2    0    0  0.00000000000E+00  0.00000000000E+00 -0.10041931305E+04  0.19704338965E+04  0.16953483114E+04 0.  0.
        4    1    3    3  502    0  0.64980317394E+02 -0.47173819389E+03  0.31296984860E+03  0.56983427789E+03  0.12699999809E+01 0.  1.
       -4    1    3    3    0  502 -0.64980317394E+02  0.47173819389E+03 -0.13171629791E+04  0.14005996186E+04  0.12699999809E+01 0. -1.
</event>
<event>
 5   0  0.1920289E-04  0.1701389E+04  0.7818609E-02  0.8760572E-01
       -1   -1    0    0    0  501  0.00000000000E+00  0.00000000000E+00  0.42073860492E+03  0.42073860495E+03  0.50400001928E-02 0.  1.
        1   -1    0    0  501    0  0.00000000000E+00  0.00000000000E+00 -0.17200261484E+04  0.17200261484E+04  0.50400001928E-02 0. -1.
    10030    2    1    2    0    0  0.00000000000E+00  0.00000000000E+00 -0.12992875434E+04  0.21407647533E+04  0.17013893172E+04 0.  0.
        4    1    3    3  502    0  0.37449588276E+03  0.66459611490E+03 -0.17592723347E+03  0.78287110467E+03  0.12699999809E+01 0.  1.
       -4    1    3    3    0  502 -0.37449588276E+03 -0.66459611490E+03 -0.11233603100E+04  0.13578936487E+04  0.12699999809E+01 0. -1.
</event>
<event>
 5   0  0.1815663E-04  0.1671403E+04  0.7818609E-02  0.8777844E-01
        1   -1    0    0  501    0  0.00000000000E+00  0.00000000000E+00  0.16529136259E+04  0.16529136259E+04  0.50400001928E-02 0.  1.
       -1   -1    0    0    0  501  0.00000000000E+00  0.00000000000E+00 -0.42252484533E+03  0.42252484536E+03  0.50400001928E-02 0. -1.
    10030    2    1    2    0    0  0.00000000000E+00  0.00000000000E+00  0.12303887806E+04  0.20754384713E+04  0.16714030922E+04 0.  0.
        5    1    3    3  502    0 -0.16989054355E+03 -0.40387816373E+03  0.14988299840E+04  0.15615677311E+04  0.46999998093E+01 0.  1.
       -5    1    3    3    0  502  0.16989054355E+03  0.40387816373E+03 -0.26844120341E+03  0.51387074018E+03  0.46999998093E+01 0. -1.
</event>
<event>
 5   0  0.3605571E-04  0.1707812E+04  0.7818609E-02  0.8756921E-01
        2   -1    0    0  501    0  0.00000000000E+00  0.00000000000E+00  0.11815323718E+04  0.11815323718E+04  0.25500000920E-02 0. -1.
       -2   -1    0    0    0  501  0.00000000000E+00  0.00000000000E+00 -0.61712708441E+03  0.61712708441E+03  0.25500000920E-02 0.  1.
    10030    2    1    2    0    0  0.00000000000E+00  0.00000000000E+00  0.56440528743E+03  0.17986594563E+04  0.17078122002E+04 0.  0.
        4    1    3    3  502    0  0.52428482112E+03  0.53586709900E+03 -0.14835440602E+03  0.76422428915E+03  0.12699999809E+01 0. -1.
       -4    1    3    3    0  502 -0.52428482112E+03 -0.53586709900E+03  0.71275969345E+03  0.10344351671E+04  0.12699999809E+01 0.  1.
</event>
<event>
 5   0  0.1815663E-04  0.1424273E+04  0.7818609E-02  0.8936434E-01
       -1   -1    0    0    0  501  0.00000000000E+00  0.00000000000E+00  0.44988737803E+03  0.44988737805E+03  0.50400001928E-02 0. -1.
        1   -1    0    0  501    0  0.00000000000E+00  0.00000000000E+00 -0.11272560057E+04  0.11272560057E+04  0.50400001928E-02 0.  1.
    10030    2    1    2    0    0  0.00000000000E+00  0.00000000000E+00 -0.67736862765E+03  0.15771433837E+04  0.14242727952E+04 0.  0.
        5    1    3    3  502    0  0.65657968073E+03 -0.27326503300E+03 -0.29806613969E+03  0.77112655837E+03  0.46999998093E+01 0. -1.
       -5    1    3    3    0  502 -0.65657968073E+03  0.27326503300E+03 -0.37930248796E+03  0.80601682536E+03  0.46999998093E+01 0.  1.
</event>
<event>
 5   0  0.3574092E-04  0.1704457E+04  0.7818609E-02  0.8758827E-01
       -2   -1    0    0    0  501  0.00000000000E+00  0.00000000000E+00  0.10733150074E+04  0.10733150074E+04  0.25500000920E-02 0. -1.
        2   -1    0    0  501    0  0.00000000000E+00  0.00000000000E+00 -0.67668206662E+03  0.67668206663E+03  0.25500000920E-02 0.  1.
    10030    2    1    2    0    0  0.00000000000E+00  0.00000000000E+00  0.39663294076E+03  0.17499970740E+04  0.17044565320E+04 0.  0.
        3    1    3    3  502    0 -0.56847263902E+03 -0.37775095758E+03 -0.32564815501E+03  0.75624312118E+03  0.10100000352E+00 0.  1.
       -3    1    3    3    0  502  0.56847263902E+03  0.37775095758E+03  0.72228109577E+03  0.99375395284E+03  0.10100000352E+00 0. -1.
</event>
<event>
 5   0  0.3574092E-04  0.1702008E+04  0.7818609E-02  0.8760220E-01
        2   -1    0    0  501    0  0.00000000000E+00  0.00000000000E+00  0.23231401156E+04  0.23231401156E+04  0.25500000920E-02 0. -1.
       -2   -1    0    0    0  501  0.00000000000E+00  0.00000000000E+00 -0.31173664735E+03  0.31173664736E+03  0.25500000920E-02 0.  1.
    10030    2    1    2    0    0  0.00000000000E+00  0.00000000000E+00  0.20114034683E+04  0.26348767630E+04  0.17020081210E+04 0.  0.
        3    1    3    3  502    0 -0.13838039447E+03 -0.77998101098E+03  0.14870792963E+04  0.16849107854E+04  0.10100000352E+00 0. -1.
       -3    1    3    3    0  502  0.13838039447E+03  0.77998101098E+03  0.52432417197E+03  0.94996597759E+03  0.10100000352E+00 0.  1.
</event>
<event>
 5   0  0.1317625E-04  0.1708231E+04  0.7818609E-02  0.8756684E-01
        3   -1    0    0  501    0  0.00000000000E+00  0.00000000000E+00  0.56506252718E+03  0.56506253621E+03  0.10100000352E+00 0.  1.
       -3   -1    0    0    0  501  0.00000000000E+00  0.00000000000E+00 -0.12910314847E+04  0.12910314886E+04  0.10100000352E+00 0. -1.
    10030    2    1    2    0    0  0.00000000000E+00  0.00000000000E+00 -0.72596895748E+03  0.18560940248E+04  0.17082312788E+04 0.  0.
        3    1    3    3  502    0 -0.47938165347E+03 -0.65916560937E+03 -0.64044544517E+03  0.10365695581E+04  0.10100000352E+00 0. -1.
       -3    1    3    3    0  502  0.47938165347E+03  0.65916560937E+03 -0.85523512307E+02  0.81952446676E+03  0.10100000352E+00 0.  1.
</event>
<event>
 5   0  0.1815663E-04  0.1702148E+04  0.7818609E-02  0.8760140E-01
        1   -1    0    0  501    0  0.00000000000E+00  0.00000000000E+00  0.50605978618E+03  0.50605978620E+03  0.50400001928E-02 0. -1.
       -1   -1    0    0    0  501  0.00000000000E+00  0.00000000000E+00 -0.14313072822E+04  0.14313072822E+04  0.50400001928E-02 0.  1.
    10030    2    1    2    0    0  0.00000000000E+00  0.00000000000E+00 -0.92524749597E+03  0.19373670684E+04  0.17021481219E+04 0.  0.
        5    1    3    3  502    0 -0.46849953510E+03 -0.68649839679E+03 -0.67104953078E+03  0.10682234906E+04  0.46999998093E+01 0. -1.
       -5    1    3    3    0  502  0.46849953510E+03  0.68649839679E+03 -0.25419796519E+03  0.86914357772E+03  0.46999998093E+01 0.  1.
</event>
<event>
 5   0  0.3574092E-04  0.1503104E+04  0.7818609E-02  0.8882391E-01
       -2   -1    0    0    0  501  0.00000000000E+00  0.00000000000E+00  0.41998566237E+03  0.41998566238E+03  0.25500000920E-02 0. -1.
        2   -1    0    0  501    0  0.00000000000E+00  0.00000000000E+00 -0.13448805618E+04  0.13448805618E+04  0.25500000920E-02 0.  1.
    10030    2    1    2    0    0  0.00000000000E+00  0.00000000000E+00 -0.92489489940E+03  0.17648662241E+04  0.15031041927E+04 0.  0.
        3    1    3    3  502    0 -0.42782290871E+03  0.60614658054E+03 -0.32162595196E+03  0.80863426931E+03  0.10100000352E+00 0. -1.
       -3    1    3    3    0  502  0.42782290871E+03 -0.60614658054E+03 -0.60326894743E+03  0.95623195484E+03  0.10100000352E+00 0.  1.
</event>
<event>
 5   0  0.1317625E-04  0.1698411E+04  0.7818609E-02  0.8762271E-01
       -3   -1    0    0    0  501  0.00000000000E+00  0.00000000000E+00  0.55211679689E+03  0.55211680613E+03  0.10100000352E+00 0.  1.
        3   -1    0    0  501    0  0.00000000000E+00  0.00000000000E+00 -0.13061546269E+04  0.13061546308E+04  0.10100000352E+00 0. -1.
    10030    2    1    2    0    0  0.00000000000E+00  0.00000000000E+00 -0.75403783000E+03  0.18582714369E+04  0.16984109291E+04 0.  0.
        5    1    3    3  502    0  0.29978133322E+03  0.39128807090E+03 -0.11335898439E+04  0.12361323661E+04  0.46999998093E+01 0. -1.
       -5    1    3    3    0  502 -0.29978133322E+03 -0.39128807090E+03  0.37955201394E+03  0.62213907084E+03  0.46999998093E+01 0.  1.
</event>
<event>
 5   0  0.3678896E-04  0.1703584E+04  0.7818609E-02  0.8759323E-01
       -2   -1    0    0    0  501  0.00000000000E+00  0.00000000000E+00  0.54240113120E+03  0.54240113121E+03  0.25500000920E-02 0. -1.
        2   -1    0    0  501    0  0.00000000000E+00  0.00000000000E+00 -0.13376618472E+04  0.13376618472E+04  0.25500000920E-02 0.  1.
    10030    2    1    2    0    0  0.00000000000E+00  0.00000000000E+00 -0.79526071598E+03  0.18800629784E+04  0.17035836335E+04 0.  0.
        2    1    3    3  502    0 -0.78496476850E+03 -0.73606226924E+02 -0.75346292775E+03  0.10905475450E+04  0.25500000920E-02 0.  1.
       -2    1    3    3    0  502  0.78496476850E+03  0.73606226924E+02 -0.41797788233E+02  0.78951543338E+03  0.25500000920E-02 0. -1.
</event>
<event>
 5   0  0.3516723E-04  0.1715187E+04  0.7818609E-02  0.8752750E-01
        2   -1    0    0  501    0  0.00000000000E+00  0.00000000000E+00  0.54365389556E+03  0.54365389557E+03  0.25500000920E-02 0.  1.
       -2   -1    0    0    0  501  0.00000000000E+00  0.00000000000E+00 -0.13528217480E+04  0.13528217480E+04  0.25500000920E-02 0. -1.
    10030    2    1    2    0    0  0.00000000000E+00  0.00000000000E+00 -0.80916785246E+03  0.18964756436E+04  0.17151872356E+04 0.  0.
        1    1    3    3  502    0  0.21824963874E+03 -0.81416691574E+03 -0.57929138625E+03  0.10227801238E+04  0.50400001928E-02 0.  1.
       -1    1    3    3    0  502 -0.21824963874E+03  0.81416691574E+03 -0.22987646621E+03  0.87369551976E+03  0.50400001928E-02 0. -1.
</event>
<event>
 5   0  0.1930116E-04  0.1696738E+04  0.7818609E-02  0.8763227E-01
       -1   -1    0    0    0  501  0.00000000000E+00  0.00000000000E+00  0.79476583241E+03  0.79476583242E+03  0.50400001928E-02 0.  1.
        1   -1    0    0  501    0  0.00000000000E+00  0.00000000000E+00 -0.90558720810E+03  0.90558720811E+03  0.50400001928E-02 0. -1.
    10030    2    1    2    0    0  0.00000000000E+00  0.00000000000E+00 -0.11082137569E+03  0.17003530405E+04  0.16967377774E+04 0.  0.
        1    1    3    3  502    0  0.47480921826E+03 -0.54090804690E+03 -0.50548282333E+03  0.87951020099E+03  0.50400001928E-02 0. -1.
       -1    1    3    3    0  502 -0.47480921826E+03  0.54090804690E+03  0.39466144764E+03  0.82084283954E+03  0.50400001928E-02 0.  1.
</event>
<event>
 5   0  0.3605571E-04  0.1679821E+04  0.7818609E-02  0.8772958E-01
        2   -1    0    0  501    0  0.00000000000E+00  0.00000000000E+00  0.12128879534E+04  0.12128879534E+04  0.25500000920E-02 0.  1.
       -2   -1    0    0    0  501  0.00000000000E+00  0.00000000000E+00 -0.58162786351E+03  0.58162786351E+03  0.25500000920E-02 0. -1.
    10030    2    1    2    0    0  0.00000000000E+00  0.00000000000E+00  0.63126008989E+03  0.17945158169E+04  0.16798207393E+04 0.  0.
        4    1    3    3  502    0  0.43440437973E+03  0.13695584395E+03 -0.43823210103E+03  0.63207045145E+03  0.12699999809E+01 0. -1.
       -4    1    3    3    0  502 -0.43440437973E+03 -0.13695584395E+03  0.10694921909E+04  0.11624453655E+04  0.12699999809E+01 0.  1.
</event>
<event>
 5   0  0.3605571E-04  0.1692594E+04  0.7818609E-02  0.8765600E-01
        2   -1    0    0  501    0  0.00000000000E+00  0.00000000000E+00  0.65773219497E+03  0.65773219497E+03  0.25500000920E-02 0. -1.
       -2   -1    0    0    0  501  0.00000000000E+00  0.00000000000E+00 -0.10889208919E+04  0.10889208919E+04  0.25500000920E-02 0.  1.
    10030    2    1    2    0    0  0.00000000000E+00  0.00000000000E+00 -0.43118869692E+03  0.17466530869E+04  0.16925936646E+04 0.  0.
        4    1    3    3  502    0  0.15188279128E+03 -0.28882604324E+03 -0.10213845108E+04  0.10722484775E+04  0.12699999809E+01 0.  1.
       -4    1    3    3    0  502 -0.15188279128E+03  0.28882604324E+03  0.59019581391E+03  0.67440460941E+03  0.12699999809E+01 0. -1.
</event>
<event>
 5   0  0.3573262E-04  0.1703723E+04  0.7818609E-02  0.8759244E-01
       -2   -1    0    0    0  501  0.00000000000E+00  0.00000000000E+00  0.67394712436E+03  0.67394712437E+03  0.25500000920E-02 0. -1.
        2   -1    0    0  501    0  0.00000000000E+00  0.00000000000E+00 -0.10767427109E+04  0.10767427109E+04  0.25500000920E-02 0.  1.
    10030    2    1    2    0    0  0.00000000000E+00  0.00000000000E+00 -0.40279558655E+03  0.17506898353E+04  0.17037225757E+04 0.  0.
        5    1    3    3  502    0  0.31477882821E+03 -0.69674406354E+03 -0.58739616940E+03  0.96415473374E+03  0.46999998093E+01 0.  1.
       -5    1    3    3    0  502 -0.31477882821E+03  0.69674406354E+03  0.18460058285E+03  0.78653510154E+03  0.46999998093E+01 0. -1.
</event>
<event>
 5   0  0.1920289E-04  0.1712847E+04  0.7818609E-02  0.8754071E-01
        1   -1    0    0  501    0  0.00000000000E+00  0.00000000000E+00  0.11064356240E+04  0.11064356240E+04  0.50400001928E-02 0. -1.
       -1   -1    0    0    0  501  0.00000000000E+00  0.00000000000E+00 -0.66290470474E+03  0.66290470476E+03  0.50400001928E-02 0.  1.
    10030    2    1    2    0    0  0.00000000000E+00  0.00000000000E+00  0.44353091929E+03  0.17693403288E+04  0.17128471977E+04 0.  0.
        4    1    3    3  502    0 -0.44218438776E+03 -0.29622697267E+03 -0.47132029149E+03  0.71093029348E+03  0.12699999809E+01 0.  1.
       -4    1    3    3    0  502  0.44218438776E+03  0.29622697267E+03  0.91485121077E+03  0.10584100353E+04  0.12699999809E+01 0. -1.
</event>
<event>
 5   0  0.1893284E-04  0.1750484E+04  0.7818609E-02  0.8733084E-01
       -1   -1    0    0    0  501  0.00000000000E+00  0.00000000000E+00  0.65369055668E+03  0.65369055670E+03  0.50400001928E-02 0.  1.
        1   -1    0    0  501    0  0.00000000000E+00  0.00000000000E+00 -0.11718827300E+04  0.11718827300E+04  0.50400001928E-02 0. -1.
    10030    2    1    2    0    0  0.00000000000E+00  0.00000000000E+00 -0.51819217331E+03  0.18255732867E+04  0.17504841321E+04 0.  0.
        2    1    3    3  502    0  0.34627864563E+03 -0.44463832360E+03 -0.95747575580E+03  0.11110229350E+04  0.25500000920E-02 0. -1.
       -2    1    3    3    0  502 -0.34627864563E+03  0.44463832360E+03  0.43928358249E+03  0.71455035167E+03  0.25500000920E-02 0.  1.
</event>
<event>
 5   0  0.3574092E-04  0.1716074E+04  0.7818609E-02  0.8752249E-01
       -2   -1    0    0    0  501  0.00000000000E+00  0.00000000000E+00  0.23184808773E+03  0.23184808775E+03  0.25500000920E-02 0.  1.
        2   -1    0    0  501    0  0.00000000000E+00  0.00000000000E+00 -0.31754751818E+04  0.31754751818E+04  0.25500000920E-02 0. -1.
    10030    2    1    2    0    0  0.00000000000E+00  0.00000000000E+00 -0.29436270941E+04  0.34073232696E+04  0.17160744140E+04 0.  0.
        3    1    3    3  502    0  0.47021783034E+03 -0.59894346398E+03 -0.22570155087E+04  0.23820069474E+04  0.10100000352E+00 0. -1.
       -3    1    3    3    0  502 -0.47021783034E+03  0.59894346398E+03 -0.68661158543E+03  0.10253163221E+04  0.10100000352E+00 0.  1.
</event>
<event>
 5   0  0.3516723E-04  0.1693775E+04  0.7818609E-02  0.8764923E-01
        2   -1    0    0  501    0  0.00000000000E+00  0.00000000000E+00  0.53925022697E+03  0.53925022697E+03  0.25500000920E-02 0. -1.
       -2   -1    0    0    0  501  0.00000000000E+00  0.00000000000E+00 -0.13300291479E+04  0.13300291479E+04  0.25500000920E-02 0.  1.
    10030    2    1    2    0    0  0.00000000000E+00  0.00000000000E+00 -0.79077892093E+03  0.18692793749E+04  0.16937750971E+04 0.  0.
        1    1    3    3  502    0  0.39630560029E+03 -0.54914196543E+03  0.16583380193E+03  0.69722010650E+03  0.50400001928E-02 0. -1.
       -1    1    3    3    0  502 -0.39630560029E+03  0.54914196543E+03 -0.95661272286E+03  0.11720592684E+04  0.50400001928E-02 0.  1.
</event>
<event>
 5   0  0.3605571E-04  0.1709822E+04  0.7818609E-02  0.8755782E-01
        2   -1    0    0  501    0  0.00000000000E+00  0.00000000000E+00  0.75224874087E+03  0.75224874088E+03  0.25500000920E-02 0. -1.
       -2   -1    0    0    0  501  0.00000000000E+00  0.00000000000E+00 -0.97158421810E+03  0.97158421810E+03  0.25500000920E-02 0.  1.
    10030    2    1    2    0    0  0.00000000000E+00  0.00000000000E+00 -0.21933547723E+03  0.17238329590E+04  0.17098222185E+04 0.  0.
        4    1    3    3  502    0  0.38124051297E+03 -0.74488709636E+03 -0.28623210948E+03  0.88438201499E+03  0.12699999809E+01 0.  1.
       -4    1    3    3    0  502 -0.38124051297E+03  0.74488709636E+03  0.66896632249E+02  0.83945094398E+03  0.12699999809E+01 0. -1.
</event>
<event>
 5   0  0.1824538E-04  0.1701995E+04  0.7818609E-02  0.8760227E-01
       -1   -1    0    0    0  501  0.00000000000E+00  0.00000000000E+00  0.43536741154E+03  0.43536741157E+03  0.50400001928E-02 0.  1.
        1   -1    0    0  501    0  0.00000000000E+00  0.00000000000E+00 -0.16634154643E+04  0.16634154643E+04  0.50400001928E-02 0. -1.
    10030    2    1    2    0    0  0.00000000000E+00  0.00000000000E+00 -0.12280480528E+04  0.20987828759E+04  0.17019951646E+04 0.  0.
        3    1    3    3  502    0  0.58390896867E+03  0.12587630012E+03  0.13342254498E+03  0.61204257396E+03  0.10100000352E+00 0.  1.
       -3    1    3    3    0  502 -0.58390896867E+03 -0.12587630012E+03 -0.13614705977E+04  0.14867403019E+04  0.10100000352E+00 0. -1.
</event>
<event>
 5   0  0.1930116E-04  0.1725525E+04  0.7818609E-02  0.8746939E-01
        1   -1    0    0  501    0  0.00000000000E+00  0.00000000000E+00  0.13958326309E+04  0.13958326309E+04  0.50400001928E-02 0.  1.
       -1   -1    0    0    0  501  0.00000000000E+00  0.00000000000E+00 -0.53327260695E+03  0.53327260698E+03  0.50400001928E-02 0. -1.
    10030    2    1    2    0    0  0.00000000000E+00  0.00000000000E+00  0.86256002390E+03  0.19291052378E+04  0.17255252023E+04 0.  0.
        1    1    3    3  502    0  0.64100912622E+03 -0.48928176441E+03  0.88385846416E+02  0.81123449308E+03  0.50400001928E-02 0. -1.
       -1    1    3    3    0  502 -0.64100912622E+03  0.48928176441E+03  0.77417417748E+03  0.11178707448E+04  0.50400001928E-02 0.  1.
</event>
<event>
 5   0  0.1893284E-04  0.1710871E+04  0.7818609E-02  0.8755188E-01
        1   -1    0    0  501    0  0.00000000000E+00  0.00000000000E+00  0.17238099353E+04  0.17238099353E+04  0.50400001928E-02 0. -1.
       -1   -1    0    0    0  501  0.00000000000E+00  0.00000000000E+00 -0.42450744473E+03  0.42450744476E+03  0.50400001928E-02 0.  1.
    10030    2    1    2    0    0  0.00000000000E+00  0.00000000000E+00  0.12993024906E+04  0.21483173801E+04  0.17108712995E+04 0.  0.
        2    1    3    3  502    0  0.33647714035E+03  0.77371686905E+03  0.47244598288E+03  0.96698493586E+03  0.25500000920E-02 0. -1.
       -2    1    3    3    0  502 -0.33647714035E+03 -0.77371686905E+03  0.82685650772E+03  0.11813324442E+04  0.25500000920E-02 0.  1.
</event>
<event>
 5   0  0.3516723E-04  0.1707856E+04  0.7818609E-02  0.8756896E-01
        2   -1    0    0  501    0  0.00000000000E+00  0.00000000000E+00  0.10171592950E+04  0.10171592950E+04  0.25500000920E-02 0.  1.
       -2   -1    0    0    0  501  0.00000000000E+00  0.00000000000E+00 -0.71689180758E+03  0.71689180758E+03  0.25500000920E-02 0. -1.
    10030    2    1    2    0    0  0.00000000000E+00  0.00000000000E+00  0.30026748746E+03  0.17340511026E+04  0.17078561598E+04 0.  0.
        1    1    3    3  502    0  0.40039001642E+03 -0.46350606105E+03 -0.45400778253E+03  0.76241268385E+03  0.50400001928E-02 0. -1.
       -1    1    3    3    0  502 -0.40039001642E+03  0.46350606105E+03  0.75427527000E+03  0.97163841877E+03  0.50400001928E-02 0.  1.
</event>
<event>
 5   0  0.3605571E-04  0.1673392E+04  0.7818609E-02  0.8776687E-01
        2   -1    0    0  501    0  0.00000000000E+00  0.00000000000E+00  0.80179738247E+03  0.80179738247E+03  0.25500000920E-02 0.  1.
       -2   -1    0    0    0  501  0.00000000000E+00  0.00000000000E+00 -0.87311386503E+03  0.87311386503E+03  0.25500000920E-02 0. -1.
    10030    2    1    2    0    0  0.00000000000E+00  0.00000000000E+00 -0.71316482563E+02  0.16749112475E+04  0.16733922572E+04 0.  0.
        4    1    3    3  502    0  0.14556566651E+03 -0.59357428416E+03  0.53629638361E+03  0.81310221870E+03  0.12699999809E+01 0.  1.
       -4    1    3    3    0  502 -0.14556566651E+03  0.59357428416E+03 -0.60761286617E+03  0.86180902880E+03  0.12699999809E+01 0. -1.
</event>
<event>
 5   0  0.1815663E-04  0.1687839E+04  0.7818609E-02  0.8768331E-01
        1   -1    0    0  501    0  0.00000000000E+00  0.00000000000E+00  0.14764017476E+04  0.14764017476E+04  0.50400001928E-02 0. -1.
       -1   -1    0    0    0  501  0.00000000000E+00  0.00000000000E+00 -0.48238884997E+03  0.48238885000E+03  0.50400001928E-02 0.  1.
    10030    2    1    2    0    0  0.00000000000E+00  0.00000000000E+00  0.99401289766E+03  0.19587905976E+04  0.16878385482E+04 0.  0.
        5    1    3    3  502    0  0.53735654316E+03  0.38387340008E+03  0.11067738563E+04  0.12888294304E+04  0.46999998093E+01 0. -1.
       -5    1    3    3    0  502 -0.53735654316E+03 -0.38387340008E+03 -0.11276095863E+03  0.66996116720E+03  0.46999998093E+01 0.  1.
</event>
<event>
 5   0  0.3516723E-04  0.1717891E+04  0.7818609E-02  0.8751226E-01
       -2   -1    0    0    0  501  0.00000000000E+00  0.00000000000E+00  0.13716637026E+04  0.13716637026E+04  0.25500000920E-02 0.  1.
        2   -1    0    0  501    0  0.00000000000E+00  0.00000000000E+00 -0.53787754523E+03  0.53787754523E+03  0.25500000920E-02 0. -1.
    10030    2    1    2    0    0  0.00000000000E+00  0.00000000000E+00  0.83378615735E+03  0.19095412478E+04  0.17178906895E+04 0.  0.
        1    1    3    3  502    0  0.28913373584E+03 -0.10185745594E+03  0.13087879662E+04  0.13442095071E+04  0.50400001928E-02 0.  1.
       -1    1    3    3    0  502 -0.28913373584E+03  0.10185745594E+03 -0.47500180888E+03  0.56533174066E+03  0.50400001928E-02 0. -1.
</event>
<event>
 5   0  0.1824538E-04  0.1707918E+04  0.7818609E-02  0.8756861E-01
       -1   -1    0    0    0  501  0.00000000000E+00  0.00000000000E+00  0.10696079294E+04  0.10696079294E+04  0.50400001928E-02 0. -1.
        1   -1    0    0  501    0  0.00000000000E+00  0.00000000000E+00 -0.68178849532E+03  0.68178849534E+03  0.50400001928E-02 0.  1.
    10030    2    1    2    0    0  0.00000000000E+00  0.00000000000E+00  0.38781943410E+03  0.17513964248E+04  0.17079184767E+04 0.  0.
        3    1    3    3  502    0  0.76832925386E+03 -0.70103212365E+02  0.56929139573E+03  0.95882063295E+03  0.10100000352E+00 0. -1.
       -3    1    3    3    0  502 -0.76832925386E+03  0.70103212365E+02 -0.18147196163E+03  0.79257579182E+03  0.10100000352E+00 0.  1.
</event>
<event>
 5   0  0.1317625E-04  0.1707850E+04  0.7818609E-02  0.8756900E-01
       -3   -1    0    0    0  501  0.00000000000E+00  0.00000000000E+00  0.41232120194E+03  0.41232121431E+03  0.10100000352E+00 0.  1.
        3   -1    0    0  501    0  0.00000000000E+00  0.00000000000E+00 -0.17684938471E+04  0.17684938500E+04  0.10100000352E+00 0. -1.
    10030    2    1    2    0    0  0.00000000000E+00  0.00000000000E+00 -0.13561726452E+04  0.21808150643E+04  0.17078495546E+04 0.  0.
        2    1    3    3  502    0 -0.46285282542E+03  0.70857492973E+03 -0.82298543320E+03  0.11805152232E+04  0.25500000920E-02 0. -1.
       -2    1    3    3    0  502  0.46285282542E+03 -0.70857492973E+03 -0.53318721199E+03  0.10002998411E+04  0.25500000920E-02 0.  1.
</event>
<event>
 5   0  0.1815663E-04  0.1678323E+04  0.7818609E-02  0.8773825E-01
       -1   -1    0    0    0  501  0.00000000000E+00  0.00000000000E+00  0.41374161578E+03  0.41374161581E+03  0.50400001928E-02 0. -1.
        1   -1    0    0  501    0  0.00000000000E+00  0.00000000000E+00 -0.17020087047E+04  0.17020087047E+04  0.50400001928E-02 0.  1.
    10030    2    1    2    0    0  0.00000000000E+00  0.00000000000E+00 -0.12882670889E+04  0.21157503205E+04  0.16783227718E+04 0.  0.
        5    1    3    3  502    0 -0.11251244239E+03  0.22625089761E+03 -0.16528935989E+04  0.16721028251E+04  0.46999998093E+01 0.  1.
       -5    1    3    3    0  502  0.11251244239E+03 -0.22625089761E+03  0.36462651002E+03  0.44364749539E+03  0.46999998093E+01 0. -1.
</event>
<event>
 5   0  0.1317625E-04  0.1706152E+04  0.7818609E-02  0.8757863E-01
        4   -1    0    0  501    0  0.00000000000E+00  0.00000000000E+00  0.34405744666E+03  0.34405979059E+03  0.12699999809E+01 0.  1.
       -4   -1    0    0    0  501  0.00000000000E+00  0.00000000000E+00 -0.21151574794E+04  0.21151578607E+04  0.12699999809E+01 0. -1.
    10030    2    1    2    0    0  0.00000000000E+00  0.00000000000E+00 -0.17711000328E+04  0.24592176513E+04  0.17061524347E+04 0.  0.
        2    1    3    3  502    0 -0.25178428864E+03 -0.74201805373E+03 -0.39941108761E+03  0.87949720693E+03  0.25500000920E-02 0.  1.
       -2    1    3    3    0  502  0.25178428864E+03  0.74201805373E+03 -0.13716889451E+04  0.15797204443E+04  0.25500000920E-02 0. -1.
</event>
<event>
 5   0  0.3573262E-04  0.1716239E+04  0.7818609E-02  0.8752157E-01
       -2   -1    0    0    0  501  0.00000000000E+00  0.00000000000E+00  0.12551024721E+04  0.12551024721E+04  0.25500000920E-02 0. -1.
        2   -1    0    0  501    0  0.00000000000E+00  0.00000000000E+00 -0.58670028115E+03  0.58670028116E+03  0.25500000920E-02 0.  1.
    10030    2    1    2    0    0  0.00000000000E+00  0.00000000000E+00  0.66840219095E+03  0.18418027533E+04  0.17162388799E+04 0.  0.
        5    1    3    3  502    0 -0.92862537197E+02 -0.28032942101E+03  0.11988388235E+04  0.12346840283E+04  0.46999998093E+01 0. -1.
       -5    1    3    3    0  502  0.92862537197E+02  0.28032942101E+03 -0.53043663251E+03  0.60711872496E+03  0.46999998093E+01 0.  1.
</event>
<event>
 5   0  0.3605571E-04  0.1589385E+04  0.7818609E-02  0.8827096E-01
        2   -1    0    0  501    0  0.00000000000E+00  0.00000000000E+00  0.94884620831E+03  0.94884620831E+03  0.25500000920E-02 0.  1.
       -2   -1    0    0    0  501  0.00000000000E+00  0.00000000000E+00 -0.66558364435E+03  0.66558364436E+03  0.25500000920E-02 0. -1.
    10030    2    1    2    0    0  0.00000000000E+00  0.00000000000E+00  0.28326256396E+03  0.16144298527E+04  0.15893854375E+04 0.  0.
        4    1    3    3  502    0 -0.61811912633E+03 -0.39450888589E+03 -0.16950628490E+03  0.75262374990E+03  0.12699999809E+01 0. -1.
       -4    1    3    3    0  502  0.61811912633E+03  0.39450888589E+03  0.45276884886E+03  0.86180610278E+03  0.12699999809E+01 0.  1.
</event>
<event>
 5   0  0.1930116E-04  0.1696640E+04  0.7818609E-02  0.8763283E-01
       -1   -1    0    0    0  501  0.00000000000E+00  0.00000000000E+00  0.43877410911E+03  0.43877410913E+03  0.50400001928E-02 0.  1.
        1   -1    0    0  501    0  0.00000000000E+00  0.00000000000E+00 -0.16401300581E+04  0.16401300581E+04  0.50400001928E-02 0. -1.
    10030    2    1    2    0    0  0.00000000000E+00  0.00000000000E+00 -0.12013559490E+04  0.20789041672E+04  0.16966397438E+04 0.  0.
        1    1    3    3  502    0 -0.42621078260E+02 -0.79425103461E+03 -0.23927407395E+03  0.83060420465E+03  0.50400001928E-02 0.  1.
       -1    1    3    3    0  502  0.42621078260E+02  0.79425103461E+03 -0.96208187505E+03  0.12482999626E+04  0.50400001928E-02 0. -1.
</event>
<event>
 5   0  0.3573262E-04  0.1704026E+04  0.7818609E-02  0.8759072E-01
        2   -1    0    0  501    0  0.00000000000E+00  0.00000000000E+00  0.96366620274E+03  0.96366620275E+03  0.25500000920E-02 0. -1.
       -2   -1    0    0    0  501  0.00000000000E+00  0.00000000000E+00 -0.75329599620E+03  0.75329599621E+03  0.25500000920E-02 0.  1.
    10030    2    1    2    0    0  0.00000000000E+00  0.00000000000E+00  0.21037020654E+03  0.17169621990E+04  0.17040256949E+04 0.  0.
        5    1    3    3  502    0  0.68540864207E+03 -0.35655521013E+03  0.46705950638E+03  0.90281963702E+03  0.46999998093E+01 0. -1.
       -5    1    3    3    0  502 -0.68540864207E+03  0.35655521013E+03 -0.25668929984E+03  0.81414256193E+03  0.46999998093E+01 0.  1.
</event>
<event>
 5   0  0.1815663E-04  0.1692705E+04  0.7818609E-02  0.8765536E-01
       -1   -1    0    0    0  501  0.00000000000E+00  0.00000000000E+00  0.57586454182E+03  0.57586454184E+03  0.50400001928E-02 0. -1.
        1   -1    0    0  501    0  0.00000000000E+00  0.00000000000E+00 -0.12438913471E+04  0.12438913471E+04  0.50400001928E-02 0.  1.
    10030    2    1    2    0    0  0.00000000000E+00  0.00000000000E+00 -0.66802680526E+03  0.18197558889E+04  0.16927054329E+04 0.  0.
        5    1    3    3  502    0 -0.25514303399E+03  0.80184283678E+03 -0.23642014723E+03  0.87405175974E+03  0.46999998093E+01 0. -1.
       -5    1    3    3    0  502  0.25514303399E+03 -0.80184283678E+03 -0.43160665803E+03  0.94570412918E+03  0.46999998093E+01 0.  1.
</event>
<event>
 5   0  0.3574092E-04  0.1739073E+04  0.7818609E-02  0.8739388E-01
        2   -1    0    0  501    0  0.00000000000E+00  0.00000000000E+00  0.21458647831E+04  0.21458647831E+04  0.25500000920E-02 0. -1.
       -2   -1    0    0    0  501  0.00000000000E+00  0.00000000000E+00 -0.35234906971E+03  0.35234906972E+03  0.25500000920E-02 0.  1.
    10030    2    1    2    0    0  0.00000000000E+00  0.00000000000E+00  0.17935157134E+04  0.24982138529E+04  0.17390726955E+04 0.  0.
        3    1    3    3  502    0 -0.58424294741E+03  0.59418309640E+03  0.53993330726E+03  0.99293572810E+03  0.10100000352E+00 0.  1.
       -3    1    3    3    0  502  0.58424294741E+03 -0.59418309640E+03  0.12535824062E+04  0.15052781248E+04  0.10100000352E+00 0. -1.
</event>
<event>
 5   0  0.3573262E-04  0.1689269E+04  0.7818609E-02  0.8767508E-01
        2   -1    0    0  501    0  0.00000000000E+00  0.00000000000E+00  0.13435404337E+04  0.13435404337E+04  0.25500000920E-02 0. -1.
       -2   -1    0    0    0  501  0.00000000000E+00  0.00000000000E+00 -0.53099075805E+03  0.53099075806E+03  0.25500000920E-02 0.  1.
    10030    2    1    2    0    0  0.00000000000E+00  0.00000000000E+00  0.81254967565E+03  0.18745311918E+04  0.16892691359E+04 0.  0.
        5    1    3    3  502    0 -0.94229141685E+02 -0.90684671275E+02  0.13322228471E+04  0.13386346197E+04  0.46999998093E+01 0. -1.
       -5    1    3    3    0  502  0.94229141685E+02  0.90684671275E+02 -0.51967317148E+03  0.53589657202E+03  0.46999998093E+01 0.  1.
</event>
<event>
 5   0  0.1920289E-04  0.1697627E+04  0.7818609E-02  0.8762719E-01
        1   -1    0    0  501    0  0.00000000000E+00  0.00000000000E+00  0.14897311547E+04  0.14897311547E+04  0.50400001928E-02 0. -1.
       -1   -1    0    0    0  501  0.00000000000E+00  0.00000000000E+00 -0.48363371077E+03  0.48363371079E+03  0.50400001928E-02 0.  1.
    10030    2    1    2    0    0  0.00000000000E+00  0.00000000000E+00  0.10060974439E+04  0.19733648655E+04  0.16976268217E+04 0.  0.
        4    1    3    3  502    0  0.76600608371E+03 -0.92454626256E+02  0.91430664244E+03  0.11963575667E+04  0.12699999809E+01 0. -1.
       -4    1    3    3    0  502 -0.76600608371E+03  0.92454626256E+02  0.91790801507E+02  0.77700729877E+03  0.12699999809E+01 0.  1.
</event>
<event>
 5   0  0.3574092E-04  0.1699712E+04  0.7818609E-02  0.8761529E-01
       -2   -1    0    0    0  501  0.00000000000E+00  0.00000000000E+00  0.86395577856E+03  0.86395577856E+03  0.25500000920E-02 0.  1.
        2   -1    0    0  501    0  0.00000000000E+00  0.00000000000E+00 -0.83598644302E+03  0.83598644303E+03  0.25500000920E-02 0. -1.
    10030    2    1    2    0    0  0.00000000000E+00  0.00000000000E+00  0.27969335539E+02  0.16999422216E+04  0.16997121147E+04 0.  0.
        3    1    3    3  502    0  0.44611018552E+03  0.61655624995E+03 -0.36435135915E+03  0.84374630671E+03  0.10100000352E+00 0. -1.
       -3    1    3    3    0  502 -0.44611018552E+03 -0.61655624995E+03  0.39232069469E+03  0.85619591488E+03  0.10100000352E+00 0.  1.
</event>
<event>
 5   0  0.3678896E-04  0.1678842E+04  0.7818609E-02  0.8773524E-01
       -2   -1    0    0    0  501  0.00000000000E+00  0.00000000000E+00  0.48667246903E+03  0.48667246904E+03  0.25500000920E-02 0. -1.
        2   -1    0    0  501    0  0.00000000000E+00  0.00000000000E+00 -0.14478481149E+04  0.14478481149E+04  0.25500000920E-02 0.  1.
    10030    2    1    2    0    0  0.00000000000E+00  0.00000000000E+00 -0.96117564589E+03  0.19345205840E+04  0.16788422402E+04 0.  0.
        2    1    3    3  502    0 -0.49957292225E+03 -0.57792854386E+03 -0.79673287030E+02  0.76806402020E+03  0.25500000920E-02 0. -1.
       -2    1    3    3    0  502  0.49957292225E+03  0.57792854386E+03 -0.88150235886E+03  0.11664565638E+04  0.25500000920E-02 0.  1.
</event>
<event>
 5   0  0.3605571E-04  0.1678033E+04  0.7818609E-02  0.8773993E-01
        2   -1    0    0  501    0  0.00000000000E+00  0.00000000000E+00  0.46657988681E+03  0.46657988681E+03  0.25500000920E-02 0. -1.
       -2   -1    0    0    0  501  0.00000000000E+00  0.00000000000E+00 -0.15087421244E+04  0.15087421244E+04  0.25500000920E-02 0.  1.
    10030    2    1    2    0    0  0.00000000000E+00  0.00000000000E+00 -0.10421622376E+04  0.19753220112E+04  0.16780330505E+04 0.  0.
        4    1    3    3  502    0  0.17248070157E+03 -0.81111731038E+03 -0.67130802254E+03  0.10669193773E+04  0.12699999809E+01 0. -1.
       -4    1    3    3    0  502 -0.17248070157E+03  0.81111731038E+03 -0.37085421507E+03  0.90840263394E+03  0.12699999809E+01 0.  1.
</event>
<event>
 5   0  0.3573262E-04  0.1714933E+04  0.7818609E-02  0.8752893E-01
       -2   -1    0    0    0  501  0.00000000000E+00  0.00000000000E+00  0.26722883257E+03  0.26722883258E+03  0.25500000920E-02 0.  1.
        2   -1    0    0  501    0  0.00000000000E+00  0.00000000000E+00 -0.27513826874E+04  0.27513826874E+04  0.25500000920E-02 0. -1.
    10030    2    1    2    0    0  0.00000000000E+00  0.00000000000E+00 -0.24841538548E+04  0.30186115200E+04  0.17149329824E+04 0.  0.
        5    1    3    3  502    0  0.70486510958E+03  0.37907468974E+03 -0.70042302369E+03  0.10635539221E+04  0.46999998093E+01 0.  1.
       -5    1    3    3    0  502 -0.70486510958E+03 -0.37907468974E+03 -0.17837308311E+04  0.19550575979E+04  0.46999998093E+01 0. -1.
</event>
<event>
 5   0  0.3516723E-04  0.1716652E+04  0.7818609E-02  0.8751924E-01
       -2   -1    0    0    0  501  0.00000000000E+00  0.00000000000E+00  0.33812104631E+03  0.33812104632E+03  0.25500000920E-02 0. -1.
        2   -1    0    0  501    0  0.00000000000E+00  0.00000000000E+00 -0.21788740148E+04  0.21788740148E+04  0.25500000920E-02 0.  1.
    10030    2    1    2    0    0  0.00000000000E+00  0.00000000000E+00 -0.18407529684E+04  0.25169950611E+04  0.17166515799E+04 0.  0.
        1    1    3    3  502    0  0.40892079417E+03 -0.86971337250E+02  0.17874655769E+03  0.45467632588E+03  0.50400001928E-02 0. -1.
       -1    1    3    3    0  502 -0.40892079417E+03  0.86971337250E+02 -0.20194995261E+04  0.20623187352E+04  0.50400001928E-02 0.  1.
</event>
<event>
 5   0  0.3516723E-04  0.1664703E+04  0.7818609E-02  0.8781756E-01
       -2   -1    0    0    0  501  0.00000000000E+00  0.00000000000E+00  0.46959753379E+03  0.46959753379E+03  0.25500000920E-02 0.  1.
        2   -1    0    0  501    0  0.00000000000E+00  0.00000000000E+00 -0.14753247448E+04  0.14753247448E+04  0.25500000920E-02 0. -1.
    10030    2    1    2    0    0  0.00000000000E+00  0.00000000000E+00 -0.10057272111E+04  0.19449222786E+04  0.16647028104E+04 0.  0.
        1    1    3    3  502    0 -0.76012888480E+02 -0.39475128232E+03  0.34865770847E+03  0.53213600875E+03  0.50400001928E-02 0.  1.
       -1    1    3    3    0  502  0.76012888480E+02  0.39475128232E+03 -0.13543849195E+04  0.14127862699E+04  0.50400001928E-02 0. -1.
</event>
<event>
 5   0  0.1930116E-04  0.1679320E+04  0.7818609E-02  0.8773248E-01
       -1   -1    0    0    0  501  0.00000000000E+00  0.00000000000E+00  0.14037847940E+04  0.14037847940E+04  0.50400001928E-02 0. -1.
        1   -1    0    0  501    0  0.00000000000E+00  0.00000000000E+00 -0.50223411041E+03  0.50223411044E+03  0.50400001928E-02 0.  1.
    10030    2    1    2    0    0  0.00000000000E+00  0.00000000000E+00  0.90155068355E+03  0.19060189044E+04  0.16793196327E+04 0.  0.
        1    1    3    3  502    0  0.76291295621E+03 -0.24232140347E+03  0.16303064169E+03  0.81690564418E+03  0.50400001928E-02 0. -1.
       -1    1    3    3    0  502 -0.76291295621E+03  0.24232140347E+03  0.73852004186E+03  0.10891132602E+04  0.50400001928E-02 0.  1.
</event>
<event>
 5   0  0.1893284E-04  0.1713926E+04  0.7818609E-02  0.8753462E-01
       -1   -1    0    0    0  501  0.00000000000E+00  0.00000000000E+00  0.60860137157E+03  0.60860137159E+03  0.50400001928E-02 0. -1.
        1   -1    0    0  501    0  0.00000000000E+00  0.00000000000E+00 -0.12066772949E+04  0.12066772949E+04  0.50400001928E-02 0.  1.
    10030    2    1    2    0    0  0.00000000000E+00  0.00000000000E+00 -0.59807592329E+03  0.18152786665E+04  0.17139258522E+04 0.  0.
        2    1    3    3  502    0  0.25469636199E+03  0.80353221931E+03 -0.13546695653E+03  0.85374794911E+03  0.25500000920E-02 0. -1.
       -2    1    3    3    0  502 -0.25469636199E+03 -0.80353221931E+03 -0.46260896676E+03  0.96153071735E+03  0.25500000920E-02 0.  1.
</event>
<event>
 5   0  0.3516723E-04  0.1719347E+04  0.7818609E-02  0.8750406E-01
       -2   -1    0    0    0  501  0.00000000000E+00  0.00000000000E+00  0.11087297326E+04  0.11087297326E+04  0.25500000920E-02 0.  1.
        2   -1    0    0  501    0  0.00000000000E+00  0.00000000000E+00 -0.66656365826E+03  0.66656365826E+03  0.25500000920E-02 0. -1.
    10030    2    1    2    0    0  0.00000000000E+00  0.00000000000E+00  0.44216607431E+03  0.17752933908E+04  0.17193474885E+04 0.  0.
        1    1    3    3  502    0 -0.36124376231E+03 -0.71474369043E+03 -0.10163017427E+03  0.80726965207E+03  0.50400001928E-02 0. -1.
       -1    1    3    3    0  502  0.36124376231E+03  0.71474369043E+03  0.54379624858E+03  0.96802373876E+03  0.50400001928E-02 0.  1.
</event>
<event>
 5   0  0.1815663E-04  0.1650943E+04  0.7818609E-02  0.8789849E-01
        1   -1    0    0  501    0  0.00000000000E+00  0.00000000000E+00  0.65756653756E+03  0.65756653758E+03  0.50400001928E-02 0.  1.
       -1   -1    0    0    0  501  0.00000000000E+00  0.00000000000E+00 -0.10362493353E+04  0.10362493353E+04  0.50400001928E-02 0. -1.
    10030    2    1    2    0    0  0.00000000000E+00  0.00000000000E+00 -0.37868279774E+03  0.16938158729E+04  0.16509426247E+04 0.  0.
        5    1    3    3  502    0  0.18543373209E+03 -0.44216905275E+01 -0.10145773911E+04  0.10314041850E+04  0.46999998093E+01 0. -1.
       -5    1    3    3    0  502 -0.18543373209E+03  0.44216905275E+01  0.63589459337E+03  0.66241168787E+03  0.46999998093E+01 0.  1.
</event>
<event>
 5   0  0.3573262E-04  0.1722108E+04  0.7818609E-02  0.8748855E-01
        2   -1    0    0  501    0  0.00000000000E+00  0.00000000000E+00  0.10665778713E+04  0.10665778713E+04  0.25500000920E-02 0. -1.
       -2   -1    0    0    0  501  0.00000000000E+00  0.00000000000E+00 -0.69513384953E+03  0.69513384953E+03  0.25500000920E-02 0.  1.
    10030    2    1    2    0    0  0.00000000000E+00  0.00000000000E+00  0.37144402181E+03  0.17617117209E+04  0.17221084536E+04 0.  0.
        5    1    3    3  502    0 -0.67440413204E+03  0.52981564390E+03  0.10736590786E+03  0.86433504962E+03  0.46999998093E+01 0.  1.
       -5    1    3    3    0  502  0.67440413204E+03 -0.52981564390E+03  0.26407811395E+03  0.89737667125E+03  0.46999998093E+01 0. -1.
</event>
<event>
 5   0  0.1824538E-04  0.1729176E+04  0.7818609E-02  0.8744897E-01
        1   -1    0    0  501    0  0.00000000000E+00  0.00000000000E+00  0.77148645407E+03  0.77148645409E+03  0.50400001928E-02 0.  1.
       -1   -1    0    0    0  501  0.00000000000E+00  0.00000000000E+00 -0.96892453983E+03  0.96892453984E+03  0.50400001928E-02 0. -1.
    10030    2    1    2    0    0  0.00000000000E+00  0.00000000000E+00 -0.19743808576E+03  0.17404109939E+04  0.17291757083E+04 0.  0.
        3    1    3    3  502    0 -0.10525921618E+03 -0.42731564148E+03  0.65031661704E+03  0.78523236857E+03  0.10100000352E+00 0.  1.
       -3    1    3    3    0  502  0.10525921618E+03  0.42731564148E+03 -0.84775470280E+03  0.95517862537E+03  0.10100000352E+00 0. -1.
</event>
<event>
 5   0  0.3678896E-04  0.1683794E+04  0.7818609E-02  0.8770661E-01
        2   -1    0    0  501    0  0.00000000000E+00  0.00000000000E+00  0.16640178617E+04  0.16640178617E+04  0.25500000920E-02 0. -1.
       -2   -1    0    0    0  501  0.00000000000E+00  0.00000000000E+00 -0.42595149026E+03  0.42595149026E+03  0.25500000920E-02 0.  1.
    10030    2    1    2    0    0  0.00000000000E+00  0.00000000000E+00  0.12380663714E+04  0.20899693519E+04  0.16837943912E+04 0.  0.
        2    1    3    3  502    0 -0.73658265951E+03 -0.36238067439E+03  0.85097020415E+03  0.11823806730E+04  0.25500000920E-02 0. -1.
       -2    1    3    3    0  502  0.73658265951E+03  0.36238067439E+03  0.38709616726E+03  0.90758867896E+03  0.25500000920E-02 0.  1.
</event>
<event>
 5   0  0.1920289E-04  0.1486210E+04  0.7818609E-02  0.8893675E-01
       -1   -1    0    0    0  501  0.00000000000E+00  0.00000000000E+00  0.46463287817E+03  0.46463287820E+03  0.50400001928E-02 0.  1.
        1   -1    0    0  501    0  0.00000000000E+00  0.00000000000E+00 -0.11884759447E+04  0.11884759447E+04  0.50400001928E-02 0. -1.
    10030    2    1    2    0    0  0.00000000000E+00  0.00000000000E+00 -0.72384306656E+03  0.16531088229E+04  0.14862099433E+04 0.  0.
        4    1    3    3  502    0 -0.62718360103E+03 -0.34390337223E+03 -0.58597328099E+03  0.92465944962E+03  0.12699999809E+01 0.  1.
       -4    1    3    3    0  502  0.62718360103E+03  0.34390337223E+03 -0.13786978557E+03  0.72844937333E+03  0.12699999809E+01 0. -1.
</event>
<event>
 5   0  0.1815663E-04  0.1675657E+04  0.7818609E-02  0.8775371E-01
       -1   -1    0    0    0  501  0.00000000000E+00  0.00000000000E+00  0.12276103345E+04  0.12276103345E+04  0.50400001928E-02 0.  1.
        1   -1    0    0  501    0  0.00000000000E+00  0.00000000000E+00 -0.57180724045E+03  0.57180724047E+03  0.50400001928E-02 0. -1.
    10030    2    1    2    0    0  0.00000000000E+00  0.00000000000E+00  0.65580309402E+03  0.17994175750E+04  0.16756568595E+04 0.  0.
        5    1    3    3  502    0  0.81528069324E+03  0.18342242877E+03  0.26339858959E+03  0.87620049255E+03  0.46999998093E+01 0. -1.
       -5    1    3    3    0  502 -0.81528069324E+03 -0.18342242877E+03  0.39240450443E+03  0.92321708240E+03  0.46999998093E+01 0.  1.
</event>
<event>
 5   0  0.1930116E-04  0.1710893E+04  0.7818609E-02  0.8755176E-01
        1   -1    0    0  501    0  0.00000000000E+00  0.00000000000E+00  0.10768592954E+04  0.10768592954E+04  0.50400001928E-02 0.  1.
       -1   -1    0    0    0  501  0.00000000000E+00  0.00000000000E+00 -0.67955828536E+03  0.67955828538E+03  0.50400001928E-02 0. -1.
    10030    2    1    2    0    0  0.00000000000E+00  0.00000000000E+00  0.39730101001E+03  0.17564175808E+04  0.17108929322E+04 0.  0.
        1    1    3    3  502    0 -0.23217561283E+03 -0.20124166992E+03  0.10182578454E+04  0.10636036690E+04  0.50400001928E-02 0.  1.
       -1    1    3    3    0  502  0.23217561283E+03  0.20124166992E+03 -0.62095683540E+03  0.69281391178E+03  0.50400001928E-02 0. -1.
</event>
<event>
 5   0  0.1893284E-04  0.1701512E+04  0.7818609E-02  0.8760503E-01
        1   -1    0    0  501    0  0.00000000000E+00  0.00000000000E+00  0.10210881132E+04  0.10210881133E+04  0.50400001928E-02 0.  1.
       -1   -1    0    0    0  501  0.00000000000E+00  0.00000000000E+00 -0.70883765998E+03  0.70883766000E+03  0.50400001928E-02 0. -1.
    10030    2    1    2    0    0  0.00000000000E+00  0.00000000000E+00  0.31225045327E+03  0.17299257733E+04  0.17015119263E+04 0.  0.
        2    1    3    3  502    0 -0.76281044665E+03  0.35712619313E+03  0.27798846045E+03  0.88695911941E+03  0.25500000920E-02 0.  1.
       -2    1    3    3    0  502  0.76281044665E+03 -0.35712619313E+03  0.34261992818E+02  0.84296665385E+03  0.25500000920E-02 0. -1.
</event>
<event>
 5   0  0.3574092E-04  0.1729378E+04  0.7818609E-02  0.8744784E-01
       -2   -1    0    0    0  501  0.00000000000E+00  0.00000000000E+00  0.12745707415E+04  0.12745707415E+04  0.25500000920E-02 0. -1.
        2   -1    0    0  501    0  0.00000000000E+00  0.00000000000E+00 -0.58661885692E+03  0.58661885692E+03  0.25500000920E-02 0.  1.
    10030    2    1    2    0    0  0.00000000000E+00  0.00000000000E+00  0.68795188454E+03  0.18611895984E+04  0.17293781905E+04 0.  0.
        3    1    3    3  502    0 -0.18840349557E+03  0.83904455991E+03  0.44140538896E+03  0.96660766511E+03  0.10100000352E+00 0.  1.
       -3    1    3    3    0  502  0.18840349557E+03 -0.83904455991E+03  0.24654649558E+03  0.89458193327E+03  0.10100000352E+00 0. -1.
</event>
<event>
 5   0  0.3516723E-04  0.1694000E+04  0.7818609E-02  0.8764794E-01
        2   -1    0    0  501    0  0.00000000000E+00  0.00000000000E+00  0.14364945751E+04  0.14364945751E+04  0.25500000920E-02 0.  1.
       -2   -1    0    0    0  501  0.00000000000E+00  0.00000000000E+00 -0.49941661525E+03  0.49941661525E+03  0.25500000920E-02 0. -1.
    10030    2    1    2    0    0  0.00000000000E+00  0.00000000000E+00  0.93707795986E+03  0.19359111904E+04  0.16940003052E+04 0.  0.
        1    1    3    3  502    0  0.37739091978E+03  0.44977761168E+03  0.11661979238E+04  0.13056574603E+04  0.50400001928E-02 0.  1.
       -1    1    3    3    0  502 -0.37739091978E+03 -0.44977761168E+03 -0.22911996392E+03  0.63025373001E+03  0.50400001928E-02 0. -1.
</event>
<event>
 5   0  0.1893284E-04  0.1699781E+04  0.7818609E-02  0.8761489E-01
        1   -1    0    0  501    0  0.00000000000E+00  0.00000000000E+00  0.69132740931E+03  0.69132740933E+03  0.50400001928E-02 0. -1.
       -1   -1    0    0    0  501  0.00000000000E+00  0.00000000000E+00 -0.10448212621E+04  0.10448212621E+04  0.50400001928E-02 0.  1.
    10030    2    1    2    0    0  0.00000000000E+00  0.00000000000E+00 -0.35349385279E+03  0.17361486715E+04  0.16997806639E+04 0.  0.
        2    1    3    3  502    0  0.16624077468E+03 -0.60297334253E+02 -0.10258221941E+04  0.10409528989E+04  0.25500000920E-02 0.  1.
       -2    1    3    3    0  502 -0.16624077468E+03  0.60297334253E+02  0.67232834132E+03  0.69519577260E+03  0.25500000920E-02 0. -1.
</event>
<event>
 5   0  0.1920289E-04  0.1718754E+04  0.7818609E-02  0.8750740E-01
        1   -1    0    0  501    0  0.00000000000E+00  0.00000000000E+00  0.15407838075E+04  0.15407838075E+04  0.50400001928E-02 0.  1.
       -1   -1    0    0    0  501  0.00000000000E+00  0.00000000000E+00 -0.47931994951E+03  0.47931994954E+03  0.50400001928E-02 0. -1.
    10030    2    1    2    0    0  0.00000000000E+00  0.00000000000E+00  0.10614638580E+04  0.20201037571E+04  0.17187535214E+04 0.  0.
        4    1    3    3  502    0  0.29186626205E+03  0.25192861325E+03  0.14334232851E+04  0.14843712030E+04  0.12699999809E+01 0.  1.
       -4    1    3    3    0  502 -0.29186626205E+03 -0.25192861325E+03 -0.37195942714E+03  0.53573255402E+03  0.12699999809E+01 0. -1.
</event>
<event>
 5   0  0.1824538E-04  0.1707084E+04  0.7818609E-02  0.8757334E-01
        1   -1    0    0  501    0  0.00000000000E+00  0.00000000000E+00  0.15660870716E+04  0.15660870716E+04  0.50400001928E-02 0. -1.
       -1   -1    0    0    0  501  0.00000000000E+00  0.00000000000E+00 -0.46519387651E+03  0.46519387653E+03  0.50400001928E-02 0.  1.
    10030    2    1    2    0    0  0.00000000000E+00  0.00000000000E+00  0.11008931951E+04  0.20312809481E+04  0.17070841992E+04 0.  0.
        3    1    3    3  502    0  0.23527136321E+03 -0.69836105936E+03  0.10629016485E+04  0.12933757026E+04  0.10100000352E+00 0. -1.
       -3    1    3    3    0  502 -0.23527136321E+03  0.69836105936E+03  0.37991546629E+02  0.73790524554E+03  0.10100000352E+00 0.  1.
</event>
<event>
 5   0  0.1920289E-04  0.1692199E+04  0.7818609E-02  0.8765826E-01
        1   -1    0    0  501    0  0.00000000000E+00  0.00000000000E+00  0.67899387097E+03  0.67899387099E+03  0.50400001928E-02 0. -1.
       -1   -1    0    0    0  501  0.00000000000E+00  0.00000000000E+00 -0.10543306522E+04  0.10543306522E+04  0.50400001928E-02 0.  1.
    10030    2    1    2    0    0  0.00000000000E+00  0.00000000000E+00 -0.37533678126E+03  0.17333245232E+04  0.16921986300E+04 0.  0.
        4    1    3    3  502    0  0.18663019574E+03  0.65558585325E+03  0.32577099542E+03  0.75548130043E+03  0.12699999809E+01 0. -1.
       -4    1    3    3    0  502 -0.18663019574E+03 -0.65558585325E+03 -0.70110777669E+03  0.97784322280E+03  0.12699999809E+01 0.  1.
</event>
<event>
 5   0  0.3678896E-04  0.1703690E+04  0.7818609E-02  0.8759263E-01
       -2   -1    0    0    0  501  0.00000000000E+00  0.00000000000E+00  0.52858267352E+03  0.52858267353E+03  0.25500000920E-02 0.  1.
        2   -1    0    0  501    0  0.00000000000E+00  0.00000000000E+00 -0.13728028156E+04  0.13728028156E+04  0.25500000920E-02 0. -1.
    10030    2    1    2    0    0  0.00000000000E+00  0.00000000000E+00 -0.84422014206E+03  0.19013854891E+04  0.17036898573E+04 0.  0.
        2    1    3    3  502    0  0.35540854011E+03  0.62656565084E+03  0.85338381421E+02  0.72538430128E+03  0.25500000920E-02 0.  1.
       -2    1    3    3    0  502 -0.35540854011E+03 -0.62656565084E+03 -0.92955852349E+03  0.11760011878E+04  0.25500000920E-02 0. -1.
</event>
<event>
 5   0  0.3516723E-04  0.1658836E+04  0.7818609E-02  0.8785196E-01
       -2   -1    0    0    0  501  0.00000000000E+00  0.00000000000E+00  0.62394589590E+03  0.62394589590E+03  0.25500000920E-02 0. -1.
        2   -1    0    0  501    0  0.00000000000E+00  0.00000000000E+00 -0.11025539446E+04  0.11025539446E+04  0.25500000920E-02 0.  1.
    10030    2    1    2    0    0  0.00000000000E+00  0.00000000000E+00 -0.47860804865E+03  0.17264998405E+04  0.16588357468E+04 0.  0.
        1    1    3    3  502    0  0.50455483765E+03 -0.21147659090E+03 -0.88813968816E+03  0.10431155441E+04  0.50400001928E-02 0.  1.
       -1    1    3    3    0  502 -0.50455483765E+03  0.21147659090E+03  0.40953163950E+03  0.68338429633E+03  0.50400001928E-02 0. -1.
</event>
<event>
 5   0  0.1930116E-04  0.1847459E+04  0.7818609E-02  0.8681460E-01
       -1   -1    0    0    0  501  0.00000000000E+00  0.00000000000E+00  0.48810740789E+03  0.48810740792E+03  0.50400001928E-02 0. -1.
        1   -1    0    0  501    0  0.00000000000E+00  0.00000000000E+00 -0.17481326332E+04  0.17481326332E+04  0.50400001928E-02 0.  1.
    10030    2    1    2    0    0  0.00000000000E+00  0.00000000000E+00 -0.12600252253E+04  0.22362400411E+04  0.18474593238E+04 0.  0.
        1    1    3    3  502    0  0.29355135058E+03 -0.83569150985E+03 -0.31269286850E+03  0.93932397239E+03  0.50400001928E-02 0. -1.
       -1    1    3    3    0  502 -0.29355135058E+03  0.83569150985E+03 -0.94733235678E+03  0.12969160687E+04  0.50400001928E-02 0.  1.
</event>
<event>
 5   0  0.3678896E-04  0.1702592E+04  0.7818609E-02  0.8759888E-01
        2   -1    0    0  501    0  0.00000000000E+00  0.00000000000E+00  0.17067468311E+04  0.17067468311E+04  0.25500000920E-02 0. -1.
       -2   -1    0    0    0  501  0.00000000000E+00  0.00000000000E+00 -0.42461175382E+03  0.42461175383E+03  0.25500000920E-02 0.  1.
    10030    2    1    2    0    0  0.00000000000E+00  0.00000000000E+00  0.12821350772E+04  0.21313585849E+04  0.17025918657E+04 0.  0.
        2    1    3    3  502    0  0.45987155932E+03 -0.20971478526E+03  0.14985884023E+04  0.15815275343E+04  0.25500000920E-02 0. -1.
       -2    1    3    3    0  502 -0.45987155932E+03  0.20971478526E+03 -0.21645332509E+03  0.54983105057E+03  0.25500000920E-02 0.  1.
</event>
<event>
 5   0  0.1824538E-04  0.1706281E+04  0.7818609E-02  0.8757790E-01
        1   -1    0    0  501    0  0.00000000000E+00  0.00000000000E+00  0.19475640034E+04  0.19475640035E+04  0.50400001928E-02 0.  1.
       -1   -1    0    0    0  501  0.00000000000E+00  0.00000000000E+00 -0.37372257067E+03  0.37372257071E+03  0.50400001928E-02 0. -1.
    10030    2    1    2    0    0  0.00000000000E+00  0.00000000000E+00  0.15738414328E+04  0.23212865742E+04  0.17062808983E+04 0.  0.
        3    1    3    3  502    0  0.49155068159E+03 -0.21687054438E+03  0.16885049046E+04  0.17719209149E+04  0.10100000352E+00 0.  1.
       -3    1    3    3    0  502 -0.49155068159E+03  0.21687054438E+03 -0.11466347184E+03  0.54936565925E+03  0.10100000352E+00 0. -1.
</event>
<event>
 5   0  0.3516723E-04  0.1700851E+04  0.7818609E-02  0.8760879E-01
       -2   -1    0    0    0  501  0.00000000000E+00  0.00000000000E+00  0.74482857843E+03  0.74482857843E+03  0.25500000920E-02 0. -1.
        2   -1    0    0  501    0  0.00000000000E+00  0.00000000000E+00 -0.97099342039E+03  0.97099342039E+03  0.25500000920E-02 0.  1.
    10030    2    1    2    0    0  0.00000000000E+00  0.00000000000E+00 -0.22616484196E+03  0.17158219988E+04  0.17008511387E+04 0.  0.
        1    1    3    3  502    0 -0.69656344339E+03 -0.37183273883E+03 -0.43171605628E+03  0.89991053422E+03  0.50400001928E-02 0.  1.
       -1    1    3    3    0  502  0.69656344339E+03  0.37183273883E+03  0.20555121432E+03  0.81591146460E+03  0.50400001928E-02 0. -1.
</event>
<event>
 5   0  0.1824538E-04  0.1708702E+04  0.7818609E-02  0.8756417E-01
        1   -1    0    0  501    0  0.00000000000E+00  0.00000000000E+00  0.12962809724E+04  0.12962809724E+04  0.50400001928E-02 0.  1.
       -1   -1    0    0    0  501  0.00000000000E+00  0.00000000000E+00 -0.56308436721E+03  0.56308436723E+03  0.50400001928E-02 0. -1.
    10030    2    1    2    0    0  0.00000000000E+00  0.00000000000E+00  0.73319660517E+03  0.18593653396E+04  0.17087019062E+04 0.  0.
        3    1    3    3  502    0 -0.79492745093E+02  0.82459512201E+03  0.59391820443E+03  0.10193208796E+04  0.10100000352E+00 0. -1.
       -3    1    3    3    0  502  0.79492745093E+02 -0.82459512201E+03  0.13927840075E+03  0.84004446006E+03  0.10100000352E+00 0.  1.
</event>
<event>
 5   0  0.3573262E-04  0.1726006E+04  0.7818609E-02  0.8746670E-01
        2   -1    0    0  501    0  0.00000000000E+00  0.00000000000E+00  0.24866009060E+04  0.24866009060E+04  0.25500000920E-02 0.  1.
       -2   -1    0    0    0  501  0.00000000000E+00  0.00000000000E+00 -0.29951501521E+03  0.29951501522E+03  0.25500000920E-02 0. -1.
    10030    2    1    2    0    0  0.00000000000E+00  0.00000000000E+00  0.21870858908E+04  0.27861159212E+04  0.17260061508E+04 0.  0.
        5    1    3    3  502    0  0.37987254206E+03  0.55767812320E+03  0.22510407381E+03  0.71133815542E+03  0.46999998093E+01 0. -1.
       -5    1    3    3    0  502 -0.37987254206E+03 -0.55767812320E+03  0.19619818169E+04  0.20747777658E+04  0.46999998093E+01 0.  1.
</event>
<event>
 5   0  0.3516723E-04  0.1699034E+04  0.7818609E-02  0.8761915E-01
       -2   -1    0    0    0  501  0.00000000000E+00  0.00000000000E+00  0.49946921071E+03  0.49946921072E+03  0.25500000920E-02 0.  1.
        2   -1    0    0  501    0  0.00000000000E+00  0.00000000000E+00 -0.14448924446E+04  0.14448924446E+04  0.25500000920E-02 0. -1.
    10030    2    1    2    0    0  0.00000000000E+00  0.00000000000E+00 -0.94542323388E+03  0.19443616553E+04  0.16990341831E+04 0.  0.
        1    1    3    3  502    0 -0.84573524149E+03  0.80065021845E+02 -0.47372388384E+03  0.97267303066E+03  0.50400001928E-02 0.  1.
       -1    1    3    3    0  502  0.84573524149E+03 -0.80065021845E+02 -0.47169935004E+03  0.97168862465E+03  0.50400001928E-02 0. -1.
</event>
<event>
 5   0  0.1893284E-04  0.1716346E+04  0.7818609E-02  0.8752096E-01
        1   -1    0    0  501    0  0.00000000000E+00  0.00000000000E+00  0.76096553288E+03  0.76096553290E+03  0.50400001928E-02 0. -1.
       -1   -1    0    0    0  501  0.00000000000E+00  0.00000000000E+00 -0.96779817773E+03  0.96779817774E+03  0.50400001928E-02 0.  1.
    10030    2    1    2    0    0  0.00000000000E+00  0.00000000000E+00 -0.20683264485E+03  0.17287637106E+04  0.17163461843E+04 0.  0.
        2    1    3    3  502    0  0.82349196843E+02  0.49973289255E+03  0.59437771554E+03  0.78089642261E+03  0.25500000920E-02 0. -1.
       -2    1    3    3    0  502 -0.82349196843E+02 -0.49973289255E+03 -0.80121036038E+03  0.94786728802E+03  0.25500000920E-02 0.  1.
</event>
<event>
 5   0  0.3678896E-04  0.1688485E+04  0.7818609E-02  0.8767959E-01
        2   -1    0    0  501    0  0.00000000000E+00  0.00000000000E+00  0.18281896002E+04  0.18281896002E+04  0.25500000920E-02 0.  1.
       -2   -1    0    0    0  501  0.00000000000E+00  0.00000000000E+00 -0.38986396956E+03  0.38986396957E+03  0.25500000920E-02 0. -1.
    10030    2    1    2    0    0  0.00000000000E+00  0.00000000000E+00  0.14383256306E+04  0.22180535697E+04  0.16884848292E+04 0.  0.
        2    1    3    3  502    0  0.60804302453E+03 -0.25370565933E+03  0.25714601529E+02  0.65935128876E+03  0.25500000920E-02 0. -1.
       -2    1    3    3    0  502 -0.60804302453E+03  0.25370565933E+03  0.14126110291E+04  0.15587022810E+04  0.25500000920E-02 0.  1.
</event>
<event>
 5   0  0.3516723E-04  0.1645671E+04  0.7818609E-02  0.8792972E-01
        2   -1    0    0  501    0  0.00000000000E+00  0.00000000000E+00  0.10105509042E+04  0.10105509042E+04  0.25500000920E-02 0.  1.
       -2   -1    0    0    0  501  0.00000000000E+00  0.00000000000E+00 -0.66998922528E+03  0.66998922529E+03  0.25500000920E-02 0. -1.
    10030    2    1    2    0    0  0.00000000000E+00  0.00000000000E+00  0.34056167887E+03  0.16805401294E+04  0.16456709481E+04 0.  0.
        1    1    3    3  502    0  0.17435775555E+03 -0.32065239350E+01 -0.65090154057E+03  0.67385734711E+03  0.50400001928E-02 0. -1.
       -1    1    3    3    0  502 -0.17435775555E+03  0.32065239350E+01  0.99146321944E+03  0.10066827823E+04  0.50400001928E-02 0.  1.
</event>
<event>
 5   0  0.1893284E-04  0.1668234E+04  0.7818609E-02  0.8779692E-01
       -1   -1    0    0    0  501  0.00000000000E+00  0.00000000000E+00  0.55590160387E+03  0.55590160389E+03  0.50400001928E-02 0. -1.
        1   -1    0    0  501    0  0.00000000000E+00  0.00000000000E+00 -0.12515721214E+04  0.12515721215E+04  0.50400001928E-02 0.  1.
    10030    2    1    2    0    0  0.00000000000E+00  0.00000000000E+00 -0.69567051757E+03  0.18074737253E+04  0.16682337363E+04 0.  0.
        2    1    3    3  502    0  0.23808524715E+02 -0.79053040913E+03 -0.63499608934E+03  0.10142609167E+04  0.25500000920E-02 0. -1.
       -2    1    3    3    0  502 -0.23808524715E+02  0.79053040913E+03 -0.60674428231E+02  0.79321280868E+03  0.25500000920E-02 0.  1.
</event>
<event>
 5   0  0.1920289E-04  0.1699811E+04  0.7818609E-02  0.8761472E-01
        1   -1    0    0  501    0  0.00000000000E+00  0.00000000000E+00  0.14276728000E+04  0.14276728001E+04  0.50400001928E-02 0.  1.
       -1   -1    0    0    0  501  0.00000000000E+00  0.00000000000E+00 -0.50595577056E+03  0.50595577059E+03  0.50400001928E-02 0. -1.
    10030    2    1    2    0    0  0.00000000000E+00  0.00000000000E+00  0.92171702949E+03  0.19336285706E+04  0.16998109209E+04 0.  0.
        4    1    3    3  502    0 -0.80104817166E+03 -0.15270359183E+03  0.18845950819E+03  0.83696783654E+03  0.12699999809E+01 0. -1.
       -4    1    3    3    0  502  0.80104817166E+03  0.15270359183E+03  0.73325752130E+03  0.10966607341E+04  0.12699999809E+01 0.  1.
</event>
<event>
 5   0  0.3573262E-04  0.1696089E+04  0.7818609E-02  0.8763598E-01
       -2   -1    0    0    0  501  0.00000000000E+00  0.00000000000E+00  0.50065321219E+03  0.50065321220E+03  0.25500000920E-02 0. -1.
        2   -1    0    0  501    0  0.00000000000E+00  0.00000000000E+00 -0.14364831387E+04  0.14364831388E+04  0.25500000920E-02 0.  1.
    10030    2    1    2    0    0  0.00000000000E+00  0.00000000000E+00 -0.93582992656E+03  0.19371363510E+04  0.16960894996E+04 0.  0.
        5    1    3    3  502    0  0.21299224655E+03 -0.45067897867E+03  0.31564919117E+03  0.59002859320E+03  0.46999998093E+01 0. -1.
       -5    1    3    3    0  502 -0.21299224655E+03  0.45067897867E+03 -0.12514791177E+04  0.13471077578E+04  0.46999998093E+01 0.  1.
</event>
<event>
 5   0  0.1815663E-04  0.1672676E+04  0.7818609E-02  0.8777104E-01
        1   -1    0    0  501    0  0.00000000000E+00  0.00000000000E+00  0.98488172759E+03  0.98488172760E+03  0.50400001928E-02 0.  1.
       -1   -1    0    0    0  501  0.00000000000E+00  0.00000000000E+00 -0.71019819792E+03  0.71019819794E+03  0.50400001928E-02 0. -1.
    10030    2    1    2    0    0  0.00000000000E+00  0.00000000000E+00  0.27468352967E+03  0.16950799255E+04  0.16726759736E+04 0.  0.
        5    1    3    3  502    0  0.14661836829E+03 -0.82336660159E+03  0.14048681463E+03  0.84804961035E+03  0.46999998093E+01 0.  1.
       -5    1    3    3    0  502 -0.14661836829E+03  0.82336660159E+03  0.13419671504E+03  0.84703031519E+03  0.46999998093E+01 0. -1.
</event>
<event>
 5   0  0.1824538E-04  0.1688389E+04  0.7818609E-02  0.8768014E-01
        1   -1    0    0  501    0  0.00000000000E+00  0.00000000000E+00  0.48008446938E+03  0.48008446940E+03  0.50400001928E-02 0.  1.
       -1   -1    0    0    0  501  0.00000000000E+00  0.00000000000E+00 -0.14844564947E+04  0.14844564948E+04  0.50400001928E-02 0. -1.
    10030    2    1    2    0    0  0.00000000000E+00  0.00000000000E+00 -0.10043720254E+04  0.19645409642E+04  0.16883891834E+04 0.  0.
        3    1    3    3  502    0  0.27240874231E+03 -0.52019378309E+02  0.42556701789E+03  0.50795652917E+03  0.10100000352E+00 0.  1.
       -3    1    3    3    0  502 -0.27240874231E+03  0.52019378309E+02 -0.14299390433E+04  0.14565844350E+04  0.10100000352E+00 0. -1.
</event>
<event>
 5   0  0.3574092E-04  0.1768968E+04  0.7818609E-02  0.8722978E-01
        2   -1    0    0  501    0  0.00000000000E+00  0.00000000000E+00  0.91334863681E+03  0.91334863681E+03  0.25500000920E-02 0. -1.
       -2   -1    0    0    0  501  0.00000000000E+00  0.00000000000E+00 -0.85653157532E+03  0.85653157533E+03  0.25500000920E-02 0.  1.
    10030    2    1    2    0    0  0.00000000000E+00  0.00000000000E+00  0.56817061484E+02  0.17698802121E+04  0.17689680005E+04 0.  0.
        3    1    3    3  502    0  0.28195493538E+02  0.43591635149E+03  0.79789152538E+03  0.90964220868E+03  0.10100000352E+00 0. -1.
       -3    1    3    3    0  502 -0.28195493538E+02 -0.43591635149E+03 -0.74107446389E+03  0.86023800345E+03  0.10100000352E+00 0.  1.
</event>
<event>
 5   0  0.3573262E-04  0.1662863E+04  0.7818609E-02  0.8782833E-01
       -2   -1    0    0    0  501  0.00000000000E+00  0.00000000000E+00  0.36608010719E+03  0.36608010719E+03  0.25500000920E-02 0.  1.
        2   -1    0    0  501    0  0.00000000000E+00  0.00000000000E+00 -0.18883251030E+04  0.18883251030E+04  0.25500000920E-02 0. -1.
    10030    2    1    2    0    0  0.00000000000E+00  0.00000000000E+00 -0.15222449958E+04  0.22544052102E+04  0.16628629001E+04 0.  0.
        5    1    3    3  502    0  0.61634592438E+03 -0.48797560449E+03 -0.11280584370E+04  0.13749692420E+04  0.46999998093E+01 0. -1.
       -5    1    3    3    0  502 -0.61634592438E+03  0.48797560449E+03 -0.39418655882E+03  0.87943596824E+03  0.46999998093E+01 0.  1.
</event>
<event>
 5   0  0.1815663E-04  0.1706456E+04  0.7818609E-02  0.8757691E-01
       -1   -1    0    0    0  501  0.00000000000E+00  0.00000000000E+00  0.48447729685E+03  0.48447729688E+03  0.50400001928E-02 0. -1.
        1   -1    0    0  501    0  0.00000000000E+00  0.00000000000E+00 -0.15026458421E+04  0.15026458421E+04  0.50400001928E-02 0.  1.
    10030    2    1    2    0    0  0.00000000000E+00  0.00000000000E+00 -0.10181685453E+04  0.19871231390E+04  0.17064557372E+04 0.  0.
        5    1    3    3  502    0  0.13706338670E+02  0.84064857433E+03 -0.33994342286E+03  0.90689663688E+03  0.46999998093E+01 0.  1.
       -5    1    3    3    0  502 -0.13706338670E+02 -0.84064857433E+03 -0.67822512242E+03  0.10802265021E+04  0.46999998093E+01 0. -1.
</event>
<event>
 5   0  0.1893284E-04  0.1661371E+04  0.7818609E-02  0.8783708E-01
        1   -1    0    0  501    0  0.00000000000E+00  0.00000000000E+00  0.10497508567E+04  0.10497508567E+04  0.50400001928E-02 0. -1.
       -1   -1    0    0    0  501  0.00000000000E+00  0.00000000000E+00 -0.65733573807E+03  0.65733573809E+03  0.50400001928E-02 0.  1.
    10030    2    1    2    0    0  0.00000000000E+00  0.00000000000E+00  0.39241511864E+03  0.17070865948E+04  0.16613714265E+04 0.  0.
        2    1    3    3  502    0 -0.21685452636E+03  0.56350342094E+03 -0.38999648353E+03  0.71879012805E+03  0.25500000920E-02 0.  1.
       -2    1    3    3    0  502  0.21685452636E+03 -0.56350342094E+03  0.78241160217E+03  0.98829646677E+03  0.25500000920E-02 0. -1.
</event>
<event>
 5   0  0.3605571E-04  0.1756217E+04  0.7818609E-02  0.8729936E-01
       -2   -1    0    0    0  501  0.00000000000E+00  0.00000000000E+00  0.23336216128E+04  0.23336216128E+04  0.25500000920E-02 0. -1.
        2   -1    0    0  501    0  0.00000000000E+00  0.00000000000E+00 -0.33041973580E+03  0.33041973581E+03  0.25500000920E-02 0.  1.
    10030    2    1    2    0    0  0.00000000000E+00  0.00000000000E+00  0.20032018770E+04  0.26640413486E+04  0.17562171127E+04 0.  0.
        4    1    3    3  502    0 -0.58943823861E+03  0.48095637737E+03  0.16668298045E+04  0.18322335234E+04  0.12699999809E+01 0. -1.
       -4    1    3    3    0  502  0.58943823861E+03 -0.48095637737E+03  0.33637207246E+03  0.83180782522E+03  0.12699999809E+01 0.  1.
</event>
<event>
 5   0  0.3573262E-04  0.1710516E+04  0.7818609E-02  0.8755389E-01
       -2   -1    0    0    0  501  0.00000000000E+00  0.00000000000E+00  0.66250804329E+03  0.66250804329E+03  0.25500000920E-02 0. -1.
        2   -1    0    0  501    0  0.00000000000E+00  0.00000000000E+00 -0.11040865916E+04  0.11040865916E+04  0.25500000920E-02 0.  1.
    10030    2    1    2    0    0  0.00000000000E+00  0.00000000000E+00 -0.44157854830E+03  0.17665946349E+04  0.17105160010E+04 0.  0.
        5    1    3    3  502    0  0.10385184507E+03 -0.76607502153E+03 -0.59855136022E+03  0.97772284680E+03  0.46999998093E+01 0.  1.
       -5    1    3    3    0  502 -0.10385184507E+03  0.76607502153E+03  0.15697281193E+03  0.78887178807E+03  0.46999998093E+01 0. -1.
</event>
<event>
 5   0  0.1930116E-04  0.1691245E+04  0.7818609E-02  0.8766374E-01
       -1   -1    0    0    0  501  0.00000000000E+00  0.00000000000E+00  0.60887334207E+03  0.60887334209E+03  0.50400001928E-02 0.  1.
        1   -1    0    0  501    0  0.00000000000E+00  0.00000000000E+00 -0.11744269374E+04  0.11744269374E+04  0.50400001928E-02 0. -1.
    10030    2    1    2    0    0  0.00000000000E+00  0.00000000000E+00 -0.56555359532E+03  0.17833002795E+04  0.16912448130E+04 0.  0.
        1    1    3    3  502    0 -0.62828707482E+03  0.29434654211E+03 -0.79250726281E+03  0.10533054148E+04  0.50400001928E-02 0. -1.
       -1    1    3    3    0  502  0.62828707482E+03 -0.29434654211E+03  0.22695366749E+03  0.72999486468E+03  0.50400001928E-02 0.  1.
</event>
<event>
 5   0  0.3678896E-04  0.1708574E+04  0.7818609E-02  0.8756489E-01
        2   -1    0    0  501    0  0.00000000000E+00  0.00000000000E+00  0.19743920749E+04  0.19743920749E+04  0.25500000920E-02 0.  1.
       -2   -1    0    0    0  501  0.00000000000E+00  0.00000000000E+00 -0.36963583676E+03  0.36963583677E+03  0.25500000920E-02 0. -1.
    10030    2    1    2    0    0  0.00000000000E+00  0.00000000000E+00  0.16047562381E+04  0.23440279116E+04  0.17085737522E+04 0.  0.
        2    1    3    3  502    0 -0.72277006096E+02  0.82374367346E+03  0.50804286836E+03  0.97050768223E+03  0.25500000920E-02 0. -1.
       -2    1    3    3    0  502  0.72277006096E+02 -0.82374367346E+03  0.10967133697E+04  0.13735202294E+04  0.25500000920E-02 0.  1.
</event>
<event>
 5   0  0.1893284E-04  0.1706074E+04  0.7818609E-02  0.8757908E-01
        1   -1    0    0  501    0  0.00000000000E+00  0.00000000000E+00  0.42858115161E+03  0.42858115164E+03  0.50400001928E-02 0.  1.
       -1   -1    0    0    0  501  0.00000000000E+00  0.00000000000E+00 -0.16978629191E+04  0.16978629191E+04  0.50400001928E-02 0. -1.
    10030    2    1    2    0    0  0.00000000000E+00  0.00000000000E+00 -0.12692817675E+04  0.21264440708E+04  0.17060739084E+04 0.  0.
        2    1    3    3  502    0  0.10128673227E+03 -0.62364631710E+03 -0.13489882945E+04  0.14896184577E+04  0.25500000920E-02 0. -1.
       -2    1    3    3    0  502 -0.10128673227E+03  0.62364631710E+03  0.79706526965E+02  0.63682561303E+03  0.25500000920E-02 0.  1.
</event>
<event>
 5   0  0.3516723E-04  0.1709740E+04  0.7818609E-02  0.8755829E-01
        2   -1    0    0  501    0  0.00000000000E+00  0.00000000000E+00  0.68930329339E+03  0.68930329340E+03  0.25500000920E-02 0. -1.
       -2   -1    0    0    0  501  0.00000000000E+00  0.00000000000E+00 -0.10602047961E+04  0.10602047961E+04  0.25500000920E-02 0.  1.
    10030    2    1    2    0    0  0.00000000000E+00  0.00000000000E+00 -0.37090150274E+03  0.17495080895E+04  0.17097399307E+04 0.  0.
        1    1    3    3  502    0 -0.54091076247E+03 -0.61243900393E+03  0.71663849823E+02  0.82024489872E+03  0.50400001928E-02 0. -1.
       -1    1    3    3    0  502  0.54091076247E+03  0.61243900393E+03 -0.44256535257E+03  0.92926319082E+03  0.50400001928E-02 0.  1.
</event>
<event>
 5   0  0.1824538E-04  0.1700718E+04  0.7818609E-02  0.8760955E-01
        1   -1    0    0  501    0  0.00000000000E+00  0.00000000000E+00  0.68817836172E+03  0.68817836173E+03  0.50400001928E-02 0. -1.
       -1   -1    0    0    0  501  0.00000000000E+00  0.00000000000E+00 -0.10507604091E+04  0.10507604091E+04  0.50400001928E-02 0.  1.
    10030    2    1    2    0    0  0.00000000000E+00  0.00000000000E+00 -0.36258204742E+03  0.17389387709E+04  0.17007181741E+04 0.  0.
        3    1    3    3  502    0 -0.55142956754E+02 -0.19343971878E+02 -0.10487049116E+04  0.10503318222E+04  0.10100000352E+00 0.  1.
       -3    1    3    3    0  502  0.55142956754E+02  0.19343971878E+02  0.68612286414E+03  0.68860694872E+03  0.10100000352E+00 0. -1.
</event>
<event>
 5   0  0.1824538E-04  0.1713133E+04  0.7818609E-02  0.8753910E-01
       -1   -1    0    0    0  501  0.00000000000E+00  0.00000000000E+00  0.57134340887E+03  0.57134340889E+03  0.50400001928E-02 0.  1.
        1   -1    0    0  501    0  0.00000000000E+00  0.00000000000E+00 -0.12841766834E+04  0.12841766834E+04  0.50400001928E-02 0. -1.
    10030    2    1    2    0    0  0.00000000000E+00  0.00000000000E+00 -0.71283327448E+03  0.18555200923E+04  0.17131326672E+04 0.  0.
        3    1    3    3  502    0  0.56301046631E+03  0.45994822172E+02 -0.10538365179E+04  0.11956871353E+04  0.10100000352E+00 0. -1.
       -3    1    3    3    0  502 -0.56301046631E+03 -0.45994822172E+02  0.34100324343E+03  0.65983295695E+03  0.10100000352E+00 0.  1.
</event>
<event>
 5   0  0.3605571E-04  0.1642573E+04  0.7818609E-02  0.8794812E-01
       -2   -1    0    0    0  501  0.00000000000E+00  0.00000000000E+00  0.11025773338E+04  0.11025773338E+04  0.25500000920E-02 0.  1.
        2   -1    0    0  501    0  0.00000000000E+00  0.00000000000E+00 -0.61175896467E+03  0.61175896467E+03  0.25500000920E-02 0. -1.
    10030    2    1    2    0    0  0.00000000000E+00  0.00000000000E+00  0.49081836911E+03  0.17143362985E+04  0.16425730647E+04 0.  0.
        4    1    3    3  502    0 -0.67992770573E+03  0.43019559670E+03  0.73469392835E+02  0.80794139702E+03  0.12699999809E+01 0. -1.
       -4    1    3    3    0  502  0.67992770573E+03 -0.43019559670E+03  0.41734897628E+03  0.90639490143E+03  0.12699999809E+01 0.  1.
</event>
<event>
 5   0  0.3516723E-04  0.1689569E+04  0.7818609E-02  0.8767336E-01
       -2   -1    0    0    0  501  0.00000000000E+00  0.00000000000E+00  0.45717684638E+03  0.45717684639E+03  0.25500000920E-02 0. -1.
        2   -1    0    0  501    0  0.00000000000E+00  0.00000000000E+00 -0.15610166263E+04  0.15610166263E+04  0.25500000920E-02 0.  1.
    10030    2    1    2    0    0  0.00000000000E+00  0.00000000000E+00 -0.11038397799E+04  0.20181934727E+04  0.16895687714E+04 0.  0.
        1    1    3    3  502    0 -0.25511264609E+03  0.32180184252E+03  0.32992834187E+03  0.52677471355E+03  0.50400001928E-02 0. -1.
       -1    1    3    3    0  502  0.25511264609E+03 -0.32180184252E+03 -0.14337681218E+04  0.14914187591E+04  0.50400001928E-02 0.  1.
</event>
<event>
 5   0  0.1317625E-04  0.1775370E+04  0.7818609E-02  0.8719508E-01
        4   -1    0    0  501    0  0.00000000000E+00  0.00000000000E+00  0.86970443728E+03  0.86970536455E+03  0.12699999809E+01 0.  1.
       -4   -1    0    0    0  501  0.00000000000E+00  0.00000000000E+00 -0.90603501407E+03  0.90603590416E+03  0.12699999809E+01 0. -1.
    10030    2    1    2    0    0  0.00000000000E+00  0.00000000000E+00 -0.36330576790E+02  0.17757412687E+04  0.17753695792E+04 0.  0.
        1    1    3    3  502    0 -0.43113468762E+03  0.77592735987E+03 -0.24792304731E+02  0.88800621904E+03  0.50400001928E-02 0.  1.
       -1    1    3    3    0  502  0.43113468762E+03 -0.77592735987E+03 -0.11538272058E+02  0.88773504966E+03  0.50400001928E-02 0. -1.
</event>
<event>
 5   0  0.1920289E-04  0.1713638E+04  0.7818609E-02  0.8753624E-01
        1   -1    0    0  501    0  0.00000000000E+00  0.00000000000E+00  0.10812062632E+04  0.10812062632E+04  0.50400001928E-02 0.  1.
       -1   -1    0    0    0  501  0.00000000000E+00  0.00000000000E+00 -0.67899937383E+03  0.67899937385E+03  0.50400001928E-02 0. -1.
    10030    2    1    2    0    0  0.00000000000E+00  0.00000000000E+00  0.40220688940E+03  0.17602056371E+04  0.17136375063E+04 0.  0.
        4    1    3    3  502    0 -0.21979371782E+03  0.25786916826E+03  0.10094653701E+04  0.10648134732E+04  0.12699999809E+01 0.  1.
       -4    1    3    3    0  502  0.21979371782E+03 -0.25786916826E+03 -0.60725848071E+03  0.69539216391E+03  0.12699999809E+01 0. -1.
</event>
<event>
 5   0  0.1815663E-04  0.1712208E+04  0.7818609E-02  0.8754432E-01
       -1   -1    0    0    0  501  0.00000000000E+00  0.00000000000E+00  0.89364712586E+03  0.89364712588E+03  0.50400001928E-02 0.  1.
        1   -1    0    0  501    0  0.00000000000E+00  0.00000000000E+00 -0.82013824414E+03  0.82013824415E+03  0.50400001928E-02 0. -1.
    10030    2    1    2    0    0  0.00000000000E+00  0.00000000000E+00  0.73508881726E+02  0.17137853700E+04  0.17122081471E+04 0.  0.
        5    1    3    3  502    0  0.68669291335E+03  0.24533140597E+03 -0.41216449060E+03  0.83763733997E+03  0.46999998093E+01 0.  1.
       -5    1    3    3    0  502 -0.68669291335E+03 -0.24533140597E+03  0.48567337233E+03  0.87614803006E+03  0.46999998093E+01 0. -1.
</event>
<event>
 5   0  0.3678896E-04  0.1707306E+04  0.7818609E-02  0.8757208E-01
        2   -1    0    0  501    0  0.00000000000E+00  0.00000000000E+00  0.29524979099E+04  0.29524979099E+04  0.25500000920E-02 0. -1.
       -2   -1    0    0    0  501  0.00000000000E+00  0.00000000000E+00 -0.24681602016E+03  0.24681602017E+03  0.25500000920E-02 0.  1.
    10030    2    1    2    0    0  0.00000000000E+00  0.00000000000E+00  0.27056818898E+04  0.31993139301E+04  0.17073063974E+04 0.  0.
        2    1    3    3  502    0  0.22049287645E+03  0.33320397657E+03  0.27664611105E+04  0.27951653037E+04  0.25500000920E-02 0. -1.
       -2    1    3    3    0  502 -0.22049287645E+03 -0.33320397657E+03 -0.60779220784E+02  0.40414862644E+03  0.25500000920E-02 0.  1.
</event>
<event>
 5   0  0.1920289E-04  0.1696987E+04  0.7818609E-02  0.8763084E-01
        1   -1    0    0  501    0  0.00000000000E+00  0.00000000000E+00  0.78666702308E+03  0.78666702309E+03  0.50400001928E-02 0.  1.
       -1   -1    0    0    0  501  0.00000000000E+00  0.00000000000E+00 -0.91517962010E+03  0.91517962011E+03  0.50400001928E-02 0. -1.
    10030    2    1    2    0    0  0.00000000000E+00  0.00000000000E+00 -0.12851259702E+03  0.17018466432E+04  0.16969874806E+04 0.  0.
        4    1    3    3  502    0  0.58605424628E+03 -0.44711061224E+02  0.54944477686E+03  0.80458053314E+03  0.12699999809E+01 0.  1.
       -4    1    3    3    0  502 -0.58605424628E+03  0.44711061224E+02 -0.67795737388E+03  0.89726611007E+03  0.12699999809E+01 0. -1.
</event>
<event>
 5   0  0.3573262E-04  0.1702405E+04  0.7818609E-02  0.8759994E-01
       -2   -1    0    0    0  501  0.00000000000E+00  0.00000000000E+00  0.29965008959E+03  0.29965008960E+03  0.25500000920E-02 0.  1.
        2   -1    0    0  501    0  0.00000000000E+00  0.00000000000E+00 -0.24179728438E+04  0.24179728438E+04  0.25500000920E-02 0. -1.
    10030    2    1    2    0    0  0.00000000000E+00  0.00000000000E+00 -0.21183227542E+04  0.27176229334E+04  0.17024050978E+04 0.  0.
        5    1    3    3  502    0 -0.22113700293E+03 -0.50165496816E+03 -0.19741572962E+02  0.54860833100E+03  0.46999998093E+01 0.  1.
       -5    1    3    3    0  502  0.22113700293E+03  0.50165496816E+03 -0.20985811813E+04  0.21690146024E+04  0.46999998093E+01 0. -1.
</event>
<event>
 5   0  0.1815663E-04  0.1721113E+04  0.7818609E-02  0.8749414E-01
       -1   -1    0    0    0  501  0.00000000000E+00  0.00000000000E+00  0.54020755205E+03  0.54020755207E+03  0.50400001928E-02 0. -1.
        1   -1    0    0  501    0  0.00000000000E+00  0.00000000000E+00 -0.13708757400E+04  0.13708757400E+04  0.50400001928E-02 0.  1.
    10030    2    1    2    0    0  0.00000000000E+00  0.00000000000E+00 -0.83066818795E+03  0.19110832921E+04  0.17211129280E+04 0.  0.
        5    1    3    3  502    0  0.13012159191E+03 -0.75209462121E+03 -0.85664049119E+03  0.11473591282E+04  0.46999998093E+01 0.  1.
       -5    1    3    3    0  502 -0.13012159191E+03  0.75209462121E+03  0.25972303242E+02  0.76372416386E+03  0.46999998093E+01 0. -1.
</event>
<event>
 5   0  0.1930116E-04  0.1668459E+04  0.7818609E-02  0.8779561E-01
       -1   -1    0    0    0  501  0.00000000000E+00  0.00000000000E+00  0.14456819098E+04  0.14456819098E+04  0.50400001928E-02 0. -1.
        1   -1    0    0  501    0  0.00000000000E+00  0.00000000000E+00 -0.48139126809E+03  0.48139126812E+03  0.50400001928E-02 0.  1.
    10030    2    1    2    0    0  0.00000000000E+00  0.00000000000E+00  0.96429064175E+03  0.19270731780E+04  0.16684587473E+04 0.  0.
        1    1    3    3  502    0  0.55518415133E+03 -0.35448216388E+03 -0.10911147097E+03  0.66767683764E+03  0.50400001928E-02 0.  1.
       -1    1    3    3    0  502 -0.55518415133E+03  0.35448216388E+03  0.10734021127E+04  0.12593963403E+04  0.50400001928E-02 0. -1.
</event>
<event>
 5   0  0.3678896E-04  0.1709574E+04  0.7818609E-02  0.8755923E-01
        2   -1    0    0  501    0  0.00000000000E+00  0.00000000000E+00  0.22339768688E+04  0.22339768688E+04  0.25500000920E-02 0.  1.
       -2   -1    0    0    0  501  0.00000000000E+00  0.00000000000E+00 -0.32706721418E+03  0.32706721419E+03  0.25500000920E-02 0. -1.
    10030    2    1    2    0    0  0.00000000000E+00  0.00000000000E+00  0.19069096546E+04  0.25610440830E+04  0.17095737375E+04 0.  0.
        2    1    3    3  502    0 -0.25783477694E+03  0.19856300915E+03 -0.23063303779E+03  0.39887045382E+03  0.25500000920E-02 0. -1.
       -2    1    3    3    0  502  0.25783477694E+03 -0.19856300915E+03  0.21375426924E+04  0.21621736292E+04  0.25500000920E-02 0.  1.
</event>
<event>
 5   0  0.1815663E-04  0.1698836E+04  0.7818609E-02  0.8762029E-01
        1   -1    0    0  501    0  0.00000000000E+00  0.00000000000E+00  0.90331735478E+03  0.90331735479E+03  0.50400001928E-02 0. -1.
       -1   -1    0    0    0  501  0.00000000000E+00  0.00000000000E+00 -0.79873451941E+03  0.79873451942E+03  0.50400001928E-02 0.  1.
    10030    2    1    2    0    0  0.00000000000E+00  0.00000000000E+00  0.10458283537E+03  0.17020518742E+04  0.16988357817E+04 0.  0.
        5    1    3    3  502    0 -0.62448214158E+03 -0.75572918039E+02  0.62416043404E+03  0.88616451549E+03  0.46999998093E+01 0.  1.
       -5    1    3    3    0  502  0.62448214158E+03  0.75572918039E+02 -0.51957759867E+03  0.81588735873E+03  0.46999998093E+01 0. -1.
</event>
<event>
 5   0  0.3516723E-04  0.1753589E+04  0.7818609E-02  0.8731377E-01
        2   -1    0    0  501    0  0.00000000000E+00  0.00000000000E+00  0.73254621347E+03  0.73254621347E+03  0.25500000920E-02 0.  1.
       -2   -1    0    0    0  501  0.00000000000E+00  0.00000000000E+00 -0.10494476554E+04  0.10494476554E+04  0.25500000920E-02 0. -1.
    10030    2    1    2    0    0  0.00000000000E+00  0.00000000000E+00 -0.31690144189E+03  0.17819938688E+04  0.17535893546E+04 0.  0.
        1    1    3    3  502    0 -0.26628034474E+03 -0.26686681963E+02 -0.10069312679E+04  0.10418867402E+04  0.50400001928E-02 0. -1.
       -1    1    3    3    0  502  0.26628034474E+03  0.26686681963E+02  0.69002982606E+03  0.74010712864E+03  0.50400001928E-02 0.  1.
</event>
<event>
 5   0  0.1930116E-04  0.1696811E+04  0.7818609E-02  0.8763185E-01
       -1   -1    0    0    0  501  0.00000000000E+00  0.00000000000E+00  0.39276559148E+03  0.39276559151E+03  0.50400001928E-02 0.  1.
        1   -1    0    0  501    0  0.00000000000E+00  0.00000000000E+00 -0.18326252231E+04  0.18326252231E+04  0.50400001928E-02 0. -1.
    10030    2    1    2    0    0  0.00000000000E+00  0.00000000000E+00 -0.14398596317E+04  0.22253908146E+04  0.16968112797E+04 0.  0.
        1    1    3    3  502    0 -0.62610487257E+03  0.33331095187E+03 -0.10942259053E+03  0.71768851561E+03  0.50400001928E-02 0.  1.
       -1    1    3    3    0  502  0.62610487257E+03 -0.33331095187E+03 -0.13304370411E+04  0.15077022990E+04  0.50400001928E-02 0. -1.
</event>
<event>
 5   0  0.1893284E-04  0.1674842E+04  0.7818609E-02  0.8775844E-01
        1   -1    0    0  501    0  0.00000000000E+00  0.00000000000E+00  0.15765110720E+04  0.15765110720E+04  0.50400001928E-02 0. -1.
       -1   -1    0    0    0  501  0.00000000000E+00  0.00000000000E+00 -0.44482662973E+03  0.44482662976E+03  0.50400001928E-02 0.  1.
    10030    2    1    2    0    0  0.00000000000E+00  0.00000000000E+00  0.11316844423E+04  0.20213377018E+04  0.16748422098E+04 0.  0.
        2    1    3    3  502    0  0.70098651876E+03  0.35307995392E+03  0.91817450765E+03  0.12079287975E+04  0.25500000920E-02 0. -1.
       -2    1    3    3    0  502 -0.70098651876E+03 -0.35307995392E+03  0.21350993462E+03  0.81340890426E+03  0.25500000920E-02 0.  1.
</event>
<event>
 5   0  0.3605571E-04  0.1712347E+04  0.7818609E-02  0.8754354E-01
        2   -1    0    0  501    0  0.00000000000E+00  0.00000000000E+00  0.92651388841E+03  0.92651388842E+03  0.25500000920E-02 0. -1.
       -2   -1    0    0    0  501  0.00000000000E+00  0.00000000000E+00 -0.79117321628E+03  0.79117321628E+03  0.25500000920E-02 0.  1.
    10030    2    1    2    0    0  0.00000000000E+00  0.00000000000E+00  0.13534067213E+03  0.17176871047E+04  0.17123468960E+04 0.  0.
        4    1    3    3  502    0  0.22390832538E+03  0.40143287208E+03  0.79224431003E+03  0.91593446744E+03  0.12699999809E+01 0. -1.
       -4    1    3    3    0  502 -0.22390832538E+03 -0.40143287208E+03 -0.65690363790E+03  0.80175263726E+03  0.12699999809E+01 0.  1.
</event>
<event>
 5   0  0.3678896E-04  0.1687050E+04  0.7818609E-02  0.8768785E-01
        2   -1    0    0  501    0  0.00000000000E+00  0.00000000000E+00  0.15133266462E+04  0.15133266462E+04  0.25500000920E-02 0.  1.
       -2   -1    0    0    0  501  0.00000000000E+00  0.00000000000E+00 -0.47017913516E+03  0.47017913517E+03  0.25500000920E-02 0. -1.
    10030    2    1    2    0    0  0.00000000000E+00  0.00000000000E+00  0.10431475110E+04  0.19835057813E+04  0.16870502230E+04 0.  0.
        2    1    3    3  502    0 -0.22879155365E+03  0.68688262078E+03  0.10305161016E+04  0.12594112694E+04  0.25500000920E-02 0.  1.
       -2    1    3    3    0  502  0.22879155365E+03 -0.68688262078E+03  0.12631409399E+02  0.72409451197E+03  0.25500000920E-02 0. -1.
</event>
<event>
 5   0  0.3605571E-04  0.1697020E+04  0.7818609E-02  0.8763066E-01
       -2   -1    0    0    0  501  0.00000000000E+00  0.00000000000E+00  0.11152424942E+04  0.11152424942E+04  0.25500000920E-02 0. -1.
        2   -1    0    0  501    0  0.00000000000E+00  0.00000000000E+00 -0.64557164335E+03  0.64557164336E+03  0.25500000920E-02 0.  1.
    10030    2    1    2    0    0  0.00000000000E+00  0.00000000000E+00  0.46967085088E+03  0.17608141376E+04  0.16970196578E+04 0.  0.
        4    1    3    3  502    0  0.44676910673E+03 -0.28799257438E+03  0.92107920910E+03  0.10634523402E+04  0.12699999809E+01 0. -1.
       -4    1    3    3    0  502 -0.44676910673E+03  0.28799257438E+03 -0.45140835822E+03  0.69736179735E+03  0.12699999809E+01 0.  1.
</event>
<event>
 5   0  0.1893284E-04  0.1712460E+04  0.7818609E-02  0.8754289E-01
       -1   -1    0    0    0  501  0.00000000000E+00  0.00000000000E+00  0.70696648981E+03  0.70696648983E+03  0.50400001928E-02 0. -1.
        1   -1    0    0  501    0  0.00000000000E+00  0.00000000000E+00 -0.10370084096E+04  0.10370084096E+04  0.50400001928E-02 0.  1.
    10030    2    1    2    0    0  0.00000000000E+00  0.00000000000E+00 -0.33004191980E+03  0.17439748994E+04  0.17124604466E+04 0.  0.
        2    1    3    3  502    0  0.37679167444E+03 -0.69369554022E+03  0.17266024051E+03  0.80808231457E+03  0.25500000920E-02 0. -1.
       -2    1    3    3    0  502 -0.37679167444E+03  0.69369554022E+03 -0.50270216030E+03  0.93589258488E+03  0.25500000920E-02 0.  1.
</event>
<event>
 5   0  0.3516723E-04  0.1678919E+04  0.7818609E-02  0.8773480E-01
        2   -1    0    0  501    0  0.00000000000E+00  0.00000000000E+00  0.94163371601E+03  0.94163371601E+03  0.25500000920E-02 0.  1.
       -2   -1    0    0    0  501  0.00000000000E+00  0.00000000000E+00 -0.74837171816E+03  0.74837171816E+03  0.25500000920E-02 0. -1.
    10030    2    1    2    0    0  0.00000000000E+00  0.00000000000E+00  0.19326199784E+03  0.16900054342E+04  0.16789187496E+04 0.  0.
        1    1    3    3  502    0 -0.65395447078E+03 -0.52613734271E+03  0.81868251846E+02  0.84331451068E+03  0.50400001928E-02 0.  1.
       -1    1    3    3    0  502  0.65395447078E+03  0.52613734271E+03  0.11139374600E+03  0.84669092349E+03  0.50400001928E-02 0. -1.
</event>
<event>
 5   0  0.1920289E-04  0.1704820E+04  0.7818609E-02  0.8758620E-01
        1   -1    0    0  501    0  0.00000000000E+00  0.00000000000E+00  0.89457912787E+03  0.89457912788E+03  0.50400001928E-02 0. -1.
       -1   -1    0    0    0  501  0.00000000000E+00  0.00000000000E+00 -0.81222911385E+03  0.81222911387E+03  0.50400001928E-02 0.  1.
    10030    2    1    2    0    0  0.00000000000E+00  0.00000000000E+00  0.82350014020E+02  0.17068082418E+04  0.17048204742E+04 0.  0.
        4    1    3    3  502    0  0.54820750297E+03  0.36828274950E+03 -0.49837631361E+03  0.82737187090E+03  0.12699999809E+01 0. -1.
       -4    1    3    3    0  502 -0.54820750297E+03 -0.36828274950E+03  0.58072632763E+03  0.87943637086E+03  0.12699999809E+01 0.  1.
</event>
<event>
 5   0  0.1893284E-04  0.1618527E+04  0.7818609E-02  0.8809246E-01
       -1   -1    0    0    0  501  0.00000000000E+00  0.00000000000E+00  0.11683659436E+04  0.11683659436E+04  0.50400001928E-02 0. -1.
        1   -1    0    0  501    0  0.00000000000E+00  0.00000000000E+00 -0.56053288036E+03  0.56053288038E+03  0.50400001928E-02 0.  1.
    10030    2    1    2    0    0  0.00000000000E+00  0.00000000000E+00  0.60783306327E+03  0.17288988240E+04  0.16185271425E+04 0.  0.
        2    1    3    3  502    0 -0.32086375258E+03  0.62865246791E+03  0.72683187576E+03  0.10131347634E+04  0.25500000920E-02 0. -1.
       -2    1    3    3    0  502  0.32086375258E+03 -0.62865246791E+03 -0.11899881249E+03  0.71576406064E+03  0.25500000920E-02 0.  1.
</event>
<event>
 5   0  0.1930116E-04  0.1709690E+04  0.7818609E-02  0.8755857E-01
       -1   -1    0    0    0  501  0.00000000000E+00  0.00000000000E+00  0.56572638946E+03  0.56572638948E+03  0.50400001928E-02 0.  1.
        1   -1    0    0  501    0  0.00000000000E+00  0.00000000000E+00 -0.12917204353E+04  0.12917204353E+04  0.50400001928E-02 0. -1.
    10030    2    1    2    0    0  0.00000000000E+00  0.00000000000E+00 -0.72599404580E+03  0.18574468248E+04  0.17096904259E+04 0.  0.
        1    1    3    3  502    0 -0.23894911383E+03 -0.72020832531E+03  0.64677910583E+02  0.76156414240E+03  0.50400001928E-02 0.  1.
       -1    1    3    3    0  502  0.23894911383E+03  0.72020832531E+03 -0.79067195639E+03  0.10958826824E+04  0.50400001928E-02 0. -1.
</event>
<event>
 5   0  0.3516723E-04  0.1710316E+04  0.7818609E-02  0.8755503E-01
       -2   -1    0    0    0  501  0.00000000000E+00  0.00000000000E+00  0.10613633820E+04  0.10613633820E+04  0.25500000920E-02 0.  1.
        2   -1    0    0  501    0  0.00000000000E+00  0.00000000000E+00 -0.68901456478E+03  0.68901456479E+03  0.25500000920E-02 0. -1.
    10030    2    1    2    0    0  0.00000000000E+00  0.00000000000E+00  0.37234881724E+03  0.17503779468E+04  0.17103155601E+04 0.  0.
        1    1    3    3  502    0  0.60160233484E+03  0.60401675606E+03  0.25508070062E+03  0.88984705132E+03  0.50400001928E-02 0. -1.
       -1    1    3    3    0  502 -0.60160233484E+03 -0.60401675606E+03  0.11726811662E+03  0.86053089549E+03  0.50400001928E-02 0.  1.
</event>
<event>
 5   0  0.1824538E-04  0.1667937E+04  0.7818609E-02  0.8779866E-01
       -1   -1    0    0    0  501  0.00000000000E+00  0.00000000000E+00  0.86463682645E+03  0.86463682646E+03  0.50400001928E-02 0. -1.
        1   -1    0    0  501    0  0.00000000000E+00  0.00000000000E+00 -0.80438749999E+03  0.80438750001E+03  0.50400001928E-02 0.  1.
    10030    2    1    2    0    0  0.00000000000E+00  0.00000000000E+00  0.60249326459E+02  0.16690243265E+04  0.16679365159E+04 0.  0.
        3    1    3    3  502    0 -0.64003108768E+03 -0.82394204075E+01 -0.50482231621E+03  0.81520136309E+03  0.10100000352E+00 0.  1.
       -3    1    3    3    0  502  0.64003108768E+03  0.82394204075E+01  0.56507164267E+03  0.85382296338E+03  0.10100000352E+00 0. -1.
</event>
<event>
 5   0  0.1815663E-04  0.1862948E+04  0.7818609E-02  0.8673523E-01
       -1   -1    0    0    0  501  0.00000000000E+00  0.00000000000E+00  0.75145594393E+03  0.75145594395E+03  0.50400001928E-02 0.  1.
        1   -1    0    0  501    0  0.00000000000E+00  0.00000000000E+00 -0.11546170699E+04  0.11546170699E+04  0.50400001928E-02 0. -1.
    10030    2    1    2    0    0  0.00000000000E+00  0.00000000000E+00 -0.40316112596E+03  0.19060730138E+04  0.18629480510E+04 0.  0.
        5    1    3    3  502    0  0.49772952769E+03 -0.55885819027E+03 -0.76900360717E+03  0.10730544242E+04  0.46999998093E+01 0.  1.
       -5    1    3    3    0  502 -0.49772952769E+03  0.55885819027E+03  0.36584248120E+03  0.83301858960E+03  0.46999998093E+01 0. -1.
</event>
<event>
 5   0  0.1824538E-04  0.1706061E+04  0.7818609E-02  0.8757915E-01
        1   -1    0    0  501    0  0.00000000000E+00  0.00000000000E+00  0.93889127829E+03  0.93889127831E+03  0.50400001928E-02 0.  1.
       -1   -1    0    0    0  501  0.00000000000E+00  0.00000000000E+00 -0.77502176804E+03  0.77502176806E+03  0.50400001928E-02 0. -1.
    10030    2    1    2    0    0  0.00000000000E+00  0.00000000000E+00  0.16386951025E+03  0.17139130464E+04  0.17060611695E+04 0.  0.
        3    1    3    3  502    0  0.34988998129E+03 -0.64299953430E+03  0.52188838314E+03  0.89902107582E+03  0.10100000352E+00 0.  1.
       -3    1    3    3    0  502 -0.34988998129E+03  0.64299953430E+03 -0.35801887289E+03  0.81489197054E+03  0.10100000352E+00 0. -1.
</event>
<event>
 5   0  0.3678896E-04  0.1694567E+04  0.7818609E-02  0.8764469E-01
       -2   -1    0    0    0  501  0.00000000000E+00  0.00000000000E+00  0.12671147186E+04  0.12671147187E+04  0.25500000920E-02 0.  1.
        2   -1    0    0  501    0  0.00000000000E+00  0.00000000000E+00 -0.56655408557E+03  0.56655408557E+03  0.25500000920E-02 0. -1.
    10030    2    1    2    0    0  0.00000000000E+00  0.00000000000E+00  0.70056063308E+03  0.18336688042E+04  0.16945666357E+04 0.  0.
        2    1    3    3  502    0 -0.75407923984E+03  0.65288465011E+02 -0.61753322157E+02  0.75941527271E+03  0.25500000920E-02 0. -1.
       -2    1    3    3    0  502  0.75407923984E+03 -0.65288465011E+02  0.76231395524E+03  0.10742535315E+04  0.25500000920E-02 0.  1.
</event>
<event>
 5   0  0.3605571E-04  0.1661504E+04  0.7818609E-02  0.8783630E-01
       -2   -1    0    0    0  501  0.00000000000E+00  0.00000000000E+00  0.43892624794E+03  0.43892624795E+03  0.25500000920E-02 0.  1.
        2   -1    0    0  501    0  0.00000000000E+00  0.00000000000E+00 -0.15723573519E+04  0.15723573519E+04  0.25500000920E-02 0. -1.
    10030    2    1    2    0    0  0.00000000000E+00  0.00000000000E+00 -0.11334311039E+04  0.20112835998E+04  0.16615040330E+04 0.  0.
        4    1    3    3  502    0 -0.72303031002E+03 -0.30219754070E+03 -0.90054505171E+03  0.11937668055E+04  0.12699999809E+01 0. -1.
       -4    1    3    3    0  502  0.72303031002E+03  0.30219754070E+03 -0.23288605223E+03  0.81751679435E+03  0.12699999809E+01 0.  1.
</event>
<event>
 5   0  0.3605571E-04  0.1665259E+04  0.7818609E-02  0.8781430E-01
        2   -1    0    0  501    0  0.00000000000E+00  0.00000000000E+00  0.10305688020E+04  0.10305688020E+04  0.25500000920E-02 0.  1.
       -2   -1    0    0    0  501  0.00000000000E+00  0.00000000000E+00 -0.67270829444E+03  0.67270829445E+03  0.25500000920E-02 0. -1.
    10030    2    1    2    0    0  0.00000000000E+00  0.00000000000E+00  0.35786050753E+03  0.17032770964E+04  0.16652593565E+04 0.  0.
        4    1    3    3  502    0  0.53195718777E+03  0.38580220277E+03 -0.34406377819E+03  0.74175689120E+03  0.12699999809E+01 0. -1.
       -4    1    3    3    0  502 -0.53195718777E+03 -0.38580220277E+03  0.70192428572E+03  0.96152020523E+03  0.12699999809E+01 0.  1.
</event>
<event>
 5   0  0.1317625E-04  0.1689323E+04  0.7818609E-02  0.8767478E-01
        3   -1    0    0  501    0  0.00000000000E+00  0.00000000000E+00  0.10186002053E+04  0.10186002103E+04  0.10100000352E+00 0.  1.
       -3   -1    0    0    0  501  0.00000000000E+00  0.00000000000E+00 -0.70042475658E+03  0.70042476386E+03  0.10100000352E+00 0. -1.
    10030    2    1    2    0    0  0.00000000000E+00  0.00000000000E+00  0.31817544870E+03  0.17190249741E+04  0.16893227180E+04 0.  0.
        1    1    3    3  502    0  0.55257364139E+02  0.42442382419E+03  0.90008323210E+03  0.99666382676E+03  0.50400001928E-02 0.  1.
       -1    1    3    3    0  502 -0.55257364139E+02 -0.42442382419E+03 -0.58190778340E+03  0.72236114738E+03  0.50400001928E-02 0. -1.
</event>
<event>
 5   0  0.1824538E-04  0.1712992E+04  0.7818609E-02  0.8753989E-01
       -1   -1    0    0    0  501  0.00000000000E+00  0.00000000000E+00  0.71953392856E+03  0.71953392858E+03  0.50400001928E-02 0.  1.
        1   -1    0    0  501    0  0.00000000000E+00  0.00000000000E+00 -0.10195288231E+04  0.10195288232E+04  0.50400001928E-02 0. -1.
    10030    2    1    2    0    0  0.00000000000E+00  0.00000000000E+00 -0.29999489458E+03  0.17390627517E+04  0.17129922118E+04 0.  0.
        3    1    3    3  502    0 -0.13659036240E+03 -0.28138796875E+02  0.70793004821E+03  0.72153564178E+03  0.10100000352E+00 0.  1.
       -3    1    3    3    0  502  0.13659036240E+03  0.28138796875E+02 -0.10079249428E+04  0.10175271100E+04  0.10100000352E+00 0. -1.
</event>
<event>
 5   0  0.1920289E-04  0.1685012E+04  0.7818609E-02  0.8769959E-01
       -1   -1    0    0    0  501  0.00000000000E+00  0.00000000000E+00  0.14943234411E+04  0.14943234411E+04  0.50400001928E-02 0.  1.
        1   -1    0    0  501    0  0.00000000000E+00  0.00000000000E+00 -0.47500859729E+03  0.47500859731E+03  0.50400001928E-02 0. -1.
    10030    2    1    2    0    0  0.00000000000E+00  0.00000000000E+00  0.10193148438E+04  0.19693320384E+04  0.16850121444E+04 0.  0.
        4    1    3    3  502    0 -0.33664298807E+03 -0.44595099031E+02 -0.39147990655E+03  0.51824256329E+03  0.12699999809E+01 0. -1.
       -4    1    3    3    0  502  0.33664298807E+03  0.44595099031E+02  0.14107947503E+04  0.14510894751E+04  0.12699999809E+01 0.  1.
</event>
<event>
 5   0  0.3573262E-04  0.1697211E+04  0.7818609E-02  0.8762956E-01
        2   -1    0    0  501    0  0.00000000000E+00  0.00000000000E+00  0.98073172866E+03  0.98073172866E+03  0.25500000920E-02 0. -1.
       -2   -1    0    0    0  501  0.00000000000E+00  0.00000000000E+00 -0.73427997161E+03  0.73427997162E+03  0.25500000920E-02 0.  1.
    10030    2    1    2    0    0  0.00000000000E+00  0.00000000000E+00  0.24645175705E+03  0.17150117003E+04  0.16972114375E+04 0.  0.
        5    1    3    3  502    0  0.49961855209E+03  0.30471490067E+02  0.81565891285E+03  0.95701032461E+03  0.46999998093E+01 0. -1.
       -5    1    3    3    0  502 -0.49961855209E+03 -0.30471490067E+02 -0.56920715580E+03  0.75800137567E+03  0.46999998093E+01 0.  1.
</event>
<event>
 5   0  0.1815663E-04  0.1688337E+04  0.7818609E-02  0.8768044E-01
        1   -1    0    0  501    0  0.00000000000E+00  0.00000000000E+00  0.10100473929E+04  0.10100473929E+04  0.50400001928E-02 0.  1.
       -1   -1    0    0    0  501  0.00000000000E+00  0.00000000000E+00 -0.70553140396E+03  0.70553140398E+03  0.50400001928E-02 0. -1.
    10030    2    1    2    0    0  0.00000000000E+00  0.00000000000E+00  0.30451598894E+03  0.17155787969E+04  0.16883366432E+04 0.  0.
        5    1    3    3  502    0  0.63436945799E+03  0.52040899655E+03  0.35382181488E+03  0.89356706498E+03  0.46999998093E+01 0. -1.
       -5    1    3    3    0  502 -0.63436945799E+03 -0.52040899655E+03 -0.49305825935E+02  0.82201173191E+03  0.46999998093E+01 0.  1.
</event>
<event>
 5   0  0.1893284E-04  0.1708972E+04  0.7818609E-02  0.8756264E-01
        1   -1    0    0  501    0  0.00000000000E+00  0.00000000000E+00  0.23514683394E+04  0.23514683394E+04  0.50400001928E-02 0.  1.
       -1   -1    0    0    0  501  0.00000000000E+00  0.00000000000E+00 -0.31050661801E+03  0.31050661805E+03  0.50400001928E-02 0. -1.
    10030    2    1    2    0    0  0.00000000000E+00  0.00000000000E+00  0.20409617214E+04  0.26619749575E+04  0.17089721841E+04 0.  0.
        2    1    3    3  502    0  0.23382101330E+03 -0.48428511850E+02 -0.25748157429E+03  0.35116142745E+03  0.25500000920E-02 0. -1.
       -2    1    3    3    0  502 -0.23382101330E+03  0.48428511850E+02  0.22984432957E+04  0.23108135300E+04  0.25500000920E-02 0.  1.
</event>
<event>
 5   0  0.3574092E-04  0.1693570E+04  0.7818609E-02  0.8765040E-01
        2   -1    0    0  501    0  0.00000000000E+00  0.00000000000E+00  0.25334497112E+04  0.25334497112E+04  0.25500000920E-02 0.  1.
       -2   -1    0    0    0  501  0.00000000000E+00  0.00000000000E+00 -0.28303105233E+03  0.28303105234E+03  0.25500000920E-02 0. -1.
    10030    2    1    2    0    0  0.00000000000E+00  0.00000000000E+00  0.22504186588E+04  0.28164807635E+04  0.16935701199E+04 0.  0.
        3    1    3    3  502    0  0.57351631037E+03  0.38710564936E+03  0.31342401175E+03  0.75960934918E+03  0.10100000352E+00 0. -1.
       -3    1    3    3    0  502 -0.57351631037E+03 -0.38710564936E+03  0.19369946471E+04  0.20568714143E+04  0.10100000352E+00 0.  1.
</event>
<event>
 5   0  0.1824538E-04  0.1695639E+04  0.7818609E-02  0.8763855E-01
       -1   -1    0    0    0  501  0.00000000000E+00  0.00000000000E+00  0.85786332656E+03  0.85786332657E+03  0.50400001928E-02 0. -1.
        1   -1    0    0  501    0  0.00000000000E+00  0.00000000000E+00 -0.83789342678E+03  0.83789342680E+03  0.50400001928E-02 0.  1.
    10030    2    1    2    0    0  0.00000000000E+00  0.00000000000E+00  0.19969899776E+02  0.16957567534E+04  0.16956391626E+04 0.  0.
        3    1    3    3  502    0  0.80235941492E+02 -0.70931508739E+03 -0.44746598061E+03  0.84249125426E+03  0.10100000352E+00 0.  1.
       -3    1    3    3    0  502 -0.80235941492E+02  0.70931508739E+03  0.46743588038E+03  0.85326549911E+03  0.10100000352E+00 0. -1.
</event>
<event>
 5   0  0.1824538E-04  0.1700500E+04  0.7818609E-02  0.8761079E-01
        1   -1    0    0  501    0  0.00000000000E+00  0.00000000000E+00  0.10618502798E+04  0.10618502798E+04  0.50400001928E-02 0. -1.
       -1   -1    0    0    0  501  0.00000000000E+00  0.00000000000E+00 -0.68081634656E+03  0.68081634658E+03  0.50400001928E-02 0.  1.
    10030    2    1    2    0    0  0.00000000000E+00  0.00000000000E+00  0.38103393321E+03  0.17426666264E+04  0.17004999595E+04 0.  0.
        3    1    3    3  502    0  0.42339670781E+03 -0.71202186114E+03  0.38679994098E+03  0.91425057149E+03  0.10100000352E+00 0.  1.
       -3    1    3    3    0  502 -0.42339670781E+03  0.71202186114E+03 -0.57660077726E+01  0.82841605487E+03  0.10100000352E+00 0. -1.
</event>
<event>
 5   0  0.1824538E-04  0.1710270E+04  0.7818609E-02  0.8755529E-01
       -1   -1    0    0    0  501  0.00000000000E+00  0.00000000000E+00  0.39655536923E+03  0.39655536926E+03  0.50400001928E-02 0. -1.
        1   -1    0    0  501    0  0.00000000000E+00  0.00000000000E+00 -0.18440198407E+04  0.18440198407E+04  0.50400001928E-02 0.  1.
    10030    2    1    2    0    0  0.00000000000E+00  0.00000000000E+00 -0.14474644714E+04  0.22405752099E+04  0.17102701177E+04 0.  0.
        3    1    3    3  502    0  0.22345999445E+03 -0.40381738566E+03  0.21938520627E+03  0.51101147640E+03  0.10100000352E+00 0. -1.
       -3    1    3    3    0  502 -0.22345999445E+03  0.40381738566E+03 -0.16668496777E+04  0.17295637335E+04  0.10100000352E+00 0.  1.
</event>
<event>
 5   0  0.1317625E-04  0.1681540E+04  0.7818609E-02  0.8771963E-01
        4   -1    0    0  501    0  0.00000000000E+00  0.00000000000E+00  0.12364421685E+04  0.12364428207E+04  0.12699999809E+01 0. -1.
       -4   -1    0    0    0  501  0.00000000000E+00  0.00000000000E+00 -0.57171509465E+03  0.57171650523E+03  0.12699999809E+01 0.  1.
    10030    2    1    2    0    0  0.00000000000E+00  0.00000000000E+00  0.66472707382E+03  0.18081593259E+04  0.16815403847E+04 0.  0.
        1    1    3    3  502    0 -0.37780791790E+02 -0.56516028923E+03  0.10004879569E+04  0.11496998272E+04  0.50400001928E-02 0. -1.
       -1    1    3    3    0  502  0.37780791790E+02  0.56516028923E+03 -0.33576088312E+03  0.65845949869E+03  0.50400001928E-02 0.  1.
</event>
<event>
 5   0  0.1920289E-04  0.1701510E+04  0.7818609E-02  0.8760504E-01
        1   -1    0    0  501    0  0.00000000000E+00  0.00000000000E+00  0.52314503310E+03  0.52314503313E+03  0.50400001928E-02 0. -1.
       -1   -1    0    0    0  501  0.00000000000E+00  0.00000000000E+00 -0.13835242599E+04  0.13835242600E+04  0.50400001928E-02 0.  1.
    10030    2    1    2    0    0  0.00000000000E+00  0.00000000000E+00 -0.86037922684E+03  0.19066692931E+04  0.17015097353E+04 0.  0.
        4    1    3    3  502    0 -0.65955009939E+03  0.53629243650E+03 -0.39192036321E+03  0.93606575359E+03  0.12699999809E+01 0.  1.
       -4    1    3    3    0  502  0.65955009939E+03 -0.53629243650E+03 -0.46845886363E+03  0.97060353949E+03  0.12699999809E+01 0. -1.
</event>
<event>
 5   0  0.1920289E-04  0.1691380E+04  0.7818609E-02  0.8766296E-01
        1   -1    0    0  501    0  0.00000000000E+00  0.00000000000E+00  0.68233146995E+03  0.68233146997E+03  0.50400001928E-02 0.  1.
       -1   -1    0    0    0  501  0.00000000000E+00  0.00000000000E+00 -0.10481585568E+04  0.10481585568E+04  0.50400001928E-02 0. -1.
    10030    2    1    2    0    0  0.00000000000E+00  0.00000000000E+00 -0.36582708684E+03  0.17304900268E+04  0.16913799914E+04 0.  0.
        4    1    3    3  502    0 -0.57171130354E+03  0.61792520330E+03 -0.10039763398E+03  0.84780107884E+03  0.12699999809E+01 0.  1.
       -4    1    3    3    0  502  0.57171130354E+03 -0.61792520330E+03 -0.26542945286E+03  0.88268894794E+03  0.12699999809E+01 0. -1.
</event>
<event>
 5   0  0.3574092E-04  0.1697869E+04  0.7818609E-02  0.8762580E-01
        2   -1    0    0  501    0  0.00000000000E+00  0.00000000000E+00  0.22108955959E+04  0.22108955959E+04  0.25500000920E-02 0.  1.
       -2   -1    0    0    0  501  0.00000000000E+00  0.00000000000E+00 -0.32597205282E+03  0.32597205283E+03  0.25500000920E-02 0. -1.
    10030    2    1    2    0    0  0.00000000000E+00  0.00000000000E+00  0.18849235431E+04  0.25368676487E+04  0.16978694602E+04 0.  0.
        3    1    3    3  502    0 -0.79825811162E+03 -0.28885085961E+03  0.93309096281E+03  0.12614711994E+04  0.10100000352E+00 0. -1.
       -3    1    3    3    0  502  0.79825811162E+03  0.28885085961E+03  0.95183258029E+03  0.12753964493E+04  0.10100000352E+00 0.  1.
</event>
<event>
 5   0  0.3605571E-04  0.1683254E+04  0.7818609E-02  0.8770974E-01
        2   -1    0    0  501    0  0.00000000000E+00  0.00000000000E+00  0.16761464792E+04  0.16761464792E+04  0.25500000920E-02 0. -1.
       -2   -1    0    0    0  501  0.00000000000E+00  0.00000000000E+00 -0.42259768997E+03  0.42259768998E+03  0.25500000920E-02 0.  1.
    10030    2    1    2    0    0  0.00000000000E+00  0.00000000000E+00  0.12535487892E+04  0.20987441692E+04  0.16832535521E+04 0.  0.
        4    1    3    3  502    0  0.28719795720E+03 -0.76141748247E+03  0.35908215579E+03  0.88948347749E+03  0.12699999809E+01 0. -1.
       -4    1    3    3    0  502 -0.28719795720E+03  0.76141748247E+03  0.89446663342E+03  0.12092606917E+04  0.12699999809E+01 0.  1.
</event>
<event>
 5   0  0.3605571E-04  0.1714139E+04  0.7818609E-02  0.8753341E-01
       -2   -1    0    0    0  501  0.00000000000E+00  0.00000000000E+00  0.43551978696E+03  0.43551978697E+03  0.25500000920E-02 0. -1.
        2   -1    0    0  501    0  0.00000000000E+00  0.00000000000E+00 -0.16866460672E+04  0.16866460672E+04  0.25500000920E-02 0.  1.
    10030    2    1    2    0    0  0.00000000000E+00  0.00000000000E+00 -0.12511262802E+04  0.21221658541E+04  0.17141385427E+04 0.  0.
        4    1    3    3  502    0  0.41362437760E+03  0.28126097570E+02 -0.15542471540E+04  0.16085900758E+04  0.12699999809E+01 0.  1.
       -4    1    3    3    0  502 -0.41362437760E+03 -0.28126097570E+02  0.30312087381E+03  0.51357577839E+03  0.12699999809E+01 0. -1.
</event>
<event>
 5   0  0.1815663E-04  0.1662526E+04  0.7818609E-02  0.8783031E-01
       -1   -1    0    0    0  501  0.00000000000E+00  0.00000000000E+00  0.88778106806E+03  0.88778106808E+03  0.50400001928E-02 0.  1.
        1   -1    0    0  501    0  0.00000000000E+00  0.00000000000E+00 -0.77834292590E+03  0.77834292592E+03  0.50400001928E-02 0. -1.
    10030    2    1    2    0    0  0.00000000000E+00  0.00000000000E+00  0.10943814216E+03  0.16661239940E+04  0.16625259265E+04 0.  0.
        5    1    3    3  502    0  0.81145354816E+03  0.17651067890E+03  0.91719749169E+02  0.83549235961E+03  0.46999998093E+01 0. -1.
       -5    1    3    3    0  502 -0.81145354816E+03 -0.17651067890E+03  0.17718392989E+02  0.83063163438E+03  0.46999998093E+01 0.  1.
</event>
<event>
 5   0  0.1824538E-04  0.1474535E+04  0.7818609E-02  0.8901565E-01
       -1   -1    0    0    0  501  0.00000000000E+00  0.00000000000E+00  0.72174222824E+03  0.72174222825E+03  0.50400001928E-02 0. -1.
        1   -1    0    0  501    0  0.00000000000E+00  0.00000000000E+00 -0.75312721278E+03  0.75312721279E+03  0.50400001928E-02 0.  1.
    10030    2    1    2    0    0  0.00000000000E+00  0.00000000000E+00 -0.31384984541E+02  0.14748694410E+04  0.14745354695E+04 0.  0.
        3    1    3    3  502    0 -0.50609971983E+03 -0.51268429169E+03 -0.17251318455E+03  0.74077183964E+03  0.10100000352E+00 0.  1.
       -3    1    3    3    0  502  0.50609971983E+03  0.51268429169E+03  0.14112820001E+03  0.73409760141E+03  0.10100000352E+00 0. -1.
</event>
<event>
 5   0  0.3605571E-04  0.1647068E+04  0.7818609E-02  0.8792143E-01
        2   -1    0    0  501    0  0.00000000000E+00  0.00000000000E+00  0.20287697477E+04  0.20287697477E+04  0.25500000920E-02 0. -1.
       -2   -1    0    0    0  501  0.00000000000E+00  0.00000000000E+00 -0.33429517452E+03  0.33429517453E+03  0.25500000920E-02 0.  1.
    10030    2    1    2    0    0  0.00000000000E+00  0.00000000000E+00  0.16944745732E+04  0.23630649222E+04  0.16470676208E+04 0.  0.
        4    1    3    3  502    0  0.25678040969E+03 -0.53954779160E+03  0.16602995722E+04  0.17645521473E+04  0.12699999809E+01 0. -1.
       -4    1    3    3    0  502 -0.25678040969E+03  0.53954779160E+03  0.34175001044E+02  0.59851277498E+03  0.12699999809E+01 0.  1.
</event>
<event>
 5   0  0.3573262E-04  0.1697420E+04  0.7818609E-02  0.8762837E-01
        2   -1    0    0  501    0  0.00000000000E+00  0.00000000000E+00  0.81821296155E+03  0.81821296156E+03  0.25500000920E-02 0.  1.
       -2   -1    0    0    0  501  0.00000000000E+00  0.00000000000E+00 -0.88034388105E+03  0.88034388105E+03  0.25500000920E-02 0. -1.
    10030    2    1    2    0    0  0.00000000000E+00  0.00000000000E+00 -0.62130919493E+02  0.16985568426E+04  0.16974201296E+04 0.  0.
        5    1    3    3  502    0 -0.61471347357E+03  0.54572896281E+03 -0.24237962205E+03  0.85700800849E+03  0.46999998093E+01 0. -1.
       -5    1    3    3    0  502  0.61471347357E+03 -0.54572896281E+03  0.18024870256E+03  0.84154883412E+03  0.46999998093E+01 0.  1.
</event>
<event>
 5   0  0.1815663E-04  0.1717956E+04  0.7818609E-02  0.8751189E-01
       -1   -1    0    0    0  501  0.00000000000E+00  0.00000000000E+00  0.72053513968E+03  0.72053513970E+03  0.50400001928E-02 0. -1.
        1   -1    0    0  501    0  0.00000000000E+00  0.00000000000E+00 -0.10240212183E+04  0.10240212183E+04  0.50400001928E-02 0.  1.
    10030    2    1    2    0    0  0.00000000000E+00  0.00000000000E+00 -0.30348607864E+03  0.17445563580E+04  0.17179560781E+04 0.  0.
        5    1    3    3  502    0  0.80204273319E+03  0.10365269666E+03  0.14222984669E+03  0.82113814104E+03  0.46999998093E+01 0. -1.
       -5    1    3    3    0  502 -0.80204273319E+03 -0.10365269666E+03 -0.44571592533E+03  0.92341821699E+03  0.46999998093E+01 0.  1.
</event>
<event>
 5   0  0.1824538E-04  0.1716547E+04  0.7818609E-02  0.8751983E-01
       -1   -1    0    0    0  501  0.00000000000E+00  0.00000000000E+00  0.12950947908E+04  0.12950947908E+04  0.50400001928E-02 0. -1.
        1   -1    0    0  501    0  0.00000000000E+00  0.00000000000E+00 -0.56878704752E+03  0.56878704754E+03  0.50400001928E-02 0.  1.
    10030    2    1    2    0    0  0.00000000000E+00  0.00000000000E+00  0.72630774325E+03  0.18638818383E+04  0.17165466988E+04 0.  0.
        3    1    3    3  502    0  0.18049051073E+03  0.59067451982E+03  0.10102588306E+04  0.11841014010E+04  0.10100000352E+00 0. -1.
       -3    1    3    3    0  502 -0.18049051073E+03 -0.59067451982E+03 -0.28395108731E+03  0.67978043736E+03  0.10100000352E+00 0.  1.
</event>
<event>
 5   0  0.3678896E-04  0.1677727E+04  0.7818609E-02  0.8774170E-01
        2   -1    0    0  501    0  0.00000000000E+00  0.00000000000E+00  0.70107221415E+03  0.70107221416E+03  0.25500000920E-02 0.  1.
       -2   -1    0    0    0  501  0.00000000000E+00  0.00000000000E+00 -0.10037368338E+04  0.10037368338E+04  0.25500000920E-02 0. -1.
    10030    2    1    2    0    0  0.00000000000E+00  0.00000000000E+00 -0.30266461963E+03  0.17048090479E+04  0.16777270392E+04 0.  0.
        2    1    3    3  502    0 -0.53768209672E+03 -0.45233350474E+03 -0.61696977920E+03  0.93507183954E+03  0.25500000920E-02 0. -1.
       -2    1    3    3    0  502  0.53768209672E+03  0.45233350474E+03  0.31430515958E+03  0.76973720840E+03  0.25500000920E-02 0.  1.
</event>
<event>
 5   0  0.3573262E-04  0.1587265E+04  0.7818609E-02  0.8828410E-01
       -2   -1    0    0    0  501  0.00000000000E+00  0.00000000000E+00  0.46220236006E+03  0.46220236006E+03  0.25500000920E-02 0.  1.
        2   -1    0    0  501    0  0.00000000000E+00  0.00000000000E+00 -0.13627208813E+04  0.13627208813E+04  0.25500000920E-02 0. -1.
    10030    2    1    2    0    0  0.00000000000E+00  0.00000000000E+00 -0.90051852120E+03  0.18249232413E+04  0.15872653306E+04 0.  0.
        5    1    3    3  502    0  0.31204224000E+03 -0.20974414121E+03 -0.12538094744E+04  0.13089779419E+04  0.46999998093E+01 0. -1.
       -5    1    3    3    0  502 -0.31204224000E+03  0.20974414121E+03  0.35329095323E+03  0.51594529938E+03  0.46999998093E+01 0.  1.
</event>
<event>
 5   0  0.3516723E-04  0.1684256E+04  0.7818609E-02  0.8770395E-01
       -2   -1    0    0    0  501  0.00000000000E+00  0.00000000000E+00  0.46239228294E+03  0.46239228295E+03  0.25500000920E-02 0. -1.
        2   -1    0    0  501    0  0.00000000000E+00  0.00000000000E+00 -0.15337179143E+04  0.15337179143E+04  0.25500000920E-02 0.  1.
    10030    2    1    2    0    0  0.00000000000E+00  0.00000000000E+00 -0.10713256314E+04  0.19961101973E+04  0.16842557143E+04 0.  0.
        1    1    3    3  502    0 -0.11050067332E+03  0.53116091608E+03 -0.12989979136E+04  0.14077421274E+04  0.50400001928E-02 0.  1.
       -1    1    3    3    0  502  0.11050067332E+03 -0.53116091608E+03  0.22767228222E+03  0.58836806991E+03  0.50400001928E-02 0. -1.
</event>
<event>
 5   0  0.3605571E-04  0.1696879E+04  0.7818609E-02  0.8763146E-01
       -2   -1    0    0    0  501  0.00000000000E+00  0.00000000000E+00  0.76278616933E+03  0.76278616934E+03  0.25500000920E-02 0.  1.
        2   -1    0    0  501    0  0.00000000000E+00  0.00000000000E+00 -0.94371127876E+03  0.94371127876E+03  0.25500000920E-02 0. -1.
    10030    2    1    2    0    0  0.00000000000E+00  0.00000000000E+00 -0.18092510943E+03  0.17064974481E+04  0.16968793844E+04 0.  0.
        4    1    3    3  502    0  0.56807291420E+03  0.10123868003E+03  0.53506961944E+03  0.78692897820E+03  0.12699999809E+01 0.  1.
       -4    1    3    3    0  502 -0.56807291420E+03 -0.10123868003E+03 -0.71599472886E+03  0.91956846990E+03  0.12699999809E+01 0. -1.
</event>
<event>
 5   0  0.3573262E-04  0.1675164E+04  0.7818609E-02  0.8775657E-01
       -2   -1    0    0    0  501  0.00000000000E+00  0.00000000000E+00  0.49453091460E+03  0.49453091461E+03  0.25500000920E-02 0.  1.
        2   -1    0    0  501    0  0.00000000000E+00  0.00000000000E+00 -0.14186046379E+04  0.14186046379E+04  0.25500000920E-02 0. -1.
    10030    2    1    2    0    0  0.00000000000E+00  0.00000000000E+00 -0.92407372327E+03  0.19131355525E+04  0.16751642893E+04 0.  0.
        5    1    3    3  502    0  0.20560332143E+02  0.71202048006E+03 -0.96522459013E+03  0.11996151427E+04  0.46999998093E+01 0. -1.
       -5    1    3    3    0  502 -0.20560332143E+02 -0.71202048006E+03  0.41150866858E+02  0.71352040975E+03  0.46999998093E+01 0.  1.
</event>
<event>
 5   0  0.3574092E-04  0.1729626E+04  0.7818609E-02  0.8744646E-01
        2   -1    0    0  501    0  0.00000000000E+00  0.00000000000E+00  0.21046008103E+04  0.21046008103E+04  0.25500000920E-02 0.  1.
       -2   -1    0    0    0  501  0.00000000000E+00  0.00000000000E+00 -0.35536484946E+03  0.35536484947E+03  0.25500000920E-02 0. -1.
    10030    2    1    2    0    0  0.00000000000E+00  0.00000000000E+00  0.17492359609E+04  0.24599656598E+04  0.17296255666E+04 0.  0.
        3    1    3    3  502    0 -0.43394405963E+03 -0.13757793696E+02 -0.18913280465E+03  0.47356937377E+03  0.10100000352E+00 0. -1.
       -3    1    3    3    0  502  0.43394405963E+03  0.13757793696E+02  0.19383687655E+04  0.19863962860E+04  0.10100000352E+00 0.  1.
</event>
<event>
 5   0  0.1920289E-04  0.1720813E+04  0.7818609E-02  0.8749582E-01
        1   -1    0    0  501    0  0.00000000000E+00  0.00000000000E+00  0.56381949503E+03  0.56381949505E+03  0.50400001928E-02 0.  1.
       -1   -1    0    0    0  501  0.00000000000E+00  0.00000000000E+00 -0.13130074614E+04  0.13130074614E+04  0.50400001928E-02 0. -1.
    10030    2    1    2    0    0  0.00000000000E+00  0.00000000000E+00 -0.74918796633E+03  0.18768269564E+04  0.17208128357E+04 0.  0.
        4    1    3    3  502    0  0.59364527579E+02  0.25093888275E+01 -0.13107661427E+04  0.13121127763E+04  0.12699999809E+01 0. -1.
       -4    1    3    3    0  502 -0.59364527579E+02 -0.25093888275E+01  0.56157817633E+03  0.56471418009E+03  0.12699999809E+01 0.  1.
</event>
<event>
 5   0  0.3573262E-04  0.1685828E+04  0.7818609E-02  0.8769489E-01
        2   -1    0    0  501    0  0.00000000000E+00  0.00000000000E+00  0.17979196891E+04  0.17979196891E+04  0.25500000920E-02 0. -1.
       -2   -1    0    0    0  501  0.00000000000E+00  0.00000000000E+00 -0.39518124759E+03  0.39518124760E+03  0.25500000920E-02 0.  1.
    10030    2    1    2    0    0  0.00000000000E+00  0.00000000000E+00  0.14027384415E+04  0.21931009367E+04  0.16858281595E+04 0.  0.
        5    1    3    3  502    0 -0.35681360640E+03 -0.39298477462E+03  0.15531675502E+04  0.16413727522E+04  0.46999998093E+01 0. -1.
       -5    1    3    3    0  502  0.35681360640E+03  0.39298477462E+03 -0.15042910869E+03  0.55172818447E+03  0.46999998093E+01 0.  1.
</event>
<event>
 5   0  0.1815663E-04  0.1686718E+04  0.7818609E-02  0.8768976E-01
        1   -1    0    0  501    0  0.00000000000E+00  0.00000000000E+00  0.89016116312E+03  0.89016116313E+03  0.50400001928E-02 0.  1.
       -1   -1    0    0    0  501  0.00000000000E+00  0.00000000000E+00 -0.79901742507E+03  0.79901742508E+03  0.50400001928E-02 0. -1.
    10030    2    1    2    0    0  0.00000000000E+00  0.00000000000E+00  0.91143738049E+02  0.16891785882E+04  0.16867178549E+04 0.  0.
        5    1    3    3  502    0  0.39065370033E+01 -0.14347426293E+03 -0.78668328755E+03  0.79968294346E+03  0.46999998093E+01 0. -1.
       -5    1    3    3    0  502 -0.39065370033E+01  0.14347426293E+03  0.87782702560E+03  0.88949564475E+03  0.46999998093E+01 0.  1.
</event>
<event>
 5   0  0.1815663E-04  0.1685783E+04  0.7818609E-02  0.8769515E-01
        1   -1    0    0  501    0  0.00000000000E+00  0.00000000000E+00  0.11650734174E+04  0.11650734174E+04  0.50400001928E-02 0. -1.
       -1   -1    0    0    0  501  0.00000000000E+00  0.00000000000E+00 -0.60980358142E+03  0.60980358144E+03  0.50400001928E-02 0.  1.
    10030    2    1    2    0    0  0.00000000000E+00  0.00000000000E+00  0.55526983597E+03  0.17748769988E+04  0.16857828360E+04 0.  0.
        5    1    3    3  502    0 -0.12247086812E+03 -0.80608157466E+03  0.50265254081E+03  0.95783520781E+03  0.46999998093E+01 0. -1.
       -5    1    3    3    0  502  0.12247086812E+03  0.80608157466E+03  0.52617295160E+02  0.81704179103E+03  0.46999998093E+01 0.  1.
</event>
<event>
 5   0  0.1815663E-04  0.1688240E+04  0.7818609E-02  0.8768100E-01
       -1   -1    0    0    0  501  0.00000000000E+00  0.00000000000E+00  0.38173360994E+03  0.38173360997E+03  0.50400001928E-02 0.  1.
        1   -1    0    0  501    0  0.00000000000E+00  0.00000000000E+00 -0.18665862305E+04  0.18665862305E+04  0.50400001928E-02 0. -1.
    10030    2    1    2    0    0  0.00000000000E+00  0.00000000000E+00 -0.14848526206E+04  0.22483198405E+04  0.16882401489E+04 0.  0.
        5    1    3    3  502    0  0.65653780539E+03 -0.24789579405E+03 -0.13671058952E+04  0.15367155994E+04  0.46999998093E+01 0. -1.
       -5    1    3    3    0  502 -0.65653780539E+03  0.24789579405E+03 -0.11774672532E+03  0.71160424109E+03  0.46999998093E+01 0.  1.
</event>
<event>
 5   0  0.1930116E-04  0.1706800E+04  0.7818609E-02  0.8757495E-01
        1   -1    0    0  501    0  0.00000000000E+00  0.00000000000E+00  0.13791310061E+04  0.13791310061E+04  0.50400001928E-02 0.  1.
       -1   -1    0    0    0  501  0.00000000000E+00  0.00000000000E+00 -0.52808019795E+03  0.52808019797E+03  0.50400001928E-02 0. -1.
    10030    2    1    2    0    0  0.00000000000E+00  0.00000000000E+00  0.85105080812E+03  0.19072112041E+04  0.17068002516E+04 0.  0.
        1    1    3    3  502    0 -0.46268599343E+03  0.70001935397E+03  0.59930599110E+03  0.10311513446E+04  0.50400001928E-02 0. -1.
       -1    1    3    3    0  502  0.46268599343E+03 -0.70001935397E+03  0.25174481702E+03  0.87605985947E+03  0.50400001928E-02 0.  1.
</event>
<event>
 5   0  0.3574092E-04  0.1723010E+04  0.7818609E-02  0.8748348E-01
       -2   -1    0    0    0  501  0.00000000000E+00  0.00000000000E+00  0.88027246958E+03  0.88027246958E+03  0.25500000920E-02 0.  1.
        2   -1    0    0  501    0  0.00000000000E+00  0.00000000000E+00 -0.84313800170E+03  0.84313800170E+03  0.25500000920E-02 0. -1.
    10030    2    1    2    0    0  0.00000000000E+00  0.00000000000E+00  0.37134467876E+02  0.17234104713E+04  0.17230103551E+04 0.  0.
        3    1    3    3  502    0  0.19828464615E+02 -0.81628950068E+03  0.29334805351E+03  0.86762596067E+03  0.10100000352E+00 0.  1.
       -3    1    3    3    0  502 -0.19828464615E+02  0.81628950068E+03 -0.25621358564E+03  0.85578451061E+03  0.10100000352E+00 0. -1.
</event>
<event>
 5   0  0.1317625E-04  0.1709857E+04  0.7818609E-02  0.8755762E-01
       -4   -1    0    0    0  501  0.00000000000E+00  0.00000000000E+00  0.10719953889E+04  0.10719961412E+04  0.12699999809E+01 0.  1.
        4   -1    0    0  501    0  0.00000000000E+00  0.00000000000E+00 -0.68181375271E+03  0.68181493551E+03  0.12699999809E+01 0. -1.
    10030    2    1    2    0    0  0.00000000000E+00  0.00000000000E+00  0.39018163616E+03  0.17538110767E+04  0.17098571822E+04 0.  0.
        4    1    3    3  502    0  0.56793354378E+03 -0.44270735409E+03  0.66776553027E+03  0.98206452326E+03  0.12699999809E+01 0.  1.
       -4    1    3    3    0  502 -0.56793354378E+03  0.44270735409E+03 -0.27758389411E+03  0.77174655340E+03  0.12699999809E+01 0. -1.
</event>
<event>
 5   0  0.1920289E-04  0.1703833E+04  0.7818609E-02  0.8759181E-01
       -1   -1    0    0    0  501  0.00000000000E+00  0.00000000000E+00  0.10126873614E+04  0.10126873614E+04  0.50400001928E-02 0. -1.
        1   -1    0    0  501    0  0.00000000000E+00  0.00000000000E+00 -0.71666876282E+03  0.71666876284E+03  0.50400001928E-02 0.  1.
    10030    2    1    2    0    0  0.00000000000E+00  0.00000000000E+00  0.29601859853E+03  0.17293561242E+04  0.17038326190E+04 0.  0.
        4    1    3    3  502    0 -0.77818515767E+03  0.21838256801E+03  0.42129482267E+03  0.91145708957E+03  0.12699999809E+01 0.  1.
       -4    1    3    3    0  502  0.77818515767E+03 -0.21838256801E+03 -0.12527622414E+03  0.81789903463E+03  0.12699999809E+01 0. -1.
</event>
<event>
 5   0  0.3605571E-04  0.1678648E+04  0.7818609E-02  0.8773636E-01
       -2   -1    0    0    0  501  0.00000000000E+00  0.00000000000E+00  0.58276056706E+03  0.58276056706E+03  0.25500000920E-02 0. -1.
        2   -1    0    0  501    0  0.00000000000E+00  0.00000000000E+00 -0.12088414756E+04  0.12088414756E+04  0.25500000920E-02 0.  1.
    10030    2    1    2    0    0  0.00000000000E+00  0.00000000000E+00 -0.62608090858E+03  0.17916020427E+04  0.16786484371E+04 0.  0.
        4    1    3    3  502    0 -0.25895877309E+03 -0.45548187446E+02 -0.11637498370E+04  0.11930840622E+04  0.12699999809E+01 0.  1.
       -4    1    3    3    0  502  0.25895877309E+03  0.45548187446E+02  0.53766892838E+03  0.59851798051E+03  0.12699999809E+01 0. -1.
</event>
<event>
 5   0  0.3678896E-04  0.1873234E+04  0.7818609E-02  0.8668295E-01
       -2   -1    0    0    0  501  0.00000000000E+00  0.00000000000E+00  0.92539458803E+03  0.92539458803E+03  0.25500000920E-02 0. -1.
        2   -1    0    0  501    0  0.00000000000E+00  0.00000000000E+00 -0.94797595803E+03  0.94797595803E+03  0.25500000920E-02 0.  1.
    10030    2    1    2    0    0  0.00000000000E+00  0.00000000000E+00 -0.22581369994E+02  0.18733705461E+04  0.18732344446E+04 0.  0.
        2    1    3    3  502    0 -0.19586908767E+03 -0.90746895742E+03 -0.13534490288E+03  0.93818060678E+03  0.25500000920E-02 0. -1.
       -2    1    3    3    0  502  0.19586908767E+03  0.90746895742E+03  0.11276353289E+03  0.93518993929E+03  0.25500000920E-02 0.  1.
</event>
<event>
 5   0  0.1930116E-04  0.1690791E+04  0.7818609E-02  0.8766634E-01
        1   -1    0    0  501    0  0.00000000000E+00  0.00000000000E+00  0.21923892064E+04  0.21923892064E+04  0.50400001928E-02 0.  1.
       -1   -1    0    0    0  501  0.00000000000E+00  0.00000000000E+00 -0.32598860911E+03  0.32598860914E+03  0.50400001928E-02 0. -1.
    10030    2    1    2    0    0  0.00000000000E+00  0.00000000000E+00  0.18664005973E+04  0.25183778155E+04  0.16907914219E+04 0.  0.
        1    1    3    3  502    0 -0.31879198394E+03  0.64790190161E+03  0.27836197619E+03  0.77388021873E+03  0.50400001928E-02 0. -1.
       -1    1    3    3    0  502  0.31879198394E+03 -0.64790190161E+03  0.15880386211E+04  0.17444975968E+04  0.50400001928E-02 0.  1.
</event>
<event>
 5   0  0.3573262E-04  0.1703689E+04  0.7818609E-02  0.8759263E-01
       -2   -1    0    0    0  501  0.00000000000E+00  0.00000000000E+00  0.53897261224E+03  0.53897261224E+03  0.25500000920E-02 0.  1.
        2   -1    0    0  501    0  0.00000000000E+00  0.00000000000E+00 -0.13463376696E+04  0.13463376696E+04  0.25500000920E-02 0. -1.
    10030    2    1    2    0    0  0.00000000000E+00  0.00000000000E+00 -0.80736505740E+03  0.18853102819E+04  0.17036890923E+04 0.  0.
        5    1    3    3  502    0 -0.58206695058E+03 -0.49123239977E+03  0.18434330682E+02  0.76188786582E+03  0.46999998093E+01 0.  1.
       -5    1    3    3    0  502  0.58206695058E+03  0.49123239977E+03 -0.82579938809E+03  0.11234224161E+04  0.46999998093E+01 0. -1.
</event>
<event>
 5   0  0.1824538E-04  0.1672619E+04  0.7818609E-02  0.8777137E-01
       -1   -1    0    0    0  501  0.00000000000E+00  0.00000000000E+00  0.83195674844E+03  0.83195674846E+03  0.50400001928E-02 0. -1.
        1   -1    0    0  501    0  0.00000000000E+00  0.00000000000E+00 -0.84068500310E+03  0.84068500312E+03  0.50400001928E-02 0.  1.
    10030    2    1    2    0    0  0.00000000000E+00  0.00000000000E+00 -0.87282546600E+01  0.16726417516E+04  0.16726189783E+04 0.  0.
        3    1    3    3  502    0  0.28972780187E+03 -0.75431259934E+03  0.21123995557E+03  0.83519580083E+03  0.10100000352E+00 0. -1.
       -3    1    3    3    0  502 -0.28972780187E+03  0.75431259934E+03 -0.21996821023E+03  0.83744595074E+03  0.10100000352E+00 0.  1.
</event>
<event>
 5   0  0.3605571E-04  0.1726384E+04  0.7818609E-02  0.8746458E-01
        2   -1    0    0  501    0  0.00000000000E+00  0.00000000000E+00  0.98492594008E+03  0.98492594008E+03  0.25500000920E-02 0.  1.
       -2   -1    0    0    0  501  0.00000000000E+00  0.00000000000E+00 -0.75650431093E+03  0.75650431093E+03  0.25500000920E-02 0. -1.
    10030    2    1    2    0    0  0.00000000000E+00  0.00000000000E+00  0.22842162915E+03  0.17414302510E+04  0.17263843368E+04 0.  0.
        4    1    3    3  502    0  0.39006895299E+03 -0.34422065186E+03 -0.58060106920E+03  0.77957735967E+03  0.12699999809E+01 0. -1.
       -4    1    3    3    0  502 -0.39006895299E+03  0.34422065186E+03  0.80902269835E+03  0.96185289135E+03  0.12699999809E+01 0.  1.
</event>
<event>
 5   0  0.1317625E-04  0.1696201E+04  0.7818609E-02  0.8763534E-01
       -4   -1    0    0    0  501  0.00000000000E+00  0.00000000000E+00  0.63887762603E+03  0.63887888832E+03  0.12699999809E+01 0.  1.
        4   -1    0    0  501    0  0.00000000000E+00  0.00000000000E+00 -0.11258373656E+04  0.11258380820E+04  0.12699999809E+01 0. -1.
    10030    2    1    2    0    0  0.00000000000E+00  0.00000000000E+00 -0.48695973962E+03  0.17647169703E+04  0.16962005180E+04 0.  0.
        4    1    3    3  502    0  0.61173658880E+03  0.31555055568E+03  0.27199169753E+03  0.74011816874E+03  0.12699999809E+01 0.  1.
       -4    1    3    3    0  502 -0.61173658880E+03 -0.31555055568E+03 -0.75895143715E+03  0.10245988015E+04  0.12699999809E+01 0. -1.
</event>
<event>
 5   0  0.1930116E-04  0.1694803E+04  0.7818609E-02  0.8764334E-01
        1   -1    0    0  501    0  0.00000000000E+00  0.00000000000E+00  0.14417911630E+04  0.14417911630E+04  0.50400001928E-02 0.  1.
       -1   -1    0    0    0  501  0.00000000000E+00  0.00000000000E+00 -0.49805381225E+03  0.49805381227E+03  0.50400001928E-02 0. -1.
    10030    2    1    2    0    0  0.00000000000E+00  0.00000000000E+00  0.94373735077E+03  0.19398449753E+04  0.16948033340E+04 0.  0.
        1    1    3    3  502    0 -0.61980229892E+03 -0.57464408982E+03  0.54166827802E+03  0.10038800940E+04  0.50400001928E-02 0.  1.
       -1    1    3    3    0  502  0.61980229892E+03  0.57464408982E+03  0.40206907275E+03  0.93596488129E+03  0.50400001928E-02 0. -1.
</event>
<event>
 5   0  0.1930116E-04  0.1726166E+04  0.7818609E-02  0.8746580E-01
       -1   -1    0    0    0  501  0.00000000000E+00  0.00000000000E+00  0.80692265164E+03  0.80692265166E+03  0.50400001928E-02 0.  1.
        1   -1    0    0  501    0  0.00000000000E+00  0.00000000000E+00 -0.92315182840E+03  0.92315182841E+03  0.50400001928E-02 0. -1.
    10030    2    1    2    0    0  0.00000000000E+00  0.00000000000E+00 -0.11622917676E+03  0.17300744801E+04  0.17261658336E+04 0.  0.
        1    1    3    3  502    0 -0.25032777346E+03  0.47552547619E+03 -0.73501313021E+03  0.91051236910E+03  0.50400001928E-02 0. -1.
       -1    1    3    3    0  502  0.25032777346E+03 -0.47552547619E+03  0.61878395345E+03  0.81956211097E+03  0.50400001928E-02 0.  1.
</event>
<event>
 5   0  0.1824538E-04  0.1712985E+04  0.7818609E-02  0.8753993E-01
        1   -1    0    0  501    0  0.00000000000E+00  0.00000000000E+00  0.59563508095E+03  0.59563508097E+03  0.50400001928E-02 0.  1.
       -1   -1    0    0    0  501  0.00000000000E+00  0.00000000000E+00 -0.12315920349E+04  0.12315920349E+04  0.50400001928E-02 0. -1.
    10030    2    1    2    0    0  0.00000000000E+00  0.00000000000E+00 -0.63595695398E+03  0.18272271159E+04  0.17129850221E+04 0.  0.
        3    1    3    3  502    0  0.50838857644E+02 -0.36978970256E+03  0.50430905715E+03  0.62742063155E+03  0.10100000352E+00 0.  1.
       -3    1    3    3    0  502 -0.50838857644E+02  0.36978970256E+03 -0.11402660111E+04  0.11998064844E+04  0.10100000352E+00 0. -1.
</event>
<event>
 5   0  0.3605571E-04  0.1702759E+04  0.7818609E-02  0.8759792E-01
       -2   -1    0    0    0  501  0.00000000000E+00  0.00000000000E+00  0.39570491789E+03  0.39570491790E+03  0.25500000920E-02 0.  1.
        2   -1    0    0  501    0  0.00000000000E+00  0.00000000000E+00 -0.18317867857E+04  0.18317867857E+04  0.25500000920E-02 0. -1.
    10030    2    1    2    0    0  0.00000000000E+00  0.00000000000E+00 -0.14360818678E+04  0.22274917036E+04  0.17027589843E+04 0.  0.
        4    1    3    3  502    0  0.39113345020E+03  0.56606453058E+03 -0.62088535390E+02  0.69084804970E+03  0.12699999809E+01 0.  1.
       -4    1    3    3    0  502 -0.39113345020E+03 -0.56606453058E+03 -0.13739933324E+04  0.15366436539E+04  0.12699999809E+01 0. -1.
</event>
<event>
 5   0  0.3516723E-04  0.1684471E+04  0.7818609E-02  0.8770271E-01
       -2   -1    0    0    0  501  0.00000000000E+00  0.00000000000E+00  0.60532130431E+03  0.60532130432E+03  0.25500000920E-02 0.  1.
        2   -1    0    0  501    0  0.00000000000E+00  0.00000000000E+00 -0.11718746611E+04  0.11718746611E+04  0.25500000920E-02 0. -1.
    10030    2    1    2    0    0  0.00000000000E+00  0.00000000000E+00 -0.56655335679E+03  0.17771959654E+04  0.16844710723E+04 0.  0.
        1    1    3    3  502    0  0.15557811580E+03 -0.79638269095E+03 -0.52137801337E+03  0.96450244863E+03  0.50400001928E-02 0. -1.
       -1    1    3    3    0  502 -0.15557811580E+03  0.79638269095E+03 -0.45175343424E+02  0.81269351680E+03  0.50400001928E-02 0.  1.
</event>
<event>
 5   0  0.1317625E-04  0.1693973E+04  0.7818609E-02  0.8764810E-01
        4   -1    0    0  501    0  0.00000000000E+00  0.00000000000E+00  0.53508190595E+03  0.53508341310E+03  0.12699999809E+01 0.  1.
       -4   -1    0    0    0  501  0.00000000000E+00  0.00000000000E+00 -0.13406990018E+04  0.13406996033E+04  0.12699999809E+01 0. -1.
    10030    2    1    2    0    0  0.00000000000E+00  0.00000000000E+00 -0.80561709584E+03  0.18757830164E+04  0.16939725557E+04 0.  0.
        4    1    3    3  502    0 -0.36820293224E+03 -0.58151063064E+03  0.14378550181E+03  0.70313860390E+03  0.12699999809E+01 0.  1.
       -4    1    3    3    0  502  0.36820293224E+03  0.58151063064E+03 -0.94940259766E+03  0.11726444125E+04  0.12699999809E+01 0. -1.
</event>
<event>
 5   0  0.1893284E-04  0.1723456E+04  0.7818609E-02  0.8748098E-01
       -1   -1    0    0    0  501  0.00000000000E+00  0.00000000000E+00  0.11436346974E+04  0.11436346974E+04  0.50400001928E-02 0.  1.
        1   -1    0    0  501    0  0.00000000000E+00  0.00000000000E+00 -0.64931165242E+03  0.64931165244E+03  0.50400001928E-02 0. -1.
    10030    2    1    2    0    0  0.00000000000E+00  0.00000000000E+00  0.49432304494E+03  0.17929463498E+04  0.17234562195E+04 0.  0.
        2    1    3    3  502    0 -0.25947691652E+03 -0.81852384369E+03  0.32265309742E+03  0.91728652785E+03  0.25500000920E-02 0. -1.
       -2    1    3    3    0  502  0.25947691652E+03  0.81852384369E+03  0.17166994753E+03  0.87565982196E+03  0.25500000920E-02 0.  1.
</event>
<event>
 5   0  0.1317625E-04  0.1699106E+04  0.7818609E-02  0.8761875E-01
        3   -1    0    0  501    0  0.00000000000E+00  0.00000000000E+00  0.63172410406E+03  0.63172411213E+03  0.10100000352E+00 0. -1.
       -3   -1    0    0    0  501  0.00000000000E+00  0.00000000000E+00 -0.11424925454E+04  0.11424925499E+04  0.10100000352E+00 0.  1.
    10030    2    1    2    0    0  0.00000000000E+00  0.00000000000E+00 -0.51076844137E+03  0.17742166620E+04  0.16991057539E+04 0.  0.
        2    1    3    3  502    0  0.25651095943E+03  0.34127992845E+03  0.51157095799E+03  0.66631427040E+03  0.25500000920E-02 0. -1.
       -2    1    3    3    0  502 -0.25651095943E+03 -0.34127992845E+03 -0.10223393994E+04  0.11079023916E+04  0.25500000920E-02 0.  1.
</event>
<event>
 5   0  0.3605571E-04  0.1704298E+04  0.7818609E-02  0.8758917E-01
        2   -1    0    0  501    0  0.00000000000E+00  0.00000000000E+00  0.13462579770E+04  0.13462579770E+04  0.25500000920E-02 0. -1.
       -2   -1    0    0    0  501  0.00000000000E+00  0.00000000000E+00 -0.53938998034E+03  0.53938998034E+03  0.25500000920E-02 0.  1.
    10030    2    1    2    0    0  0.00000000000E+00  0.00000000000E+00  0.80686799669E+03  0.18856479574E+04  0.17042981708E+04 0.  0.
        4    1    3    3  502    0 -0.10345637808E+03 -0.68689761315E+03 -0.14267064855E+03  0.70914602162E+03  0.12699999809E+01 0.  1.
       -4    1    3    3    0  502  0.10345637808E+03  0.68689761315E+03  0.94953864524E+03  0.11765019358E+04  0.12699999809E+01 0. -1.
</event>
<event>
 5   0  0.1824538E-04  0.1656682E+04  0.7818609E-02  0.8786463E-01
       -1   -1    0    0    0  501  0.00000000000E+00  0.00000000000E+00  0.56444009980E+03  0.56444009982E+03  0.50400001928E-02 0.  1.
        1   -1    0    0  501    0  0.00000000000E+00  0.00000000000E+00 -0.12156274637E+04  0.12156274637E+04  0.50400001928E-02 0. -1.
    10030    2    1    2    0    0  0.00000000000E+00  0.00000000000E+00 -0.65118736393E+03  0.17800675636E+04  0.16566820902E+04 0.  0.
        3    1    3    3  502    0 -0.14726271802E+03 -0.50005611272E+02 -0.11997997998E+04  0.12098373606E+04  0.10100000352E+00 0. -1.
       -3    1    3    3    0  502  0.14726271802E+03  0.50005611272E+02  0.54861243592E+03  0.57023020292E+03  0.10100000352E+00 0.  1.
</event>
<event>
 5   0  0.3605571E-04  0.1683602E+04  0.7818609E-02  0.8770773E-01
       -2   -1    0    0    0  501  0.00000000000E+00  0.00000000000E+00  0.78586274204E+03  0.78586274204E+03  0.25500000920E-02 0. -1.
        2   -1    0    0  501    0  0.00000000000E+00  0.00000000000E+00 -0.90172068947E+03  0.90172068948E+03  0.25500000920E-02 0.  1.
    10030    2    1    2    0    0  0.00000000000E+00  0.00000000000E+00 -0.11585794744E+03  0.16875834315E+04  0.16836017268E+04 0.  0.
        4    1    3    3  502    0  0.31232453966E+03 -0.67784392428E+03 -0.44821864654E+03  0.87058633791E+03  0.12699999809E+01 0.  1.
       -4    1    3    3    0  502 -0.31232453966E+03  0.67784392428E+03  0.33236069910E+03  0.81699709361E+03  0.12699999809E+01 0. -1.
</event>
<event>
 5   0  0.1824538E-04  0.1763660E+04  0.7818609E-02  0.8725867E-01
        1   -1    0    0  501    0  0.00000000000E+00  0.00000000000E+00  0.13048345245E+04  0.13048345245E+04  0.50400001928E-02 0.  1.
       -1   -1    0    0    0  501  0.00000000000E+00  0.00000000000E+00 -0.59595620147E+03  0.59595620149E+03  0.50400001928E-02 0. -1.
    10030    2    1    2    0    0  0.00000000000E+00  0.00000000000E+00  0.70887832305E+03  0.19007907260E+04  0.17636600883E+04 0.  0.
        3    1    3    3  502    0 -0.23602901255E+03 -0.84907680333E+03  0.32064675482E+03  0.93779286855E+03  0.10100000352E+00 0.  1.
       -3    1    3    3    0  502  0.23602901255E+03  0.84907680333E+03  0.38823156823E+03  0.96299785747E+03  0.10100000352E+00 0. -1.
</event>
<event>
 5   0  0.1824538E-04  0.1729536E+04  0.7818609E-02  0.8744696E-01
       -1   -1    0    0    0  501  0.00000000000E+00  0.00000000000E+00  0.35588687060E+03  0.35588687063E+03  0.50400001928E-02 0. -1.
        1   -1    0    0  501    0  0.00000000000E+00  0.00000000000E+00 -0.21012954972E+04  0.21012954972E+04  0.50400001928E-02 0.  1.
    10030    2    1    2    0    0  0.00000000000E+00  0.00000000000E+00 -0.17454086266E+04  0.24571823679E+04  0.17295357513E+04 0.  0.
        3    1    3    3  502    0  0.19751014470E+03  0.40580892497E+03  0.17529285910E+03  0.48416808806E+03  0.10100000352E+00 0. -1.
       -3    1    3    3    0  502 -0.19751014470E+03 -0.40580892497E+03 -0.19207014857E+04  0.19730142798E+04  0.10100000352E+00 0.  1.
</event>
<event>
 5   0  0.3516723E-04  0.1633111E+04  0.7818609E-02  0.8800461E-01
        2   -1    0    0  501    0  0.00000000000E+00  0.00000000000E+00  0.11899804197E+04  0.11899804197E+04  0.25500000920E-02 0.  1.
       -2   -1    0    0    0  501  0.00000000000E+00  0.00000000000E+00 -0.56031449235E+03  0.56031449236E+03  0.25500000920E-02 0. -1.
    10030    2    1    2    0    0  0.00000000000E+00  0.00000000000E+00  0.62966592737E+03  0.17502949121E+04  0.16331114779E+04 0.  0.
        1    1    3    3  502    0 -0.33093280107E+03 -0.64730471952E+03 -0.83657133579E+02  0.73179125080E+03  0.50400001928E-02 0. -1.
       -1    1    3    3    0  502  0.33093280107E+03  0.64730471952E+03  0.71332306095E+03  0.10185036613E+04  0.50400001928E-02 0.  1.
</event>
<event>
 5   0  0.3516723E-04  0.1720457E+04  0.7818609E-02  0.8749782E-01
        2   -1    0    0  501    0  0.00000000000E+00  0.00000000000E+00  0.15099243027E+04  0.15099243027E+04  0.25500000920E-02 0. -1.
       -2   -1    0    0    0  501  0.00000000000E+00  0.00000000000E+00 -0.49008603827E+03  0.49008603828E+03  0.25500000920E-02 0.  1.
    10030    2    1    2    0    0  0.00000000000E+00  0.00000000000E+00  0.10198382644E+04  0.20000103409E+04  0.17204567063E+04 0.  0.
        1    1    3    3  502    0 -0.21206665736E+03  0.51753125418E+03 -0.24987326118E+03  0.61257449579E+03  0.50400001928E-02 0.  1.
       -1    1    3    3    0  502  0.21206665736E+03 -0.51753125418E+03  0.12697115256E+04  0.13874358451E+04  0.50400001928E-02 0. -1.
</event>
<event>
 5   0  0.3605571E-04  0.1694399E+04  0.7818609E-02  0.8764565E-01
       -2   -1    0    0    0  501  0.00000000000E+00  0.00000000000E+00  0.98964673605E+03  0.98964673605E+03  0.25500000920E-02 0. -1.
        2   -1    0    0  501    0  0.00000000000E+00  0.00000000000E+00 -0.72525606813E+03  0.72525606813E+03  0.25500000920E-02 0.  1.
    10030    2    1    2    0    0  0.00000000000E+00  0.00000000000E+00  0.26439066792E+03  0.17149028042E+04  0.16943993633E+04 0.  0.
        4    1    3    3  502    0  0.33826345948E+03 -0.27800630127E+03  0.86625518449E+03  0.97062316536E+03  0.12699999809E+01 0. -1.
       -4    1    3    3    0  502 -0.33826345948E+03  0.27800630127E+03 -0.60186451657E+03  0.74427963883E+03  0.12699999809E+01 0.  1.
</event>
<event>
 5   0  0.3605571E-04  0.1683956E+04  0.7818609E-02  0.8770568E-01
        2   -1    0    0  501    0  0.00000000000E+00  0.00000000000E+00  0.80618325966E+03  0.80618325966E+03  0.25500000920E-02 0. -1.
       -2   -1    0    0    0  501  0.00000000000E+00  0.00000000000E+00 -0.87936202305E+03  0.87936202305E+03  0.25500000920E-02 0.  1.
    10030    2    1    2    0    0  0.00000000000E+00  0.00000000000E+00 -0.73178763386E+02  0.16855452827E+04  0.16839559877E+04 0.  0.
        4    1    3    3  502    0  0.33386779211E+03  0.73299729059E+03 -0.28212193030E+03  0.85343255567E+03  0.12699999809E+01 0. -1.
       -4    1    3    3    0  502 -0.33386779211E+03 -0.73299729059E+03  0.20894316691E+03  0.83211272705E+03  0.12699999809E+01 0.  1.
</event>
<event>
 5   0  0.1930116E-04  0.1705486E+04  0.7818609E-02  0.8758242E-01
       -1   -1    0    0    0  501  0.00000000000E+00  0.00000000000E+00  0.51157488094E+03  0.51157488097E+03  0.50400001928E-02 0. -1.
        1   -1    0    0  501    0  0.00000000000E+00  0.00000000000E+00 -0.14214358050E+04  0.14214358050E+04  0.50400001928E-02 0.  1.
    10030    2    1    2    0    0  0.00000000000E+00  0.00000000000E+00 -0.90986092404E+03  0.19330106860E+04  0.17054862682E+04 0.  0.
        1    1    3    3  502    0 -0.50349795735E+03  0.66464652362E+03 -0.25247948235E+03  0.87121242154E+03  0.50400001928E-02 0. -1.
       -1    1    3    3    0  502  0.50349795735E+03 -0.66464652362E+03 -0.65738144169E+03  0.10617982644E+04  0.50400001928E-02 0.  1.
</event>
<event>
 5   0  0.1824538E-04  0.1707038E+04  0.7818609E-02  0.8757361E-01
       -1   -1    0    0    0  501  0.00000000000E+00  0.00000000000E+00  0.10260181566E+04  0.10260181566E+04  0.50400001928E-02 0. -1.
        1   -1    0    0  501    0  0.00000000000E+00  0.00000000000E+00 -0.71002098678E+03  0.71002098680E+03  0.50400001928E-02 0.  1.
    10030    2    1    2    0    0  0.00000000000E+00  0.00000000000E+00  0.31599716985E+03  0.17360391434E+04  0.17070376962E+04 0.  0.
        3    1    3    3  502    0 -0.29758138744E+03  0.74766567161E+03 -0.13132688483E+03  0.81535599559E+03  0.10100000352E+00 0.  1.
       -3    1    3    3    0  502  0.29758138744E+03 -0.74766567161E+03  0.44732405468E+03  0.92068314786E+03  0.10100000352E+00 0. -1.
</event>
<event>
 5   0  0.3678896E-04  0.1699630E+04  0.7818609E-02  0.8761576E-01
        2   -1    0    0  501    0  0.00000000000E+00  0.00000000000E+00  0.11669295173E+04  0.11669295173E+04  0.25500000920E-02 0.  1.
       -2   -1    0    0    0  501  0.00000000000E+00  0.00000000000E+00 -0.61887651082E+03  0.61887651083E+03  0.25500000920E-02 0. -1.
    10030    2    1    2    0    0  0.00000000000E+00  0.00000000000E+00  0.54805300645E+03  0.17858060281E+04  0.16996296868E+04 0.  0.
        2    1    3    3  502    0  0.40355749348E+03 -0.45051054635E+03 -0.35320611466E+03  0.70040913926E+03  0.25500000920E-02 0. -1.
       -2    1    3    3    0  502 -0.40355749348E+03  0.45051054635E+03  0.90125912110E+03  0.10853968888E+04  0.25500000920E-02 0.  1.
</event>
<event>
 5   0  0.1893284E-04  0.1745092E+04  0.7818609E-02  0.8736057E-01
        1   -1    0    0  501    0  0.00000000000E+00  0.00000000000E+00  0.21724609713E+04  0.21724609713E+04  0.50400001928E-02 0. -1.
       -1   -1    0    0    0  501  0.00000000000E+00  0.00000000000E+00 -0.35044877480E+03  0.35044877484E+03  0.50400001928E-02 0.  1.
    10030    2    1    2    0    0  0.00000000000E+00  0.00000000000E+00  0.18220121965E+04  0.25229097462E+04  0.17450917291E+04 0.  0.
        2    1    3    3  502    0  0.75808676694E+03 -0.30030353882E+03  0.46199842735E+03  0.93718744577E+03  0.25500000920E-02 0.  1.
       -2    1    3    3    0  502 -0.75808676694E+03  0.30030353882E+03  0.13600137692E+04  0.15857223004E+04  0.25500000920E-02 0. -1.
</event>
<event>
 5   0  0.1920289E-04  0.1705190E+04  0.7818609E-02  0.8758410E-01
        1   -1    0    0  501    0  0.00000000000E+00  0.00000000000E+00  0.13277149042E+04  0.13277149042E+04  0.50400001928E-02 0. -1.
       -1   -1    0    0    0  501  0.00000000000E+00  0.00000000000E+00 -0.54749576674E+03  0.54749576676E+03  0.50400001928E-02 0.  1.
    10030    2    1    2    0    0  0.00000000000E+00  0.00000000000E+00  0.78021913742E+03  0.18752106709E+04  0.17051900651E+04 0.  0.
        4    1    3    3  502    0 -0.18328227925E+02 -0.48448277199E+03  0.11613624278E+04  0.12585006086E+04  0.12699999809E+01 0. -1.
       -4    1    3    3    0  502  0.18328227925E+02  0.48448277199E+03 -0.38114329036E+03  0.61671006233E+03  0.12699999809E+01 0.  1.
</event>
<event>
 5   0  0.1920289E-04  0.1699325E+04  0.7818609E-02  0.8761749E-01
       -1   -1    0    0    0  501  0.00000000000E+00  0.00000000000E+00  0.31641381352E+03  0.31641381356E+03  0.50400001928E-02 0. -1.
        1   -1    0    0  501    0  0.00000000000E+00  0.00000000000E+00 -0.22815897179E+04  0.22815897179E+04  0.50400001928E-02 0.  1.
    10030    2    1    2    0    0  0.00000000000E+00  0.00000000000E+00 -0.19651759043E+04  0.25980035314E+04  0.16993251644E+04 0.  0.
        4    1    3    3  502    0  0.44976375196E+03 -0.69057257245E+03 -0.66649415846E+03  0.10599028194E+04  0.12699999809E+01 0.  1.
       -4    1    3    3    0  502 -0.44976375196E+03  0.69057257245E+03 -0.12986817459E+04  0.15381007120E+04  0.12699999809E+01 0. -1.
</event>
<event>
 5   0  0.3678896E-04  0.1716260E+04  0.7818609E-02  0.8752145E-01
       -2   -1    0    0    0  501  0.00000000000E+00  0.00000000000E+00  0.13031293530E+04  0.13031293530E+04  0.25500000920E-02 0. -1.
        2   -1    0    0  501    0  0.00000000000E+00  0.00000000000E+00 -0.56509122123E+03  0.56509122123E+03  0.25500000920E-02 0.  1.
    10030    2    1    2    0    0  0.00000000000E+00  0.00000000000E+00  0.73803813181E+03  0.18682205743E+04  0.17162598376E+04 0.  0.
        2    1    3    3  502    0 -0.24702429762E+03 -0.30897834922E+03  0.11979551427E+04  0.12615804167E+04  0.25500000920E-02 0. -1.
       -2    1    3    3    0  502  0.24702429762E+03  0.30897834922E+03 -0.45991701087E+03  0.60664015758E+03  0.25500000920E-02 0.  1.
</event>
<event>
 5   0  0.1930116E-04  0.1721779E+04  0.7818609E-02  0.8749039E-01
        1   -1    0    0  501    0  0.00000000000E+00  0.00000000000E+00  0.39559149757E+03  0.39559149760E+03  0.50400001928E-02 0.  1.
       -1   -1    0    0    0  501  0.00000000000E+00  0.00000000000E+00 -0.18734752987E+04  0.18734752987E+04  0.50400001928E-02 0. -1.
    10030    2    1    2    0    0  0.00000000000E+00  0.00000000000E+00 -0.14778838011E+04  0.22690667963E+04  0.17217791950E+04 0.  0.
        1    1    3    3  502    0  0.24683674766E+03 -0.58934665125E+03 -0.14992841767E+04  0.16297579261E+04  0.50400001928E-02 0. -1.
       -1    1    3    3    0  502 -0.24683674766E+03  0.58934665125E+03  0.21400375580E+02  0.63930887014E+03  0.50400001928E-02 0.  1.
</event>
<event>
 5   0  0.3678896E-04  0.1733304E+04  0.7818609E-02  0.8742594E-01
       -2   -1    0    0    0  501  0.00000000000E+00  0.00000000000E+00  0.76822975249E+03  0.76822975250E+03  0.25500000920E-02 0.  1.
        2   -1    0    0  501    0  0.00000000000E+00  0.00000000000E+00 -0.97768423650E+03  0.97768423650E+03  0.25500000920E-02 0. -1.
    10030    2    1    2    0    0  0.00000000000E+00  0.00000000000E+00 -0.20945448401E+03  0.17459139890E+04  0.17333044961E+04 0.  0.
        2    1    3    3  502    0  0.43783201035E+02  0.12214317356E+03 -0.96784492968E+03  0.97650383074E+03  0.25500000920E-02 0. -1.
       -2    1    3    3    0  502 -0.43783201035E+02 -0.12214317356E+03  0.75839044567E+03  0.76941015826E+03  0.25500000920E-02 0.  1.
</event>
<event>
 5   0  0.3678896E-04  0.1690499E+04  0.7818609E-02  0.8766802E-01
        2   -1    0    0  501    0  0.00000000000E+00  0.00000000000E+00  0.89039215705E+03  0.89039215705E+03  0.25500000920E-02 0. -1.
       -2   -1    0    0    0  501  0.00000000000E+00  0.00000000000E+00 -0.80239581865E+03  0.80239581866E+03  0.25500000920E-02 0.  1.
    10030    2    1    2    0    0  0.00000000000E+00  0.00000000000E+00  0.87996338394E+02  0.16927879757E+04  0.16904992680E+04 0.  0.
        2    1    3    3  502    0 -0.40255617050E+03 -0.57950332830E+03 -0.42200416941E+03  0.82216974946E+03  0.25500000920E-02 0.  1.
       -2    1    3    3    0  502  0.40255617050E+03  0.57950332830E+03  0.51000050780E+03  0.87061822625E+03  0.25500000920E-02 0. -1.
</event>
<event>
 5   0  0.3678896E-04  0.1724826E+04  0.7818609E-02  0.8747331E-01
        2   -1    0    0  501    0  0.00000000000E+00  0.00000000000E+00  0.20126241025E+04  0.20126241025E+04  0.25500000920E-02 0. -1.
       -2   -1    0    0    0  501  0.00000000000E+00  0.00000000000E+00 -0.36954539194E+03  0.36954539195E+03  0.25500000920E-02 0.  1.
    10030    2    1    2    0    0  0.00000000000E+00  0.00000000000E+00  0.16430787106E+04  0.23821694945E+04  0.17248257452E+04 0.  0.
        2    1    3    3  502    0 -0.79211937827E+03  0.34090340142E+03  0.80860373368E+03  0.11821625255E+04  0.25500000920E-02 0.  1.
       -2    1    3    3    0  502  0.79211937827E+03 -0.34090340142E+03  0.83447497692E+03  0.12000069690E+04  0.25500000920E-02 0. -1.
</event>
<event>
 5   0  0.3516723E-04  0.1699980E+04  0.7818609E-02  0.8761376E-01
       -2   -1    0    0    0  501  0.00000000000E+00  0.00000000000E+00  0.41165979928E+03  0.41165979928E+03  0.25500000920E-02 0.  1.
        2   -1    0    0  501    0  0.00000000000E+00  0.00000000000E+00 -0.17550492551E+04  0.17550492551E+04  0.25500000920E-02 0. -1.
    10030    2    1    2    0    0  0.00000000000E+00  0.00000000000E+00 -0.13433894558E+04  0.21667090544E+04  0.16999802635E+04 0.  0.
        1    1    3    3  502    0 -0.28812011518E+03  0.74853953866E+03 -0.10302909607E+04  0.13056891305E+04  0.50400001928E-02 0.  1.
       -1    1    3    3    0  502  0.28812011518E+03 -0.74853953866E+03 -0.31309849510E+03  0.86101992391E+03  0.50400001928E-02 0. -1.
</event>
<event>
 5   0  0.1893284E-04  0.1705024E+04  0.7818609E-02  0.8758504E-01
        1   -1    0    0  501    0  0.00000000000E+00  0.00000000000E+00  0.11002193067E+04  0.11002193067E+04  0.50400001928E-02 0.  1.
       -1   -1    0    0    0  501  0.00000000000E+00  0.00000000000E+00 -0.66057450566E+03  0.66057450567E+03  0.50400001928E-02 0. -1.
    10030    2    1    2    0    0  0.00000000000E+00  0.00000000000E+00  0.43964480102E+03  0.17607938124E+04  0.17050241343E+04 0.  0.
        2    1    3    3  502    0 -0.83118370237E+03 -0.15269847662E+03  0.10393030103E+03  0.85146032164E+03  0.25500000920E-02 0. -1.
       -2    1    3    3    0  502  0.83118370237E+03  0.15269847662E+03  0.33571449999E+03  0.90933349073E+03  0.25500000920E-02 0.  1.
</event>
<event>
 5   0  0.3605571E-04  0.1714919E+04  0.7818609E-02  0.8752901E-01
       -2   -1    0    0    0  501  0.00000000000E+00  0.00000000000E+00  0.71293835837E+03  0.71293835837E+03  0.25500000920E-02 0. -1.
        2   -1    0    0  501    0  0.00000000000E+00  0.00000000000E+00 -0.10312763013E+04  0.10312763013E+04  0.25500000920E-02 0.  1.
    10030    2    1    2    0    0  0.00000000000E+00  0.00000000000E+00 -0.31833794293E+03  0.17442146597E+04  0.17149185792E+04 0.  0.
        4    1    3    3  502    0 -0.86691411666E+02 -0.85263920147E+03 -0.18657009617E+03  0.87710832993E+03  0.12699999809E+01 0. -1.
       -4    1    3    3    0  502  0.86691411666E+02  0.85263920147E+03 -0.13176784676E+03  0.86710632975E+03  0.12699999809E+01 0.  1.
</event>
<event>
 5   0  0.3573262E-04  0.1692789E+04  0.7818609E-02  0.8765488E-01
       -2   -1    0    0    0  501  0.00000000000E+00  0.00000000000E+00  0.92768474460E+03  0.92768474460E+03  0.25500000920E-02 0.  1.
        2   -1    0    0  501    0  0.00000000000E+00  0.00000000000E+00 -0.77222764564E+03  0.77222764565E+03  0.25500000920E-02 0. -1.
    10030    2    1    2    0    0  0.00000000000E+00  0.00000000000E+00  0.15545709896E+03  0.16999123902E+04  0.16927891850E+04 0.  0.
        5    1    3    3  502    0  0.61316230355E+02 -0.42423493802E+03  0.81061240042E+03  0.91697847109E+03  0.46999998093E+01 0.  1.
       -5    1    3    3    0  502 -0.61316230355E+02  0.42423493802E+03 -0.65515530146E+03  0.78293391916E+03  0.46999998093E+01 0. -1.
</event>
<event>
 5   0  0.1824538E-04  0.1691439E+04  0.7818609E-02  0.8766262E-01
        1   -1    0    0  501    0  0.00000000000E+00  0.00000000000E+00  0.13699076110E+04  0.13699076110E+04  0.50400001928E-02 0.  1.
       -1   -1    0    0    0  501  0.00000000000E+00  0.00000000000E+00 -0.52210924705E+03  0.52210924707E+03  0.50400001928E-02 0. -1.
    10030    2    1    2    0    0  0.00000000000E+00  0.00000000000E+00  0.84779836395E+03  0.18920168581E+04  0.16914389511E+04 0.  0.
        3    1    3    3  502    0  0.80945521130E+01 -0.52651469977E+03  0.11641603882E+04  0.12777138453E+04  0.10100000352E+00 0.  1.
       -3    1    3    3    0  502 -0.80945521130E+01  0.52651469977E+03 -0.31636202429E+03  0.61430301274E+03  0.10100000352E+00 0. -1.
</event>
<event>
 5   0  0.3573262E-04  0.1706434E+04  0.7818609E-02  0.8757703E-01
        2   -1    0    0  501    0  0.00000000000E+00  0.00000000000E+00  0.15364588261E+04  0.15364588261E+04  0.25500000920E-02 0.  1.
       -2   -1    0    0    0  501  0.00000000000E+00  0.00000000000E+00 -0.47380322117E+03  0.47380322117E+03  0.25500000920E-02 0. -1.
    10030    2    1    2    0    0  0.00000000000E+00  0.00000000000E+00  0.10626556049E+04  0.20102620473E+04  0.17064338733E+04 0.  0.
        5    1    3    3  502    0  0.41204865425E+03 -0.73943915453E+03  0.65712383687E+03  0.10716287527E+04  0.46999998093E+01 0. -1.
       -5    1    3    3    0  502 -0.41204865425E+03  0.73943915453E+03  0.40553176808E+03  0.93863329455E+03  0.46999998093E+01 0.  1.
</event>
<event>
 5   0  0.1815663E-04  0.1711551E+04  0.7818609E-02  0.8754804E-01
        1   -1    0    0  501    0  0.00000000000E+00  0.00000000000E+00  0.14229848128E+04  0.14229848128E+04  0.50400001928E-02 0.  1.
       -1   -1    0    0    0  501  0.00000000000E+00  0.00000000000E+00 -0.51465880985E+03  0.51465880987E+03  0.50400001928E-02 0. -1.
    10030    2    1    2    0    0  0.00000000000E+00  0.00000000000E+00  0.90832600298E+03  0.19376436227E+04  0.17115509577E+04 0.  0.
        5    1    3    3  502    0 -0.61780549552E+03  0.57055160855E+03  0.63358113162E+03  0.10529292040E+04  0.46999998093E+01 0.  1.
       -5    1    3    3    0  502  0.61780549552E+03 -0.57055160855E+03  0.27474487135E+03  0.88471441870E+03  0.46999998093E+01 0. -1.
</event>
<event>
 5   0  0.3573262E-04  0.1703317E+04  0.7818609E-02  0.8759475E-01
       -2   -1    0    0    0  501  0.00000000000E+00  0.00000000000E+00  0.44959497315E+03  0.44959497316E+03  0.25500000920E-02 0. -1.
        2   -1    0    0  501    0  0.00000000000E+00  0.00000000000E+00 -0.16132798493E+04  0.16132798493E+04  0.25500000920E-02 0.  1.
    10030    2    1    2    0    0  0.00000000000E+00  0.00000000000E+00 -0.11636848761E+04  0.20628748225E+04  0.17033173639E+04 0.  0.
        5    1    3    3  502    0 -0.29491891320E+03 -0.47676817985E+03  0.19459474720E+03  0.59344272539E+03  0.46999998093E+01 0. -1.
       -5    1    3    3    0  502  0.29491891320E+03  0.47676817985E+03 -0.13582796233E+04  0.14694320971E+04  0.46999998093E+01 0.  1.
</event>
<event>
 5   0  0.3678896E-04  0.1711820E+04  0.7818609E-02  0.8754651E-01
       -2   -1    0    0    0  501  0.00000000000E+00  0.00000000000E+00  0.53788653997E+03  0.53788653998E+03  0.25500000920E-02 0. -1.
        2   -1    0    0  501    0  0.00000000000E+00  0.00000000000E+00 -0.13619639499E+04  0.13619639499E+04  0.25500000920E-02 0.  1.
    10030    2    1    2    0    0  0.00000000000E+00  0.00000000000E+00 -0.82407740990E+03  0.18998504899E+04  0.17118201735E+04 0.  0.
        2    1    3    3  502    0  0.70534073972E+03 -0.67400304085E+02  0.12084017872E+03  0.71878418799E+03  0.25500000920E-02 0. -1.
       -2    1    3    3    0  502 -0.70534073972E+03  0.67400304085E+02 -0.94491758862E+03  0.11810663019E+04  0.25500000920E-02 0.  1.
</event>
<event>
 5   0  0.1930116E-04  0.1682592E+04  0.7818609E-02  0.8771356E-01
        1   -1    0    0  501    0  0.00000000000E+00  0.00000000000E+00  0.75900587614E+03  0.75900587615E+03  0.50400001928E-02 0. -1.
       -1   -1    0    0    0  501  0.00000000000E+00  0.00000000000E+00 -0.93250735677E+03  0.93250735679E+03  0.50400001928E-02 0.  1.
    10030    2    1    2    0    0  0.00000000000E+00  0.00000000000E+00 -0.17350148064E+03  0.16915132329E+04  0.16825915290E+04 0.  0.
        1    1    3    3  502    0  0.45001827862E+03  0.69774693196E+03 -0.22315856921E+03  0.85974820685E+03  0.50400001928E-02 0. -1.
       -1    1    3    3    0  502 -0.45001827862E+03 -0.69774693196E+03  0.49657088577E+02  0.83176502609E+03  0.50400001928E-02 0.  1.
</event>
<event>
 5   0  0.1824538E-04  0.1542299E+04  0.7818609E-02  0.8856802E-01
        1   -1    0    0  501    0  0.00000000000E+00  0.00000000000E+00  0.11464647124E+04  0.11464647124E+04  0.50400001928E-02 0. -1.
       -1   -1    0    0    0  501  0.00000000000E+00  0.00000000000E+00 -0.51870026154E+03  0.51870026156E+03  0.50400001928E-02 0.  1.
    10030    2    1    2    0    0  0.00000000000E+00  0.00000000000E+00  0.62776445083E+03  0.16651649739E+04  0.15422989933E+04 0.  0.
        3    1    3    3  502    0  0.74237866010E+03 -0.14221455775E+03  0.47875822437E+03  0.89474046684E+03  0.10100000352E+00 0. -1.
       -3    1    3    3    0  502 -0.74237866010E+03  0.14221455775E+03  0.14900622647E+03  0.77042450710E+03  0.10100000352E+00 0.  1.
</event>
<event>
 5   0  0.3605571E-04  0.1695511E+04  0.7818609E-02  0.8763929E-01
        2   -1    0    0  501    0  0.00000000000E+00  0.00000000000E+00  0.12598316966E+04  0.12598316966E+04  0.25500000920E-02 0.  1.
       -2   -1    0    0    0  501  0.00000000000E+00  0.00000000000E+00 -0.57046474566E+03  0.57046474566E+03  0.25500000920E-02 0. -1.
    10030    2    1    2    0    0  0.00000000000E+00  0.00000000000E+00  0.68936695089E+03  0.18302964422E+04  0.16955112130E+04 0.  0.
        4    1    3    3  502    0 -0.20174736875E+03 -0.76794265988E+03  0.23998812585E+02  0.79436483152E+03  0.12699999809E+01 0. -1.
       -4    1    3    3    0  502  0.20174736875E+03  0.76794265988E+03  0.66536813831E+03  0.10359316107E+04  0.12699999809E+01 0.  1.
</event>
<event>
 5   0  0.3605571E-04  0.1677490E+04  0.7818609E-02  0.8774308E-01
       -2   -1    0    0    0  501  0.00000000000E+00  0.00000000000E+00  0.36501231310E+03  0.36501231310E+03  0.25500000920E-02 0. -1.
        2   -1    0    0  501    0  0.00000000000E+00  0.00000000000E+00 -0.19273128216E+04  0.19273128216E+04  0.25500000920E-02 0.  1.
    10030    2    1    2    0    0  0.00000000000E+00  0.00000000000E+00 -0.15623005085E+04  0.22923251347E+04  0.16774896853E+04 0.  0.
        4    1    3    3  502    0  0.31391681508E+03  0.76521467214E+03 -0.97145537177E+03  0.12758622236E+04  0.12699999809E+01 0.  1.
       -4    1    3    3    0  502 -0.31391681508E+03 -0.76521467214E+03 -0.59084513674E+03  0.10164629112E+04  0.12699999809E+01 0. -1.
</event>
<event>
 5   0  0.3516723E-04  0.1731448E+04  0.7818609E-02  0.8743629E-01
       -2   -1    0    0    0  501  0.00000000000E+00  0.00000000000E+00  0.43636802000E+03  0.43636802001E+03  0.25500000920E-02 0.  1.
        2   -1    0    0  501    0  0.00000000000E+00  0.00000000000E+00 -0.17175374043E+04  0.17175374043E+04  0.25500000920E-02 0. -1.
    10030    2    1    2    0    0  0.00000000000E+00  0.00000000000E+00 -0.12811693843E+04  0.21539054243E+04  0.17314484068E+04 0.  0.
        1    1    3    3  502    0 -0.14863998455E+03 -0.63771406393E+03  0.63897727426E+02  0.65791792188E+03  0.50400001928E-02 0.  1.
       -1    1    3    3    0  502  0.14863998455E+03  0.63771406393E+03 -0.13450671117E+04  0.14959875024E+04  0.50400001928E-02 0. -1.
</event>
<event>
 5   0  0.3573262E-04  0.1768965E+04  0.7818609E-02  0.8722980E-01
        2   -1    0    0  501    0  0.00000000000E+00  0.00000000000E+00  0.93590597586E+03  0.93590597586E+03  0.25500000920E-02 0. -1.
       -2   -1    0    0    0  501  0.00000000000E+00  0.00000000000E+00 -0.83588418995E+03  0.83588418995E+03  0.25500000920E-02 0.  1.
    10030    2    1    2    0    0  0.00000000000E+00  0.00000000000E+00  0.10002178590E+03  0.17717901658E+04  0.17689646786E+04 0.  0.
        5    1    3    3  502    0  0.68184342107E+03  0.11622535820E+02  0.61415238609E+03  0.91774221737E+03  0.46999998093E+01 0. -1.
       -5    1    3    3    0  502 -0.68184342107E+03 -0.11622535820E+02 -0.51413060019E+03  0.85404794845E+03  0.46999998093E+01 0.  1.
</event>
<event>
 5   0  0.1824538E-04  0.1684380E+04  0.7818609E-02  0.8770323E-01
        1   -1    0    0  501    0  0.00000000000E+00  0.00000000000E+00  0.11659017121E+04  0.11659017121E+04  0.50400001928E-02 0.  1.
       -1   -1    0    0    0  501  0.00000000000E+00  0.00000000000E+00 -0.60835674280E+03  0.60835674282E+03  0.50400001928E-02 0. -1.
    10030    2    1    2    0    0  0.00000000000E+00  0.00000000000E+00  0.55754496930E+03  0.17742584549E+04  0.16843802041E+04 0.  0.
        3    1    3    3  502    0  0.59681194194E+03  0.57866743813E+03  0.13649612728E+03  0.84242014515E+03  0.10100000352E+00 0.  1.
       -3    1    3    3    0  502 -0.59681194194E+03 -0.57866743813E+03  0.42104884202E+03  0.93183830977E+03  0.10100000352E+00 0. -1.
</event>
<event>
 5   0  0.1930116E-04  0.1669305E+04  0.7818609E-02  0.8779067E-01
       -1   -1    0    0    0  501  0.00000000000E+00  0.00000000000E+00  0.94408134176E+03  0.94408134178E+03  0.50400001928E-02 0. -1.
        1   -1    0    0  501    0  0.00000000000E+00  0.00000000000E+00 -0.73790803591E+03  0.73790803592E+03  0.50400001928E-02 0.  1.
    10030    2    1    2    0    0  0.00000000000E+00  0.00000000000E+00  0.20617330586E+03  0.16819893777E+04  0.16693054947E+04 0.  0.
        1    1    3    3  502    0 -0.14962753041E+03 -0.46975026794E+03  0.78169606363E+03  0.92417663247E+03  0.50400001928E-02 0. -1.
       -1    1    3    3    0  502  0.14962753041E+03  0.46975026794E+03 -0.57552275778E+03  0.75781274523E+03  0.50400001928E-02 0.  1.
</event>
<event>
 5   0  0.3678896E-04  0.1637428E+04  0.7818609E-02  0.8797879E-01
       -2   -1    0    0    0  501  0.00000000000E+00  0.00000000000E+00  0.54781761532E+03  0.54781761533E+03  0.25500000920E-02 0.  1.
        2   -1    0    0  501    0  0.00000000000E+00  0.00000000000E+00 -0.12235685637E+04  0.12235685637E+04  0.25500000920E-02 0. -1.
    10030    2    1    2    0    0  0.00000000000E+00  0.00000000000E+00 -0.67575094841E+03  0.17713861791E+04  0.16374277545E+04 0.  0.
        2    1    3    3  502    0 -0.32277339759E+03  0.28802040490E+02  0.47548485642E+03  0.57541122027E+03  0.25500000920E-02 0.  1.
       -2    1    3    3    0  502  0.32277339759E+03 -0.28802040490E+02 -0.11512358048E+04  0.11959749588E+04  0.25500000920E-02 0. -1.
</event>
<event>
 5   0  0.1815663E-04  0.1699556E+04  0.7818609E-02  0.8761618E-01
       -1   -1    0    0    0  501  0.00000000000E+00  0.00000000000E+00  0.77861352418E+03  0.77861352419E+03  0.50400001928E-02 0.  1.
        1   -1    0    0  501    0  0.00000000000E+00  0.00000000000E+00 -0.92744651038E+03  0.92744651039E+03  0.50400001928E-02 0. -1.
    10030    2    1    2    0    0  0.00000000000E+00  0.00000000000E+00 -0.14883298620E+03  0.17060600346E+04  0.16995557019E+04 0.  0.
        5    1    3    3  502    0 -0.17078743914E+03  0.55779805201E+03  0.54584247485E+03  0.79891996692E+03  0.46999998093E+01 0.  1.
       -5    1    3    3    0  502  0.17078743914E+03 -0.55779805201E+03 -0.69467546105E+03  0.90714006767E+03  0.46999998093E+01 0. -1.
</event>
<event>
 5   0  0.1824538E-04  0.1716052E+04  0.7818609E-02  0.8752262E-01
        1   -1    0    0  501    0  0.00000000000E+00  0.00000000000E+00  0.26999381664E+04  0.26999381664E+04  0.50400001928E-02 0. -1.
       -1   -1    0    0    0  501  0.00000000000E+00  0.00000000000E+00 -0.27267611717E+03  0.27267611721E+03  0.50400001928E-02 0.  1.
    10030    2    1    2    0    0  0.00000000000E+00  0.00000000000E+00  0.24272620492E+04  0.29726142836E+04  0.17160520457E+04 0.  0.
        3    1    3    3  502    0 -0.75568750209E+03  0.27162349989E+03  0.17372311519E+04  0.19138482207E+04  0.10100000352E+00 0. -1.
       -3    1    3    3    0  502  0.75568750209E+03 -0.27162349989E+03  0.69003089729E+03  0.10587660629E+04  0.10100000352E+00 0.  1.
</event>
<event>
 5   0  0.1893284E-04  0.1708055E+04  0.7818609E-02  0.8756784E-01
        1   -1    0    0  501    0  0.00000000000E+00  0.00000000000E+00  0.98537609335E+03  0.98537609337E+03  0.50400001928E-02 0. -1.
       -1   -1    0    0    0  501  0.00000000000E+00  0.00000000000E+00 -0.74018716827E+03  0.74018716829E+03  0.50400001928E-02 0.  1.
    10030    2    1    2    0    0  0.00000000000E+00  0.00000000000E+00  0.24518892508E+03  0.17255632617E+04  0.17080547301E+04 0.  0.
        2    1    3    3  502    0 -0.42288132950E+03 -0.72098312075E+03 -0.54466067968E+02  0.83762272642E+03  0.25500000920E-02 0.  1.
       -2    1    3    3    0  502  0.42288132950E+03  0.72098312075E+03  0.29965499305E+03  0.88794053524E+03  0.25500000920E-02 0. -1.
</event>
<event>
 5   0  0.3678896E-04  0.1700723E+04  0.7818609E-02  0.8760952E-01
        2   -1    0    0  501    0  0.00000000000E+00  0.00000000000E+00  0.48446313371E+03  0.48446313371E+03  0.25500000920E-02 0.  1.
       -2   -1    0    0    0  501  0.00000000000E+00  0.00000000000E+00 -0.14926112005E+04  0.14926112005E+04  0.25500000920E-02 0. -1.
    10030    2    1    2    0    0  0.00000000000E+00  0.00000000000E+00 -0.10081480668E+04  0.19770743342E+04  0.17007234927E+04 0.  0.
        2    1    3    3  502    0  0.67205373434E+03  0.11332850892E+03  0.87101681561E+02  0.68708534820E+03  0.25500000920E-02 0.  1.
       -2    1    3    3    0  502 -0.67205373434E+03 -0.11332850892E+03 -0.10952497484E+04  0.12899889860E+04  0.25500000920E-02 0. -1.
</event>
<event>
 5   0  0.3574092E-04  0.1707040E+04  0.7818609E-02  0.8757359E-01
       -2   -1    0    0    0  501  0.00000000000E+00  0.00000000000E+00  0.10987552660E+04  0.10987552660E+04  0.25500000920E-02 0.  1.
        2   -1    0    0  501    0  0.00000000000E+00  0.00000000000E+00 -0.66301965910E+03  0.66301965911E+03  0.25500000920E-02 0. -1.
    10030    2    1    2    0    0  0.00000000000E+00  0.00000000000E+00  0.43573560692E+03  0.17617749251E+04  0.17070399432E+04 0.  0.
        3    1    3    3  502    0  0.81908352344E+03  0.83696621494E+02  0.45000975258E+03  0.93830257936E+03  0.10100000352E+00 0.  1.
       -3    1    3    3    0  502 -0.81908352344E+03 -0.83696621494E+02 -0.14274145660E+02  0.82347234577E+03  0.10100000352E+00 0. -1.
</event>
<event>
 5   0  0.1815663E-04  0.1698747E+04  0.7818609E-02  0.8762080E-01
        1   -1    0    0  501    0  0.00000000000E+00  0.00000000000E+00  0.85181336915E+03  0.85181336917E+03  0.50400001928E-02 0. -1.
       -1   -1    0    0    0  501  0.00000000000E+00  0.00000000000E+00 -0.84694026892E+03  0.84694026894E+03  0.50400001928E-02 0.  1.
    10030    2    1    2    0    0  0.00000000000E+00  0.00000000000E+00  0.48731002281E+01  0.16987536381E+04  0.16987466485E+04 0.  0.
        5    1    3    3  502    0  0.32972361579E+03  0.15745947822E+03  0.76918725392E+03  0.85157634519E+03  0.46999998093E+01 0. -1.
       -5    1    3    3    0  502 -0.32972361579E+03 -0.15745947822E+03 -0.76431415369E+03  0.84717729291E+03  0.46999998093E+01 0.  1.
</event>
<event>
 5   0  0.1930116E-04  0.1727852E+04  0.7818609E-02  0.8745637E-01
        1   -1    0    0  501    0  0.00000000000E+00  0.00000000000E+00  0.60910869744E+03  0.60910869746E+03  0.50400001928E-02 0. -1.
       -1   -1    0    0    0  501  0.00000000000E+00  0.00000000000E+00 -0.12253447530E+04  0.12253447530E+04  0.50400001928E-02 0.  1.
    10030    2    1    2    0    0  0.00000000000E+00  0.00000000000E+00 -0.61623605553E+03  0.18344534504E+04  0.17278520150E+04 0.  0.
        1    1    3    3  502    0 -0.54137619025E+03  0.14011864546E+03 -0.10072645331E+04  0.11520864784E+04  0.50400001928E-02 0.  1.
       -1    1    3    3    0  502  0.54137619025E+03 -0.14011864546E+03  0.39102847756E+03  0.68236697199E+03  0.50400001928E-02 0. -1.
</event>
<event>
 5   0  0.1815663E-04  0.1703835E+04  0.7818609E-02  0.8759180E-01
       -1   -1    0    0    0  501  0.00000000000E+00  0.00000000000E+00  0.73424084495E+03  0.73424084497E+03  0.50400001928E-02 0.  1.
        1   -1    0    0  501    0  0.00000000000E+00  0.00000000000E+00 -0.98845454635E+03  0.98845454636E+03  0.50400001928E-02 0. -1.
    10030    2    1    2    0    0  0.00000000000E+00  0.00000000000E+00 -0.25421370139E+03  0.17226953913E+04  0.17038353222E+04 0.  0.
        5    1    3    3  502    0  0.63739611221E+03  0.23684157736E+03 -0.64598719682E+03  0.93791752573E+03  0.46999998093E+01 0. -1.
       -5    1    3    3    0  502 -0.63739611221E+03 -0.23684157736E+03  0.39177349542E+03  0.78477786560E+03  0.46999998093E+01 0.  1.
</event>
<event>
 5   0  0.3573262E-04  0.1752428E+04  0.7818609E-02  0.8732015E-01
       -2   -1    0    0    0  501  0.00000000000E+00  0.00000000000E+00  0.54985296773E+03  0.54985296774E+03  0.25500000920E-02 0. -1.
        2   -1    0    0  501    0  0.00000000000E+00  0.00000000000E+00 -0.13962833538E+04  0.13962833538E+04  0.25500000920E-02 0.  1.
    10030    2    1    2    0    0  0.00000000000E+00  0.00000000000E+00 -0.84643038610E+03  0.19461363216E+04  0.17524275117E+04 0.  0.
        5    1    3    3  502    0  0.61806633000E+03 -0.34041162646E+03  0.15366852907E+03  0.72216491920E+03  0.46999998093E+01 0. -1.
       -5    1    3    3    0  502 -0.61806633000E+03  0.34041162646E+03 -0.10000989152E+04  0.12239714024E+04  0.46999998093E+01 0.  1.
</event>
<event>
 5   0  0.1317625E-04  0.1694218E+04  0.7818609E-02  0.8764669E-01
        3   -1    0    0  501    0  0.00000000000E+00  0.00000000000E+00  0.15155598445E+04  0.15155598479E+04  0.10100000352E+00 0. -1.
       -3   -1    0    0    0  501  0.00000000000E+00  0.00000000000E+00 -0.47348401193E+03  0.47348402270E+03  0.10100000352E+00 0.  1.
    10030    2    1    2    0    0  0.00000000000E+00  0.00000000000E+00  0.10420758326E+04  0.19890438706E+04  0.16942176597E+04 0.  0.
        3    1    3    3  502    0  0.53481649081E+03 -0.51348134370E+03  0.10021015889E+04  0.12465550023E+04  0.10100000352E+00 0.  1.
       -3    1    3    3    0  502 -0.53481649081E+03  0.51348134370E+03  0.39974243738E+02  0.74248886829E+03  0.10100000352E+00 0. -1.
</event>
<event>
 5   0  0.3678896E-04  0.1688815E+04  0.7818609E-02  0.8767769E-01
       -2   -1    0    0    0  501  0.00000000000E+00  0.00000000000E+00  0.33297766697E+03  0.33297766698E+03  0.25500000920E-02 0. -1.
        2   -1    0    0  501    0  0.00000000000E+00  0.00000000000E+00 -0.21413577662E+04  0.21413577662E+04  0.25500000920E-02 0.  1.
    10030    2    1    2    0    0  0.00000000000E+00  0.00000000000E+00 -0.18083800992E+04  0.24743354332E+04  0.16888153400E+04 0.  0.
        2    1    3    3  502    0  0.68288174376E+03 -0.42219992984E+03 -0.12874948689E+04  0.15173079101E+04  0.25500000920E-02 0.  1.
       -2    1    3    3    0  502 -0.68288174376E+03  0.42219992984E+03 -0.52088523038E+03  0.95702752309E+03  0.25500000920E-02 0. -1.
</event>
<event>
 5   0  0.3678896E-04  0.1703010E+04  0.7818609E-02  0.8759649E-01
        2   -1    0    0  501    0  0.00000000000E+00  0.00000000000E+00  0.46965540303E+03  0.46965540303E+03  0.25500000920E-02 0.  1.
       -2   -1    0    0    0  501  0.00000000000E+00  0.00000000000E+00 -0.15438147132E+04  0.15438147132E+04  0.25500000920E-02 0. -1.
    10030    2    1    2    0    0  0.00000000000E+00  0.00000000000E+00 -0.10741593101E+04  0.20134701162E+04  0.17030101835E+04 0.  0.
        2    1    3    3  502    0 -0.21858535039E+03 -0.23638047613E+03 -0.14690788503E+04  0.15039441324E+04  0.25500000920E-02 0. -1.
       -2    1    3    3    0  502  0.21858535039E+03  0.23638047613E+03  0.39491954021E+03  0.50952598378E+03  0.25500000920E-02 0.  1.
</event>
<event>
 5   0  0.3573262E-04  0.1696461E+04  0.7818609E-02  0.8763385E-01
       -2   -1    0    0    0  501  0.00000000000E+00  0.00000000000E+00  0.51126656497E+03  0.51126656497E+03  0.25500000920E-02 0.  1.
        2   -1    0    0  501    0  0.00000000000E+00  0.00000000000E+00 -0.14072803620E+04  0.14072803620E+04  0.25500000920E-02 0. -1.
    10030    2    1    2    0    0  0.00000000000E+00  0.00000000000E+00 -0.89601379700E+03  0.19185469269E+04  0.16964614898E+04 0.  0.
        5    1    3    3  502    0 -0.88183384354E+02 -0.46040916121E+03 -0.12474581027E+04  0.13326390033E+04  0.46999998093E+01 0. -1.
       -5    1    3    3    0  502  0.88183384354E+02  0.46040916121E+03  0.35144430572E+03  0.58590792367E+03  0.46999998093E+01 0.  1.
</event>
<event>
 5   0  0.3516723E-04  0.1681114E+04  0.7818609E-02  0.8772210E-01
        2   -1    0    0  501    0  0.00000000000E+00  0.00000000000E+00  0.62562431045E+03  0.62562431046E+03  0.25500000920E-02 0. -1.
       -2   -1    0    0    0  501  0.00000000000E+00  0.00000000000E+00 -0.11293293348E+04  0.11293293348E+04  0.25500000920E-02 0.  1.
    10030    2    1    2    0    0  0.00000000000E+00  0.00000000000E+00 -0.50370502435E+03  0.17549536453E+04  0.16811137812E+04 0.  0.
        1    1    3    3  502    0  0.81024966243E+02 -0.79149994023E+03 -0.53486677845E+03  0.95870729175E+03  0.50400001928E-02 0.  1.
       -1    1    3    3    0  502 -0.81024966243E+02  0.79149994023E+03  0.31161754100E+02  0.79624635352E+03  0.50400001928E-02 0. -1.
</event>
<event>
 5   0  0.3678896E-04  0.1703252E+04  0.7818609E-02  0.8759512E-01
       -2   -1    0    0    0  501  0.00000000000E+00  0.00000000000E+00  0.11473469180E+04  0.11473469180E+04  0.25500000920E-02 0.  1.
        2   -1    0    0  501    0  0.00000000000E+00  0.00000000000E+00 -0.63212478816E+03  0.63212478817E+03  0.25500000920E-02 0. -1.
    10030    2    1    2    0    0  0.00000000000E+00  0.00000000000E+00  0.51522212987E+03  0.17794717062E+04  0.17032515111E+04 0.  0.
        2    1    3    3  502    0 -0.71634907639E+03 -0.38127648004E+03  0.52750995035E+03  0.96788144997E+03  0.25500000920E-02 0.  1.
       -2    1    3    3    0  502  0.71634907639E+03  0.38127648004E+03 -0.12287820472E+02  0.81159025623E+03  0.25500000920E-02 0. -1.
</event>
<event>
 5   0  0.3516723E-04  0.1689759E+04  0.7818609E-02  0.8767227E-01
        2   -1    0    0  501    0  0.00000000000E+00  0.00000000000E+00  0.89628733487E+03  0.89628733487E+03  0.25500000920E-02 0.  1.
       -2   -1    0    0    0  501  0.00000000000E+00  0.00000000000E+00 -0.79641995315E+03  0.79641995315E+03  0.25500000920E-02 0. -1.
    10030    2    1    2    0    0  0.00000000000E+00  0.00000000000E+00  0.99867381724E+02  0.16927072880E+04  0.16897587014E+04 0.  0.
        1    1    3    3  502    0  0.59211286272E+03  0.58850816940E+03 -0.80222280738E+02  0.83867462225E+03  0.50400001928E-02 0. -1.
       -1    1    3    3    0  502 -0.59211286272E+03 -0.58850816940E+03  0.18008966246E+03  0.85403266577E+03  0.50400001928E-02 0.  1.
</event>
<event>
 5   0  0.1920289E-04  0.1558771E+04  0.7818609E-02  0.8846285E-01
        1   -1    0    0  501    0  0.00000000000E+00  0.00000000000E+00  0.27336983767E+03  0.27336983772E+03  0.50400001928E-02 0.  1.
       -1   -1    0    0    0  501  0.00000000000E+00  0.00000000000E+00 -0.22220504991E+04  0.22220504991E+04  0.50400001928E-02 0. -1.
    10030    2    1    2    0    0  0.00000000000E+00  0.00000000000E+00 -0.19486806614E+04  0.24954203368E+04  0.15587707776E+04 0.  0.
        4    1    3    3  502    0  0.49858135329E+03  0.45399004987E+03 -0.16000192930E+04  0.17363046052E+04  0.12699999809E+01 0. -1.
       -4    1    3    3    0  502 -0.49858135329E+03 -0.45399004987E+03 -0.34866136841E+03  0.75911573159E+03  0.12699999809E+01 0.  1.
</event>
<event>
 5   0  0.1920289E-04  0.1714553E+04  0.7818609E-02  0.8753107E-01
       -1   -1    0    0    0  501  0.00000000000E+00  0.00000000000E+00  0.40600387567E+03  0.40600387570E+03  0.50400001928E-02 0.  1.
        1   -1    0    0  501    0  0.00000000000E+00  0.00000000000E+00 -0.18101382405E+04  0.18101382405E+04  0.50400001928E-02 0. -1.
    10030    2    1    2    0    0  0.00000000000E+00  0.00000000000E+00 -0.14041343649E+04  0.22161421163E+04  0.17145531677E+04 0.  0.
        4    1    3    3  502    0  0.59265133471E+03  0.61928946659E+03 -0.68538979053E+03  0.10975043626E+04  0.12699999809E+01 0. -1.
       -4    1    3    3    0  502 -0.59265133471E+03 -0.61928946659E+03 -0.71874457434E+03  0.11186377537E+04  0.12699999809E+01 0.  1.
</event>
<event>
 5   0  0.1920289E-04  0.1695611E+04  0.7818609E-02  0.8763872E-01
       -1   -1    0    0    0  501  0.00000000000E+00  0.00000000000E+00  0.56486921434E+03  0.56486921436E+03  0.50400001928E-02 0.  1.
        1   -1    0    0  501    0  0.00000000000E+00  0.00000000000E+00 -0.12724612430E+04  0.12724612431E+04  0.50400001928E-02 0. -1.
    10030    2    1    2    0    0  0.00000000000E+00  0.00000000000E+00 -0.70759202870E+03  0.18373304574E+04  0.16956110199E+04 0.  0.
        4    1    3    3  502    0  0.29019894077E+03 -0.39356665051E+02 -0.12159120259E+04  0.12506830294E+04  0.12699999809E+01 0. -1.
       -4    1    3    3    0  502 -0.29019894077E+03  0.39356665051E+02  0.50831999724E+03  0.58664742802E+03  0.12699999809E+01 0.  1.
</event>
<event>
 5   0  0.3605571E-04  0.1745415E+04  0.7818609E-02  0.8735878E-01
        2   -1    0    0  501    0  0.00000000000E+00  0.00000000000E+00  0.88915793351E+03  0.88915793351E+03  0.25500000920E-02 0.  1.
       -2   -1    0    0    0  501  0.00000000000E+00  0.00000000000E+00 -0.85656157041E+03  0.85656157042E+03  0.25500000920E-02 0. -1.
    10030    2    1    2    0    0  0.00000000000E+00  0.00000000000E+00  0.32596363095E+02  0.17457195039E+04  0.17454151551E+04 0.  0.
        4    1    3    3  502    0 -0.25943704210E+03 -0.16876586277E+03  0.83242294484E+03  0.88809856843E+03  0.12699999809E+01 0.  1.
       -4    1    3    3    0  502  0.25943704210E+03  0.16876586277E+03 -0.79982658174E+03  0.85762093550E+03  0.12699999809E+01 0. -1.
</event>
<event>
 5   0  0.1815663E-04  0.1696218E+04  0.7818609E-02  0.8763525E-01
       -1   -1    0    0    0  501  0.00000000000E+00  0.00000000000E+00  0.60170063074E+03  0.60170063076E+03  0.50400001928E-02 0. -1.
        1   -1    0    0  501    0  0.00000000000E+00  0.00000000000E+00 -0.11954258850E+04  0.11954258850E+04  0.50400001928E-02 0.  1.
    10030    2    1    2    0    0  0.00000000000E+00  0.00000000000E+00 -0.59372525428E+03  0.17971265158E+04  0.16962175675E+04 0.  0.
        5    1    3    3  502    0  0.77911978454E+03 -0.12986728708E+03 -0.62406046684E+03  0.10066611680E+04  0.46999998093E+01 0.  1.
       -5    1    3    3    0  502 -0.77911978454E+03  0.12986728708E+03  0.30335212560E+02  0.79046534778E+03  0.46999998093E+01 0. -1.
</event>
<event>
 5   0  0.1893284E-04  0.1718761E+04  0.7818609E-02  0.8750736E-01
       -1   -1    0    0    0  501  0.00000000000E+00  0.00000000000E+00  0.30351117790E+03  0.30351117794E+03  0.50400001928E-02 0.  1.
        1   -1    0    0  501    0  0.00000000000E+00  0.00000000000E+00 -0.24333036105E+04  0.24333036105E+04  0.50400001928E-02 0. -1.
    10030    2    1    2    0    0  0.00000000000E+00  0.00000000000E+00 -0.21297924326E+04  0.27368147884E+04  0.17187610015E+04 0.  0.
        2    1    3    3  502    0  0.56821115148E+03  0.57100564506E+03 -0.15415914748E+04  0.17393721956E+04  0.25500000920E-02 0.  1.
       -2    1    3    3    0  502 -0.56821115148E+03 -0.57100564506E+03 -0.58820095771E+03  0.99744259284E+03  0.25500000920E-02 0. -1.
</event>
<event>
 5   0  0.1920289E-04  0.1699312E+04  0.7818609E-02  0.8761757E-01
        1   -1    0    0  501    0  0.00000000000E+00  0.00000000000E+00  0.60475842459E+03  0.60475842461E+03  0.50400001928E-02 0.  1.
       -1   -1    0    0    0  501  0.00000000000E+00  0.00000000000E+00 -0.11937257201E+04  0.11937257201E+04  0.50400001928E-02 0. -1.
    10030    2    1    2    0    0  0.00000000000E+00  0.00000000000E+00 -0.58896729554E+03  0.17984841447E+04  0.16993124326E+04 0.  0.
        4    1    3    3  502    0  0.53951600783E+03  0.21435410788E+03  0.36211661636E+03  0.68421872454E+03  0.12699999809E+01 0.  1.
       -4    1    3    3    0  502 -0.53951600783E+03 -0.21435410788E+03 -0.95108391190E+03  0.11142654202E+04  0.12699999809E+01 0. -1.
</event>
<event>
 5   0  0.1920289E-04  0.1678601E+04  0.7818609E-02  0.8773664E-01
       -1   -1    0    0    0  501  0.00000000000E+00  0.00000000000E+00  0.36542444313E+03  0.36542444316E+03  0.50400001928E-02 0. -1.
        1   -1    0    0  501    0  0.00000000000E+00  0.00000000000E+00 -0.19276897413E+04  0.19276897413E+04  0.50400001928E-02 0.  1.
    10030    2    1    2    0    0  0.00000000000E+00  0.00000000000E+00 -0.15622652982E+04  0.22931141845E+04  0.16786005484E+04 0.  0.
        4    1    3    3  502    0  0.66331331922E+03  0.32251735497E+03 -0.13282864007E+04  0.15193249748E+04  0.12699999809E+01 0. -1.
       -4    1    3    3    0  502 -0.66331331922E+03 -0.32251735497E+03 -0.23397889747E+03  0.77378920972E+03  0.12699999809E+01 0.  1.
</event>
<event>
 5   0  0.3574092E-04  0.1694655E+04  0.7818609E-02  0.8764418E-01
        2   -1    0    0  501    0  0.00000000000E+00  0.00000000000E+00  0.74361011955E+03  0.74361011955E+03  0.25500000920E-02 0. -1.
       -2   -1    0    0    0  501  0.00000000000E+00  0.00000000000E+00 -0.96551163189E+03  0.96551163190E+03  0.25500000920E-02 0.  1.
    10030    2    1    2    0    0  0.00000000000E+00  0.00000000000E+00 -0.22190151235E+03  0.17091217514E+04  0.16946553868E+04 0.  0.
        3    1    3    3  502    0 -0.36591607374E+03  0.63970664030E+03 -0.53266500692E+03  0.90931357543E+03  0.10100000352E+00 0.  1.
       -3    1    3    3    0  502  0.36591607374E+03 -0.63970664030E+03  0.31076349457E+03  0.79980817602E+03  0.10100000352E+00 0. -1.
</event>
<event>
 5   0  0.1893284E-04  0.1672715E+04  0.7818609E-02  0.8777081E-01
        1   -1    0    0  501    0  0.00000000000E+00  0.00000000000E+00  0.13063650958E+04  0.13063650958E+04  0.50400001928E-02 0.  1.
       -1   -1    0    0    0  501  0.00000000000E+00  0.00000000000E+00 -0.53545022646E+03  0.53545022648E+03  0.50400001928E-02 0. -1.
    10030    2    1    2    0    0  0.00000000000E+00  0.00000000000E+00  0.77091486929E+03  0.18418153222E+04  0.16727145440E+04 0.  0.
        2    1    3    3  502    0 -0.48666352263E+03  0.55179280152E+03  0.82337831171E+03  0.11042049286E+04  0.25500000920E-02 0.  1.
       -2    1    3    3    0  502  0.48666352263E+03 -0.55179280152E+03 -0.52463442418E+02  0.73761039368E+03  0.25500000920E-02 0. -1.
</event>
<event>
 5   0  0.3574092E-04  0.1719962E+04  0.7818609E-02  0.8750060E-01
       -2   -1    0    0    0  501  0.00000000000E+00  0.00000000000E+00  0.64928195772E+03  0.64928195773E+03  0.25500000920E-02 0.  1.
        2   -1    0    0  501    0  0.00000000000E+00  0.00000000000E+00 -0.11390544817E+04  0.11390544818E+04  0.25500000920E-02 0. -1.
    10030    2    1    2    0    0  0.00000000000E+00  0.00000000000E+00 -0.48977252403E+03  0.17883364395E+04  0.17199622366E+04 0.  0.
        3    1    3    3  502    0  0.15998242223E+03  0.48591377802E+03 -0.96364159507E+03  0.10910140737E+04  0.10100000352E+00 0. -1.
       -3    1    3    3    0  502 -0.15998242223E+03 -0.48591377802E+03  0.47386907104E+03  0.69732236576E+03  0.10100000352E+00 0.  1.
</event>
<event>
 5   0  0.1815663E-04  0.1698185E+04  0.7818609E-02  0.8762400E-01
       -1   -1    0    0    0  501  0.00000000000E+00  0.00000000000E+00  0.52884961399E+03  0.52884961402E+03  0.50400001928E-02 0.  1.
        1   -1    0    0  501    0  0.00000000000E+00  0.00000000000E+00 -0.13632573970E+04  0.13632573970E+04  0.50400001928E-02 0. -1.
    10030    2    1    2    0    0  0.00000000000E+00  0.00000000000E+00 -0.83440778302E+03  0.18921070110E+04  0.16981850879E+04 0.  0.
        5    1    3    3  502    0 -0.71665426355E+03 -0.83167458800E+02 -0.91601669417E+03  0.11660269438E+04  0.46999998093E+01 0. -1.
       -5    1    3    3    0  502  0.71665426355E+03  0.83167458800E+02  0.81608911153E+02  0.72608006724E+03  0.46999998093E+01 0.  1.
</event>
<event>
 5   0  0.3574092E-04  0.1709840E+04  0.7818609E-02  0.8755772E-01
       -2   -1    0    0    0  501  0.00000000000E+00  0.00000000000E+00  0.34828575482E+03  0.34828575483E+03  0.25500000920E-02 0.  1.
        2   -1    0    0  501    0  0.00000000000E+00  0.00000000000E+00 -0.20985306734E+04  0.20985306734E+04  0.25500000920E-02 0. -1.
    10030    2    1    2    0    0  0.00000000000E+00  0.00000000000E+00 -0.17502449186E+04  0.24468164282E+04  0.17098401558E+04 0.  0.
        3    1    3    3  502    0 -0.53598987753E+03 -0.35583851998E+03 -0.16808037226E+04  0.17997242470E+04  0.10100000352E+00 0. -1.
       -3    1    3    3    0  502  0.53598987753E+03  0.35583851998E+03 -0.69441195967E+02  0.64709218123E+03  0.10100000352E+00 0.  1.
</event>
<event>
 5   0  0.1824538E-04  0.1701474E+04  0.7818609E-02  0.8760524E-01
       -1   -1    0    0    0  501  0.00000000000E+00  0.00000000000E+00  0.40773292865E+03  0.40773292868E+03  0.50400001928E-02 0. -1.
        1   -1    0    0  501    0  0.00000000000E+00  0.00000000000E+00 -0.17750681407E+04  0.17750681407E+04  0.50400001928E-02 0.  1.
    10030    2    1    2    0    0  0.00000000000E+00  0.00000000000E+00 -0.13673352120E+04  0.21828010693E+04  0.17014743390E+04 0.  0.
        3    1    3    3  502    0 -0.11961825056E+03 -0.67438436847E+03 -0.13310507363E+04  0.14969298164E+04  0.10100000352E+00 0.  1.
       -3    1    3    3    0  502  0.11961825056E+03  0.67438436847E+03 -0.36284475711E+02  0.68587125299E+03  0.10100000352E+00 0. -1.
</event>
<event>
 5   0  0.1815663E-04  0.1693146E+04  0.7818609E-02  0.8765283E-01
       -1   -1    0    0    0  501  0.00000000000E+00  0.00000000000E+00  0.85460934710E+03  0.85460934711E+03  0.50400001928E-02 0.  1.
        1   -1    0    0  501    0  0.00000000000E+00  0.00000000000E+00 -0.83861190707E+03  0.83861190709E+03  0.50400001928E-02 0. -1.
    10030    2    1    2    0    0  0.00000000000E+00  0.00000000000E+00  0.15997440028E+02  0.16932212542E+04  0.16931456811E+04 0.  0.
        5    1    3    3  502    0 -0.24574906541E+03 -0.64280900067E+03  0.50103945757E+03  0.85126884268E+03  0.46999998093E+01 0.  1.
       -5    1    3    3    0  502  0.24574906541E+03  0.64280900067E+03 -0.48504201754E+03  0.84195241152E+03  0.46999998093E+01 0. -1.
</event>
<event>
 5   0  0.3573262E-04  0.1724942E+04  0.7818609E-02  0.8747266E-01
        2   -1    0    0  501    0  0.00000000000E+00  0.00000000000E+00  0.87043631860E+03  0.87043631860E+03  0.25500000920E-02 0. -1.
       -2   -1    0    0    0  501  0.00000000000E+00  0.00000000000E+00 -0.85457824282E+03  0.85457824282E+03  0.25500000920E-02 0.  1.
    10030    2    1    2    0    0  0.00000000000E+00  0.00000000000E+00  0.15858075780E+02  0.17250145614E+04  0.17249416682E+04 0.  0.
        5    1    3    3  502    0 -0.20671016770E+03  0.23956263707E+03 -0.79442306995E+03  0.85513124991E+03  0.46999998093E+01 0.  1.
       -5    1    3    3    0  502  0.20671016770E+03 -0.23956263707E+03  0.81028114573E+03  0.86988331151E+03  0.46999998093E+01 0. -1.
</event>
<event>
 5   0  0.1824538E-04  0.1696737E+04  0.7818609E-02  0.8763228E-01
       -1   -1    0    0    0  501  0.00000000000E+00  0.00000000000E+00  0.68396371507E+03  0.68396371509E+03  0.50400001928E-02 0. -1.
        1   -1    0    0  501    0  0.00000000000E+00  0.00000000000E+00 -0.10522909619E+04  0.10522909619E+04  0.50400001928E-02 0.  1.
    10030    2    1    2    0    0  0.00000000000E+00  0.00000000000E+00 -0.36832724681E+03  0.17362546770E+04  0.16967366745E+04 0.  0.
        3    1    3    3  502    0 -0.46073045432E+02  0.84403532371E+03 -0.25802842326E+03  0.88379693969E+03  0.10100000352E+00 0.  1.
       -3    1    3    3    0  502  0.46073045432E+02 -0.84403532371E+03 -0.11029882355E+03  0.85245773729E+03  0.10100000352E+00 0. -1.
</event>
<event>
 5   0  0.1893284E-04  0.1710687E+04  0.7818609E-02  0.8755293E-01
       -1   -1    0    0    0  501  0.00000000000E+00  0.00000000000E+00  0.10922823011E+04  0.10922823011E+04  0.50400001928E-02 0. -1.
        1   -1    0    0  501    0  0.00000000000E+00  0.00000000000E+00 -0.66980150749E+03  0.66980150751E+03  0.50400001928E-02 0.  1.
    10030    2    1    2    0    0  0.00000000000E+00  0.00000000000E+00  0.42248079357E+03  0.17620838086E+04  0.17106868000E+04 0.  0.
        2    1    3    3  502    0  0.81105637555E+03  0.20781581859E+03  0.39146134259E+03  0.92425204437E+03  0.25500000920E-02 0. -1.
       -2    1    3    3    0  502 -0.81105637555E+03 -0.20781581859E+03  0.31019450977E+02  0.83783176421E+03  0.25500000920E-02 0.  1.
</event>
<event>
 5   0  0.3678896E-04  0.1692183E+04  0.7818609E-02  0.8765836E-01
       -2   -1    0    0    0  501  0.00000000000E+00  0.00000000000E+00  0.11462801810E+04  0.11462801810E+04  0.25500000920E-02 0. -1.
        2   -1    0    0  501    0  0.00000000000E+00  0.00000000000E+00 -0.62451609279E+03  0.62451609279E+03  0.25500000920E-02 0.  1.
    10030    2    1    2    0    0  0.00000000000E+00  0.00000000000E+00  0.52176408817E+03  0.17707962738E+04  0.16921825195E+04 0.  0.
        2    1    3    3  502    0 -0.59663964290E+03 -0.15346227229E+02  0.88845624234E+03  0.10703125080E+04  0.25500000920E-02 0. -1.
       -2    1    3    3    0  502  0.59663964290E+03  0.15346227229E+02 -0.36669215417E+03  0.70048376577E+03  0.25500000920E-02 0.  1.
</event>
<event>
 5   0  0.3678896E-04  0.1700489E+04  0.7818609E-02  0.8761085E-01
       -2   -1    0    0    0  501  0.00000000000E+00  0.00000000000E+00  0.68633648911E+03  0.68633648912E+03  0.25500000920E-02 0. -1.
        2   -1    0    0  501    0  0.00000000000E+00  0.00000000000E+00 -0.10532965341E+04  0.10532965341E+04  0.25500000920E-02 0.  1.
    10030    2    1    2    0    0  0.00000000000E+00  0.00000000000E+00 -0.36696004495E+03  0.17396330232E+04  0.17004891593E+04 0.  0.
        2    1    3    3  502    0  0.20310152187E+03 -0.85025336768E+02 -0.10236250225E+04  0.10470375938E+04  0.25500000920E-02 0.  1.
       -2    1    3    3    0  502 -0.20310152187E+03  0.85025336768E+02  0.65666497756E+03  0.69259542941E+03  0.25500000920E-02 0. -1.
</event>
<event>
 5   0  0.3605571E-04  0.1722231E+04  0.7818609E-02  0.8748786E-01
        2   -1    0    0  501    0  0.00000000000E+00  0.00000000000E+00  0.69208367536E+03  0.69208367537E+03  0.25500000920E-02 0. -1.
       -2   -1    0    0    0  501  0.00000000000E+00  0.00000000000E+00 -0.10714310734E+04  0.10714310734E+04  0.25500000920E-02 0.  1.
    10030    2    1    2    0    0  0.00000000000E+00  0.00000000000E+00 -0.37934739804E+03  0.17635147488E+04  0.17222310590E+04 0.  0.
        4    1    3    3  502    0 -0.38563835751E+03 -0.40156532510E+03 -0.86234294670E+03  0.10264543944E+04  0.12699999809E+01 0.  1.
       -4    1    3    3    0  502  0.38563835751E+03  0.40156532510E+03  0.48299554866E+03  0.73706035440E+03  0.12699999809E+01 0. -1.
</event>
<event>
 5   0  0.3516723E-04  0.1824008E+04  0.7818609E-02  0.8693635E-01
       -2   -1    0    0    0  501  0.00000000000E+00  0.00000000000E+00  0.50966363871E+03  0.50966363872E+03  0.25500000920E-02 0.  1.
        2   -1    0    0  501    0  0.00000000000E+00  0.00000000000E+00 -0.16319616940E+04  0.16319616940E+04  0.25500000920E-02 0. -1.
    10030    2    1    2    0    0  0.00000000000E+00  0.00000000000E+00 -0.11222980553E+04  0.21416253327E+04  0.18240082623E+04 0.  0.
        1    1    3    3  502    0 -0.52941089148E+03 -0.36311513316E+03 -0.13217315802E+04  0.14693886015E+04  0.50400001928E-02 0. -1.
       -1    1    3    3    0  502  0.52941089148E+03  0.36311513316E+03  0.19943352493E+03  0.67223673125E+03  0.50400001928E-02 0.  1.
</event>
<event>
 5   0  0.1317625E-04  0.1696643E+04  0.7818609E-02  0.8763281E-01
        4   -1    0    0  501    0  0.00000000000E+00  0.00000000000E+00  0.12377372823E+04  0.12377379339E+04  0.12699999809E+01 0. -1.
       -4   -1    0    0    0  501  0.00000000000E+00  0.00000000000E+00 -0.58142206177E+03  0.58142344880E+03  0.12699999809E+01 0.  1.
    10030    2    1    2    0    0  0.00000000000E+00  0.00000000000E+00  0.65631522056E+03  0.18191613827E+04  0.16966432941E+04 0.  0.
        4    1    3    3  502    0 -0.32562154393E+03  0.77645631347E+03  0.21706998732E+03  0.86950261006E+03  0.12699999809E+01 0.  1.
       -4    1    3    3    0  502  0.32562154393E+03 -0.77645631347E+03  0.43924523324E+03  0.94965877263E+03  0.12699999809E+01 0. -1.
</event>
<event>
 5   0  0.3605571E-04  0.1677914E+04  0.7818609E-02  0.8774062E-01
        2   -1    0    0  501    0  0.00000000000E+00  0.00000000000E+00  0.69336920243E+03  0.69336920244E+03  0.25500000920E-02 0.  1.
       -2   -1    0    0    0  501  0.00000000000E+00  0.00000000000E+00 -0.10151145913E+04  0.10151145913E+04  0.25500000920E-02 0. -1.
    10030    2    1    2    0    0  0.00000000000E+00  0.00000000000E+00 -0.32174538889E+03  0.17084837938E+04  0.16779144133E+04 0.  0.
        4    1    3    3  502    0  0.36104069504E+02 -0.30389889652E+03  0.63450505531E+03  0.70445462682E+03  0.12699999809E+01 0.  1.
       -4    1    3    3    0  502 -0.36104069504E+02  0.30389889652E+03 -0.95625044419E+03  0.10040291669E+04  0.12699999809E+01 0. -1.
</event>
<event>
 5   0  0.3574092E-04  0.1673559E+04  0.7818609E-02  0.8776590E-01
       -2   -1    0    0    0  501  0.00000000000E+00  0.00000000000E+00  0.74003161246E+03  0.74003161246E+03  0.25500000920E-02 0.  1.
        2   -1    0    0  501    0  0.00000000000E+00  0.00000000000E+00 -0.94617557984E+03  0.94617557984E+03  0.25500000920E-02 0. -1.
    10030    2    1    2    0    0  0.00000000000E+00  0.00000000000E+00 -0.20614396738E+03  0.16862071923E+04  0.16735588905E+04 0.  0.
        3    1    3    3  502    0 -0.51615581751E+03  0.42323509223E+03  0.40537548780E+03  0.78094434345E+03  0.10100000352E+00 0.  1.
       -3    1    3    3    0  502  0.51615581751E+03 -0.42323509223E+03 -0.61151945518E+03  0.90526284886E+03  0.10100000352E+00 0. -1.
</event>
<event>
 5   0  0.1317625E-04  0.1682569E+04  0.7818609E-02  0.8771369E-01
        3   -1    0    0  501    0  0.00000000000E+00  0.00000000000E+00  0.82844455229E+03  0.82844455845E+03  0.10100000352E+00 0.  1.
       -3   -1    0    0    0  501  0.00000000000E+00  0.00000000000E+00 -0.85432372203E+03  0.85432372800E+03  0.10100000352E+00 0. -1.
    10030    2    1    2    0    0  0.00000000000E+00  0.00000000000E+00 -0.25879169741E+02  0.16827682864E+04  0.16825692778E+04 0.  0.
        5    1    3    3  502    0  0.27135663301E+03  0.39252758745E+03  0.67998103306E+03  0.83072776799E+03  0.46999998093E+01 0.  1.
       -5    1    3    3    0  502 -0.27135663301E+03 -0.39252758745E+03 -0.70586020281E+03  0.85204051846E+03  0.46999998093E+01 0. -1.
</event>
<event>
 5   0  0.1317625E-04  0.1803087E+04  0.7818609E-02  0.8704660E-01
        3   -1    0    0  501    0  0.00000000000E+00  0.00000000000E+00  0.62405638502E+03  0.62405639319E+03  0.10100000352E+00 0. -1.
       -3   -1    0    0    0  501  0.00000000000E+00  0.00000000000E+00 -0.13024155077E+04  0.13024155116E+04  0.10100000352E+00 0.  1.
    10030    2    1    2    0    0  0.00000000000E+00  0.00000000000E+00 -0.67835912264E+03  0.19264719048E+04  0.18030870474E+04 0.  0.
        5    1    3    3  502    0  0.88781346031E+03 -0.11722367172E+03 -0.45023720025E+03  0.10023421352E+04  0.46999998093E+01 0.  1.
       -5    1    3    3    0  502 -0.88781346031E+03  0.11722367172E+03 -0.22812192239E+03  0.92412976956E+03  0.46999998093E+01 0. -1.
</event>
<event>
 5   0  0.1824538E-04  0.1722771E+04  0.7818609E-02  0.8748483E-01
        1   -1    0    0  501    0  0.00000000000E+00  0.00000000000E+00  0.11402530184E+04  0.11402530184E+04  0.50400001928E-02 0. -1.
       -1   -1    0    0    0  501  0.00000000000E+00  0.00000000000E+00 -0.65071951626E+03  0.65071951628E+03  0.50400001928E-02 0.  1.
    10030    2    1    2    0    0  0.00000000000E+00  0.00000000000E+00  0.48953350212E+03  0.17909725347E+04  0.17227708989E+04 0.  0.
        3    1    3    3  502    0  0.41315493550E+02  0.16584544135E+03  0.11224485261E+04  0.11353864471E+04  0.10100000352E+00 0. -1.
       -3    1    3    3    0  502 -0.41315493550E+02 -0.16584544135E+03 -0.63291502396E+03  0.65558608755E+03  0.10100000352E+00 0.  1.
</event>
<event>
 5   0  0.3573262E-04  0.1695246E+04  0.7818609E-02  0.8764080E-01
       -2   -1    0    0    0  501  0.00000000000E+00  0.00000000000E+00  0.34082206350E+03  0.34082206351E+03  0.25500000920E-02 0. -1.
        2   -1    0    0  501    0  0.00000000000E+00  0.00000000000E+00 -0.21080348117E+04  0.21080348117E+04  0.25500000920E-02 0.  1.
    10030    2    1    2    0    0  0.00000000000E+00  0.00000000000E+00 -0.17672127482E+04  0.24488568752E+04  0.16952460287E+04 0.  0.
        5    1    3    3  502    0  0.76619620259E+03 -0.25933789483E+03 -0.51779178945E+03  0.96043906198E+03  0.46999998093E+01 0.  1.
       -5    1    3    3    0  502 -0.76619620259E+03  0.25933789483E+03 -0.12494209587E+04  0.14884178132E+04  0.46999998093E+01 0. -1.
</event>
<event>
 5   0  0.1920289E-04  0.1701026E+04  0.7818609E-02  0.8760779E-01
        1   -1    0    0  501    0  0.00000000000E+00  0.00000000000E+00  0.20017228529E+04  0.20017228529E+04  0.50400001928E-02 0.  1.
       -1   -1    0    0    0  501  0.00000000000E+00  0.00000000000E+00 -0.36137498156E+03  0.36137498159E+03  0.50400001928E-02 0. -1.
    10030    2    1    2    0    0  0.00000000000E+00  0.00000000000E+00  0.16403478713E+04  0.23630978345E+04  0.17010262304E+04 0.  0.
        4    1    3    3  502    0 -0.58660975140E+03  0.23216659475E+03  0.27760466427E+02  0.63149393073E+03  0.12699999809E+01 0. -1.
       -4    1    3    3    0  502  0.58660975140E+03 -0.23216659475E+03  0.16125874049E+04  0.17316039038E+04  0.12699999809E+01 0.  1.
</event>
<event>
 5   0  0.3516723E-04  0.1722970E+04  0.7818609E-02  0.8748371E-01
       -2   -1    0    0    0  501  0.00000000000E+00  0.00000000000E+00  0.40303235365E+03  0.40303235366E+03  0.25500000920E-02 0. -1.
        2   -1    0    0  501    0  0.00000000000E+00  0.00000000000E+00 -0.18414309168E+04  0.18414309168E+04  0.25500000920E-02 0.  1.
    10030    2    1    2    0    0  0.00000000000E+00  0.00000000000E+00 -0.14383985632E+04  0.22444632705E+04  0.17229698041E+04 0.  0.
        1    1    3    3  502    0 -0.21380562495E+03 -0.56594557483E+03  0.79741869311E+02  0.61021799767E+03  0.50400001928E-02 0. -1.
       -1    1    3    3    0  502  0.21380562495E+03  0.56594557483E+03 -0.15181404325E+04  0.16342452728E+04  0.50400001928E-02 0.  1.
</event>
<event>
 5   0  0.3678896E-04  0.1676181E+04  0.7818609E-02  0.8775067E-01
        2   -1    0    0  501    0  0.00000000000E+00  0.00000000000E+00  0.20287316534E+04  0.20287316534E+04  0.25500000920E-02 0.  1.
       -2   -1    0    0    0  501  0.00000000000E+00  0.00000000000E+00 -0.34622415463E+03  0.34622415464E+03  0.25500000920E-02 0. -1.
    10030    2    1    2    0    0  0.00000000000E+00  0.00000000000E+00  0.16825074987E+04  0.23749558080E+04  0.16761812571E+04 0.  0.
        2    1    3    3  502    0  0.99864919223E+02 -0.75513422805E+03  0.13365461004E+04  0.15383615254E+04  0.25500000920E-02 0.  1.
       -2    1    3    3    0  502 -0.99864919223E+02  0.75513422805E+03  0.34596139835E+03  0.83659428257E+03  0.25500000920E-02 0. -1.
</event>
<event>
 5   0  0.1815663E-04  0.1706828E+04  0.7818609E-02  0.8757479E-01
        1   -1    0    0  501    0  0.00000000000E+00  0.00000000000E+00  0.73834533999E+03  0.73834534001E+03  0.50400001928E-02 0.  1.
       -1   -1    0    0    0  501  0.00000000000E+00  0.00000000000E+00 -0.98641616021E+03  0.98641616022E+03  0.50400001928E-02 0. -1.
    10030    2    1    2    0    0  0.00000000000E+00  0.00000000000E+00 -0.24807082021E+03  0.17247615002E+04  0.17068283747E+04 0.  0.
        5    1    3    3  502    0 -0.89353280571E+02  0.34035684700E+03 -0.90967878942E+03  0.97537909654E+03  0.46999998093E+01 0. -1.
       -5    1    3    3    0  502  0.89353280571E+02 -0.34035684700E+03  0.66160796921E+03  0.74938240369E+03  0.46999998093E+01 0.  1.
</event>
<event>
 5   0  0.3605571E-04  0.1680229E+04  0.7818609E-02  0.8772721E-01
       -2   -1    0    0    0  501  0.00000000000E+00  0.00000000000E+00  0.32113840308E+03  0.32113840309E+03  0.25500000920E-02 0. -1.
        2   -1    0    0  501    0  0.00000000000E+00  0.00000000000E+00 -0.21977828074E+04  0.21977828074E+04  0.25500000920E-02 0.  1.
    10030    2    1    2    0    0  0.00000000000E+00  0.00000000000E+00 -0.18766444043E+04  0.25189212105E+04  0.16802291047E+04 0.  0.
        4    1    3    3  502    0 -0.65099582170E+03  0.12763737500E+03 -0.16556134194E+03  0.68373900738E+03  0.12699999809E+01 0. -1.
       -4    1    3    3    0  502  0.65099582170E+03 -0.12763737500E+03 -0.17110830623E+04  0.18351822031E+04  0.12699999809E+01 0.  1.
</event>
<event>
 5   0  0.3573262E-04  0.1870334E+04  0.7818609E-02  0.8669766E-01
        2   -1    0    0  501    0  0.00000000000E+00  0.00000000000E+00  0.15366186527E+04  0.15366186527E+04  0.25500000920E-02 0.  1.
       -2   -1    0    0    0  501  0.00000000000E+00  0.00000000000E+00 -0.56913093617E+03  0.56913093617E+03  0.25500000920E-02 0. -1.
    10030    2    1    2    0    0  0.00000000000E+00  0.00000000000E+00  0.96748771657E+03  0.21057495889E+04  0.18703338872E+04 0.  0.
        5    1    3    3  502    0 -0.13364180459E+02  0.40250160660E+03 -0.46648428283E+03  0.61629199310E+03  0.46999998093E+01 0. -1.
       -5    1    3    3    0  502  0.13364180459E+02 -0.40250160660E+03  0.14339719994E+04  0.14894575958E+04  0.46999998093E+01 0.  1.
</event>
<event>
 5   0  0.1920289E-04  0.1701198E+04  0.7818609E-02  0.8760681E-01
        1   -1    0    0  501    0  0.00000000000E+00  0.00000000000E+00  0.10557442326E+04  0.10557442326E+04  0.50400001928E-02 0. -1.
       -1   -1    0    0    0  501  0.00000000000E+00  0.00000000000E+00 -0.68531616691E+03  0.68531616693E+03  0.50400001928E-02 0.  1.
    10030    2    1    2    0    0  0.00000000000E+00  0.00000000000E+00  0.37042806570E+03  0.17410603995E+04  0.17011979200E+04 0.  0.
        4    1    3    3  502    0  0.13473330026E+02 -0.50890973449E+03  0.88261091744E+03  0.10189083830E+04  0.12699999809E+01 0. -1.
       -4    1    3    3    0  502 -0.13473330026E+02  0.50890973449E+03 -0.51218285174E+03  0.72215201654E+03  0.12699999809E+01 0.  1.
</event>
<event>
 5   0  0.3574092E-04  0.1692137E+04  0.7818609E-02  0.8765862E-01
        2   -1    0    0  501    0  0.00000000000E+00  0.00000000000E+00  0.97100933385E+03  0.97100933385E+03  0.25500000920E-02 0.  1.
       -2   -1    0    0    0  501  0.00000000000E+00  0.00000000000E+00 -0.73720374350E+03  0.73720374351E+03  0.25500000920E-02 0. -1.
    10030    2    1    2    0    0  0.00000000000E+00  0.00000000000E+00  0.23380559034E+03  0.17082130774E+04  0.16921367745E+04 0.  0.
        3    1    3    3  502    0 -0.72710379373E+03 -0.40429608925E+03  0.27230179968E+03  0.87537622480E+03  0.10100000352E+00 0.  1.
       -3    1    3    3    0  502  0.72710379373E+03  0.40429608925E+03 -0.38496209335E+02  0.83283685256E+03  0.10100000352E+00 0. -1.
</event>
<event>
 5   0  0.1317625E-04  0.1658931E+04  0.7818609E-02  0.8785140E-01
       -3   -1    0    0    0  501  0.00000000000E+00  0.00000000000E+00  0.81161272789E+03  0.81161273417E+03  0.10100000352E+00 0.  1.
        3   -1    0    0  501    0  0.00000000000E+00  0.00000000000E+00 -0.84771140591E+03  0.84771141193E+03  0.10100000352E+00 0. -1.
    10030    2    1    2    0    0  0.00000000000E+00  0.00000000000E+00 -0.36098678024E+02  0.16593241461E+04  0.16589314354E+04 0.  0.
        2    1    3    3  502    0 -0.77797504685E+01  0.56402262709E+02  0.80965585048E+03  0.81165530614E+03  0.25500000920E-02 0.  1.
       -2    1    3    3    0  502  0.77797504685E+01 -0.56402262709E+02 -0.84575452850E+03  0.84766883997E+03  0.25500000920E-02 0. -1.
</event>
<event>
 5   0  0.1824538E-04  0.1703705E+04  0.7818609E-02  0.8759254E-01
       -1   -1    0    0    0  501  0.00000000000E+00  0.00000000000E+00  0.11783482826E+04  0.11783482826E+04  0.50400001928E-02 0.  1.
        1   -1    0    0  501    0  0.00000000000E+00  0.00000000000E+00 -0.61582180982E+03  0.61582180984E+03  0.50400001928E-02 0. -1.
    10030    2    1    2    0    0  0.00000000000E+00  0.00000000000E+00  0.56252647275E+03  0.17941700924E+04  0.17037048712E+04 0.  0.
        3    1    3    3  502    0 -0.25972474259E+03  0.29824586148E+03  0.10758089153E+04  0.11461990963E+04  0.10100000352E+00 0.  1.
       -3    1    3    3    0  502  0.25972474259E+03 -0.29824586148E+03 -0.51328244257E+03  0.64797099615E+03  0.10100000352E+00 0. -1.
</event>
<event>
 5   0  0.1824538E-04  0.1695779E+04  0.7818609E-02  0.8763776E-01
        1   -1    0    0  501    0  0.00000000000E+00  0.00000000000E+00  0.10389967155E+04  0.10389967155E+04  0.50400001928E-02 0.  1.
       -1   -1    0    0    0  501  0.00000000000E+00  0.00000000000E+00 -0.69193333275E+03  0.69193333277E+03  0.50400001928E-02 0. -1.
    10030    2    1    2    0    0  0.00000000000E+00  0.00000000000E+00  0.34706338277E+03  0.17309300483E+04  0.16957788301E+04 0.  0.
        3    1    3    3  502    0 -0.76995219712E+03  0.42554889588E+02 -0.18630830777E+03  0.79331462877E+03  0.10100000352E+00 0. -1.
       -3    1    3    3    0  502  0.76995219712E+03 -0.42554889588E+02  0.53337169054E+03  0.93761541954E+03  0.10100000352E+00 0.  1.
</event>
<event>
 5   0  0.1930116E-04  0.1761955E+04  0.7818609E-02  0.8726797E-01
       -1   -1    0    0    0  501  0.00000000000E+00  0.00000000000E+00  0.47648393960E+03  0.47648393963E+03  0.50400001928E-02 0.  1.
        1   -1    0    0  501    0  0.00000000000E+00  0.00000000000E+00 -0.16288508439E+04  0.16288508439E+04  0.50400001928E-02 0. -1.
    10030    2    1    2    0    0  0.00000000000E+00  0.00000000000E+00 -0.11523669043E+04  0.21053347836E+04  0.17619548997E+04 0.  0.
        1    1    3    3  502    0 -0.43476820043E+03 -0.45614343127E+03 -0.13118208032E+04  0.14553226576E+04  0.50400001928E-02 0. -1.
       -1    1    3    3    0  502  0.43476820043E+03  0.45614343127E+03  0.15945389889E+03  0.65001212596E+03  0.50400001928E-02 0.  1.
</event>
<event>
 5   0  0.3574092E-04  0.1434680E+04  0.7818609E-02  0.8929091E-01
        2   -1    0    0  501    0  0.00000000000E+00  0.00000000000E+00  0.39006607645E+03  0.39006607646E+03  0.25500000920E-02 0.  1.
       -2   -1    0    0    0  501  0.00000000000E+00  0.00000000000E+00 -0.13192045392E+04  0.13192045392E+04  0.25500000920E-02 0. -1.
    10030    2    1    2    0    0  0.00000000000E+00  0.00000000000E+00 -0.92913846280E+03  0.17092706157E+04  0.14346803667E+04 0.  0.
        3    1    3    3  502    0  0.38946136477E+03 -0.18562942542E+03  0.21821376174E+03  0.48348287896E+03  0.10100000352E+00 0.  1.
       -3    1    3    3    0  502 -0.38946136477E+03  0.18562942542E+03 -0.11473522245E+04  0.12257877368E+04  0.10100000352E+00 0. -1.
</event>
<event>
 5   0  0.1317625E-04  0.1655765E+04  0.7818609E-02  0.8787003E-01
        3   -1    0    0  501    0  0.00000000000E+00  0.00000000000E+00  0.14472319537E+04  0.14472319572E+04  0.10100000352E+00 0.  1.
       -3   -1    0    0    0  501  0.00000000000E+00  0.00000000000E+00 -0.47358623648E+03  0.47358624725E+03  0.10100000352E+00 0. -1.
    10030    2    1    2    0    0  0.00000000000E+00  0.00000000000E+00  0.97364571717E+03  0.19208182044E+04  0.16557646547E+04 0.  0.
        1    1    3    3  502    0 -0.53278058977E+03  0.90845510757E+02  0.12143332229E+04  0.13291776555E+04  0.50400001928E-02 0.  1.
       -1    1    3    3    0  502  0.53278058977E+03 -0.90845510757E+02 -0.24068750574E+03  0.59164054890E+03  0.50400001928E-02 0. -1.
</event>
<event>
 5   0  0.3574092E-04  0.1749573E+04  0.7818609E-02  0.8733586E-01
       -2   -1    0    0    0  501  0.00000000000E+00  0.00000000000E+00  0.32580291803E+03  0.32580291804E+03  0.25500000920E-02 0. -1.
        2   -1    0    0  501    0  0.00000000000E+00  0.00000000000E+00 -0.23488156502E+04  0.23488156502E+04  0.25500000920E-02 0.  1.
    10030    2    1    2    0    0  0.00000000000E+00  0.00000000000E+00 -0.20230127322E+04  0.26746185683E+04  0.17495725109E+04 0.  0.
        3    1    3    3  502    0  0.34249363808E+03  0.12169838624E+01  0.21904530564E+03  0.40655163177E+03  0.10100000352E+00 0. -1.
       -3    1    3    3    0  502 -0.34249363808E+03 -0.12169838624E+01 -0.22420580378E+04  0.22680669365E+04  0.10100000352E+00 0.  1.
</event>
<event>
 5   0  0.3573262E-04  0.1661381E+04  0.7818609E-02  0.8783702E-01
        2   -1    0    0  501    0  0.00000000000E+00  0.00000000000E+00  0.10089039534E+04  0.10089039534E+04  0.25500000920E-02 0. -1.
       -2   -1    0    0    0  501  0.00000000000E+00  0.00000000000E+00 -0.68395647318E+03  0.68395647319E+03  0.25500000920E-02 0.  1.
    10030    2    1    2    0    0  0.00000000000E+00  0.00000000000E+00  0.32494748024E+03  0.16928604266E+04  0.16613806184E+04 0.  0.
        5    1    3    3  502    0  0.60132792381E+03  0.54884622865E+03 -0.55657198102E+01  0.81417474899E+03  0.46999998093E+01 0.  1.
       -5    1    3    3    0  502 -0.60132792381E+03 -0.54884622865E+03  0.33051320005E+03  0.87868567762E+03  0.46999998093E+01 0. -1.
</event>
<event>
 5   0  0.1893284E-04  0.1710072E+04  0.7818609E-02  0.8755641E-01
       -1   -1    0    0    0  501  0.00000000000E+00  0.00000000000E+00  0.27952906075E+03  0.27952906079E+03  0.50400001928E-02 0.  1.
        1   -1    0    0  501    0  0.00000000000E+00  0.00000000000E+00 -0.26154232493E+04  0.26154232493E+04  0.50400001928E-02 0. -1.
    10030    2    1    2    0    0  0.00000000000E+00  0.00000000000E+00 -0.23358941886E+04  0.28949523101E+04  0.17100722843E+04 0.  0.
        2    1    3    3  502    0 -0.53994219879E+03  0.43066179326E+03 -0.20212670133E+04  0.21360073730E+04  0.25500000920E-02 0.  1.
       -2    1    3    3    0  502  0.53994219879E+03 -0.43066179326E+03 -0.31462717523E+03  0.75894493714E+03  0.25500000920E-02 0. -1.
</event>
<event>
 5   0  0.1920289E-04  0.1703864E+04  0.7818609E-02  0.8759164E-01
        1   -1    0    0  501    0  0.00000000000E+00  0.00000000000E+00  0.20023045096E+04  0.20023045096E+04  0.50400001928E-02 0. -1.
       -1   -1    0    0    0  501  0.00000000000E+00  0.00000000000E+00 -0.36247619008E+03  0.36247619012E+03  0.50400001928E-02 0.  1.
    10030    2    1    2    0    0  0.00000000000E+00  0.00000000000E+00  0.16398283195E+04  0.23647806997E+04  0.17038635040E+04 0.  0.
        4    1    3    3  502    0 -0.28615649141E+03 -0.79487572557E+03  0.66741543965E+03  0.10766419733E+04  0.12699999809E+01 0.  1.
       -4    1    3    3    0  502  0.28615649141E+03  0.79487572557E+03  0.97241287983E+03  0.12881387264E+04  0.12699999809E+01 0. -1.
</event>
<event>
 5   0  0.3678896E-04  0.1688701E+04  0.7818609E-02  0.8767835E-01
       -2   -1    0    0    0  501  0.00000000000E+00  0.00000000000E+00  0.36168140464E+03  0.36168140465E+03  0.25500000920E-02 0.  1.
        2   -1    0    0  501    0  0.00000000000E+00  0.00000000000E+00 -0.19711481107E+04  0.19711481107E+04  0.25500000920E-02 0. -1.
    10030    2    1    2    0    0  0.00000000000E+00  0.00000000000E+00 -0.16094667060E+04  0.23328295153E+04  0.16887008231E+04 0.  0.
        2    1    3    3  502    0  0.21975775996E+02  0.80350616781E+03 -0.44763182011E+03  0.92004312009E+03  0.25500000920E-02 0. -1.
       -2    1    3    3    0  502 -0.21975775996E+02 -0.80350616781E+03 -0.11618348859E+04  0.14127863953E+04  0.25500000920E-02 0.  1.
</event>
<event>
 5   0  0.3574092E-04  0.1694409E+04  0.7818609E-02  0.8764559E-01
        2   -1    0    0  501    0  0.00000000000E+00  0.00000000000E+00  0.84211254661E+03  0.84211254662E+03  0.25500000920E-02 0.  1.
       -2   -1    0    0    0  501  0.00000000000E+00  0.00000000000E+00 -0.85232747660E+03  0.85232747661E+03  0.25500000920E-02 0. -1.
    10030    2    1    2    0    0  0.00000000000E+00  0.00000000000E+00 -0.10214929989E+02  0.16944400232E+04  0.16944092326E+04 0.  0.
        3    1    3    3  502    0  0.18155240119E+03 -0.37777843307E+03  0.73116526583E+03  0.84278139219E+03  0.10100000352E+00 0.  1.
       -3    1    3    3    0  502 -0.18155240119E+03  0.37777843307E+03 -0.74138019581E+03  0.85165863103E+03  0.10100000352E+00 0. -1.
</event>
<event>
 5   0  0.1930116E-04  0.1741181E+04  0.7818609E-02  0.8738220E-01
        1   -1    0    0  501    0  0.00000000000E+00  0.00000000000E+00  0.66217287119E+03  0.66217287120E+03  0.50400001928E-02 0.  1.
       -1   -1    0    0    0  501  0.00000000000E+00  0.00000000000E+00 -0.11446065298E+04  0.11446065298E+04  0.50400001928E-02 0. -1.
    10030    2    1    2    0    0  0.00000000000E+00  0.00000000000E+00 -0.48243365862E+03  0.18067794010E+04  0.17411805102E+04 0.  0.
        1    1    3    3  502    0 -0.12648747506E+03 -0.32226136139E+03 -0.10701079988E+04  0.11247144507E+04  0.50400001928E-02 0. -1.
       -1    1    3    3    0  502  0.12648747506E+03  0.32226136139E+03  0.58767434018E+03  0.68206495037E+03  0.50400001928E-02 0.  1.
</event>
<event>
 5   0  0.3573262E-04  0.1697190E+04  0.7818609E-02  0.8762969E-01
       -2   -1    0    0    0  501  0.00000000000E+00  0.00000000000E+00  0.37407138765E+03  0.37407138765E+03  0.25500000920E-02 0.  1.
        2   -1    0    0  501    0  0.00000000000E+00  0.00000000000E+00 -0.19250693664E+04  0.19250693664E+04  0.25500000920E-02 0. -1.
    10030    2    1    2    0    0  0.00000000000E+00  0.00000000000E+00 -0.15509979787E+04  0.22991407540E+04  0.16971898765E+04 0.  0.
        5    1    3    3  502    0  0.46845243249E+03  0.41150700479E+03 -0.15552384335E+04  0.16755818009E+04  0.46999998093E+01 0. -1.
       -5    1    3    3    0  502 -0.46845243249E+03 -0.41150700479E+03  0.42404548308E+01  0.62355895307E+03  0.46999998093E+01 0.  1.
</event>
<event>
 5   0  0.1920289E-04  0.1717561E+04  0.7818609E-02  0.8751412E-01
       -1   -1    0    0    0  501  0.00000000000E+00  0.00000000000E+00  0.12100620433E+04  0.12100620434E+04  0.50400001928E-02 0.  1.
        1   -1    0    0  501    0  0.00000000000E+00  0.00000000000E+00 -0.60947583696E+03  0.60947583699E+03  0.50400001928E-02 0. -1.
    10030    2    1    2    0    0  0.00000000000E+00  0.00000000000E+00  0.60058620638E+03  0.18195378803E+04  0.17175605686E+04 0.  0.
        4    1    3    3  502    0 -0.80241520448E+03 -0.33980767111E+02  0.62244906065E+03  0.10161049645E+04  0.12699999809E+01 0.  1.
       -4    1    3    3    0  502  0.80241520448E+03  0.33980767111E+02 -0.21862854278E+02  0.80343291581E+03  0.12699999809E+01 0. -1.
</event>
<event>
 5   0  0.1815663E-04  0.1610863E+04  0.7818609E-02  0.8813902E-01
       -1   -1    0    0    0  501  0.00000000000E+00  0.00000000000E+00  0.56325378287E+03  0.56325378289E+03  0.50400001928E-02 0. -1.
        1   -1    0    0  501    0  0.00000000000E+00  0.00000000000E+00 -0.11517360843E+04  0.11517360843E+04  0.50400001928E-02 0.  1.
    10030    2    1    2    0    0  0.00000000000E+00  0.00000000000E+00 -0.58848230145E+03  0.17149898672E+04  0.16108627581E+04 0.  0.
        5    1    3    3  502    0 -0.42042275103E+03  0.14404338568E+03 -0.10093704856E+04  0.11028846965E+04  0.46999998093E+01 0.  1.
       -5    1    3    3    0  502  0.42042275103E+03 -0.14404338568E+03  0.42088818413E+03  0.61210517076E+03  0.46999998093E+01 0. -1.
</event>
<event>
 5   0  0.3678896E-04  0.1697822E+04  0.7818609E-02  0.8762608E-01
       -2   -1    0    0    0  501  0.00000000000E+00  0.00000000000E+00  0.64850986985E+03  0.64850986986E+03  0.25500000920E-02 0. -1.
        2   -1    0    0  501    0  0.00000000000E+00  0.00000000000E+00 -0.11112390421E+04  0.11112390421E+04  0.25500000920E-02 0.  1.
    10030    2    1    2    0    0  0.00000000000E+00  0.00000000000E+00 -0.46272917229E+03  0.17597489120E+04  0.16978215296E+04 0.  0.
        2    1    3    3  502    0  0.23950705344E+03 -0.81346590860E+02 -0.10712727270E+04  0.11007298270E+04  0.25500000920E-02 0.  1.
       -2    1    3    3    0  502 -0.23950705344E+03  0.81346590860E+02  0.60854355466E+03  0.65901908502E+03  0.25500000920E-02 0. -1.
</event>
<event>
 5   0  0.1930116E-04  0.1707040E+04  0.7818609E-02  0.8757359E-01
        1   -1    0    0  501    0  0.00000000000E+00  0.00000000000E+00  0.86669884936E+03  0.86669884938E+03  0.50400001928E-02 0. -1.
       -1   -1    0    0    0  501  0.00000000000E+00  0.00000000000E+00 -0.84054144069E+03  0.84054144071E+03  0.50400001928E-02 0.  1.
    10030    2    1    2    0    0  0.00000000000E+00  0.00000000000E+00  0.26157408669E+02  0.17072402901E+04  0.17070398935E+04 0.  0.
        1    1    3    3  502    0 -0.54397520674E+03 -0.14223245916E+03  0.65530453990E+03  0.86345998056E+03  0.50400001928E-02 0. -1.
       -1    1    3    3    0  502  0.54397520674E+03  0.14223245916E+03 -0.62914713123E+03  0.84378030953E+03  0.50400001928E-02 0.  1.
</event>
<event>
 5   0  0.1893284E-04  0.1708493E+04  0.7818609E-02  0.8756535E-01
        1   -1    0    0  501    0  0.00000000000E+00  0.00000000000E+00  0.86640143093E+03  0.86640143094E+03  0.50400001928E-02 0.  1.
       -1   -1    0    0    0  501  0.00000000000E+00  0.00000000000E+00 -0.84226258480E+03  0.84226258481E+03  0.50400001928E-02 0. -1.
    10030    2    1    2    0    0  0.00000000000E+00  0.00000000000E+00  0.24138846131E+02  0.17086640158E+04  0.17084934986E+04 0.  0.
        2    1    3    3  502    0 -0.34172566291E+03 -0.28672122558E+03 -0.71653058249E+03  0.84403884125E+03  0.25500000920E-02 0. -1.
       -2    1    3    3    0  502  0.34172566291E+03  0.28672122558E+03  0.74066942862E+03  0.86462517451E+03  0.25500000920E-02 0.  1.
</event>
<event>
 5   0  0.3573262E-04  0.1696595E+04  0.7818609E-02  0.8763308E-01
        2   -1    0    0  501    0  0.00000000000E+00  0.00000000000E+00  0.19408865298E+04  0.19408865298E+04  0.25500000920E-02 0.  1.
       -2   -1    0    0    0  501  0.00000000000E+00  0.00000000000E+00 -0.37076305144E+03  0.37076305145E+03  0.25500000920E-02 0. -1.
    10030    2    1    2    0    0  0.00000000000E+00  0.00000000000E+00  0.15701234784E+04  0.23116495813E+04  0.16965954289E+04 0.  0.
        5    1    3    3  502    0 -0.31559404209E+03 -0.76920856461E+03  0.10142958158E+04  0.13115256411E+04  0.46999998093E+01 0. -1.
       -5    1    3    3    0  502  0.31559404209E+03  0.76920856461E+03  0.55582766261E+03  0.10001239402E+04  0.46999998093E+01 0.  1.
</event>
<event>
 5   0  0.3605571E-04  0.1692902E+04  0.7818609E-02  0.8765423E-01
       -2   -1    0    0    0  501  0.00000000000E+00  0.00000000000E+00  0.42603503531E+03  0.42603503531E+03  0.25500000920E-02 0. -1.
        2   -1    0    0  501    0  0.00000000000E+00  0.00000000000E+00 -0.16817381107E+04  0.16817381107E+04  0.25500000920E-02 0.  1.
    10030    2    1    2    0    0  0.00000000000E+00  0.00000000000E+00 -0.12557030754E+04  0.21077731460E+04  0.16929020709E+04 0.  0.
        4    1    3    3  502    0  0.68247700841E+03  0.40921334921E+03 -0.26861778418E+03  0.83987353754E+03  0.12699999809E+01 0. -1.
       -4    1    3    3    0  502 -0.68247700841E+03 -0.40921334921E+03 -0.98708529122E+03  0.12678996085E+04  0.12699999809E+01 0.  1.
</event>
<event>
 5   0  0.1893284E-04  0.1681096E+04  0.7818609E-02  0.8772220E-01
        1   -1    0    0  501    0  0.00000000000E+00  0.00000000000E+00  0.10632208250E+04  0.10632208250E+04  0.50400001928E-02 0.  1.
       -1   -1    0    0    0  501  0.00000000000E+00  0.00000000000E+00 -0.66451032667E+03  0.66451032669E+03  0.50400001928E-02 0. -1.
    10030    2    1    2    0    0  0.00000000000E+00  0.00000000000E+00  0.39871049830E+03  0.17277311517E+04  0.16810963301E+04 0.  0.
        2    1    3    3  502    0 -0.34701009510E+03 -0.31483710619E+03  0.91655541054E+03  0.10293746792E+04  0.25500000920E-02 0.  1.
       -2    1    3    3    0  502  0.34701009510E+03  0.31483710619E+03 -0.51784491224E+03  0.69835647249E+03  0.25500000920E-02 0. -1.
</event>
<event>
 5   0  0.1824538E-04  0.1719996E+04  0.7818609E-02  0.8750042E-01
        1   -1    0    0  501    0  0.00000000000E+00  0.00000000000E+00  0.82077669685E+03  0.82077669687E+03  0.50400001928E-02 0.  1.
       -1   -1    0    0    0  501  0.00000000000E+00  0.00000000000E+00 -0.90109306425E+03  0.90109306426E+03  0.50400001928E-02 0. -1.
    10030    2    1    2    0    0  0.00000000000E+00  0.00000000000E+00 -0.80316367396E+02  0.17218697611E+04  0.17199955684E+04 0.  0.
        3    1    3    3  502    0  0.39630840627E+03 -0.49169042051E+03  0.54423844060E+03  0.83367578406E+03  0.10100000352E+00 0.  1.
       -3    1    3    3    0  502 -0.39630840627E+03  0.49169042051E+03 -0.62455480799E+03  0.88819397706E+03  0.10100000352E+00 0. -1.
</event>
<event>
 5   0  0.1893284E-04  0.1704848E+04  0.7818609E-02  0.8758604E-01
       -1   -1    0    0    0  501  0.00000000000E+00  0.00000000000E+00  0.48616572976E+03  0.48616572979E+03  0.50400001928E-02 0.  1.
        1   -1    0    0  501    0  0.00000000000E+00  0.00000000000E+00 -0.14946077322E+04  0.14946077322E+04  0.50400001928E-02 0. -1.
    10030    2    1    2    0    0  0.00000000000E+00  0.00000000000E+00 -0.10084420025E+04  0.19807734620E+04  0.17048484494E+04 0.  0.
        2    1    3    3  502    0  0.36027411840E+03  0.39415914126E+03 -0.12761880052E+04  0.13834069154E+04  0.25500000920E-02 0. -1.
       -2    1    3    3    0  502 -0.36027411840E+03 -0.39415914126E+03  0.26774600272E+03  0.59736654661E+03  0.25500000920E-02 0.  1.
</event>
<event>
 5   0  0.3574092E-04  0.1722177E+04  0.7818609E-02  0.8748816E-01
        2   -1    0    0  501    0  0.00000000000E+00  0.00000000000E+00  0.13014170463E+04  0.13014170463E+04  0.25500000920E-02 0.  1.
       -2   -1    0    0    0  501  0.00000000000E+00  0.00000000000E+00 -0.56974329387E+03  0.56974329388E+03  0.25500000920E-02 0. -1.
    10030    2    1    2    0    0  0.00000000000E+00  0.00000000000E+00  0.73167375247E+03  0.18711603402E+04  0.17221772669E+04 0.  0.
        3    1    3    3  502    0  0.28587212373E+03 -0.31415318368E+03  0.11796735129E+04  0.12538120678E+04  0.10100000352E+00 0.  1.
       -3    1    3    3    0  502 -0.28587212373E+03  0.31415318368E+03 -0.44799976046E+03  0.61734827247E+03  0.10100000352E+00 0. -1.
</event>
<event>
 5   0  0.1317625E-04  0.1696283E+04  0.7818609E-02  0.8763487E-01
        3   -1    0    0  501    0  0.00000000000E+00  0.00000000000E+00  0.97285559273E+03  0.97285559797E+03  0.10100000352E+00 0.  1.
       -3   -1    0    0    0  501  0.00000000000E+00  0.00000000000E+00 -0.73941489693E+03  0.73941490383E+03  0.10100000352E+00 0. -1.
    10030    2    1    2    0    0  0.00000000000E+00  0.00000000000E+00  0.23344069579E+03  0.17122705018E+04  0.16962829106E+04 0.  0.
        2    1    3    3  502    0 -0.45824500380E+03  0.66136433254E+02 -0.60059774709E+03  0.75834040188E+03  0.25500000920E-02 0. -1.
       -2    1    3    3    0  502  0.45824500380E+03 -0.66136433254E+02  0.83403844289E+03  0.95393009992E+03  0.25500000920E-02 0.  1.
</event>
<event>
 5   0  0.1920289E-04  0.1711951E+04  0.7818609E-02  0.8754577E-01
        1   -1    0    0  501    0  0.00000000000E+00  0.00000000000E+00  0.21614109548E+04  0.21614109548E+04  0.50400001928E-02 0. -1.
       -1   -1    0    0    0  501  0.00000000000E+00  0.00000000000E+00 -0.33898892230E+03  0.33898892234E+03  0.50400001928E-02 0.  1.
    10030    2    1    2    0    0  0.00000000000E+00  0.00000000000E+00  0.18224220325E+04  0.25003998772E+04  0.17119513665E+04 0.  0.
        4    1    3    3  502    0 -0.36096095041E+03 -0.96317171274E+02 -0.21362810146E+03  0.43035843647E+03  0.12699999809E+01 0.  1.
       -4    1    3    3    0  502  0.36096095041E+03  0.96317171274E+02  0.20360501340E+04  0.20700414407E+04  0.12699999809E+01 0. -1.
</event>
<event>
 5   0  0.1824538E-04  0.1693370E+04  0.7818609E-02  0.8765155E-01
        1   -1    0    0  501    0  0.00000000000E+00  0.00000000000E+00  0.57097013644E+03  0.57097013646E+03  0.50400001928E-02 0. -1.
       -1   -1    0    0    0  501  0.00000000000E+00  0.00000000000E+00 -0.12555397793E+04  0.12555397793E+04  0.50400001928E-02 0.  1.
    10030    2    1    2    0    0  0.00000000000E+00  0.00000000000E+00 -0.68456964286E+03  0.18265099158E+04  0.16933702715E+04 0.  0.
        3    1    3    3  502    0  0.59981414409E+03  0.34825182100E+03 -0.86607800346E+03  0.11095708434E+04  0.10100000352E+00 0.  1.
       -3    1    3    3    0  502 -0.59981414409E+03 -0.34825182100E+03  0.18150836060E+03  0.71693907235E+03  0.10100000352E+00 0. -1.
</event>
<event>
 5   0  0.3516723E-04  0.1680448E+04  0.7818609E-02  0.8772595E-01
       -2   -1    0    0    0  501  0.00000000000E+00  0.00000000000E+00  0.90259182688E+03  0.90259182688E+03  0.25500000920E-02 0.  1.
        2   -1    0    0  501    0  0.00000000000E+00  0.00000000000E+00 -0.78216555071E+03  0.78216555071E+03  0.25500000920E-02 0. -1.
    10030    2    1    2    0    0  0.00000000000E+00  0.00000000000E+00  0.12042627617E+03  0.16847573776E+04  0.16804478371E+04 0.  0.
        1    1    3    3  502    0 -0.23183454889E+03 -0.46456125031E+03 -0.60209574980E+03  0.79503692072E+03  0.50400001928E-02 0. -1.
       -1    1    3    3    0  502  0.23183454889E+03  0.46456125031E+03  0.72252202597E+03  0.88972045688E+03  0.50400001928E-02 0.  1.
</event>
<event>
 5   0  0.1930116E-04  0.1666341E+04  0.7818609E-02  0.8780798E-01
        1   -1    0    0  501    0  0.00000000000E+00  0.00000000000E+00  0.22025942380E+04  0.22025942380E+04  0.50400001928E-02 0.  1.
       -1   -1    0    0    0  501  0.00000000000E+00  0.00000000000E+00 -0.31516162442E+03  0.31516162446E+03  0.50400001928E-02 0. -1.
    10030    2    1    2    0    0  0.00000000000E+00  0.00000000000E+00  0.18874326135E+04  0.25177558624E+04  0.16663411152E+04 0.  0.
        1    1    3    3  502    0 -0.19103733352E+03 -0.58928334917E+03  0.17855507413E+04  0.18899580890E+04  0.50400001928E-02 0.  1.
       -1    1    3    3    0  502  0.19103733352E+03  0.58928334917E+03  0.10188187225E+03  0.62779777343E+03  0.50400001928E-02 0. -1.
</event>
<event>
 5   0  0.3574092E-04  0.1718124E+04  0.7818609E-02  0.8751095E-01
       -2   -1    0    0    0  501  0.00000000000E+00  0.00000000000E+00  0.12652142187E+04  0.12652142187E+04  0.25500000920E-02 0. -1.
        2   -1    0    0  501    0  0.00000000000E+00  0.00000000000E+00 -0.58329050626E+03  0.58329050627E+03  0.25500000920E-02 0.  1.
    10030    2    1    2    0    0  0.00000000000E+00  0.00000000000E+00  0.68192371246E+03  0.18485047250E+04  0.17181239096E+04 0.  0.
        3    1    3    3  502    0  0.20843406523E+03 -0.75577219064E+03 -0.36903904214E+02  0.78485557400E+03  0.10100000352E+00 0.  1.
       -3    1    3    3    0  502 -0.20843406523E+03  0.75577219064E+03  0.71882761667E+03  0.10636491510E+04  0.10100000352E+00 0. -1.
</event>
<event>
 5   0  0.3574092E-04  0.1697531E+04  0.7818609E-02  0.8762774E-01
       -2   -1    0    0    0  501  0.00000000000E+00  0.00000000000E+00  0.18342264406E+04  0.18342264406E+04  0.25500000920E-02 0.  1.
        2   -1    0    0  501    0  0.00000000000E+00  0.00000000000E+00 -0.39275570688E+03  0.39275570689E+03  0.25500000920E-02 0. -1.
    10030    2    1    2    0    0  0.00000000000E+00  0.00000000000E+00  0.14414707337E+04  0.22269821475E+04  0.16975310333E+04 0.  0.
        3    1    3    3  502    0 -0.38395434791E+03 -0.32045611206E+03 -0.17893166699E+03  0.53115874528E+03  0.10100000352E+00 0. -1.
       -3    1    3    3    0  502  0.38395434791E+03  0.32045611206E+03  0.16204024007E+04  0.16958234022E+04  0.10100000352E+00 0.  1.
</event>
<event>
 5   0  0.3605571E-04  0.1708532E+04  0.7818609E-02  0.8756513E-01
       -2   -1    0    0    0  501  0.00000000000E+00  0.00000000000E+00  0.86775203163E+03  0.86775203163E+03  0.25500000920E-02 0.  1.
        2   -1    0    0  501    0  0.00000000000E+00  0.00000000000E+00 -0.84098941127E+03  0.84098941128E+03  0.25500000920E-02 0. -1.
    10030    2    1    2    0    0  0.00000000000E+00  0.00000000000E+00  0.26762620354E+02  0.17087414429E+04  0.17085318495E+04 0.  0.
        4    1    3    3  502    0  0.24782899299E+03 -0.37605755471E+03  0.73936991399E+03  0.86574128747E+03  0.12699999809E+01 0.  1.
       -4    1    3    3    0  502 -0.24782899299E+03  0.37605755471E+03 -0.71260729364E+03  0.84300015544E+03  0.12699999809E+01 0. -1.
</event>
<event>
 5   0  0.1824538E-04  0.1707204E+04  0.7818609E-02  0.8757266E-01
        1   -1    0    0  501    0  0.00000000000E+00  0.00000000000E+00  0.98204287795E+03  0.98204287796E+03  0.50400001928E-02 0.  1.
       -1   -1    0    0    0  501  0.00000000000E+00  0.00000000000E+00 -0.74195976268E+03  0.74195976270E+03  0.50400001928E-02 0. -1.
    10030    2    1    2    0    0  0.00000000000E+00  0.00000000000E+00  0.24008311527E+03  0.17240026407E+04  0.17072039136E+04 0.  0.
        3    1    3    3  502    0  0.38896244283E+03  0.61805180880E+03  0.56638219456E+03  0.92415833103E+03  0.10100000352E+00 0.  1.
       -3    1    3    3    0  502 -0.38896244283E+03 -0.61805180880E+03 -0.32629907930E+03  0.79984430963E+03  0.10100000352E+00 0. -1.
</event>
<event>
 5   0  0.3605571E-04  0.1706480E+04  0.7818609E-02  0.8757677E-01
       -2   -1    0    0    0  501  0.00000000000E+00  0.00000000000E+00  0.33306003846E+03  0.33306003847E+03  0.25500000920E-02 0. -1.
        2   -1    0    0  501    0  0.00000000000E+00  0.00000000000E+00 -0.21858465851E+04  0.21858465851E+04  0.25500000920E-02 0.  1.
    10030    2    1    2    0    0  0.00000000000E+00  0.00000000000E+00 -0.18527865466E+04  0.25189066235E+04  0.17064795899E+04 0.  0.
        4    1    3    3  502    0 -0.51902424137E+03 -0.50191350880E+03 -0.25528116184E+03  0.76581552475E+03  0.12699999809E+01 0. -1.
       -4    1    3    3    0  502  0.51902424137E+03  0.50191350880E+03 -0.15975053848E+04  0.17530910988E+04  0.12699999809E+01 0.  1.
</event>
<event>
 5   0  0.1815663E-04  0.1682007E+04  0.7818609E-02  0.8771693E-01
        1   -1    0    0  501    0  0.00000000000E+00  0.00000000000E+00  0.12385105790E+04  0.12385105790E+04  0.50400001928E-02 0.  1.
       -1   -1    0    0    0  501  0.00000000000E+00  0.00000000000E+00 -0.57107884890E+03  0.57107884892E+03  0.50400001928E-02 0. -1.
    10030    2    1    2    0    0  0.00000000000E+00  0.00000000000E+00  0.66743173009E+03  0.18095894279E+04  0.16820073672E+04 0.  0.
        5    1    3    3  502    0 -0.58069186830E+02 -0.46039975584E+03 -0.42085783757E+03  0.62648493604E+03  0.46999998093E+01 0. -1.
       -5    1    3    3    0  502  0.58069186830E+02  0.46039975584E+03  0.10882895677E+04  0.11831044919E+04  0.46999998093E+01 0.  1.
</event>
<event>
 5   0  0.3516723E-04  0.1697694E+04  0.7818609E-02  0.8762681E-01
       -2   -1    0    0    0  501  0.00000000000E+00  0.00000000000E+00  0.29132366623E+03  0.29132366625E+03  0.25500000920E-02 0.  1.
        2   -1    0    0  501    0  0.00000000000E+00  0.00000000000E+00 -0.24733361398E+04  0.24733361398E+04  0.25500000920E-02 0. -1.
    10030    2    1    2    0    0  0.00000000000E+00  0.00000000000E+00 -0.21820124736E+04  0.27646598060E+04  0.16976941445E+04 0.  0.
        1    1    3    3  502    0 -0.18611543787E+03 -0.63594054804E+03 -0.22701850918E+03  0.70042611344E+03  0.50400001928E-02 0.  1.
       -1    1    3    3    0  502  0.18611543787E+03  0.63594054804E+03 -0.19549939644E+04  0.20642336926E+04  0.50400001928E-02 0. -1.
</event>
<event>
 5   0  0.1893284E-04  0.1705349E+04  0.7818609E-02  0.8758320E-01
        1   -1    0    0  501    0  0.00000000000E+00  0.00000000000E+00  0.90109696295E+03  0.90109696297E+03  0.50400001928E-02 0.  1.
       -1   -1    0    0    0  501  0.00000000000E+00  0.00000000000E+00 -0.80685405226E+03  0.80685405227E+03  0.50400001928E-02 0. -1.
    10030    2    1    2    0    0  0.00000000000E+00  0.00000000000E+00  0.94242910699E+02  0.17079510152E+04  0.17053489216E+04 0.  0.
        2    1    3    3  502    0 -0.45707769468E+03 -0.54550121922E+03 -0.42323557558E+03  0.82802170961E+03  0.25500000920E-02 0.  1.
       -2    1    3    3    0  502  0.45707769468E+03  0.54550121922E+03  0.51747848628E+03  0.87992930563E+03  0.25500000920E-02 0. -1.
</event>
<event>
 5   0  0.3573262E-04  0.1711407E+04  0.7818609E-02  0.8754885E-01
       -2   -1    0    0    0  501  0.00000000000E+00  0.00000000000E+00  0.59041636074E+03  0.59041636074E+03  0.25500000920E-02 0.  1.
        2   -1    0    0  501    0  0.00000000000E+00  0.00000000000E+00 -0.12401906352E+04  0.12401906352E+04  0.25500000920E-02 0. -1.
    10030    2    1    2    0    0  0.00000000000E+00  0.00000000000E+00 -0.64977427442E+03  0.18306069959E+04  0.17114074225E+04 0.  0.
        5    1    3    3  502    0 -0.75040981036E+03  0.72639374666E+01  0.11489268208E+03  0.75920357392E+03  0.46999998093E+01 0.  1.
       -5    1    3    3    0  502  0.75040981036E+03 -0.72639374666E+01 -0.76466695650E+03  0.10714034220E+04  0.46999998093E+01 0. -1.
</event>
<event>
 5   0  0.1824538E-04  0.1683104E+04  0.7818609E-02  0.8771060E-01
        1   -1    0    0  501    0  0.00000000000E+00  0.00000000000E+00  0.16558169600E+04  0.16558169600E+04  0.50400001928E-02 0.  1.
       -1   -1    0    0    0  501  0.00000000000E+00  0.00000000000E+00 -0.42771007085E+03  0.42771007088E+03  0.50400001928E-02 0. -1.
    10030    2    1    2    0    0  0.00000000000E+00  0.00000000000E+00  0.12281068892E+04  0.20835270309E+04  0.16831037868E+04 0.  0.
        3    1    3    3  502    0  0.74663886550E+03 -0.38825230154E+03  0.61360028395E+03  0.10414964060E+04  0.10100000352E+00 0. -1.
       -3    1    3    3    0  502 -0.74663886550E+03  0.38825230154E+03  0.61450660524E+03  0.10420306249E+04  0.10100000352E+00 0.  1.
</event>
<event>
 5   0  0.1824538E-04  0.1703901E+04  0.7818609E-02  0.8759143E-01
        1   -1    0    0  501    0  0.00000000000E+00  0.00000000000E+00  0.12170621758E+04  0.12170621758E+04  0.50400001928E-02 0. -1.
       -1   -1    0    0    0  501  0.00000000000E+00  0.00000000000E+00 -0.59637014351E+03  0.59637014353E+03  0.50400001928E-02 0.  1.
    10030    2    1    2    0    0  0.00000000000E+00  0.00000000000E+00  0.62069203230E+03  0.18134323194E+04  0.17039008709E+04 0.  0.
        3    1    3    3  502    0  0.11630899694E+03  0.84182726372E+03  0.24632421466E+03  0.88480311575E+03  0.10100000352E+00 0. -1.
       -3    1    3    3    0  502 -0.11630899694E+03 -0.84182726372E+03  0.37436781763E+03  0.92862920360E+03  0.10100000352E+00 0.  1.
</event>
<event>
 5   0  0.1317625E-04  0.1704703E+04  0.7818609E-02  0.8758687E-01
        3   -1    0    0  501    0  0.00000000000E+00  0.00000000000E+00  0.11146032633E+04  0.11146032679E+04  0.10100000352E+00 0.  1.
       -3   -1    0    0    0  501  0.00000000000E+00  0.00000000000E+00 -0.65180389690E+03  0.65180390473E+03  0.10100000352E+00 0. -1.
    10030    2    1    2    0    0  0.00000000000E+00  0.00000000000E+00  0.46279936644E+03  0.17664071726E+04  0.17047026268E+04 0.  0.
        3    1    3    3  502    0 -0.58379062384E+02  0.20389780270E+03  0.10868240057E+04  0.11073250916E+04  0.10100000352E+00 0.  1.
       -3    1    3    3    0  502  0.58379062384E+02 -0.20389780270E+03 -0.62402463930E+03  0.65908208102E+03  0.10100000352E+00 0. -1.
</event>
<event>
 5   0  0.1824538E-04  0.1665652E+04  0.7818609E-02  0.8781200E-01
       -1   -1    0    0    0  501  0.00000000000E+00  0.00000000000E+00  0.10176271517E+04  0.10176271517E+04  0.50400001928E-02 0. -1.
        1   -1    0    0  501    0  0.00000000000E+00  0.00000000000E+00 -0.68158511497E+03  0.68158511499E+03  0.50400001928E-02 0.  1.
    10030    2    1    2    0    0  0.00000000000E+00  0.00000000000E+00  0.33604203676E+03  0.16992122667E+04  0.16656524478E+04 0.  0.
        3    1    3    3  502    0 -0.18333878240E+03  0.54364703525E+03 -0.44782603879E+03  0.72781411040E+03  0.10100000352E+00 0.  1.
       -3    1    3    3    0  502  0.18333878240E+03 -0.54364703525E+03  0.78386807555E+03  0.97139815634E+03  0.10100000352E+00 0. -1.
</event>
<event>
 5   0  0.1893284E-04  0.1718736E+04  0.7818609E-02  0.8750750E-01
       -1   -1    0    0    0  501  0.00000000000E+00  0.00000000000E+00  0.90960975214E+03  0.90960975215E+03  0.50400001928E-02 0.  1.
        1   -1    0    0  501    0  0.00000000000E+00  0.00000000000E+00 -0.81190089189E+03  0.81190089190E+03  0.50400001928E-02 0. -1.
    10030    2    1    2    0    0  0.00000000000E+00  0.00000000000E+00  0.97708860251E+02  0.17215106441E+04  0.17187355457E+04 0.  0.
        2    1    3    3  502    0 -0.80376300286E+03  0.29595752647E+03  0.11887543615E+03  0.86472954822E+03  0.25500000920E-02 0.  1.
       -2    1    3    3    0  502  0.80376300286E+03 -0.29595752647E+03 -0.21166575896E+02  0.85678109583E+03  0.25500000920E-02 0. -1.
</event>
<event>
 5   0  0.1815663E-04  0.1709551E+04  0.7818609E-02  0.8755936E-01
       -1   -1    0    0    0  501  0.00000000000E+00  0.00000000000E+00  0.10733400622E+04  0.10733400622E+04  0.50400001928E-02 0. -1.
        1   -1    0    0  501    0  0.00000000000E+00  0.00000000000E+00 -0.68071756774E+03  0.68071756776E+03  0.50400001928E-02 0.  1.
    10030    2    1    2    0    0  0.00000000000E+00  0.00000000000E+00  0.39262249444E+03  0.17540576299E+04  0.17095513289E+04 0.  0.
        5    1    3    3  502    0  0.69774435295E+03 -0.35037872199E+03 -0.16060540337E+03  0.79713776506E+03  0.46999998093E+01 0. -1.
       -5    1    3    3    0  502 -0.69774435295E+03  0.35037872199E+03  0.55322789781E+03  0.95691986488E+03  0.46999998093E+01 0.  1.
</event>
<event>
 5   0  0.3573262E-04  0.1712872E+04  0.7818609E-02  0.8754057E-01
        2   -1    0    0  501    0  0.00000000000E+00  0.00000000000E+00  0.19540162843E+04  0.19540162843E+04  0.25500000920E-02 0. -1.
       -2   -1    0    0    0  501  0.00000000000E+00  0.00000000000E+00 -0.37537198352E+03  0.37537198353E+03  0.25500000920E-02 0.  1.
    10030    2    1    2    0    0  0.00000000000E+00  0.00000000000E+00  0.15786443008E+04  0.23293882678E+04  0.17128724044E+04 0.  0.
        5    1    3    3  502    0 -0.23417642555E+02 -0.52919377345E+03 -0.12584820010E+03  0.54447616596E+03  0.46999998093E+01 0.  1.
       -5    1    3    3    0  502  0.23417642555E+02  0.52919377345E+03  0.17044925009E+04  0.17849121019E+04  0.46999998093E+01 0. -1.
</event>
<event>
 5   0  0.1317625E-04  0.1693779E+04  0.7818609E-02  0.8764920E-01
       -3   -1    0    0    0  501  0.00000000000E+00  0.00000000000E+00  0.44056755758E+03  0.44056756915E+03  0.10100000352E+00 0. -1.
        3   -1    0    0  501    0  0.00000000000E+00  0.00000000000E+00 -0.16279494145E+04  0.16279494176E+04  0.10100000352E+00 0.  1.
    10030    2    1    2    0    0  0.00000000000E+00  0.00000000000E+00 -0.11873818569E+04  0.20685169868E+04  0.16937788671E+04 0.  0.
        2    1    3    3  502    0  0.45909571914E+03 -0.37168554762E+01 -0.14627833459E+04  0.15331398538E+04  0.25500000920E-02 0.  1.
       -2    1    3    3    0  502 -0.45909571914E+03  0.37168554762E+01  0.27540148899E+03  0.53537713295E+03  0.25500000920E-02 0. -1.
</event>
<event>
 5   0  0.3516723E-04  0.1694750E+04  0.7818609E-02  0.8764364E-01
        2   -1    0    0  501    0  0.00000000000E+00  0.00000000000E+00  0.54972846848E+03  0.54972846849E+03  0.25500000920E-02 0. -1.
       -2   -1    0    0    0  501  0.00000000000E+00  0.00000000000E+00 -0.13061801716E+04  0.13061801716E+04  0.25500000920E-02 0.  1.
    10030    2    1    2    0    0  0.00000000000E+00  0.00000000000E+00 -0.75645170311E+03  0.18559086401E+04  0.16947500409E+04 0.  0.
        1    1    3    3  502    0  0.82102345984E+03 -0.18350099134E+03 -0.26712767156E+03  0.88267169909E+03  0.50400001928E-02 0.  1.
       -1    1    3    3    0  502 -0.82102345984E+03  0.18350099134E+03 -0.48932403155E+03  0.97323694099E+03  0.50400001928E-02 0. -1.
</event>
<event>
 5   0  0.1930116E-04  0.1692188E+04  0.7818609E-02  0.8765832E-01
       -1   -1    0    0    0  501  0.00000000000E+00  0.00000000000E+00  0.54666571722E+03  0.54666571724E+03  0.50400001928E-02 0. -1.
        1   -1    0    0  501    0  0.00000000000E+00  0.00000000000E+00 -0.13095299885E+04  0.13095299885E+04  0.50400001928E-02 0.  1.
    10030    2    1    2    0    0  0.00000000000E+00  0.00000000000E+00 -0.76286427128E+03  0.18561957057E+04  0.16921881106E+04 0.  0.
        1    1    3    3  502    0  0.58492600234E+03 -0.30397507028E+03 -0.96325084812E+03  0.11672152621E+04  0.50400001928E-02 0.  1.
       -1    1    3    3    0  502 -0.58492600234E+03  0.30397507028E+03  0.20038657684E+03  0.68898044368E+03  0.50400001928E-02 0. -1.
</event>
<event>
 5   0  0.3605571E-04  0.1688597E+04  0.7818609E-02  0.8767895E-01
       -2   -1    0    0    0  501  0.00000000000E+00  0.00000000000E+00  0.39227820623E+03  0.39227820624E+03  0.25500000920E-02 0.  1.
        2   -1    0    0  501    0  0.00000000000E+00  0.00000000000E+00 -0.18171789602E+04  0.18171789602E+04  0.25500000920E-02 0. -1.
    10030    2    1    2    0    0  0.00000000000E+00  0.00000000000E+00 -0.14249007539E+04  0.22094571664E+04  0.16885966989E+04 0.  0.
        4    1    3    3  502    0 -0.80597630480E+02  0.56356097701E+03  0.10336126951E+03  0.57860359296E+03  0.12699999809E+01 0.  1.
       -4    1    3    3    0  502  0.80597630480E+02 -0.56356097701E+03 -0.15282620234E+04  0.16308535735E+04  0.12699999809E+01 0. -1.
</event>
<event>
 5   0  0.3574092E-04  0.1682360E+04  0.7818609E-02  0.8771490E-01
       -2   -1    0    0    0  501  0.00000000000E+00  0.00000000000E+00  0.72417610752E+03  0.72417610753E+03  0.25500000920E-02 0. -1.
        2   -1    0    0  501    0  0.00000000000E+00  0.00000000000E+00 -0.97708760343E+03  0.97708760343E+03  0.25500000920E-02 0.  1.
    10030    2    1    2    0    0  0.00000000000E+00  0.00000000000E+00 -0.25291149590E+03  0.17012637110E+04  0.16823596493E+04 0.  0.
        3    1    3    3  502    0  0.23491497073E+03 -0.54469427516E+01  0.69031349962E+03  0.72921015532E+03  0.10100000352E+00 0. -1.
       -3    1    3    3    0  502 -0.23491497073E+03  0.54469427516E+01 -0.94322499552E+03  0.97205355564E+03  0.10100000352E+00 0.  1.
</event>
<event>
 5   0  0.1824538E-04  0.1702777E+04  0.7818609E-02  0.8759782E-01
        1   -1    0    0  501    0  0.00000000000E+00  0.00000000000E+00  0.74749228689E+03  0.74749228691E+03  0.50400001928E-02 0. -1.
       -1   -1    0    0    0  501  0.00000000000E+00  0.00000000000E+00 -0.96972524619E+03  0.96972524621E+03  0.50400001928E-02 0.  1.
    10030    2    1    2    0    0  0.00000000000E+00  0.00000000000E+00 -0.22223295930E+03  0.17172175331E+04  0.17027767228E+04 0.  0.
        3    1    3    3  502    0  0.52940974723E+03  0.23748221196E+03  0.51721610958E+03  0.77729337812E+03  0.10100000352E+00 0. -1.
       -3    1    3    3    0  502 -0.52940974723E+03 -0.23748221196E+03 -0.73944906889E+03  0.93992415499E+03  0.10100000352E+00 0.  1.
</event>
<event>
 5   0  0.1815663E-04  0.1713044E+04  0.7818609E-02  0.8753960E-01
       -1   -1    0    0    0  501  0.00000000000E+00  0.00000000000E+00  0.70287700276E+03  0.70287700278E+03  0.50400001928E-02 0. -1.
        1   -1    0    0  501    0  0.00000000000E+00  0.00000000000E+00 -0.10437530723E+04  0.10437530723E+04  0.50400001928E-02 0.  1.
    10030    2    1    2    0    0  0.00000000000E+00  0.00000000000E+00 -0.34087606951E+03  0.17466300751E+04  0.17130441105E+04 0.  0.
        5    1    3    3  502    0  0.91837491919E+02 -0.83295828029E+03 -0.35098121047E+03  0.90855023072E+03  0.46999998093E+01 0.  1.
       -5    1    3    3    0  502 -0.91837491919E+02  0.83295828029E+03  0.10105140959E+02  0.83807984435E+03  0.46999998093E+01 0. -1.
</event>
<event>
 5   0  0.1920289E-04  0.1705952E+04  0.7818609E-02  0.8757977E-01
        1   -1    0    0  501    0  0.00000000000E+00  0.00000000000E+00  0.85239982426E+03  0.85239982427E+03  0.50400001928E-02 0. -1.
       -1   -1    0    0    0  501  0.00000000000E+00  0.00000000000E+00 -0.85355288149E+03  0.85355288150E+03  0.50400001928E-02 0.  1.
    10030    2    1    2    0    0  0.00000000000E+00  0.00000000000E+00 -0.11530572260E+01  0.17059527058E+04  0.17059523161E+04 0.  0.
        4    1    3    3  502    0  0.88800784424E+02 -0.39737742522E+03 -0.75009142010E+03  0.85348295167E+03  0.12699999809E+01 0.  1.
       -4    1    3    3    0  502 -0.88800784424E+02  0.39737742522E+03  0.74893836287E+03  0.85246975411E+03  0.12699999809E+01 0. -1.
</event>
<event>
 5   0  0.3574092E-04  0.1705999E+04  0.7818609E-02  0.8757950E-01
        2   -1    0    0  501    0  0.00000000000E+00  0.00000000000E+00  0.14978501034E+04  0.14978501034E+04  0.25500000920E-02 0.  1.
       -2   -1    0    0    0  501  0.00000000000E+00  0.00000000000E+00 -0.48576829144E+03  0.48576829144E+03  0.25500000920E-02 0. -1.
    10030    2    1    2    0    0  0.00000000000E+00  0.00000000000E+00  0.10120818120E+04  0.19836183949E+04  0.17059989280E+04 0.  0.
        3    1    3    3  502    0 -0.75470817661E+03 -0.27655616414E+03  0.83806194916E+03  0.11612129799E+04  0.10100000352E+00 0.  1.
       -3    1    3    3    0  502  0.75470817661E+03  0.27655616414E+03  0.17401986282E+03  0.82240541500E+03  0.10100000352E+00 0. -1.
</event>
<event>
 5   0  0.3678896E-04  0.1642095E+04  0.7818609E-02  0.8795097E-01
       -2   -1    0    0    0  501  0.00000000000E+00  0.00000000000E+00  0.59991555127E+03  0.59991555128E+03  0.25500000920E-02 0.  1.
        2   -1    0    0  501    0  0.00000000000E+00  0.00000000000E+00 -0.11236899250E+04  0.11236899250E+04  0.25500000920E-02 0. -1.
    10030    2    1    2    0    0  0.00000000000E+00  0.00000000000E+00 -0.52377437368E+03  0.17236054762E+04  0.16420950774E+04 0.  0.
        2    1    3    3  502    0  0.29453593394E+02 -0.77972285398E+03 -0.53007703689E+03  0.94330106977E+03  0.25500000920E-02 0. -1.
       -2    1    3    3    0  502 -0.29453593394E+02  0.77972285398E+03  0.63026632085E+01  0.78030440647E+03  0.25500000920E-02 0.  1.
</event>
<event>
 5   0  0.3574092E-04  0.1701662E+04  0.7818609E-02  0.8760417E-01
        2   -1    0    0  501    0  0.00000000000E+00  0.00000000000E+00  0.12786128150E+04  0.12786128150E+04  0.25500000920E-02 0.  1.
       -2   -1    0    0    0  501  0.00000000000E+00  0.00000000000E+00 -0.56617079945E+03  0.56617079946E+03  0.25500000920E-02 0. -1.
    10030    2    1    2    0    0  0.00000000000E+00  0.00000000000E+00  0.71244201551E+03  0.18447836144E+04  0.17016618226E+04 0.  0.
        3    1    3    3  502    0 -0.64306715898E+03 -0.20849364300E+03  0.91630503006E+03  0.11386921834E+04  0.10100000352E+00 0.  1.
       -3    1    3    3    0  502  0.64306715898E+03  0.20849364300E+03 -0.20386301455E+03  0.70609143107E+03  0.10100000352E+00 0. -1.
</event>
<event>
 5   0  0.3678896E-04  0.1727077E+04  0.7818609E-02  0.8746070E-01
       -2   -1    0    0    0  501  0.00000000000E+00  0.00000000000E+00  0.11780260956E+04  0.11780260956E+04  0.25500000920E-02 0.  1.
        2   -1    0    0  501    0  0.00000000000E+00  0.00000000000E+00 -0.63300711743E+03  0.63300711744E+03  0.25500000920E-02 0. -1.
    10030    2    1    2    0    0  0.00000000000E+00  0.00000000000E+00  0.54501897813E+03  0.18110332130E+04  0.17270771876E+04 0.  0.
        2    1    3    3  502    0  0.56921691624E+03 -0.57889129896E+03  0.58105064174E+03  0.99837011274E+03  0.25500000920E-02 0.  1.
       -2    1    3    3    0  502 -0.56921691624E+03  0.57889129896E+03 -0.36031663609E+02  0.81266310026E+03  0.25500000920E-02 0. -1.
</event>
<event>
 5   0  0.3574092E-04  0.1704661E+04  0.7818609E-02  0.8758711E-01
       -2   -1    0    0    0  501  0.00000000000E+00  0.00000000000E+00  0.88142646669E+03  0.88142646670E+03  0.25500000920E-02 0.  1.
        2   -1    0    0  501    0  0.00000000000E+00  0.00000000000E+00 -0.82419467261E+03  0.82419467261E+03  0.25500000920E-02 0. -1.
    10030    2    1    2    0    0  0.00000000000E+00  0.00000000000E+00  0.57231794087E+02  0.17056211393E+04  0.17046606679E+04 0.  0.
        3    1    3    3  502    0 -0.69712019003E+02 -0.12452110009E+02 -0.82124608245E+03  0.82429361199E+03  0.10100000352E+00 0. -1.
       -3    1    3    3    0  502  0.69712019003E+02  0.12452110009E+02  0.87847787654E+03  0.88132752731E+03  0.10100000352E+00 0.  1.
</event>
<event>
 5   0  0.3573262E-04  0.1697386E+04  0.7818609E-02  0.8762857E-01
       -2   -1    0    0    0  501  0.00000000000E+00  0.00000000000E+00  0.59875788843E+03  0.59875788843E+03  0.25500000920E-02 0. -1.
        2   -1    0    0  501    0  0.00000000000E+00  0.00000000000E+00 -0.12029566137E+04  0.12029566137E+04  0.25500000920E-02 0.  1.
    10030    2    1    2    0    0  0.00000000000E+00  0.00000000000E+00 -0.60419872525E+03  0.18017145021E+04  0.16973859454E+04 0.  0.
        5    1    3    3  502    0  0.63105394415E+03 -0.13310684736E+03 -0.88764980202E+03  0.10972195652E+04  0.46999998093E+01 0.  1.
       -5    1    3    3    0  502 -0.63105394415E+03  0.13310684736E+03  0.28345107676E+03  0.70449493692E+03  0.46999998093E+01 0. -1.
</event>
<event>
 5   0  0.3605571E-04  0.1685845E+04  0.7818609E-02  0.8769479E-01
        2   -1    0    0  501    0  0.00000000000E+00  0.00000000000E+00  0.13716454349E+04  0.13716454349E+04  0.25500000920E-02 0. -1.
       -2   -1    0    0    0  501  0.00000000000E+00  0.00000000000E+00 -0.51800426748E+03  0.51800426749E+03  0.25500000920E-02 0.  1.
    10030    2    1    2    0    0  0.00000000000E+00  0.00000000000E+00  0.85364116739E+03  0.18896497024E+04  0.16858448194E+04 0.  0.
        4    1    3    3  502    0 -0.82970192407E+03 -0.48770372538E+01  0.59340603250E+03  0.10200791149E+04  0.12699999809E+01 0. -1.
       -4    1    3    3    0  502  0.82970192407E+03  0.48770372538E+01  0.26023513490E+03  0.86957058749E+03  0.12699999809E+01 0.  1.
</event>
<event>
 5   0  0.3605571E-04  0.1722624E+04  0.7818609E-02  0.8748565E-01
       -2   -1    0    0    0  501  0.00000000000E+00  0.00000000000E+00  0.75028079727E+03  0.75028079728E+03  0.25500000920E-02 0.  1.
        2   -1    0    0  501    0  0.00000000000E+00  0.00000000000E+00 -0.98877411707E+03  0.98877411707E+03  0.25500000920E-02 0. -1.
    10030    2    1    2    0    0  0.00000000000E+00  0.00000000000E+00 -0.23849331980E+03  0.17390549143E+04  0.17226238509E+04 0.  0.
        4    1    3    3  502    0  0.56137661738E+02  0.65617794019E+03 -0.67964113432E+03  0.94637973912E+03  0.12699999809E+01 0. -1.
       -4    1    3    3    0  502 -0.56137661738E+02 -0.65617794019E+03  0.44114781452E+03  0.79267517523E+03  0.12699999809E+01 0.  1.
</event>
<event>
 5   0  0.1930116E-04  0.1693926E+04  0.7818609E-02  0.8764836E-01
       -1   -1    0    0    0  501  0.00000000000E+00  0.00000000000E+00  0.11902285686E+04  0.11902285686E+04  0.50400001928E-02 0. -1.
        1   -1    0    0  501    0  0.00000000000E+00  0.00000000000E+00 -0.60269645610E+03  0.60269645612E+03  0.50400001928E-02 0.  1.
    10030    2    1    2    0    0  0.00000000000E+00  0.00000000000E+00  0.58753211253E+03  0.17929250248E+04  0.16939262561E+04 0.  0.
        1    1    3    3  502    0  0.24539087454E+03 -0.71911693307E+03 -0.10226817502E+03  0.76668417513E+03  0.50400001928E-02 0.  1.
       -1    1    3    3    0  502 -0.24539087454E+03  0.71911693307E+03  0.68980028756E+03  0.10262408496E+04  0.50400001928E-02 0. -1.
</event>
<event>
 5   0  0.3678896E-04  0.1697428E+04  0.7818609E-02  0.8762833E-01
        2   -1    0    0  501    0  0.00000000000E+00  0.00000000000E+00  0.74911843013E+03  0.74911843013E+03  0.25500000920E-02 0. -1.
       -2   -1    0    0    0  501  0.00000000000E+00  0.00000000000E+00 -0.96155100299E+03  0.96155100299E+03  0.25500000920E-02 0.  1.
    10030    2    1    2    0    0  0.00000000000E+00  0.00000000000E+00 -0.21243257286E+03  0.17106694331E+04  0.16974281462E+04 0.  0.
        2    1    3    3  502    0  0.49593474926E+03  0.92049418839E+02  0.58167047741E+03  0.76991227769E+03  0.25500000920E-02 0. -1.
       -2    1    3    3    0  502 -0.49593474926E+03 -0.92049418839E+02 -0.79410305028E+03  0.94075715543E+03  0.25500000920E-02 0.  1.
</event>
<event>
 5   0  0.1815663E-04  0.1701447E+04  0.7818609E-02  0.8760540E-01
       -1   -1    0    0    0  501  0.00000000000E+00  0.00000000000E+00  0.81501359248E+03  0.81501359249E+03  0.50400001928E-02 0.  1.
        1   -1    0    0  501    0  0.00000000000E+00  0.00000000000E+00 -0.88799767168E+03  0.88799767169E+03  0.50400001928E-02 0. -1.
    10030    2    1    2    0    0  0.00000000000E+00  0.00000000000E+00 -0.72984079204E+02  0.17030112642E+04  0.17014466463E+04 0.  0.
        5    1    3    3  502    0  0.80218552276E+03 -0.26056712059E+02 -0.31875760355E+03  0.86360237667E+03  0.46999998093E+01 0. -1.
       -5    1    3    3    0  502 -0.80218552276E+03  0.26056712059E+02  0.24577352435E+03  0.83940888752E+03  0.46999998093E+01 0.  1.
</event>
<event>
 5   0  0.1930116E-04  0.1754795E+04  0.7818609E-02  0.8730715E-01
        1   -1    0    0  501    0  0.00000000000E+00  0.00000000000E+00  0.17352031162E+04  0.17352031162E+04  0.50400001928E-02 0.  1.
       -1   -1    0    0    0  501  0.00000000000E+00  0.00000000000E+00 -0.44365221301E+03  0.44365221304E+03  0.50400001928E-02 0. -1.
    10030    2    1    2    0    0  0.00000000000E+00  0.00000000000E+00  0.12915509032E+04  0.21788553292E+04  0.17547953756E+04 0.  0.
        1    1    3    3  502    0 -0.54912095923E+03  0.21334746562E+03 -0.16156542105E+03  0.61086361347E+03  0.50400001928E-02 0. -1.
       -1    1    3    3    0  502  0.54912095923E+03 -0.21334746562E+03  0.14531163242E+04  0.15679917158E+04  0.50400001928E-02 0.  1.
</event>
<event>
 5   0  0.1815663E-04  0.1700994E+04  0.7818609E-02  0.8760797E-01
        1   -1    0    0  501    0  0.00000000000E+00  0.00000000000E+00  0.13315416203E+04  0.13315416203E+04  0.50400001928E-02 0. -1.
       -1   -1    0    0    0  501  0.00000000000E+00  0.00000000000E+00 -0.54323904190E+03  0.54323904192E+03  0.50400001928E-02 0.  1.
    10030    2    1    2    0    0  0.00000000000E+00  0.00000000000E+00  0.78830257841E+03  0.18747806622E+04  0.17009942905E+04 0.  0.
        5    1    3    3  502    0  0.33930139419E+03 -0.29832546852E+03 -0.40002123983E+03  0.60345886652E+03  0.46999998093E+01 0.  1.
       -5    1    3    3    0  502 -0.33930139419E+03  0.29832546852E+03  0.11883238182E+04  0.12713217957E+04  0.46999998093E+01 0. -1.
</event>
<event>
 5   0  0.3516723E-04  0.1714488E+04  0.7818609E-02  0.8753144E-01
        2   -1    0    0  501    0  0.00000000000E+00  0.00000000000E+00  0.17061758524E+04  0.17061758524E+04  0.25500000920E-02 0.  1.
       -2   -1    0    0    0  501  0.00000000000E+00  0.00000000000E+00 -0.43071034593E+03  0.43071034594E+03  0.25500000920E-02 0. -1.
    10030    2    1    2    0    0  0.00000000000E+00  0.00000000000E+00  0.12754655064E+04  0.21368861983E+04  0.17144883687E+04 0.  0.
        1    1    3    3  502    0 -0.16294955246E+03 -0.66669056754E+03  0.12779334143E+04  0.14505663311E+04  0.50400001928E-02 0.  1.
       -1    1    3    3    0  502  0.16294955246E+03  0.66669056754E+03 -0.24679078892E+01  0.68631986719E+03  0.50400001928E-02 0. -1.
</event>
<event>
 5   0  0.3574092E-04  0.1691616E+04  0.7818609E-02  0.8766160E-01
        2   -1    0    0  501    0  0.00000000000E+00  0.00000000000E+00  0.16964573065E+04  0.16964573065E+04  0.25500000920E-02 0. -1.
       -2   -1    0    0    0  501  0.00000000000E+00  0.00000000000E+00 -0.42169721166E+03  0.42169721167E+03  0.25500000920E-02 0.  1.
    10030    2    1    2    0    0  0.00000000000E+00  0.00000000000E+00  0.12747600948E+04  0.21181545182E+04  0.16916161691E+04 0.  0.
        3    1    3    3  502    0 -0.26070050222E+03  0.20294769514E+03  0.16123195562E+04  0.16458210354E+04  0.10100000352E+00 0. -1.
       -3    1    3    3    0  502  0.26070050222E+03 -0.20294769514E+03 -0.33755946139E+03  0.47233348282E+03  0.10100000352E+00 0.  1.
</event>
<event>
 5   0  0.3573262E-04  0.1626075E+04  0.7818609E-02  0.8804687E-01
       -2   -1    0    0    0  501  0.00000000000E+00  0.00000000000E+00  0.77349177231E+03  0.77349177232E+03  0.25500000920E-02 0.  1.
        2   -1    0    0  501    0  0.00000000000E+00  0.00000000000E+00 -0.85460493223E+03  0.85460493223E+03  0.25500000920E-02 0. -1.
    10030    2    1    2    0    0  0.00000000000E+00  0.00000000000E+00 -0.81113159914E+02  0.16280967045E+04  0.16260748859E+04 0.  0.
        5    1    3    3  502    0 -0.84736174958E+02 -0.24697433639E+03  0.73035611903E+03  0.77564082718E+03  0.46999998093E+01 0.  1.
       -5    1    3    3    0  502  0.84736174958E+02  0.24697433639E+03 -0.81146927895E+03  0.85245587737E+03  0.46999998093E+01 0. -1.
</event>
<event>
 5   0  0.1815663E-04  0.1697415E+04  0.7818609E-02  0.8762840E-01
        1   -1    0    0  501    0  0.00000000000E+00  0.00000000000E+00  0.94615154633E+03  0.94615154634E+03  0.50400001928E-02 0. -1.
       -1   -1    0    0    0  501  0.00000000000E+00  0.00000000000E+00 -0.76129950724E+03  0.76129950726E+03  0.50400001928E-02 0.  1.
    10030    2    1    2    0    0  0.00000000000E+00  0.00000000000E+00  0.18485203908E+03  0.17074510536E+04  0.16974153364E+04 0.  0.
        5    1    3    3  502    0  0.52227007472E+03  0.47902514699E+03  0.56214669213E+03  0.90457841886E+03  0.46999998093E+01 0. -1.
       -5    1    3    3    0  502 -0.52227007472E+03 -0.47902514699E+03 -0.37729465304E+03  0.80287263474E+03  0.46999998093E+01 0.  1.
</event>
<event>
 5   0  0.3574092E-04  0.1703649E+04  0.7818609E-02  0.8759286E-01
       -2   -1    0    0    0  501  0.00000000000E+00  0.00000000000E+00  0.80261038852E+03  0.80261038852E+03  0.25500000920E-02 0. -1.
        2   -1    0    0  501    0  0.00000000000E+00  0.00000000000E+00 -0.90405612394E+03  0.90405612394E+03  0.25500000920E-02 0.  1.
    10030    2    1    2    0    0  0.00000000000E+00  0.00000000000E+00 -0.10144573542E+03  0.17066665125E+04  0.17036488334E+04 0.  0.
        3    1    3    3  502    0 -0.74018571316E+03  0.33569270538E+03 -0.30620468840E+03  0.86851931689E+03  0.10100000352E+00 0. -1.
       -3    1    3    3    0  502  0.74018571316E+03 -0.33569270538E+03  0.20475895298E+03  0.83814719557E+03  0.10100000352E+00 0.  1.
</event>
<event>
 5   0  0.3605571E-04  0.1720910E+04  0.7818609E-02  0.8749528E-01
        2   -1    0    0  501    0  0.00000000000E+00  0.00000000000E+00  0.12116509031E+04  0.12116509031E+04  0.25500000920E-02 0.  1.
       -2   -1    0    0    0  501  0.00000000000E+00  0.00000000000E+00 -0.61105295394E+03  0.61105295395E+03  0.25500000920E-02 0. -1.
    10030    2    1    2    0    0  0.00000000000E+00  0.00000000000E+00  0.60059794914E+03  0.18227038570E+04  0.17209100656E+04 0.  0.
        4    1    3    3  502    0  0.44490701909E+03 -0.53493827435E+03  0.83648479814E+03  0.10880301666E+04  0.12699999809E+01 0.  1.
       -4    1    3    3    0  502 -0.44490701909E+03  0.53493827435E+03 -0.23588684900E+03  0.73467369044E+03  0.12699999809E+01 0. -1.
</event>
<event>
 5   0  0.3573262E-04  0.1687263E+04  0.7818609E-02  0.8768662E-01
       -2   -1    0    0    0  501  0.00000000000E+00  0.00000000000E+00  0.55539037976E+03  0.55539037977E+03  0.25500000920E-02 0.  1.
        2   -1    0    0  501    0  0.00000000000E+00  0.00000000000E+00 -0.12814668334E+04  0.12814668334E+04  0.25500000920E-02 0. -1.
    10030    2    1    2    0    0  0.00000000000E+00  0.00000000000E+00 -0.72607645368E+03  0.18368572132E+04  0.16872632886E+04 0.  0.
        5    1    3    3  502    0 -0.23761474456E+02  0.27453036377E+03 -0.12310775330E+04  0.12615488538E+04  0.46999998093E+01 0. -1.
       -5    1    3    3    0  502  0.23761474456E+02 -0.27453036377E+03  0.50500107931E+03  0.57530835941E+03  0.46999998093E+01 0.  1.
</event>
<event>
 5   0  0.1815663E-04  0.1725786E+04  0.7818609E-02  0.8746793E-01
        1   -1    0    0  501    0  0.00000000000E+00  0.00000000000E+00  0.66872793206E+03  0.66872793208E+03  0.50400001928E-02 0. -1.
       -1   -1    0    0    0  501  0.00000000000E+00  0.00000000000E+00 -0.11134334235E+04  0.11134334235E+04  0.50400001928E-02 0.  1.
    10030    2    1    2    0    0  0.00000000000E+00  0.00000000000E+00 -0.44470549141E+03  0.17821613556E+04  0.17257856539E+04 0.  0.
        5    1    3    3  502    0  0.12918693498E+03 -0.53497214697E+03 -0.90865084349E+03  0.10623337082E+04  0.46999998093E+01 0.  1.
       -5    1    3    3    0  502 -0.12918693498E+03  0.53497214697E+03  0.46394535208E+03  0.71982764737E+03  0.46999998093E+01 0. -1.
</event>
<event>
 5   0  0.3574092E-04  0.1733939E+04  0.7818609E-02  0.8742241E-01
       -2   -1    0    0    0  501  0.00000000000E+00  0.00000000000E+00  0.72842066841E+03  0.72842066842E+03  0.25500000920E-02 0. -1.
        2   -1    0    0  501    0  0.00000000000E+00  0.00000000000E+00 -0.10318704439E+04  0.10318704439E+04  0.25500000920E-02 0.  1.
    10030    2    1    2    0    0  0.00000000000E+00  0.00000000000E+00 -0.30344977545E+03  0.17602911123E+04  0.17339385900E+04 0.  0.
        3    1    3    3  502    0 -0.35204946173E+03  0.19395758324E+03  0.62811468150E+03  0.74571202948E+03  0.10100000352E+00 0. -1.
       -3    1    3    3    0  502  0.35204946173E+03 -0.19395758324E+03 -0.93156445695E+03  0.10145790828E+04  0.10100000352E+00 0.  1.
</event>
<event>
 5   0  0.3516723E-04  0.1771672E+04  0.7818609E-02  0.8721511E-01
       -2   -1    0    0    0  501  0.00000000000E+00  0.00000000000E+00  0.77275671939E+03  0.77275671940E+03  0.25500000920E-02 0.  1.
        2   -1    0    0  501    0  0.00000000000E+00  0.00000000000E+00 -0.10154628094E+04  0.10154628094E+04  0.25500000920E-02 0. -1.
    10030    2    1    2    0    0  0.00000000000E+00  0.00000000000E+00 -0.24270609005E+03  0.17882195288E+04  0.17716723278E+04 0.  0.
        1    1    3    3  502    0  0.51988412595E+03  0.63211837072E+03 -0.46341737655E+03  0.94053644477E+03  0.50400001928E-02 0.  1.
       -1    1    3    3    0  502 -0.51988412595E+03 -0.63211837072E+03  0.22071128649E+03  0.84768308408E+03  0.50400001928E-02 0. -1.
</event>
<event>
 5   0  0.3605571E-04  0.1702177E+04  0.7818609E-02  0.8760124E-01
        2   -1    0    0  501    0  0.00000000000E+00  0.00000000000E+00  0.23758608986E+04  0.23758608986E+04  0.25500000920E-02 0.  1.
       -2   -1    0    0    0  501  0.00000000000E+00  0.00000000000E+00 -0.30487965511E+03  0.30487965512E+03  0.25500000920E-02 0. -1.
    10030    2    1    2    0    0  0.00000000000E+00  0.00000000000E+00  0.20709812434E+04  0.26807405537E+04  0.17021770194E+04 0.  0.
        4    1    3    3  502    0  0.21340374274E+03 -0.82389414287E+03  0.10312289815E+04  0.13370779863E+04  0.12699999809E+01 0. -1.
       -4    1    3    3    0  502 -0.21340374274E+03  0.82389414287E+03  0.10397522619E+04  0.13436625674E+04  0.12699999809E+01 0.  1.
</event>
<event>
 5   0  0.3516723E-04  0.1723984E+04  0.7818609E-02  0.8747803E-01
        2   -1    0    0  501    0  0.00000000000E+00  0.00000000000E+00  0.14782093527E+04  0.14782093527E+04  0.25500000920E-02 0.  1.
       -2   -1    0    0    0  501  0.00000000000E+00  0.00000000000E+00 -0.50265538366E+03  0.50265538366E+03  0.25500000920E-02 0. -1.
    10030    2    1    2    0    0  0.00000000000E+00  0.00000000000E+00  0.97555396908E+03  0.19808647364E+04  0.17239836302E+04 0.  0.
        1    1    3    3  502    0 -0.25430369700E+03 -0.72893127006E+03  0.47214000212E+02  0.77345997221E+03  0.50400001928E-02 0. -1.
       -1    1    3    3    0  502  0.25430369700E+03  0.72893127006E+03  0.92833996887E+03  0.12074047642E+04  0.50400001928E-02 0.  1.
</event>
<event>
 5   0  0.3574092E-04  0.1743468E+04  0.7818609E-02  0.8736954E-01
        2   -1    0    0  501    0  0.00000000000E+00  0.00000000000E+00  0.74592435308E+03  0.74592435309E+03  0.25500000920E-02 0. -1.
       -2   -1    0    0    0  501  0.00000000000E+00  0.00000000000E+00 -0.10187633958E+04  0.10187633958E+04  0.25500000920E-02 0.  1.
    10030    2    1    2    0    0  0.00000000000E+00  0.00000000000E+00 -0.27283904271E+03  0.17646877489E+04  0.17434682985E+04 0.  0.
        3    1    3    3  502    0 -0.47460553822E+03  0.31013777455E+03  0.53382144432E+03  0.77871766432E+03  0.10100000352E+00 0. -1.
       -3    1    3    3    0  502  0.47460553822E+03 -0.31013777455E+03 -0.80666048703E+03  0.98597008456E+03  0.10100000352E+00 0.  1.
</event>
<event>
 5   0  0.3678896E-04  0.1701677E+04  0.7818609E-02  0.8760408E-01
       -2   -1    0    0    0  501  0.00000000000E+00  0.00000000000E+00  0.58030436873E+03  0.58030436874E+03  0.25500000920E-02 0.  1.
        2   -1    0    0  501    0  0.00000000000E+00  0.00000000000E+00 -0.12474946016E+04  0.12474946016E+04  0.25500000920E-02 0. -1.
    10030    2    1    2    0    0  0.00000000000E+00  0.00000000000E+00 -0.66719023289E+03  0.18277989704E+04  0.17016774868E+04 0.  0.
        2    1    3    3  502    0  0.45207348579E+03  0.37691407946E+03  0.32634571266E+03  0.67300533730E+03  0.25500000920E-02 0.  1.
       -2    1    3    3    0  502 -0.45207348579E+03 -0.37691407946E+03 -0.99353594555E+03  0.11547936331E+04  0.25500000920E-02 0. -1.
</event>
<event>
 5   0  0.3516723E-04  0.1698457E+04  0.7818609E-02  0.8762245E-01
       -2   -1    0    0    0  501  0.00000000000E+00  0.00000000000E+00  0.58721830616E+03  0.58721830617E+03  0.25500000920E-02 0.  1.
        2   -1    0    0  501    0  0.00000000000E+00  0.00000000000E+00 -0.12281441433E+04  0.12281441433E+04  0.25500000920E-02 0. -1.
    10030    2    1    2    0    0  0.00000000000E+00  0.00000000000E+00 -0.64092583713E+03  0.18153624495E+04  0.16984566212E+04 0.  0.
        1    1    3    3  502    0  0.80125049964E+03 -0.17418893856E+03 -0.84242708321E+02  0.82428210185E+03  0.50400001928E-02 0.  1.
       -1    1    3    3    0  502 -0.80125049964E+03  0.17418893856E+03 -0.55668312881E+03  0.99108034761E+03  0.50400001928E-02 0. -1.
</event>
<event>
 5   0  0.3678896E-04  0.1694655E+04  0.7818609E-02  0.8764419E-01
        2   -1    0    0  501    0  0.00000000000E+00  0.00000000000E+00  0.47568619660E+03  0.47568619661E+03  0.25500000920E-02 0. -1.
       -2   -1    0    0    0  501  0.00000000000E+00  0.00000000000E+00 -0.15093226171E+04  0.15093226171E+04  0.25500000920E-02 0.  1.
    10030    2    1    2    0    0  0.00000000000E+00  0.00000000000E+00 -0.10336364205E+04  0.19850088137E+04  0.16946550507E+04 0.  0.
        2    1    3    3  502    0 -0.18244630402E+02  0.84710150319E+03 -0.52511006463E+03  0.99682215225E+03  0.25500000920E-02 0. -1.
       -2    1    3    3    0  502  0.18244630402E+02 -0.84710150319E+03 -0.50852635585E+03  0.98818666144E+03  0.25500000920E-02 0.  1.
</event>
<event>
 5   0  0.1930116E-04  0.1692916E+04  0.7818609E-02  0.8765415E-01
        1   -1    0    0  501    0  0.00000000000E+00  0.00000000000E+00  0.88822455597E+03  0.88822455598E+03  0.50400001928E-02 0.  1.
       -1   -1    0    0    0  501  0.00000000000E+00  0.00000000000E+00 -0.80665494301E+03  0.80665494302E+03  0.50400001928E-02 0. -1.
    10030    2    1    2    0    0  0.00000000000E+00  0.00000000000E+00  0.81569612961E+02  0.16948794990E+04  0.16929155072E+04 0.  0.
        1    1    3    3  502    0  0.44518263475E+03 -0.14185141556E+02  0.76141283416E+03  0.88212147722E+03  0.50400001928E-02 0.  1.
       -1    1    3    3    0  502 -0.44518263475E+03  0.14185141556E+02 -0.67984322120E+03  0.81275802178E+03  0.50400001928E-02 0. -1.
</event>
<event>
 5   0  0.1893284E-04  0.1702384E+04  0.7818609E-02  0.8760006E-01
        1   -1    0    0  501    0  0.00000000000E+00  0.00000000000E+00  0.81733100935E+03  0.81733100936E+03  0.50400001928E-02 0. -1.
       -1   -1    0    0    0  501  0.00000000000E+00  0.00000000000E+00 -0.88645582195E+03  0.88645582197E+03  0.50400001928E-02 0.  1.
    10030    2    1    2    0    0  0.00000000000E+00  0.00000000000E+00 -0.69124812608E+02  0.17037868313E+04  0.17023840128E+04 0.  0.
        2    1    3    3  502    0  0.64931240779E+03 -0.18999071869E+03 -0.55153888640E+03  0.87286781320E+03  0.25500000920E-02 0.  1.
       -2    1    3    3    0  502 -0.64931240779E+03  0.18999071869E+03  0.48241407380E+03  0.83091901813E+03  0.25500000920E-02 0. -1.
</event>
<event>
 5   0  0.1920289E-04  0.1773469E+04  0.7818609E-02  0.8720537E-01
        1   -1    0    0  501    0  0.00000000000E+00  0.00000000000E+00  0.30591943467E+04  0.30591943467E+04  0.50400001928E-02 0. -1.
       -1   -1    0    0    0  501  0.00000000000E+00  0.00000000000E+00 -0.25702792853E+03  0.25702792858E+03  0.50400001928E-02 0.  1.
    10030    2    1    2    0    0  0.00000000000E+00  0.00000000000E+00  0.28021664182E+04  0.33162222753E+04  0.17734693524E+04 0.  0.
        4    1    3    3  502    0  0.83913240879E+03  0.26430282804E+03  0.16084455686E+04  0.18333297424E+04  0.12699999809E+01 0. -1.
       -4    1    3    3    0  502 -0.83913240879E+03 -0.26430282804E+03  0.11937208496E+04  0.14828925329E+04  0.12699999809E+01 0.  1.
</event>
<event>
 5   0  0.1815663E-04  0.1718170E+04  0.7818609E-02  0.8751068E-01
        1   -1    0    0  501    0  0.00000000000E+00  0.00000000000E+00  0.12071750030E+04  0.12071750030E+04  0.50400001928E-02 0. -1.
       -1   -1    0    0    0  501  0.00000000000E+00  0.00000000000E+00 -0.61136731347E+03  0.61136731349E+03  0.50400001928E-02 0.  1.
    10030    2    1    2    0    0  0.00000000000E+00  0.00000000000E+00  0.59580768954E+03  0.18185423165E+04  0.17181703507E+04 0.  0.
        5    1    3    3  502    0  0.15753828367E+03 -0.83720309016E+03  0.18062500727E+03  0.87084717847E+03  0.46999998093E+01 0.  1.
       -5    1    3    3    0  502 -0.15753828367E+03  0.83720309016E+03  0.41518268226E+03  0.94769513803E+03  0.46999998093E+01 0. -1.
</event>
<event>
 5   0  0.3574092E-04  0.1674842E+04  0.7818609E-02  0.8775844E-01
        2   -1    0    0  501    0  0.00000000000E+00  0.00000000000E+00  0.47011907170E+03  0.47011907170E+03  0.25500000920E-02 0.  1.
       -2   -1    0    0    0  501  0.00000000000E+00  0.00000000000E+00 -0.14916942258E+04  0.14916942258E+04  0.25500000920E-02 0. -1.
    10030    2    1    2    0    0  0.00000000000E+00  0.00000000000E+00 -0.10215751541E+04  0.19618132975E+04  0.16748419683E+04 0.  0.
        3    1    3    3  502    0  0.66742470554E+03 -0.47360673864E+03 -0.30284605735E+03  0.87262524895E+03  0.10100000352E+00 0.  1.
       -3    1    3    3    0  502 -0.66742470554E+03  0.47360673864E+03 -0.71872909679E+03  0.10891880486E+04  0.10100000352E+00 0. -1.
</event>
<event>
 5   0  0.3574092E-04  0.1703961E+04  0.7818609E-02  0.8759109E-01
       -2   -1    0    0    0  501  0.00000000000E+00  0.00000000000E+00  0.31405337670E+03  0.31405337671E+03  0.25500000920E-02 0. -1.
        2   -1    0    0  501    0  0.00000000000E+00  0.00000000000E+00 -0.23112968066E+04  0.23112968066E+04  0.25500000920E-02 0.  1.
    10030    2    1    2    0    0  0.00000000000E+00  0.00000000000E+00 -0.19972434299E+04  0.26253501834E+04  0.17039607586E+04 0.  0.
        3    1    3    3  502    0 -0.20455746003E+03 -0.81033306621E+03 -0.74364479890E+03  0.11187005988E+04  0.10100000352E+00 0.  1.
       -3    1    3    3    0  502  0.20455746003E+03  0.81033306621E+03 -0.12535986311E+04  0.15066495845E+04  0.10100000352E+00 0. -1.
</event>
<event>
 5   0  0.1824538E-04  0.1694070E+04  0.7818609E-02  0.8764754E-01
       -1   -1    0    0    0  501  0.00000000000E+00  0.00000000000E+00  0.43373775979E+03  0.43373775982E+03  0.50400001928E-02 0.  1.
        1   -1    0    0  501    0  0.00000000000E+00  0.00000000000E+00 -0.16541522264E+04  0.16541522264E+04  0.50400001928E-02 0. -1.
    10030    2    1    2    0    0  0.00000000000E+00  0.00000000000E+00 -0.12204144666E+04  0.20878899862E+04  0.16940699880E+04 0.  0.
        3    1    3    3  502    0 -0.69784802911E+03 -0.55925306881E+02 -0.11978623973E+04  0.13874414744E+04  0.10100000352E+00 0. -1.
       -3    1    3    3    0  502  0.69784802911E+03  0.55925306881E+02 -0.22552069258E+02  0.70044851182E+03  0.10100000352E+00 0.  1.
</event>
<event>
 5   0  0.1920289E-04  0.1676764E+04  0.7818609E-02  0.8774728E-01
        1   -1    0    0  501    0  0.00000000000E+00  0.00000000000E+00  0.73680620536E+03  0.73680620537E+03  0.50400001928E-02 0.  1.
       -1   -1    0    0    0  501  0.00000000000E+00  0.00000000000E+00 -0.95396152381E+03  0.95396152382E+03  0.50400001928E-02 0. -1.
    10030    2    1    2    0    0  0.00000000000E+00  0.00000000000E+00 -0.21715531845E+03  0.16907677292E+04  0.16767644682E+04 0.  0.
        4    1    3    3  502    0  0.72381401408E+03  0.22724360380E+03  0.25124525043E+03  0.79916967611E+03  0.12699999809E+01 0.  1.
       -4    1    3    3    0  502 -0.72381401408E+03 -0.22724360380E+03 -0.46840056889E+03  0.89159805309E+03  0.12699999809E+01 0. -1.
</event>
<event>
 5   0  0.1815663E-04  0.1710819E+04  0.7818609E-02  0.8755218E-01
       -1   -1    0    0    0  501  0.00000000000E+00  0.00000000000E+00  0.32659975390E+03  0.32659975394E+03  0.50400001928E-02 0.  1.
        1   -1    0    0  501    0  0.00000000000E+00  0.00000000000E+00 -0.22404359736E+04  0.22404359736E+04  0.50400001928E-02 0. -1.
    10030    2    1    2    0    0  0.00000000000E+00  0.00000000000E+00 -0.19138362197E+04  0.25670357275E+04  0.17108194968E+04 0.  0.
        5    1    3    3  502    0  0.11003625116E+02 -0.77635113667E+03 -0.41828946112E+03  0.88194689776E+03  0.46999998093E+01 0. -1.
       -5    1    3    3    0  502 -0.11003625116E+02  0.77635113667E+03 -0.14955467586E+04  0.16850888298E+04  0.46999998093E+01 0.  1.
</event>
<event>
 5   0  0.3605571E-04  0.1712206E+04  0.7818609E-02  0.8754433E-01
       -2   -1    0    0    0  501  0.00000000000E+00  0.00000000000E+00  0.41945104630E+03  0.41945104631E+03  0.25500000920E-02 0.  1.
        2   -1    0    0  501    0  0.00000000000E+00  0.00000000000E+00 -0.17473133474E+04  0.17473133474E+04  0.25500000920E-02 0. -1.
    10030    2    1    2    0    0  0.00000000000E+00  0.00000000000E+00 -0.13278623011E+04  0.21667643937E+04  0.17122060761E+04 0.  0.
        4    1    3    3  502    0  0.28560223616E+03 -0.36297075628E+03 -0.15761265629E+04  0.16424046281E+04  0.12699999809E+01 0. -1.
       -4    1    3    3    0  502 -0.28560223616E+03  0.36297075628E+03  0.24826426180E+03  0.52435976562E+03  0.12699999809E+01 0.  1.
</event>
<event>
 5   0  0.3605571E-04  0.1704226E+04  0.7818609E-02  0.8758958E-01
        2   -1    0    0  501    0  0.00000000000E+00  0.00000000000E+00  0.10308820798E+04  0.10308820798E+04  0.25500000920E-02 0.  1.
       -2   -1    0    0    0  501  0.00000000000E+00  0.00000000000E+00 -0.70434466815E+03  0.70434466816E+03  0.25500000920E-02 0. -1.
    10030    2    1    2    0    0  0.00000000000E+00  0.00000000000E+00  0.32653741160E+03  0.17352267479E+04  0.17042256850E+04 0.  0.
        4    1    3    3  502    0 -0.68831245616E+03  0.48565568384E+03  0.29389587851E+03  0.89219497916E+03  0.12699999809E+01 0. -1.
       -4    1    3    3    0  502  0.68831245616E+03 -0.48565568384E+03  0.32641533090E+02  0.84303176875E+03  0.12699999809E+01 0.  1.
</event>
<event>
 5   0  0.3574092E-04  0.1706434E+04  0.7818609E-02  0.8757704E-01
       -2   -1    0    0    0  501  0.00000000000E+00  0.00000000000E+00  0.39557357044E+03  0.39557357045E+03  0.25500000920E-02 0.  1.
        2   -1    0    0  501    0  0.00000000000E+00  0.00000000000E+00 -0.18403123494E+04  0.18403123494E+04  0.25500000920E-02 0. -1.
    10030    2    1    2    0    0  0.00000000000E+00  0.00000000000E+00 -0.14447387790E+04  0.22358859198E+04  0.17064336222E+04 0.  0.
        3    1    3    3  502    0  0.18175155859E+03  0.93815823754E+02  0.36297568119E+03  0.41663700409E+03  0.10100000352E+00 0.  1.
       -3    1    3    3    0  502 -0.18175155859E+03 -0.93815823754E+02 -0.18077144601E+04  0.18192489158E+04  0.10100000352E+00 0. -1.
</event>
<event>
 5   0  0.1930116E-04  0.1703748E+04  0.7818609E-02  0.8759230E-01
       -1   -1    0    0    0  501  0.00000000000E+00  0.00000000000E+00  0.88138216198E+03  0.88138216200E+03  0.50400001928E-02 0. -1.
        1   -1    0    0  501    0  0.00000000000E+00  0.00000000000E+00 -0.82335345822E+03  0.82335345824E+03  0.50400001928E-02 0.  1.
    10030    2    1    2    0    0  0.00000000000E+00  0.00000000000E+00  0.58028703760E+02  0.17047356202E+04  0.17037476939E+04 0.  0.
        1    1    3    3  502    0  0.25131090477E+03 -0.79566376372E+02 -0.78151775442E+03  0.82477753341E+03  0.50400001928E-02 0.  1.
       -1    1    3    3    0  502 -0.25131090477E+03  0.79566376372E+02  0.83954645819E+03  0.87995808683E+03  0.50400001928E-02 0. -1.
</event>
<event>
 5   0  0.3605571E-04  0.1710256E+04  0.7818609E-02  0.8755537E-01
        2   -1    0    0  501    0  0.00000000000E+00  0.00000000000E+00  0.65307964834E+03  0.65307964834E+03  0.25500000920E-02 0.  1.
       -2   -1    0    0    0  501  0.00000000000E+00  0.00000000000E+00 -0.11196852812E+04  0.11196852812E+04  0.25500000920E-02 0. -1.
    10030    2    1    2    0    0  0.00000000000E+00  0.00000000000E+00 -0.46660563282E+03  0.17727649295E+04  0.17102557349E+04 0.  0.
        4    1    3    3  502    0  0.43810462615E+03  0.73422201960E+03 -0.21777465091E+03  0.88229532981E+03  0.12699999809E+01 0.  1.
       -4    1    3    3    0  502 -0.43810462615E+03 -0.73422201960E+03 -0.24883098191E+03  0.89046959969E+03  0.12699999809E+01 0. -1.
</event>
<event>
 5   0  0.1920289E-04  0.1704224E+04  0.7818609E-02  0.8758959E-01
        1   -1    0    0  501    0  0.00000000000E+00  0.00000000000E+00  0.20290801663E+04  0.20290801663E+04  0.50400001928E-02 0.  1.
       -1   -1    0    0    0  501  0.00000000000E+00  0.00000000000E+00 -0.35784454584E+03  0.35784454588E+03  0.50400001928E-02 0. -1.
    10030    2    1    2    0    0  0.00000000000E+00  0.00000000000E+00  0.16712356205E+04  0.23869247122E+04  0.17042244813E+04 0.  0.
        4    1    3    3  502    0 -0.16787659573E+03 -0.12622472415E+03  0.19922552312E+04  0.20032967208E+04  0.12699999809E+01 0.  1.
       -4    1    3    3    0  502  0.16787659573E+03  0.12622472415E+03 -0.32101961076E+03  0.38362799138E+03  0.12699999809E+01 0. -1.
</event>
<event>
 5   0  0.3516723E-04  0.1761250E+04  0.7818609E-02  0.8727182E-01
        2   -1    0    0  501    0  0.00000000000E+00  0.00000000000E+00  0.13903519224E+04  0.13903519224E+04  0.25500000920E-02 0.  1.
       -2   -1    0    0    0  501  0.00000000000E+00  0.00000000000E+00 -0.55777282302E+03  0.55777282303E+03  0.25500000920E-02 0. -1.
    10030    2    1    2    0    0  0.00000000000E+00  0.00000000000E+00  0.83257909937E+03  0.19481247454E+04  0.17612501432E+04 0.  0.
        1    1    3    3  502    0 -0.19672059683E+03  0.59982837973E+03  0.10954473310E+04  0.12643171807E+04  0.50400001928E-02 0.  1.
       -1    1    3    3    0  502  0.19672059683E+03 -0.59982837973E+03 -0.26286823165E+03  0.68380756473E+03  0.50400001928E-02 0. -1.
</event>
<event>
 5   0  0.3573262E-04  0.1907518E+04  0.7818609E-02  0.8651123E-01
        2   -1    0    0  501    0  0.00000000000E+00  0.00000000000E+00  0.69051487634E+03  0.69051487634E+03  0.25500000920E-02 0. -1.
       -2   -1    0    0    0  501  0.00000000000E+00  0.00000000000E+00 -0.13173600056E+04  0.13173600056E+04  0.25500000920E-02 0.  1.
    10030    2    1    2    0    0  0.00000000000E+00  0.00000000000E+00 -0.62684512930E+03  0.20078748820E+04  0.19075184732E+04 0.  0.
        5    1    3    3  502    0  0.84044132972E+03 -0.42266088327E+03 -0.14815680706E+03  0.95234257514E+03  0.46999998093E+01 0. -1.
       -5    1    3    3    0  502 -0.84044132972E+03  0.42266088327E+03 -0.47868832224E+03  0.10555323068E+04  0.46999998093E+01 0.  1.
</event>
<event>
 5   0  0.1930116E-04  0.1705979E+04  0.7818609E-02  0.8757962E-01
       -1   -1    0    0    0  501  0.00000000000E+00  0.00000000000E+00  0.73148156473E+03  0.73148156474E+03  0.50400001928E-02 0.  1.
        1   -1    0    0  501    0  0.00000000000E+00  0.00000000000E+00 -0.99468135206E+03  0.99468135207E+03  0.50400001928E-02 0. -1.
    10030    2    1    2    0    0  0.00000000000E+00  0.00000000000E+00 -0.26319978733E+03  0.17261629168E+04  0.17059789821E+04 0.  0.
        1    1    3    3  502    0 -0.46938120158E+03 -0.67866830531E+03  0.87015830013E+02  0.82974763376E+03  0.50400001928E-02 0.  1.
       -1    1    3    3    0  502  0.46938120158E+03  0.67866830531E+03 -0.35021561735E+03  0.89641528306E+03  0.50400001928E-02 0. -1.
</event>
<event>
 5   0  0.1930116E-04  0.1669734E+04  0.7818609E-02  0.8778817E-01
        1   -1    0    0  501    0  0.00000000000E+00  0.00000000000E+00  0.17919313096E+04  0.17919313096E+04  0.50400001928E-02 0. -1.
       -1   -1    0    0    0  501  0.00000000000E+00  0.00000000000E+00 -0.38896765694E+03  0.38896765697E+03  0.50400001928E-02 0.  1.
    10030    2    1    2    0    0  0.00000000000E+00  0.00000000000E+00  0.14029636526E+04  0.21808989666E+04  0.16697344974E+04 0.  0.
        1    1    3    3  502    0 -0.26082996673E+03  0.79000071496E+03  0.79263024047E+03  0.11490848965E+04  0.50400001928E-02 0. -1.
       -1    1    3    3    0  502  0.26082996673E+03 -0.79000071496E+03  0.61033341217E+03  0.10318140701E+04  0.50400001928E-02 0.  1.
</event>
<event>
 5   0  0.1920289E-04  0.1698598E+04  0.7818609E-02  0.8762164E-01
        1   -1    0    0  501    0  0.00000000000E+00  0.00000000000E+00  0.58989526357E+03  0.58989526359E+03  0.50400001928E-02 0. -1.
       -1   -1    0    0    0  501  0.00000000000E+00  0.00000000000E+00 -0.12227740935E+04  0.12227740935E+04  0.50400001928E-02 0.  1.
    10030    2    1    2    0    0  0.00000000000E+00  0.00000000000E+00 -0.63287882993E+03  0.18126693571E+04  0.16985978290E+04 0.  0.
        4    1    3    3  502    0  0.54162041521E+03  0.51578726024E+03 -0.74585263226E+03  0.10562608267E+04  0.12699999809E+01 0.  1.
       -4    1    3    3    0  502 -0.54162041521E+03 -0.51578726024E+03  0.11297380233E+03  0.75640853043E+03  0.12699999809E+01 0. -1.
</event>
<event>
 5   0  0.3605571E-04  0.1707223E+04  0.7818609E-02  0.8757256E-01
        2   -1    0    0  501    0  0.00000000000E+00  0.00000000000E+00  0.14120937387E+04  0.14120937387E+04  0.25500000920E-02 0.  1.
       -2   -1    0    0    0  501  0.00000000000E+00  0.00000000000E+00 -0.51600864377E+03  0.51600864377E+03  0.25500000920E-02 0. -1.
    10030    2    1    2    0    0  0.00000000000E+00  0.00000000000E+00  0.89608509492E+03  0.19281023825E+04  0.17072229790E+04 0.  0.
        4    1    3    3  502    0 -0.83221288368E+03 -0.57408284343E+02  0.24357507572E+03  0.86902498542E+03  0.12699999809E+01 0. -1.
       -4    1    3    3    0  502  0.83221288368E+03  0.57408284343E+02  0.65251001920E+03  0.10590773970E+04  0.12699999809E+01 0.  1.
</event>
<event>
 5   0  0.1930116E-04  0.1678461E+04  0.7818609E-02  0.8773745E-01
       -1   -1    0    0    0  501  0.00000000000E+00  0.00000000000E+00  0.61961737280E+03  0.61961737282E+03  0.50400001928E-02 0. -1.
        1   -1    0    0  501    0  0.00000000000E+00  0.00000000000E+00 -0.11366823207E+04  0.11366823207E+04  0.50400001928E-02 0.  1.
    10030    2    1    2    0    0  0.00000000000E+00  0.00000000000E+00 -0.51706494786E+03  0.17562996935E+04  0.16784613350E+04 0.  0.
        1    1    3    3  502    0  0.59421729707E+02 -0.19651329076E+03 -0.11100011118E+04  0.11288272160E+04  0.50400001928E-02 0.  1.
       -1    1    3    3    0  502 -0.59421729707E+02  0.19651329076E+03  0.59293616396E+03  0.62747247746E+03  0.50400001928E-02 0. -1.
</event>
<event>
 5   0  0.3516723E-04  0.1688537E+04  0.7818609E-02  0.8767929E-01
       -2   -1    0    0    0  501  0.00000000000E+00  0.00000000000E+00  0.33995061963E+03  0.33995061964E+03  0.25500000920E-02 0. -1.
        2   -1    0    0  501    0  0.00000000000E+00  0.00000000000E+00 -0.20967431511E+04  0.20967431511E+04  0.25500000920E-02 0.  1.
    10030    2    1    2    0    0  0.00000000000E+00  0.00000000000E+00 -0.17567925315E+04  0.24366937707E+04  0.16885368026E+04 0.  0.
        1    1    3    3  502    0 -0.46664766387E+03 -0.69488319393E+03 -0.71922225999E+03  0.11035865869E+04  0.50400001928E-02 0. -1.
       -1    1    3    3    0  502  0.46664766387E+03  0.69488319393E+03 -0.10375702715E+04  0.13331071839E+04  0.50400001928E-02 0.  1.
</event>
<event>
 5   0  0.1317625E-04  0.1696284E+04  0.7818609E-02  0.8763486E-01
       -3   -1    0    0    0  501  0.00000000000E+00  0.00000000000E+00  0.61095140868E+03  0.61095141703E+03  0.10100000352E+00 0.  1.
        3   -1    0    0  501    0  0.00000000000E+00  0.00000000000E+00 -0.11774180430E+04  0.11774180474E+04  0.10100000352E+00 0. -1.
    10030    2    1    2    0    0  0.00000000000E+00  0.00000000000E+00 -0.56646663436E+03  0.17883694644E+04  0.16962844376E+04 0.  0.
        5    1    3    3  502    0 -0.45084811920E+03 -0.61298355305E+03  0.11168138204E+03  0.76909536729E+03  0.46999998093E+01 0.  1.
       -5    1    3    3    0  502  0.45084811920E+03  0.61298355305E+03 -0.67814801640E+03  0.10192740971E+04  0.46999998093E+01 0. -1.
</event>
<event>
 5   0  0.1815663E-04  0.1656620E+04  0.7818609E-02  0.8786500E-01
        1   -1    0    0  501    0  0.00000000000E+00  0.00000000000E+00  0.12047642646E+04  0.12047642647E+04  0.50400001928E-02 0.  1.
       -1   -1    0    0    0  501  0.00000000000E+00  0.00000000000E+00 -0.56948680691E+03  0.56948680693E+03  0.50400001928E-02 0. -1.
    10030    2    1    2    0    0  0.00000000000E+00  0.00000000000E+00  0.63527745774E+03  0.17742510716E+04  0.16566198770E+04 0.  0.
        5    1    3    3  502    0  0.24081464796E+03  0.68635787221E+03 -0.10672388092E+03  0.73518086222E+03  0.46999998093E+01 0. -1.
       -5    1    3    3    0  502 -0.24081464796E+03 -0.68635787221E+03  0.74200133866E+03  0.10390702094E+04  0.46999998093E+01 0.  1.
</event>
<event>
 5   0  0.3574092E-04  0.1746625E+04  0.7818609E-02  0.8735210E-01
       -2   -1    0    0    0  501  0.00000000000E+00  0.00000000000E+00  0.13364410759E+04  0.13364410759E+04  0.25500000920E-02 0.  1.
        2   -1    0    0  501    0  0.00000000000E+00  0.00000000000E+00 -0.57067612749E+03  0.57067612749E+03  0.25500000920E-02 0. -1.
    10030    2    1    2    0    0  0.00000000000E+00  0.00000000000E+00  0.76576494839E+03  0.19071172034E+04  0.17466253380E+04 0.  0.
        3    1    3    3  502    0  0.43411574622E+03  0.75435503254E+03  0.46136940318E+03  0.98507346560E+03  0.10100000352E+00 0.  1.
       -3    1    3    3    0  502 -0.43411574622E+03 -0.75435503254E+03  0.30439554520E+03  0.92204373777E+03  0.10100000352E+00 0. -1.
</event>
<event>
 5   0  0.1930116E-04  0.1593337E+04  0.7818609E-02  0.8824652E-01
       -1   -1    0    0    0  501  0.00000000000E+00  0.00000000000E+00  0.10382869467E+04  0.10382869467E+04  0.50400001928E-02 0. -1.
        1   -1    0    0  501    0  0.00000000000E+00  0.00000000000E+00 -0.61127689390E+03  0.61127689392E+03  0.50400001928E-02 0.  1.
    10030    2    1    2    0    0  0.00000000000E+00  0.00000000000E+00  0.42701005283E+03  0.16495638407E+04  0.15933371518E+04 0.  0.
        1    1    3    3  502    0 -0.35625971865E+03  0.35965865092E+02 -0.52327308854E+03  0.63405777008E+03  0.50400001928E-02 0.  1.
       -1    1    3    3    0  502  0.35625971865E+03 -0.35965865092E+02  0.95028314137E+03  0.10155060706E+04  0.50400001928E-02 0. -1.
</event>
<event>
 5   0  0.1815663E-04  0.1670596E+04  0.7818609E-02  0.8778315E-01
       -1   -1    0    0    0  501  0.00000000000E+00  0.00000000000E+00  0.10385339163E+04  0.10385339164E+04  0.50400001928E-02 0. -1.
        1   -1    0    0  501    0  0.00000000000E+00  0.00000000000E+00 -0.67183406565E+03  0.67183406567E+03  0.50400001928E-02 0.  1.
    10030    2    1    2    0    0  0.00000000000E+00  0.00000000000E+00  0.36669985070E+03  0.17103679820E+04  0.16705956583E+04 0.  0.
        5    1    3    3  502    0 -0.10115777020E+03 -0.11810670307E+03  0.10235697128E+04  0.10353256178E+04  0.46999998093E+01 0. -1.
       -5    1    3    3    0  502  0.10115777020E+03  0.11810670307E+03 -0.65686986213E+03  0.67504236427E+03  0.46999998093E+01 0.  1.
</event>
<event>
 5   0  0.3573262E-04  0.1669327E+04  0.7818609E-02  0.8779054E-01
        2   -1    0    0  501    0  0.00000000000E+00  0.00000000000E+00  0.90584962554E+03  0.90584962555E+03  0.25500000920E-02 0.  1.
       -2   -1    0    0    0  501  0.00000000000E+00  0.00000000000E+00 -0.76907177056E+03  0.76907177057E+03  0.25500000920E-02 0. -1.
    10030    2    1    2    0    0  0.00000000000E+00  0.00000000000E+00  0.13677785498E+03  0.16749213961E+04  0.16693272602E+04 0.  0.
        5    1    3    3  502    0 -0.61212414084E+02 -0.25045257684E+03 -0.72810241614E+03  0.77241742036E+03  0.46999998093E+01 0. -1.
       -5    1    3    3    0  502  0.61212414084E+02  0.25045257684E+03  0.86488027112E+03  0.90250397576E+03  0.46999998093E+01 0.  1.
</event>
<event>
 5   0  0.1930116E-04  0.1708578E+04  0.7818609E-02  0.8756487E-01
        1   -1    0    0  501    0  0.00000000000E+00  0.00000000000E+00  0.87167863957E+03  0.87167863959E+03  0.50400001928E-02 0. -1.
       -1   -1    0    0    0  501  0.00000000000E+00  0.00000000000E+00 -0.83724639320E+03  0.83724639321E+03  0.50400001928E-02 0.  1.
    10030    2    1    2    0    0  0.00000000000E+00  0.00000000000E+00  0.34432246375E+02  0.17089250328E+04  0.17085781188E+04 0.  0.
        1    1    3    3  502    0  0.66346350884E+03  0.26688538859E+03 -0.45020965276E+03  0.84504459626E+03  0.50400001928E-02 0.  1.
       -1    1    3    3    0  502 -0.66346350884E+03 -0.26688538859E+03  0.48464189913E+03  0.86388043654E+03  0.50400001928E-02 0. -1.
</event>
<event>
 5   0  0.1815663E-04  0.1661305E+04  0.7818609E-02  0.8783746E-01
       -1   -1    0    0    0  501  0.00000000000E+00  0.00000000000E+00  0.87382015746E+03  0.87382015748E+03  0.50400001928E-02 0. -1.
        1   -1    0    0  501    0  0.00000000000E+00  0.00000000000E+00 -0.78961765473E+03  0.78961765475E+03  0.50400001928E-02 0.  1.
    10030    2    1    2    0    0  0.00000000000E+00  0.00000000000E+00  0.84202502728E+02  0.16634378122E+04  0.16613052982E+04 0.  0.
        5    1    3    3  502    0  0.69681932902E+03 -0.22460420512E+03  0.43497911044E+03  0.85160621345E+03  0.46999998093E+01 0. -1.
       -5    1    3    3    0  502 -0.69681932902E+03  0.22460420512E+03 -0.35077660772E+03  0.81183159878E+03  0.46999998093E+01 0.  1.
</event>
<event>
 5   0  0.1824538E-04  0.1662279E+04  0.7818609E-02  0.8783176E-01
        1   -1    0    0  501    0  0.00000000000E+00  0.00000000000E+00  0.10111515700E+04  0.10111515701E+04  0.50400001928E-02 0. -1.
       -1   -1    0    0    0  501  0.00000000000E+00  0.00000000000E+00 -0.68317406909E+03  0.68317406910E+03  0.50400001928E-02 0.  1.
    10030    2    1    2    0    0  0.00000000000E+00  0.00000000000E+00  0.32797750096E+03  0.16943256392E+04  0.16622785959E+04 0.  0.
        3    1    3    3  502    0 -0.23789750314E+03  0.73122047514E+03 -0.15755122979E+03  0.78492101863E+03  0.10100000352E+00 0.  1.
       -3    1    3    3    0  502  0.23789750314E+03 -0.73122047514E+03  0.48552873075E+03  0.90940462054E+03  0.10100000352E+00 0. -1.
</event>
<event>
 5   0  0.3605571E-04  0.1668365E+04  0.7818609E-02  0.8779615E-01
       -2   -1    0    0    0  501  0.00000000000E+00  0.00000000000E+00  0.59972327472E+03  0.59972327473E+03  0.25500000920E-02 0.  1.
        2   -1    0    0  501    0  0.00000000000E+00  0.00000000000E+00 -0.11603028701E+04  0.11603028701E+04  0.25500000920E-02 0. -1.
    10030    2    1    2    0    0  0.00000000000E+00  0.00000000000E+00 -0.56057959539E+03  0.17600261448E+04  0.16683652321E+04 0.  0.
        4    1    3    3  502    0 -0.26921957125E+03 -0.63437973761E+03  0.21557961565E+03  0.72207548955E+03  0.12699999809E+01 0.  1.
       -4    1    3    3    0  502  0.26921957125E+03  0.63437973761E+03 -0.77615921104E+03  0.10379506553E+04  0.12699999809E+01 0. -1.
</event>
<event>
 5   0  0.1893284E-04  0.1709508E+04  0.7818609E-02  0.8755960E-01
       -1   -1    0    0    0  501  0.00000000000E+00  0.00000000000E+00  0.71533112794E+03  0.71533112796E+03  0.50400001928E-02 0. -1.
        1   -1    0    0  501    0  0.00000000000E+00  0.00000000000E+00 -0.10213513069E+04  0.10213513069E+04  0.50400001928E-02 0.  1.
    10030    2    1    2    0    0  0.00000000000E+00  0.00000000000E+00 -0.30602017893E+03  0.17366824348E+04  0.17095079788E+04 0.  0.
        2    1    3    3  502    0 -0.32795711541E+03  0.36945677279E+03 -0.86162960704E+03  0.99320680436E+03  0.25500000920E-02 0.  1.
       -2    1    3    3    0  502  0.32795711541E+03 -0.36945677279E+03  0.55560942810E+03  0.74347563048E+03  0.25500000920E-02 0. -1.
</event>
<event>
 5   0  0.1317625E-04  0.1694445E+04  0.7818609E-02  0.8764539E-01
        3   -1    0    0  501    0  0.00000000000E+00  0.00000000000E+00  0.57540087520E+03  0.57540088407E+03  0.10100000352E+00 0. -1.
       -3   -1    0    0    0  501  0.00000000000E+00  0.00000000000E+00 -0.12474535779E+04  0.12474535820E+04  0.10100000352E+00 0.  1.
    10030    2    1    2    0    0  0.00000000000E+00  0.00000000000E+00 -0.67205270272E+03  0.18228544661E+04  0.16944449148E+04 0.  0.
        3    1    3    3  502    0 -0.35422292157E+03  0.89106639905E+02 -0.11584001125E+04  0.12146212176E+04  0.10100000352E+00 0.  1.
       -3    1    3    3    0  502  0.35422292157E+03 -0.89106639905E+02  0.48634740973E+03  0.60823324851E+03  0.10100000352E+00 0. -1.
</event>
<event>
 5   0  0.3516723E-04  0.1682273E+04  0.7818609E-02  0.8771540E-01
        2   -1    0    0  501    0  0.00000000000E+00  0.00000000000E+00  0.25111467448E+04  0.25111467448E+04  0.25500000920E-02 0.  1.
       -2   -1    0    0    0  501  0.00000000000E+00  0.00000000000E+00 -0.28174817007E+03  0.28174817008E+03  0.25500000920E-02 0. -1.
    10030    2    1    2    0    0  0.00000000000E+00  0.00000000000E+00  0.22293985747E+04  0.27928949149E+04  0.16822734619E+04 0.  0.
        1    1    3    3  502    0 -0.11724877560E+03  0.52873815644E+03  0.46227930213E+02  0.54355159370E+03  0.50400001928E-02 0. -1.
       -1    1    3    3    0  502  0.11724877560E+03 -0.52873815644E+03  0.21831706445E+04  0.22493433212E+04  0.50400001928E-02 0.  1.
</event>
<event>
 5   0  0.3605571E-04  0.1705518E+04  0.7818609E-02  0.8758223E-01
       -2   -1    0    0    0  501  0.00000000000E+00  0.00000000000E+00  0.39772142845E+03  0.39772142846E+03  0.25500000920E-02 0.  1.
        2   -1    0    0  501    0  0.00000000000E+00  0.00000000000E+00 -0.18284111488E+04  0.18284111488E+04  0.25500000920E-02 0. -1.
    10030    2    1    2    0    0  0.00000000000E+00  0.00000000000E+00 -0.14306897204E+04  0.22261325773E+04  0.17055184478E+04 0.  0.
        4    1    3    3  502    0  0.24563276072E+02  0.17826285067E+03 -0.18033461494E+04  0.18123023881E+04  0.12699999809E+01 0. -1.
       -4    1    3    3    0  502 -0.24563276072E+02 -0.17826285067E+03  0.37265642904E+03  0.41383018917E+03  0.12699999809E+01 0.  1.
</event>
<event>
 5   0  0.3605571E-04  0.1684114E+04  0.7818609E-02  0.8770477E-01
       -2   -1    0    0    0  501  0.00000000000E+00  0.00000000000E+00  0.34126052701E+03  0.34126052702E+03  0.25500000920E-02 0. -1.
        2   -1    0    0  501    0  0.00000000000E+00  0.00000000000E+00 -0.20777674090E+04  0.20777674090E+04  0.25500000920E-02 0.  1.
    10030    2    1    2    0    0  0.00000000000E+00  0.00000000000E+00 -0.17365068820E+04  0.24190279360E+04  0.16841140116E+04 0.  0.
        4    1    3    3  502    0 -0.56248023958E+03 -0.16398313858E+03  0.47029292358E+00  0.58589787824E+03  0.12699999809E+01 0. -1.
       -4    1    3    3    0  502  0.56248023958E+03  0.16398313858E+03 -0.17369771749E+04  0.18331300578E+04  0.12699999809E+01 0.  1.
</event>
<event>
 5   0  0.3605571E-04  0.1717937E+04  0.7818609E-02  0.8751200E-01
       -2   -1    0    0    0  501  0.00000000000E+00  0.00000000000E+00  0.12395505435E+04  0.12395505435E+04  0.25500000920E-02 0.  1.
        2   -1    0    0  501    0  0.00000000000E+00  0.00000000000E+00 -0.59523759089E+03  0.59523759090E+03  0.25500000920E-02 0. -1.
    10030    2    1    2    0    0  0.00000000000E+00  0.00000000000E+00  0.64431295263E+03  0.18347881344E+04  0.17179372274E+04 0.  0.
        4    1    3    3  502    0  0.30716796558E+03 -0.80199524696E+03  0.30438331960E+03  0.91115276072E+03  0.12699999809E+01 0. -1.
       -4    1    3    3    0  502 -0.30716796558E+03  0.80199524696E+03  0.33992963303E+03  0.92363537369E+03  0.12699999809E+01 0.  1.
</event>
<event>
 5   0  0.3574092E-04  0.1701313E+04  0.7818609E-02  0.8760616E-01
       -2   -1    0    0    0  501  0.00000000000E+00  0.00000000000E+00  0.52493040444E+03  0.52493040445E+03  0.25500000920E-02 0.  1.
        2   -1    0    0  501    0  0.00000000000E+00  0.00000000000E+00 -0.13784998796E+04  0.13784998796E+04  0.25500000920E-02 0. -1.
    10030    2    1    2    0    0  0.00000000000E+00  0.00000000000E+00 -0.85356947511E+03  0.19034302840E+04  0.17013130215E+04 0.  0.
        3    1    3    3  502    0 -0.53263463025E+03  0.45394858989E+03 -0.96781197612E+03  0.11943320321E+04  0.10100000352E+00 0. -1.
       -3    1    3    3    0  502  0.53263463025E+03 -0.45394858989E+03  0.11424250101E+03  0.70909825190E+03  0.10100000352E+00 0.  1.
</event>
<event>
 5   0  0.1824538E-04  0.1688329E+04  0.7818609E-02  0.8768049E-01
       -1   -1    0    0    0  501  0.00000000000E+00  0.00000000000E+00  0.69398853211E+03  0.69398853213E+03  0.50400001928E-02 0. -1.
        1   -1    0    0  501    0  0.00000000000E+00  0.00000000000E+00 -0.10268374556E+04  0.10268374556E+04  0.50400001928E-02 0.  1.
    10030    2    1    2    0    0  0.00000000000E+00  0.00000000000E+00 -0.33284892349E+03  0.17208259877E+04  0.16883286630E+04 0.  0.
        3    1    3    3  502    0  0.76151387600E+03 -0.98666386497E+02  0.19100333471E+03  0.79127790518E+03  0.10100000352E+00 0. -1.
       -3    1    3    3    0  502 -0.76151387600E+03  0.98666386497E+02 -0.52385225820E+03  0.92954808255E+03  0.10100000352E+00 0.  1.
</event>
<event>
 5   0  0.1920289E-04  0.1663898E+04  0.7818609E-02  0.8782227E-01
        1   -1    0    0  501    0  0.00000000000E+00  0.00000000000E+00  0.92021227283E+03  0.92021227284E+03  0.50400001928E-02 0.  1.
       -1   -1    0    0    0  501  0.00000000000E+00  0.00000000000E+00 -0.75215170574E+03  0.75215170576E+03  0.50400001928E-02 0. -1.
    10030    2    1    2    0    0  0.00000000000E+00  0.00000000000E+00  0.16806056709E+03  0.16723639786E+04  0.16638981107E+04 0.  0.
        4    1    3    3  502    0 -0.49601406146E+03 -0.29981762748E+03 -0.51584564168E+03  0.77589876779E+03  0.12699999809E+01 0. -1.
       -4    1    3    3    0  502  0.49601406146E+03  0.29981762748E+03  0.68390620877E+03  0.89646521082E+03  0.12699999809E+01 0.  1.
</event>
<event>
 5   0  0.3574092E-04  0.1734969E+04  0.7818609E-02  0.8741668E-01
        2   -1    0    0  501    0  0.00000000000E+00  0.00000000000E+00  0.14047756775E+04  0.14047756775E+04  0.25500000920E-02 0. -1.
       -2   -1    0    0    0  501  0.00000000000E+00  0.00000000000E+00 -0.53569354426E+03  0.53569354427E+03  0.25500000920E-02 0.  1.
    10030    2    1    2    0    0  0.00000000000E+00  0.00000000000E+00  0.86908213322E+03  0.19404692217E+04  0.17349688891E+04 0.  0.
        3    1    3    3  502    0  0.26463562812E+03  0.49679678224E+03 -0.30370978949E+03  0.63959260858E+03  0.10100000352E+00 0.  1.
       -3    1    3    3    0  502 -0.26463562812E+03 -0.49679678224E+03  0.11727919227E+04  0.13008766132E+04  0.10100000352E+00 0. -1.
</event>
<event>
 5   0  0.3678896E-04  0.1685252E+04  0.7818609E-02  0.8769821E-01
        2   -1    0    0  501    0  0.00000000000E+00  0.00000000000E+00  0.15925989500E+04  0.15925989500E+04  0.25500000920E-02 0. -1.
       -2   -1    0    0    0  501  0.00000000000E+00  0.00000000000E+00 -0.44582397057E+03  0.44582397058E+03  0.25500000920E-02 0.  1.
    10030    2    1    2    0    0  0.00000000000E+00  0.00000000000E+00  0.11467749794E+04  0.20384229205E+04  0.16852522510E+04 0.  0.
        2    1    3    3  502    0 -0.12427843648E+03 -0.27604239363E+03 -0.37777579505E+03  0.48410648021E+03  0.25500000920E-02 0.  1.
       -2    1    3    3    0  502  0.12427843648E+03  0.27604239363E+03  0.15245507744E+04  0.15543164403E+04  0.25500000920E-02 0. -1.
</event>
<event>
 5   0  0.1930116E-04  0.1701060E+04  0.7818609E-02  0.8760760E-01
       -1   -1    0    0    0  501  0.00000000000E+00  0.00000000000E+00  0.45818741500E+03  0.45818741503E+03  0.50400001928E-02 0.  1.
        1   -1    0    0  501    0  0.00000000000E+00  0.00000000000E+00 -0.15788327038E+04  0.15788327038E+04  0.50400001928E-02 0. -1.
    10030    2    1    2    0    0  0.00000000000E+00  0.00000000000E+00 -0.11206452888E+04  0.20370201188E+04  0.17010599934E+04 0.  0.
        1    1    3    3  502    0  0.44086706196E+03 -0.28050939641E+03 -0.13639444816E+04  0.14606141984E+04  0.50400001928E-02 0. -1.
       -1    1    3    3    0  502 -0.44086706196E+03  0.28050939641E+03  0.24329919281E+03  0.57640592038E+03  0.50400001928E-02 0.  1.
</event>
<event>
 5   0  0.3516723E-04  0.1709065E+04  0.7818609E-02  0.8756211E-01
        2   -1    0    0  501    0  0.00000000000E+00  0.00000000000E+00  0.18058607327E+04  0.18058607327E+04  0.25500000920E-02 0.  1.
       -2   -1    0    0    0  501  0.00000000000E+00  0.00000000000E+00 -0.40436427527E+03  0.40436427528E+03  0.25500000920E-02 0. -1.
    10030    2    1    2    0    0  0.00000000000E+00  0.00000000000E+00  0.14014964575E+04  0.22102250080E+04  0.17090647342E+04 0.  0.
        1    1    3    3  502    0  0.36633419318E+02 -0.63341301267E+03  0.14410304508E+04  0.15745230427E+04  0.50400001928E-02 0.  1.
       -1    1    3    3    0  502 -0.36633419318E+02  0.63341301267E+03 -0.39533993289E+02  0.63570196530E+03  0.50400001928E-02 0. -1.
</event>
<event>
 5   0  0.1893284E-04  0.1693350E+04  0.7818609E-02  0.8765166E-01
       -1   -1    0    0    0  501  0.00000000000E+00  0.00000000000E+00  0.63384929054E+03  0.63384929056E+03  0.50400001928E-02 0. -1.
        1   -1    0    0  501    0  0.00000000000E+00  0.00000000000E+00 -0.11309606507E+04  0.11309606507E+04  0.50400001928E-02 0.  1.
    10030    2    1    2    0    0  0.00000000000E+00  0.00000000000E+00 -0.49711136017E+03  0.17648099413E+04  0.16933500596E+04 0.  0.
        2    1    3    3  502    0 -0.10723254974E+03  0.81669018412E+03 -0.45272303698E+03  0.93991479656E+03  0.25500000920E-02 0. -1.
       -2    1    3    3    0  502  0.10723254974E+03 -0.81669018412E+03 -0.44388323194E+02  0.82489514474E+03  0.25500000920E-02 0.  1.
</event>
<event>
 5   0  0.3573262E-04  0.1696676E+04  0.7818609E-02  0.8763262E-01
        2   -1    0    0  501    0  0.00000000000E+00  0.00000000000E+00  0.29535096677E+04  0.29535096677E+04  0.25500000920E-02 0.  1.
       -2   -1    0    0    0  501  0.00000000000E+00  0.00000000000E+00 -0.24366865909E+03  0.24366865911E+03  0.25500000920E-02 0. -1.
    10030    2    1    2    0    0  0.00000000000E+00  0.00000000000E+00  0.27098410086E+04  0.31971783268E+04  0.16966764457E+04 0.  0.
        5    1    3    3  502    0 -0.78217304688E+03  0.60440108748E+02  0.19632211731E+04  0.21141681926E+04  0.46999998093E+01 0. -1.
       -5    1    3    3    0  502  0.78217304688E+03 -0.60440108748E+02  0.74661983542E+03  0.10830101341E+04  0.46999998093E+01 0.  1.
</event>
<event>
 5   0  0.1893284E-04  0.1611226E+04  0.7818609E-02  0.8813681E-01
       -1   -1    0    0    0  501  0.00000000000E+00  0.00000000000E+00  0.11619617809E+04  0.11619617809E+04  0.50400001928E-02 0. -1.
        1   -1    0    0  501    0  0.00000000000E+00  0.00000000000E+00 -0.55854907687E+03  0.55854907689E+03  0.50400001928E-02 0.  1.
    10030    2    1    2    0    0  0.00000000000E+00  0.00000000000E+00  0.60341270399E+03  0.17205108578E+04  0.16112264646E+04 0.  0.
        2    1    3    3  502    0 -0.62808371918E+03 -0.46908865483E+02  0.83809468115E+03  0.10483760273E+04  0.25500000920E-02 0. -1.
       -2    1    3    3    0  502  0.62808371918E+03  0.46908865483E+02 -0.23468197715E+03  0.67213483050E+03  0.25500000920E-02 0.  1.
</event>
<event>
 5   0  0.1824538E-04  0.1720824E+04  0.7818609E-02  0.8749576E-01
       -1   -1    0    0    0  501  0.00000000000E+00  0.00000000000E+00  0.42814408365E+03  0.42814408368E+03  0.50400001928E-02 0. -1.
        1   -1    0    0  501    0  0.00000000000E+00  0.00000000000E+00 -0.17291110534E+04  0.17291110534E+04  0.50400001928E-02 0.  1.
    10030    2    1    2    0    0  0.00000000000E+00  0.00000000000E+00 -0.13009669698E+04  0.21572551371E+04  0.17208238347E+04 0.  0.
        3    1    3    3  502    0 -0.66126274341E+03 -0.75799535431E+02 -0.13340151873E+04  0.14908422169E+04  0.10100000352E+00 0.  1.
       -3    1    3    3    0  502  0.66126274341E+03  0.75799535431E+02  0.33048217545E+02  0.66641292025E+03  0.10100000352E+00 0. -1.
</event>
<event>
 5   0  0.1815663E-04  0.1636359E+04  0.7818609E-02  0.8798518E-01
       -1   -1    0    0    0  501  0.00000000000E+00  0.00000000000E+00  0.79047357413E+03  0.79047357415E+03  0.50400001928E-02 0. -1.
        1   -1    0    0  501    0  0.00000000000E+00  0.00000000000E+00 -0.84685601339E+03  0.84685601340E+03  0.50400001928E-02 0.  1.
    10030    2    1    2    0    0  0.00000000000E+00  0.00000000000E+00 -0.56382439259E+02  0.16373295875E+04  0.16363585178E+04 0.  0.
        5    1    3    3  502    0 -0.55262228599E+03  0.43488736275E+03 -0.44662211893E+03  0.83307371605E+03  0.46999998093E+01 0.  1.
       -5    1    3    3    0  502  0.55262228599E+03 -0.43488736275E+03  0.39023967968E+03  0.80425587150E+03  0.46999998093E+01 0. -1.
</event>
<event>
 5   0  0.3516723E-04  0.1648166E+04  0.7818609E-02  0.8791492E-01
       -2   -1    0    0    0  501  0.00000000000E+00  0.00000000000E+00  0.98857622278E+03  0.98857622278E+03  0.25500000920E-02 0.  1.
        2   -1    0    0  501    0  0.00000000000E+00  0.00000000000E+00 -0.68696069566E+03  0.68696069566E+03  0.25500000920E-02 0. -1.
    10030    2    1    2    0    0  0.00000000000E+00  0.00000000000E+00  0.30161552712E+03  0.16755369184E+04  0.16481662655E+04 0.  0.
        1    1    3    3  502    0 -0.61381962763E+03 -0.22253735455E+03 -0.36034994565E+03  0.74575431127E+03  0.50400001928E-02 0. -1.
       -1    1    3    3    0  502  0.61381962763E+03  0.22253735455E+03  0.66196547277E+03  0.92978260717E+03  0.50400001928E-02 0.  1.
</event>
<event>
 5   0  0.1824538E-04  0.1686281E+04  0.7818609E-02  0.8769228E-01
        1   -1    0    0  501    0  0.00000000000E+00  0.00000000000E+00  0.65799215548E+03  0.65799215550E+03  0.50400001928E-02 0.  1.
       -1   -1    0    0    0  501  0.00000000000E+00  0.00000000000E+00 -0.10803859653E+04  0.10803859653E+04  0.50400001928E-02 0. -1.
    10030    2    1    2    0    0  0.00000000000E+00  0.00000000000E+00 -0.42239380978E+03  0.17383781208E+04  0.16862805105E+04 0.  0.
        3    1    3    3  502    0  0.46585635784E+03 -0.78979465291E+02 -0.93107285654E+03  0.10441056347E+04  0.10100000352E+00 0. -1.
       -3    1    3    3    0  502 -0.46585635784E+03  0.78979465291E+02  0.50867904676E+03  0.69427248605E+03  0.10100000352E+00 0.  1.
</event>
<event>
 5   0  0.3678896E-04  0.1663909E+04  0.7818609E-02  0.8782220E-01
       -2   -1    0    0    0  501  0.00000000000E+00  0.00000000000E+00  0.41552788425E+03  0.41552788426E+03  0.25500000920E-02 0. -1.
        2   -1    0    0  501    0  0.00000000000E+00  0.00000000000E+00 -0.16657087661E+04  0.16657087661E+04  0.25500000920E-02 0.  1.
    10030    2    1    2    0    0  0.00000000000E+00  0.00000000000E+00 -0.12501808819E+04  0.20812366504E+04  0.16639091795E+04 0.  0.
        2    1    3    3  502    0 -0.27146206177E+01 -0.26640819322E+02  0.41498867672E+03  0.41585178157E+03  0.25500000920E-02 0. -1.
       -2    1    3    3    0  502  0.27146206177E+01  0.26640819322E+02 -0.16651695586E+04  0.16653848688E+04  0.25500000920E-02 0.  1.
</event>
<event>
 5   0  0.1920289E-04  0.1680974E+04  0.7818609E-02  0.8772291E-01
       -1   -1    0    0    0  501  0.00000000000E+00  0.00000000000E+00  0.69604695246E+03  0.69604695248E+03  0.50400001928E-02 0. -1.
        1   -1    0    0  501    0  0.00000000000E+00  0.00000000000E+00 -0.10149004764E+04  0.10149004765E+04  0.50400001928E-02 0.  1.
    10030    2    1    2    0    0  0.00000000000E+00  0.00000000000E+00 -0.31885352398E+03  0.17109474289E+04  0.16809739840E+04 0.  0.
        4    1    3    3  502    0 -0.71972011653E+03 -0.16178983340E+03 -0.56940395167E+03  0.93187738969E+03  0.12699999809E+01 0.  1.
       -4    1    3    3    0  502  0.71972011653E+03  0.16178983340E+03  0.25055042769E+03  0.77907003924E+03  0.12699999809E+01 0. -1.
</event>
<event>
 5   0  0.1815663E-04  0.1705772E+04  0.7818609E-02  0.8758079E-01
       -1   -1    0    0    0  501  0.00000000000E+00  0.00000000000E+00  0.37190019186E+03  0.37190019189E+03  0.50400001928E-02 0. -1.
        1   -1    0    0  501    0  0.00000000000E+00  0.00000000000E+00 -0.19559400268E+04  0.19559400268E+04  0.50400001928E-02 0.  1.
    10030    2    1    2    0    0  0.00000000000E+00  0.00000000000E+00 -0.15840398350E+04  0.23278402187E+04  0.17057719323E+04 0.  0.
        5    1    3    3  502    0 -0.47975402683E+03 -0.28138319149E+03  0.90343171619E+02  0.56349303932E+03  0.46999998093E+01 0. -1.
       -5    1    3    3    0  502  0.47975402683E+03  0.28138319149E+03 -0.16743830066E+04  0.17643471794E+04  0.46999998093E+01 0.  1.
</event>
<event>
 5   0  0.3573262E-04  0.1665348E+04  0.7818609E-02  0.8781378E-01
       -2   -1    0    0    0  501  0.00000000000E+00  0.00000000000E+00  0.34072171549E+03  0.34072171550E+03  0.25500000920E-02 0. -1.
        2   -1    0    0  501    0  0.00000000000E+00  0.00000000000E+00 -0.20349339750E+04  0.20349339750E+04  0.25500000920E-02 0.  1.
    10030    2    1    2    0    0  0.00000000000E+00  0.00000000000E+00 -0.16942122595E+04  0.23756556905E+04  0.16653482457E+04 0.  0.
        5    1    3    3  502    0  0.37326510638E+02 -0.24433514620E+03  0.28716371515E+03  0.37891690562E+03  0.46999998093E+01 0. -1.
       -5    1    3    3    0  502 -0.37326510638E+02  0.24433514620E+03 -0.19813759746E+04  0.19967387848E+04  0.46999998093E+01 0.  1.
</event>
<event>
 5   0  0.1815663E-04  0.1698122E+04  0.7818609E-02  0.8762436E-01
       -1   -1    0    0    0  501  0.00000000000E+00  0.00000000000E+00  0.12589086195E+04  0.12589086195E+04  0.50400001928E-02 0. -1.
        1   -1    0    0  501    0  0.00000000000E+00  0.00000000000E+00 -0.57264218427E+03  0.57264218429E+03  0.50400001928E-02 0.  1.
    10030    2    1    2    0    0  0.00000000000E+00  0.00000000000E+00  0.68626643522E+03  0.18315508038E+04  0.16981215288E+04 0.  0.
        5    1    3    3  502    0  0.50361142343E+03  0.49032287989E+03  0.85683500086E+03  0.11082550704E+04  0.46999998093E+01 0. -1.
       -5    1    3    3    0  502 -0.50361142343E+03 -0.49032287989E+03 -0.17056856564E+03  0.72329573339E+03  0.46999998093E+01 0.  1.
</event>
<event>
 5   0  0.1893284E-04  0.1700002E+04  0.7818609E-02  0.8761363E-01
       -1   -1    0    0    0  501  0.00000000000E+00  0.00000000000E+00  0.79900933623E+03  0.79900933624E+03  0.50400001928E-02 0. -1.
        1   -1    0    0  501    0  0.00000000000E+00  0.00000000000E+00 -0.90424650674E+03  0.90424650676E+03  0.50400001928E-02 0.  1.
    10030    2    1    2    0    0  0.00000000000E+00  0.00000000000E+00 -0.10523717052E+03  0.17032558430E+04  0.17000016484E+04 0.  0.
        2    1    3    3  502    0 -0.34663921106E+03 -0.53153052459E+03  0.51398845871E+03  0.81661960355E+03  0.25500000920E-02 0. -1.
       -2    1    3    3    0  502  0.34663921106E+03  0.53153052459E+03 -0.61922562923E+03  0.88663623945E+03  0.25500000920E-02 0.  1.
</event>
<event>
 5   0  0.3516723E-04  0.1670780E+04  0.7818609E-02  0.8778207E-01
        2   -1    0    0  501    0  0.00000000000E+00  0.00000000000E+00  0.14090269179E+04  0.14090269179E+04  0.25500000920E-02 0.  1.
       -2   -1    0    0    0  501  0.00000000000E+00  0.00000000000E+00 -0.49528962760E+03  0.49528962760E+03  0.25500000920E-02 0. -1.
    10030    2    1    2    0    0  0.00000000000E+00  0.00000000000E+00  0.91373729027E+03  0.19043165455E+04  0.16707799585E+04 0.  0.
        1    1    3    3  502    0 -0.58377275535E+03 -0.51792421751E+03  0.79659158472E+03  0.11151655832E+04  0.50400001928E-02 0.  1.
       -1    1    3    3    0  502  0.58377275535E+03  0.51792421751E+03  0.11714570555E+03  0.78915096232E+03  0.50400001928E-02 0. -1.
</event>
<event>
 5   0  0.1920289E-04  0.1687563E+04  0.7818609E-02  0.8768490E-01
        1   -1    0    0  501    0  0.00000000000E+00  0.00000000000E+00  0.11300817565E+04  0.11300817565E+04  0.50400001928E-02 0.  1.
       -1   -1    0    0    0  501  0.00000000000E+00  0.00000000000E+00 -0.63001373659E+03  0.63001373661E+03  0.50400001928E-02 0. -1.
    10030    2    1    2    0    0  0.00000000000E+00  0.00000000000E+00  0.50006801992E+03  0.17600954931E+04  0.16875627753E+04 0.  0.
        4    1    3    3  502    0 -0.80651626401E+03 -0.17250184758E+03  0.43584870955E+03  0.93284033041E+03  0.12699999809E+01 0.  1.
       -4    1    3    3    0  502  0.80651626401E+03  0.17250184758E+03  0.64219310374E+02  0.82725516272E+03  0.12699999809E+01 0. -1.
</event>
<event>
 5   0  0.3516723E-04  0.1722929E+04  0.7818609E-02  0.8748394E-01
        2   -1    0    0  501    0  0.00000000000E+00  0.00000000000E+00  0.10660767238E+04  0.10660767238E+04  0.25500000920E-02 0.  1.
       -2   -1    0    0    0  501  0.00000000000E+00  0.00000000000E+00 -0.69612372598E+03  0.69612372599E+03  0.25500000920E-02 0. -1.
    10030    2    1    2    0    0  0.00000000000E+00  0.00000000000E+00  0.36995299779E+03  0.17622004498E+04  0.17229292512E+04 0.  0.
        1    1    3    3  502    0 -0.52382530628E+03 -0.23053885200E+03 -0.47357862804E+03  0.74284441894E+03  0.50400001928E-02 0. -1.
       -1    1    3    3    0  502  0.52382530628E+03  0.23053885200E+03  0.84353162583E+03  0.10193560308E+04  0.50400001928E-02 0.  1.
</event>
<event>
 5   0  0.3516723E-04  0.1717910E+04  0.7818609E-02  0.8751215E-01
       -2   -1    0    0    0  501  0.00000000000E+00  0.00000000000E+00  0.10461545403E+04  0.10461545403E+04  0.25500000920E-02 0. -1.
        2   -1    0    0  501    0  0.00000000000E+00  0.00000000000E+00 -0.70525319843E+03  0.70525319843E+03  0.25500000920E-02 0.  1.
    10030    2    1    2    0    0  0.00000000000E+00  0.00000000000E+00  0.34090134186E+03  0.17514077387E+04  0.17179101671E+04 0.  0.
        1    1    3    3  502    0 -0.24353745086E+03 -0.75719875655E+03  0.50103160258E+03  0.94004952726E+03  0.50400001928E-02 0. -1.
       -1    1    3    3    0  502  0.24353745086E+03  0.75719875655E+03 -0.16013026071E+03  0.81135821147E+03  0.50400001928E-02 0.  1.
</event>
<event>
 5   0  0.1920289E-04  0.1699519E+04  0.7818609E-02  0.8761639E-01
        1   -1    0    0  501    0  0.00000000000E+00  0.00000000000E+00  0.64033674750E+03  0.64033674752E+03  0.50400001928E-02 0.  1.
       -1   -1    0    0    0  501  0.00000000000E+00  0.00000000000E+00 -0.11276746046E+04  0.11276746047E+04  0.50400001928E-02 0. -1.
    10030    2    1    2    0    0  0.00000000000E+00  0.00000000000E+00 -0.48733785715E+03  0.17680113522E+04  0.16995193304E+04 0.  0.
        4    1    3    3  502    0 -0.17219863349E+03  0.85020247455E+02 -0.11048024396E+04  0.11213700796E+04  0.12699999809E+01 0. -1.
       -4    1    3    3    0  502  0.17219863349E+03 -0.85020247455E+02  0.61746458250E+03  0.64664127258E+03  0.12699999809E+01 0.  1.
</event>
<event>
 5   0  0.1824538E-04  0.1712180E+04  0.7818609E-02  0.8754448E-01
       -1   -1    0    0    0  501  0.00000000000E+00  0.00000000000E+00  0.70973704362E+03  0.70973704363E+03  0.50400001928E-02 0. -1.
        1   -1    0    0  501    0  0.00000000000E+00  0.00000000000E+00 -0.10326225013E+04  0.10326225013E+04  0.50400001928E-02 0.  1.
    10030    2    1    2    0    0  0.00000000000E+00  0.00000000000E+00 -0.32288545768E+03  0.17423595449E+04  0.17121804125E+04 0.  0.
        3    1    3    3  502    0  0.44023576364E+03 -0.30909780616E+03 -0.83917062210E+03  0.99677295537E+03  0.10100000352E+00 0.  1.
       -3    1    3    3    0  502 -0.44023576364E+03  0.30909780616E+03  0.51628516441E+03  0.74558658958E+03  0.10100000352E+00 0. -1.
</event>
<event>
 5   0  0.3605571E-04  0.1693455E+04  0.7818609E-02  0.8765106E-01
       -2   -1    0    0    0  501  0.00000000000E+00  0.00000000000E+00  0.46740317460E+03  0.46740317461E+03  0.25500000920E-02 0. -1.
        2   -1    0    0  501    0  0.00000000000E+00  0.00000000000E+00 -0.15338957558E+04  0.15338957558E+04  0.25500000920E-02 0.  1.
    10030    2    1    2    0    0  0.00000000000E+00  0.00000000000E+00 -0.10664925812E+04  0.20012989304E+04  0.16934553384E+04 0.  0.
        4    1    3    3  502    0 -0.26230882030E+03  0.80366403089E+03 -0.47701097435E+03  0.97068165446E+03  0.12699999809E+01 0. -1.
       -4    1    3    3    0  502  0.26230882030E+03 -0.80366403089E+03 -0.58948160680E+03  0.10306172759E+04  0.12699999809E+01 0.  1.
</event>
<event>
 5   0  0.1920289E-04  0.1698144E+04  0.7818609E-02  0.8762423E-01
       -1   -1    0    0    0  501  0.00000000000E+00  0.00000000000E+00  0.11291144747E+04  0.11291144748E+04  0.50400001928E-02 0. -1.
        1   -1    0    0  501    0  0.00000000000E+00  0.00000000000E+00 -0.63848572525E+03  0.63848572527E+03  0.50400001928E-02 0.  1.
    10030    2    1    2    0    0  0.00000000000E+00  0.00000000000E+00  0.49062874949E+03  0.17676002000E+04  0.16981442510E+04 0.  0.
        4    1    3    3  502    0 -0.69072231761E+03 -0.38926826459E+03 -0.70911923520E+02  0.79602588881E+03  0.12699999809E+01 0.  1.
       -4    1    3    3    0  502  0.69072231761E+03  0.38926826459E+03  0.56154067301E+03  0.97157431121E+03  0.12699999809E+01 0. -1.
</event>
<event>
 5   0  0.1930116E-04  0.1647102E+04  0.7818609E-02  0.8792123E-01
       -1   -1    0    0    0  501  0.00000000000E+00  0.00000000000E+00  0.80707943923E+03  0.80707943925E+03  0.50400001928E-02 0.  1.
        1   -1    0    0  501    0  0.00000000000E+00  0.00000000000E+00 -0.84035888320E+03  0.84035888322E+03  0.50400001928E-02 0. -1.
    10030    2    1    2    0    0  0.00000000000E+00  0.00000000000E+00 -0.33279443972E+02  0.16474383225E+04  0.16471021538E+04 0.  0.
        1    1    3    3  502    0 -0.21320656770E+03 -0.98488236048E+02 -0.80615461504E+03  0.83966793230E+03  0.50400001928E-02 0. -1.
       -1    1    3    3    0  502  0.21320656770E+03  0.98488236048E+02  0.77287517107E+03  0.80777039017E+03  0.50400001928E-02 0.  1.
</event>
<event>
 5   0  0.1815663E-04  0.1692462E+04  0.7818609E-02  0.8765675E-01
       -1   -1    0    0    0  501  0.00000000000E+00  0.00000000000E+00  0.14784772001E+04  0.14784772002E+04  0.50400001928E-02 0.  1.
        1   -1    0    0  501    0  0.00000000000E+00  0.00000000000E+00 -0.48435462194E+03  0.48435462197E+03  0.50400001928E-02 0. -1.
    10030    2    1    2    0    0  0.00000000000E+00  0.00000000000E+00  0.99412257820E+03  0.19628318221E+04  0.16924624254E+04 0.  0.
        5    1    3    3  502    0  0.50534516162E+03  0.54785378871E+03  0.32339424231E+02  0.74604653644E+03  0.46999998093E+01 0. -1.
       -5    1    3    3    0  502 -0.50534516162E+03 -0.54785378871E+03  0.96178315397E+03  0.12167852857E+04  0.46999998093E+01 0.  1.
</event>
<event>
 5   0  0.3605571E-04  0.1664445E+04  0.7818609E-02  0.8781906E-01
       -2   -1    0    0    0  501  0.00000000000E+00  0.00000000000E+00  0.20403970006E+03  0.20403970007E+03  0.25500000920E-02 0. -1.
        2   -1    0    0  501    0  0.00000000000E+00  0.00000000000E+00 -0.33944113886E+04  0.33944113886E+04  0.25500000920E-02 0.  1.
    10030    2    1    2    0    0  0.00000000000E+00  0.00000000000E+00 -0.31903716886E+04  0.35984510887E+04  0.16644454712E+04 0.  0.
        4    1    3    3  502    0 -0.57211109148E+03 -0.18391471196E+03 -0.35049969505E+03  0.69569200900E+03  0.12699999809E+01 0. -1.
       -4    1    3    3    0  502  0.57211109148E+03  0.18391471196E+03 -0.28398719935E+04  0.29027590797E+04  0.12699999809E+01 0.  1.
</event>
<event>
 5   0  0.3678896E-04  0.1697028E+04  0.7818609E-02  0.8763061E-01
        2   -1    0    0  501    0  0.00000000000E+00  0.00000000000E+00  0.76583089195E+03  0.76583089196E+03  0.25500000920E-02 0.  1.
       -2   -1    0    0    0  501  0.00000000000E+00  0.00000000000E+00 -0.94012413503E+03  0.94012413503E+03  0.25500000920E-02 0. -1.
    10030    2    1    2    0    0  0.00000000000E+00  0.00000000000E+00 -0.17429324308E+03  0.17059550270E+04  0.16970281139E+04 0.  0.
        2    1    3    3  502    0 -0.31480178879E+03  0.20523945399E+02 -0.87897959449E+03  0.93387714722E+03  0.25500000920E-02 0. -1.
       -2    1    3    3    0  502  0.31480178879E+03 -0.20523945399E+02  0.70468635141E+03  0.77207787977E+03  0.25500000920E-02 0.  1.
</event>
<event>
 5   0  0.1815663E-04  0.1698603E+04  0.7818609E-02  0.8762161E-01
        1   -1    0    0  501    0  0.00000000000E+00  0.00000000000E+00  0.10044839692E+04  0.10044839692E+04  0.50400001928E-02 0. -1.
       -1   -1    0    0    0  501  0.00000000000E+00  0.00000000000E+00 -0.71809348649E+03  0.71809348650E+03  0.50400001928E-02 0.  1.
    10030    2    1    2    0    0  0.00000000000E+00  0.00000000000E+00  0.28639048271E+03  0.17225774557E+04  0.16986034211E+04 0.  0.
        5    1    3    3  502    0 -0.38380837529E+03 -0.44233325367E+03 -0.48056624439E+03  0.75758404253E+03  0.46999998093E+01 0.  1.
       -5    1    3    3    0  502  0.38380837529E+03  0.44233325367E+03  0.76695672709E+03  0.96499341318E+03  0.46999998093E+01 0. -1.
</event>
<event>
 5   0  0.1930116E-04  0.1705992E+04  0.7818609E-02  0.8757954E-01
       -1   -1    0    0    0  501  0.00000000000E+00  0.00000000000E+00  0.63125175224E+03  0.63125175226E+03  0.50400001928E-02 0. -1.
        1   -1    0    0  501    0  0.00000000000E+00  0.00000000000E+00 -0.11526344822E+04  0.11526344822E+04  0.50400001928E-02 0.  1.
    10030    2    1    2    0    0  0.00000000000E+00  0.00000000000E+00 -0.52138272998E+03  0.17838862345E+04  0.17059924227E+04 0.  0.
        1    1    3    3  502    0  0.58601689563E+03  0.58584738571E+03 -0.49040139612E+02  0.83008306610E+03  0.50400001928E-02 0. -1.
       -1    1    3    3    0  502 -0.58601689563E+03 -0.58584738571E+03 -0.47234259036E+03  0.95380316838E+03  0.50400001928E-02 0.  1.
</event>
<event>
 5   0  0.3574092E-04  0.1674581E+04  0.7818609E-02  0.8775996E-01
        2   -1    0    0  501    0  0.00000000000E+00  0.00000000000E+00  0.13627696741E+04  0.13627696741E+04  0.25500000920E-02 0.  1.
       -2   -1    0    0    0  501  0.00000000000E+00  0.00000000000E+00 -0.51443445586E+03  0.51443445587E+03  0.25500000920E-02 0. -1.
    10030    2    1    2    0    0  0.00000000000E+00  0.00000000000E+00  0.84833521819E+03  0.18772041299E+04  0.16745813516E+04 0.  0.
        3    1    3    3  502    0 -0.38461785608E+03  0.33720028355E+03  0.11672646392E+04  0.12744181710E+04  0.10100000352E+00 0.  1.
       -3    1    3    3    0  502  0.38461785608E+03 -0.33720028355E+03 -0.31892942104E+03  0.60278595890E+03  0.10100000352E+00 0. -1.
</event>
<event>
 5   0  0.3605571E-04  0.1582355E+04  0.7818609E-02  0.8831462E-01
       -2   -1    0    0    0  501  0.00000000000E+00  0.00000000000E+00  0.64143687420E+03  0.64143687421E+03  0.25500000920E-02 0. -1.
        2   -1    0    0  501    0  0.00000000000E+00  0.00000000000E+00 -0.97587470342E+03  0.97587470342E+03  0.25500000920E-02 0.  1.
    10030    2    1    2    0    0  0.00000000000E+00  0.00000000000E+00 -0.33443782922E+03  0.16173115776E+04  0.15823552311E+04 0.  0.
        4    1    3    3  502    0 -0.30131250789E+03  0.32968357003E+03  0.50026223270E+03  0.67062985180E+03  0.12699999809E+01 0. -1.
       -4    1    3    3    0  502  0.30131250789E+03 -0.32968357003E+03 -0.83470006192E+03  0.94668172583E+03  0.12699999809E+01 0.  1.
</event>
<event>
 5   0  0.3605571E-04  0.1714655E+04  0.7818609E-02  0.8753050E-01
        2   -1    0    0  501    0  0.00000000000E+00  0.00000000000E+00  0.10907530781E+04  0.10907530781E+04  0.25500000920E-02 0. -1.
       -2   -1    0    0    0  501  0.00000000000E+00  0.00000000000E+00 -0.67385622092E+03  0.67385622092E+03  0.25500000920E-02 0.  1.
    10030    2    1    2    0    0  0.00000000000E+00  0.00000000000E+00  0.41689685715E+03  0.17646092990E+04  0.17146553556E+04 0.  0.
        4    1    3    3  502    0 -0.50048631466E+03  0.15060318567E+03 -0.49093943143E+03  0.71707113241E+03  0.12699999809E+01 0.  1.
       -4    1    3    3    0  502  0.50048631466E+03 -0.15060318567E+03  0.90783628858E+03  0.10475381666E+04  0.12699999809E+01 0. -1.
</event>
<event>
 5   0  0.1824538E-04  0.1701338E+04  0.7818609E-02  0.8760602E-01
       -1   -1    0    0    0  501  0.00000000000E+00  0.00000000000E+00  0.84265035300E+03  0.84265035301E+03  0.50400001928E-02 0.  1.
        1   -1    0    0  501    0  0.00000000000E+00  0.00000000000E+00 -0.85876355287E+03  0.85876355289E+03  0.50400001928E-02 0. -1.
    10030    2    1    2    0    0  0.00000000000E+00  0.00000000000E+00 -0.16113199875E+02  0.17014139059E+04  0.17013376044E+04 0.  0.
        3    1    3    3  502    0 -0.37296874273E+03 -0.12990917561E+03  0.74540623349E+03  0.84357130113E+03  0.10100000352E+00 0.  1.
       -3    1    3    3    0  502  0.37296874273E+03  0.12990917561E+03 -0.76151943337E+03  0.85784260477E+03  0.10100000352E+00 0. -1.
</event>
<event>
 5   0  0.1824538E-04  0.1692725E+04  0.7818609E-02  0.8765525E-01
        1   -1    0    0  501    0  0.00000000000E+00  0.00000000000E+00  0.84032727730E+03  0.84032727731E+03  0.50400001928E-02 0.  1.
       -1   -1    0    0    0  501  0.00000000000E+00  0.00000000000E+00 -0.85244058843E+03  0.85244058845E+03  0.50400001928E-02 0. -1.
    10030    2    1    2    0    0  0.00000000000E+00  0.00000000000E+00 -0.12113311136E+02  0.16927678658E+04  0.16927245243E+04 0.  0.
        3    1    3    3  502    0  0.20550510030E+01 -0.62810026141E+03  0.56124519267E+03  0.84232436633E+03  0.10100000352E+00 0.  1.
       -3    1    3    3    0  502 -0.20550510030E+01  0.62810026141E+03 -0.57335850381E+03  0.85044349942E+03  0.10100000352E+00 0. -1.
</event>
<event>
 5   0  0.1824538E-04  0.1731813E+04  0.7818609E-02  0.8743426E-01
       -1   -1    0    0    0  501  0.00000000000E+00  0.00000000000E+00  0.44516695469E+03  0.44516695472E+03  0.50400001928E-02 0. -1.
        1   -1    0    0  501    0  0.00000000000E+00  0.00000000000E+00 -0.16842977785E+04  0.16842977785E+04  0.50400001928E-02 0.  1.
    10030    2    1    2    0    0  0.00000000000E+00  0.00000000000E+00 -0.12391308238E+04  0.21294647332E+04  0.17318125913E+04 0.  0.
        3    1    3    3  502    0  0.52936589971E+03 -0.43084070528E+03 -0.12747809287E+04  0.14460008283E+04  0.10100000352E+00 0.  1.
       -3    1    3    3    0  502 -0.52936589971E+03  0.43084070528E+03  0.35650104918E+02  0.68346390489E+03  0.10100000352E+00 0. -1.
</event>
<event>
 5   0  0.1893284E-04  0.1712425E+04  0.7818609E-02  0.8754309E-01
        1   -1    0    0  501    0  0.00000000000E+00  0.00000000000E+00  0.60642039240E+03  0.60642039243E+03  0.50400001928E-02 0. -1.
       -1   -1    0    0    0  501  0.00000000000E+00  0.00000000000E+00 -0.12088972123E+04  0.12088972123E+04  0.50400001928E-02 0.  1.
    10030    2    1    2    0    0  0.00000000000E+00  0.00000000000E+00 -0.60247681989E+03  0.18153176047E+04  0.17124250896E+04 0.  0.
        2    1    3    3  502    0  0.19746343406E+03  0.77498874844E+03  0.22913159672E+02  0.80007773428E+03  0.25500000920E-02 0. -1.
       -2    1    3    3    0  502 -0.19746343406E+03 -0.77498874844E+03 -0.62538997956E+03  0.10152398704E+04  0.25500000920E-02 0.  1.
</event>
<event>
 5   0  0.3574092E-04  0.1679652E+04  0.7818609E-02  0.8773055E-01
       -2   -1    0    0    0  501  0.00000000000E+00  0.00000000000E+00  0.76163772294E+03  0.76163772295E+03  0.25500000920E-02 0.  1.
        2   -1    0    0  501    0  0.00000000000E+00  0.00000000000E+00 -0.92604102534E+03  0.92604102534E+03  0.25500000920E-02 0. -1.
    10030    2    1    2    0    0  0.00000000000E+00  0.00000000000E+00 -0.16440330239E+03  0.16876787483E+04  0.16796520805E+04 0.  0.
        3    1    3    3  502    0 -0.72383977537E+03 -0.27862932147E+03 -0.40581131622E+03  0.87536344095E+03  0.10100000352E+00 0. -1.
       -3    1    3    3    0  502  0.72383977537E+03  0.27862932147E+03  0.24140801383E+03  0.81231530733E+03  0.10100000352E+00 0.  1.
</event>
<event>
 5   0  0.3574092E-04  0.1680704E+04  0.7818609E-02  0.8772447E-01
        2   -1    0    0  501    0  0.00000000000E+00  0.00000000000E+00  0.12149722646E+04  0.12149722646E+04  0.25500000920E-02 0. -1.
       -2   -1    0    0    0  501  0.00000000000E+00  0.00000000000E+00 -0.58124056657E+03  0.58124056657E+03  0.25500000920E-02 0.  1.
    10030    2    1    2    0    0  0.00000000000E+00  0.00000000000E+00  0.63373169799E+03  0.17962128311E+04  0.16807036234E+04 0.  0.
        3    1    3    3  502    0  0.43282970454E+03 -0.23352720674E+03 -0.41137133503E+03  0.64117306159E+03  0.10100000352E+00 0.  1.
       -3    1    3    3    0  502 -0.43282970454E+03  0.23352720674E+03  0.10451030330E+04  0.11550397696E+04  0.10100000352E+00 0. -1.
</event>
<event>
 5   0  0.1824538E-04  0.1680034E+04  0.7818609E-02  0.8772834E-01
       -1   -1    0    0    0  501  0.00000000000E+00  0.00000000000E+00  0.25055949178E+03  0.25055949183E+03  0.50400001928E-02 0. -1.
        1   -1    0    0  501    0  0.00000000000E+00  0.00000000000E+00 -0.28162125280E+04  0.28162125280E+04  0.50400001928E-02 0.  1.
    10030    2    1    2    0    0  0.00000000000E+00  0.00000000000E+00 -0.25656530362E+04  0.30667720198E+04  0.16800342613E+04 0.  0.
        3    1    3    3  502    0 -0.11659030961E+03 -0.47954237967E+03 -0.25236768189E+04  0.25714779584E+04  0.10100000352E+00 0.  1.
       -3    1    3    3    0  502  0.11659030961E+03  0.47954237967E+03 -0.41976217265E+02  0.49529406135E+03  0.10100000352E+00 0. -1.
</event>
<event>
 5   0  0.3678896E-04  0.1710688E+04  0.7818609E-02  0.8755292E-01
       -2   -1    0    0    0  501  0.00000000000E+00  0.00000000000E+00  0.37518445894E+03  0.37518445895E+03  0.25500000920E-02 0.  1.
        2   -1    0    0  501    0  0.00000000000E+00  0.00000000000E+00 -0.19500089627E+04  0.19500089627E+04  0.25500000920E-02 0. -1.
    10030    2    1    2    0    0  0.00000000000E+00  0.00000000000E+00 -0.15748245037E+04  0.23251934216E+04  0.17106876484E+04 0.  0.
        2    1    3    3  502    0 -0.61638606028E+02  0.52609396565E+03  0.12542920528E+03  0.54434057720E+03  0.25500000920E-02 0.  1.
       -2    1    3    3    0  502  0.61638606028E+02 -0.52609396565E+03 -0.17002537090E+04  0.17808528444E+04  0.25500000920E-02 0. -1.
</event>
<event>
 5   0  0.3516723E-04  0.1702235E+04  0.7818609E-02  0.8760090E-01
        2   -1    0    0  501    0  0.00000000000E+00  0.00000000000E+00  0.72581417138E+03  0.72581417139E+03  0.25500000920E-02 0.  1.
       -2   -1    0    0    0  501  0.00000000000E+00  0.00000000000E+00 -0.99805344244E+03  0.99805344244E+03  0.25500000920E-02 0. -1.
    10030    2    1    2    0    0  0.00000000000E+00  0.00000000000E+00 -0.27223927105E+03  0.17238676138E+04  0.17022353919E+04 0.  0.
        1    1    3    3  502    0 -0.81550070846E+03  0.11202092564E+03 -0.35522820478E+03  0.89653620718E+03  0.50400001928E-02 0. -1.
       -1    1    3    3    0  502  0.81550070846E+03 -0.11202092564E+03  0.82988933731E+02  0.82733140665E+03  0.50400001928E-02 0.  1.
</event>
<event>
 5   0  0.3605571E-04  0.1702972E+04  0.7818609E-02  0.8759671E-01
       -2   -1    0    0    0  501  0.00000000000E+00  0.00000000000E+00  0.60696680241E+03  0.60696680242E+03  0.25500000920E-02 0.  1.
        2   -1    0    0  501    0  0.00000000000E+00  0.00000000000E+00 -0.11945110491E+04  0.11945110492E+04  0.25500000920E-02 0. -1.
    10030    2    1    2    0    0  0.00000000000E+00  0.00000000000E+00 -0.58754424674E+03  0.18014778516E+04  0.17029721688E+04 0.  0.
        4    1    3    3  502    0 -0.32961323845E+03  0.44719930955E+03  0.38884006833E+03  0.67810789780E+03  0.12699999809E+01 0.  1.
       -4    1    3    3    0  502  0.32961323845E+03 -0.44719930955E+03 -0.97638431507E+03  0.11233699538E+04  0.12699999809E+01 0. -1.
</event>
<event>
 5   0  0.1815663E-04  0.1712581E+04  0.7818609E-02  0.8754221E-01
        1   -1    0    0  501    0  0.00000000000E+00  0.00000000000E+00  0.22319053057E+04  0.22319053057E+04  0.50400001928E-02 0. -1.
       -1   -1    0    0    0  501  0.00000000000E+00  0.00000000000E+00 -0.32852361676E+03  0.32852361680E+03  0.50400001928E-02 0.  1.
    10030    2    1    2    0    0  0.00000000000E+00  0.00000000000E+00  0.19033816890E+04  0.25604289225E+04  0.17125812137E+04 0.  0.
        5    1    3    3  502    0  0.80337561520E+03 -0.29311439797E+03  0.10165686860E+04  0.13284436054E+04  0.46999998093E+01 0. -1.
       -5    1    3    3    0  502 -0.80337561520E+03  0.29311439797E+03  0.88681300297E+03  0.12319853171E+04  0.46999998093E+01 0.  1.
</event>
<event>
 5   0  0.3516723E-04  0.1706291E+04  0.7818609E-02  0.8757784E-01
       -2   -1    0    0    0  501  0.00000000000E+00  0.00000000000E+00  0.12975838187E+04  0.12975838187E+04  0.25500000920E-02 0. -1.
        2   -1    0    0  501    0  0.00000000000E+00  0.00000000000E+00 -0.56093293393E+03  0.56093293394E+03  0.25500000920E-02 0.  1.
    10030    2    1    2    0    0  0.00000000000E+00  0.00000000000E+00  0.73665088474E+03  0.18585167526E+04  0.17062912980E+04 0.  0.
        1    1    3    3  502    0 -0.79965775578E+02 -0.20958705378E+03 -0.52823499152E+03  0.57389325198E+03  0.50400001928E-02 0.  1.
       -1    1    3    3    0  502  0.79965775578E+02  0.20958705378E+03  0.12648858763E+04  0.12846235006E+04  0.50400001928E-02 0. -1.
</event>
<event>
 5   0  0.3574092E-04  0.1707321E+04  0.7818609E-02  0.8757200E-01
       -2   -1    0    0    0  501  0.00000000000E+00  0.00000000000E+00  0.48938960117E+03  0.48938960117E+03  0.25500000920E-02 0.  1.
        2   -1    0    0  501    0  0.00000000000E+00  0.00000000000E+00 -0.14890720099E+04  0.14890720099E+04  0.25500000920E-02 0. -1.
    10030    2    1    2    0    0  0.00000000000E+00  0.00000000000E+00 -0.99968240878E+03  0.19784616111E+04  0.17073211263E+04 0.  0.
        3    1    3    3  502    0 -0.44828391955E+03  0.70514079703E+03 -0.70239892491E+03  0.10915797159E+04  0.10100000352E+00 0. -1.
       -3    1    3    3    0  502  0.44828391955E+03 -0.70514079703E+03 -0.29728348387E+03  0.88688189526E+03  0.10100000352E+00 0.  1.
</event>
<event>
 5   0  0.1920289E-04  0.1698504E+04  0.7818609E-02  0.8762218E-01
        1   -1    0    0  501    0  0.00000000000E+00  0.00000000000E+00  0.12599167166E+04  0.12599167166E+04  0.50400001928E-02 0.  1.
       -1   -1    0    0    0  501  0.00000000000E+00  0.00000000000E+00 -0.57244147486E+03  0.57244147488E+03  0.50400001928E-02 0. -1.
    10030    2    1    2    0    0  0.00000000000E+00  0.00000000000E+00  0.68747524177E+03  0.18323581915E+04  0.16985035573E+04 0.  0.
        4    1    3    3  502    0  0.15271527496E+02 -0.79450873105E+03  0.20545890189E+02  0.79492206522E+03  0.12699999809E+01 0. -1.
       -4    1    3    3    0  502 -0.15271527496E+02  0.79450873105E+03  0.66692935158E+03  0.10374361263E+04  0.12699999809E+01 0.  1.
</event>
<event>
 5   0  0.3573262E-04  0.1667230E+04  0.7818609E-02  0.8780278E-01
        2   -1    0    0  501    0  0.00000000000E+00  0.00000000000E+00  0.16606872132E+04  0.16606872132E+04  0.25500000920E-02 0.  1.
       -2   -1    0    0    0  501  0.00000000000E+00  0.00000000000E+00 -0.41844969821E+03  0.41844969821E+03  0.25500000920E-02 0. -1.
    10030    2    1    2    0    0  0.00000000000E+00  0.00000000000E+00  0.12422375149E+04  0.20791369114E+04  0.16672301139E+04 0.  0.
        5    1    3    3  502    0 -0.62052094838E+03 -0.35683862262E+03  0.11538806627E+04  0.13578817046E+04  0.46999998093E+01 0.  1.
       -5    1    3    3    0  502  0.62052094838E+03  0.35683862262E+03  0.88356852286E+02  0.72125520679E+03  0.46999998093E+01 0. -1.
</event>
<event>
 5   0  0.3678896E-04  0.1712382E+04  0.7818609E-02  0.8754334E-01
       -2   -1    0    0    0  501  0.00000000000E+00  0.00000000000E+00  0.98963022072E+03  0.98963022072E+03  0.25500000920E-02 0. -1.
        2   -1    0    0  501    0  0.00000000000E+00  0.00000000000E+00 -0.74074411477E+03  0.74074411478E+03  0.25500000920E-02 0.  1.
    10030    2    1    2    0    0  0.00000000000E+00  0.00000000000E+00  0.24888610595E+03  0.17303743355E+04  0.17123816885E+04 0.  0.
        2    1    3    3  502    0  0.11200857834E+02 -0.36755257285E+03 -0.65688397819E+03  0.75280602670E+03  0.25500000920E-02 0.  1.
       -2    1    3    3    0  502 -0.11200857834E+02  0.36755257285E+03  0.90577008414E+03  0.97756830879E+03  0.25500000920E-02 0. -1.
</event>
<event>
 5   0  0.3678896E-04  0.1724093E+04  0.7818609E-02  0.8747741E-01
       -2   -1    0    0    0  501  0.00000000000E+00  0.00000000000E+00  0.93620679668E+03  0.93620679669E+03  0.25500000920E-02 0.  1.
        2   -1    0    0  501    0  0.00000000000E+00  0.00000000000E+00 -0.79376103005E+03  0.79376103005E+03  0.25500000920E-02 0. -1.
    10030    2    1    2    0    0  0.00000000000E+00  0.00000000000E+00  0.14244576664E+03  0.17299678267E+04  0.17240933516E+04 0.  0.
        2    1    3    3  502    0 -0.31199083833E+03  0.73653288660E+03 -0.25128397958E+03  0.83842865805E+03  0.25500000920E-02 0. -1.
       -2    1    3    3    0  502  0.31199083833E+03 -0.73653288660E+03  0.39372974621E+03  0.89153916869E+03  0.25500000920E-02 0.  1.
</event>
<event>
 5   0  0.1824538E-04  0.1694609E+04  0.7818609E-02  0.8764445E-01
        1   -1    0    0  501    0  0.00000000000E+00  0.00000000000E+00  0.73419373510E+03  0.73419373512E+03  0.50400001928E-02 0. -1.
       -1   -1    0    0    0  501  0.00000000000E+00  0.00000000000E+00 -0.97784133821E+03  0.97784133822E+03  0.50400001928E-02 0.  1.
    10030    2    1    2    0    0  0.00000000000E+00  0.00000000000E+00 -0.24364760310E+03  0.17120350733E+04  0.16946090811E+04 0.  0.
        3    1    3    3  502    0  0.15243890818E+03 -0.73793593309E+03 -0.51328463310E+03  0.91172813209E+03  0.10100000352E+00 0.  1.
       -3    1    3    3    0  502 -0.15243890818E+03  0.73793593309E+03  0.26963703000E+03  0.80030694125E+03  0.10100000352E+00 0. -1.
</event>
<event>
 5   0  0.1893284E-04  0.1701380E+04  0.7818609E-02  0.8760578E-01
        1   -1    0    0  501    0  0.00000000000E+00  0.00000000000E+00  0.95591144295E+03  0.95591144296E+03  0.50400001928E-02 0.  1.
       -1   -1    0    0    0  501  0.00000000000E+00  0.00000000000E+00 -0.75705089142E+03  0.75705089144E+03  0.50400001928E-02 0. -1.
    10030    2    1    2    0    0  0.00000000000E+00  0.00000000000E+00  0.19886055153E+03  0.17129623344E+04  0.17013801574E+04 0.  0.
        2    1    3    3  502    0 -0.38965295713E+02 -0.84962308103E+03  0.11675017263E+03  0.85849186188E+03  0.25500000920E-02 0.  1.
       -2    1    3    3    0  502  0.38965295713E+02  0.84962308103E+03  0.82110378894E+02  0.85447047253E+03  0.25500000920E-02 0. -1.
</event>
<event>
 5   0  0.3516723E-04  0.1722731E+04  0.7818609E-02  0.8748505E-01
       -2   -1    0    0    0  501  0.00000000000E+00  0.00000000000E+00  0.22764206422E+03  0.22764206423E+03  0.25500000920E-02 0. -1.
        2   -1    0    0  501    0  0.00000000000E+00  0.00000000000E+00 -0.32592872793E+04  0.32592872793E+04  0.25500000920E-02 0.  1.
    10030    2    1    2    0    0  0.00000000000E+00  0.00000000000E+00 -0.30316452151E+04  0.34869293436E+04  0.17227314175E+04 0.  0.
        1    1    3    3  502    0 -0.71349455774E+03  0.21407588664E+03 -0.23912134699E+04  0.25045568127E+04  0.50400001928E-02 0.  1.
       -1    1    3    3    0  502  0.71349455774E+03 -0.21407588664E+03 -0.64043174518E+03  0.98237253088E+03  0.50400001928E-02 0. -1.
</event>
<event>
 5   0  0.1893284E-04  0.1697091E+04  0.7818609E-02  0.8763025E-01
       -1   -1    0    0    0  501  0.00000000000E+00  0.00000000000E+00  0.64516951333E+03  0.64516951335E+03  0.50400001928E-02 0. -1.
        1   -1    0    0  501    0  0.00000000000E+00  0.00000000000E+00 -0.11160315058E+04  0.11160315058E+04  0.50400001928E-02 0.  1.
    10030    2    1    2    0    0  0.00000000000E+00  0.00000000000E+00 -0.47086199244E+03  0.17612010191E+04  0.16970910447E+04 0.  0.
        2    1    3    3  502    0 -0.63784828748E+02  0.21285812833E+03  0.61443907040E+03  0.65338538277E+03  0.25500000920E-02 0. -1.
       -2    1    3    3    0  502  0.63784828748E+02 -0.21285812833E+03 -0.10853010628E+04  0.11078156364E+04  0.25500000920E-02 0.  1.
</event>
<event>
 5   0  0.1815663E-04  0.1677421E+04  0.7818609E-02  0.8774348E-01
       -1   -1    0    0    0  501  0.00000000000E+00  0.00000000000E+00  0.66005453376E+03  0.66005453378E+03  0.50400001928E-02 0.  1.
        1   -1    0    0  501    0  0.00000000000E+00  0.00000000000E+00 -0.10657224692E+04  0.10657224692E+04  0.50400001928E-02 0. -1.
    10030    2    1    2    0    0  0.00000000000E+00  0.00000000000E+00 -0.40566793541E+03  0.17257770030E+04  0.16774205764E+04 0.  0.
        5    1    3    3  502    0  0.38042287779E+03  0.12918891794E+03  0.55459683307E+03  0.68484383601E+03  0.46999998093E+01 0.  1.
       -5    1    3    3    0  502 -0.38042287779E+03 -0.12918891794E+03 -0.96026476848E+03  0.10409331669E+04  0.46999998093E+01 0. -1.
</event>
<event>
 5   0  0.3573262E-04  0.1378612E+04  0.7818609E-02  0.8969447E-01
       -2   -1    0    0    0  501  0.00000000000E+00  0.00000000000E+00  0.35223491356E+03  0.35223491357E+03  0.25500000920E-02 0.  1.
        2   -1    0    0  501    0  0.00000000000E+00  0.00000000000E+00 -0.13489371715E+04  0.13489371715E+04  0.25500000920E-02 0. -1.
    10030    2    1    2    0    0  0.00000000000E+00  0.00000000000E+00 -0.99670225790E+03  0.17011720850E+04  0.13786120092E+04 0.  0.
        5    1    3    3  502    0  0.11732203440E+03  0.14924462544E+03 -0.13160231469E+04  0.13296531244E+04  0.46999998093E+01 0. -1.
       -5    1    3    3    0  502 -0.11732203440E+03 -0.14924462544E+03  0.31932088900E+03  0.37151896066E+03  0.46999998093E+01 0.  1.
</event>
<event>
 5   0  0.1893284E-04  0.1691036E+04  0.7818609E-02  0.8766494E-01
        1   -1    0    0  501    0  0.00000000000E+00  0.00000000000E+00  0.15018883075E+04  0.15018883075E+04  0.50400001928E-02 0. -1.
       -1   -1    0    0    0  501  0.00000000000E+00  0.00000000000E+00 -0.47600107295E+03  0.47600107298E+03  0.50400001928E-02 0.  1.
    10030    2    1    2    0    0  0.00000000000E+00  0.00000000000E+00  0.10258872346E+04  0.19778893805E+04  0.16910357132E+04 0.  0.
        2    1    3    3  502    0 -0.63938499335E+01 -0.66263759581E+03  0.11271629774E+04  0.13075266125E+04  0.25500000920E-02 0. -1.
       -2    1    3    3    0  502  0.63938499335E+01  0.66263759581E+03 -0.10127574281E+03  0.67036276805E+03  0.25500000920E-02 0.  1.
</event>
<event>
 5   0  0.1824538E-04  0.1682037E+04  0.7818609E-02  0.8771676E-01
       -1   -1    0    0    0  501  0.00000000000E+00  0.00000000000E+00  0.67921219058E+03  0.67921219060E+03  0.50400001928E-02 0.  1.
        1   -1    0    0  501    0  0.00000000000E+00  0.00000000000E+00 -0.10413717809E+04  0.10413717809E+04  0.50400001928E-02 0. -1.
    10030    2    1    2    0    0  0.00000000000E+00  0.00000000000E+00 -0.36215959031E+03  0.17205839715E+04  0.16820373462E+04 0.  0.
        3    1    3    3  502    0  0.39784743330E+03 -0.70113580937E+03  0.64075561164E+02  0.80869010821E+03  0.10100000352E+00 0. -1.
       -3    1    3    3    0  502 -0.39784743330E+03  0.70113580937E+03 -0.42623515147E+03  0.91189386330E+03  0.10100000352E+00 0.  1.
</event>
<event>
 5   0  0.1815663E-04  0.1709108E+04  0.7818609E-02  0.8756187E-01
        1   -1    0    0  501    0  0.00000000000E+00  0.00000000000E+00  0.20981781131E+04  0.20981781131E+04  0.50400001928E-02 0.  1.
       -1   -1    0    0    0  501  0.00000000000E+00  0.00000000000E+00 -0.34804614224E+03  0.34804614227E+03  0.50400001928E-02 0. -1.
    10030    2    1    2    0    0  0.00000000000E+00  0.00000000000E+00  0.17501319709E+04  0.24462242554E+04  0.17091083032E+04 0.  0.
        5    1    3    3  502    0 -0.19583991254E+03 -0.63053241702E+03  0.98579596605E+02  0.66758102663E+03  0.46999998093E+01 0. -1.
       -5    1    3    3    0  502  0.19583991254E+03  0.63053241702E+03  0.16515523743E+04  0.17786432288E+04  0.46999998093E+01 0.  1.
</event>
<event>
 5   0  0.3678896E-04  0.1707964E+04  0.7818609E-02  0.8756835E-01
       -2   -1    0    0    0  501  0.00000000000E+00  0.00000000000E+00  0.60446436580E+03  0.60446436581E+03  0.25500000920E-02 0.  1.
        2   -1    0    0  501    0  0.00000000000E+00  0.00000000000E+00 -0.12064980888E+04  0.12064980888E+04  0.25500000920E-02 0. -1.
    10030    2    1    2    0    0  0.00000000000E+00  0.00000000000E+00 -0.60203372301E+03  0.18109624546E+04  0.17079638194E+04 0.  0.
        2    1    3    3  502    0 -0.28319897378E+03 -0.20481750287E+03 -0.11271932578E+04  0.11801341062E+04  0.25500000920E-02 0. -1.
       -2    1    3    3    0  502  0.28319897378E+03  0.20481750287E+03  0.52515953476E+03  0.63082834843E+03  0.25500000920E-02 0.  1.
</event>
<event>
 5   0  0.3516723E-04  0.1708205E+04  0.7818609E-02  0.8756699E-01
        2   -1    0    0  501    0  0.00000000000E+00  0.00000000000E+00  0.14853447555E+04  0.14853447555E+04  0.25500000920E-02 0.  1.
       -2   -1    0    0    0  501  0.00000000000E+00  0.00000000000E+00 -0.49112567946E+03  0.49112567946E+03  0.25500000920E-02 0. -1.
    10030    2    1    2    0    0  0.00000000000E+00  0.00000000000E+00  0.99421907609E+03  0.19764704350E+04  0.17082048499E+04 0.  0.
        1    1    3    3  502    0 -0.60102188206E+03  0.14377546135E+03 -0.18504916507E+03  0.64509059792E+03  0.50400001928E-02 0. -1.
       -1    1    3    3    0  502  0.60102188206E+03 -0.14377546135E+03  0.11792682412E+04  0.13313798371E+04  0.50400001928E-02 0.  1.
</event>
<event>
 5   0  0.1824538E-04  0.1669591E+04  0.7818609E-02  0.8778901E-01
        1   -1    0    0  501    0  0.00000000000E+00  0.00000000000E+00  0.52163831412E+03  0.52163831415E+03  0.50400001928E-02 0.  1.
       -1   -1    0    0    0  501  0.00000000000E+00  0.00000000000E+00 -0.13359508614E+04  0.13359508614E+04  0.50400001928E-02 0. -1.
    10030    2    1    2    0    0  0.00000000000E+00  0.00000000000E+00 -0.81431254725E+03  0.18575891755E+04  0.16695905547E+04 0.  0.
        3    1    3    3  502    0  0.82881315725E+03 -0.94372291802E+02 -0.44313592186E+03  0.94456700902E+03  0.10100000352E+00 0. -1.
       -3    1    3    3    0  502 -0.82881315725E+03  0.94372291802E+02 -0.37117662539E+03  0.91302216650E+03  0.10100000352E+00 0.  1.
</event>
<event>
 5   0  0.3516723E-04  0.1703393E+04  0.7818609E-02  0.8759432E-01
        2   -1    0    0  501    0  0.00000000000E+00  0.00000000000E+00  0.12023122866E+04  0.12023122866E+04  0.25500000920E-02 0. -1.
       -2   -1    0    0    0  501  0.00000000000E+00  0.00000000000E+00 -0.60332655651E+03  0.60332655651E+03  0.25500000920E-02 0.  1.
    10030    2    1    2    0    0  0.00000000000E+00  0.00000000000E+00  0.59898573012E+03  0.18056388431E+04  0.17033930043E+04 0.  0.
        1    1    3    3  502    0  0.60085374259E+03  0.59416089464E+03  0.41234714573E+03  0.94025664439E+03  0.50400001928E-02 0. -1.
       -1    1    3    3    0  502 -0.60085374259E+03 -0.59416089464E+03  0.18663858439E+03  0.86538219875E+03  0.50400001928E-02 0.  1.
</event>
<event>
 5   0  0.3516723E-04  0.1808777E+04  0.7818609E-02  0.8701646E-01
        2   -1    0    0  501    0  0.00000000000E+00  0.00000000000E+00  0.10078471602E+04  0.10078471602E+04  0.25500000920E-02 0. -1.
       -2   -1    0    0    0  501  0.00000000000E+00  0.00000000000E+00 -0.81155043797E+03  0.81155043798E+03  0.25500000920E-02 0.  1.
    10030    2    1    2    0    0  0.00000000000E+00  0.00000000000E+00  0.19629672221E+03  0.18193975982E+04  0.18087772713E+04 0.  0.
        1    1    3    3  502    0 -0.59568233999E+02  0.24409671293E+03  0.97203438816E+03  0.10039832825E+04  0.50400001928E-02 0. -1.
       -1    1    3    3    0  502  0.59568233999E+02 -0.24409671293E+03 -0.77573766595E+03  0.81541431565E+03  0.50400001928E-02 0.  1.
</event>
<event>
 5   0  0.3573262E-04  0.1696000E+04  0.7818609E-02  0.8763649E-01
        2   -1    0    0  501    0  0.00000000000E+00  0.00000000000E+00  0.14197897624E+04  0.14197897624E+04  0.25500000920E-02 0. -1.
       -2   -1    0    0    0  501  0.00000000000E+00  0.00000000000E+00 -0.50648628083E+03  0.50648628084E+03  0.25500000920E-02 0.  1.
    10030    2    1    2    0    0  0.00000000000E+00  0.00000000000E+00  0.91330348156E+03  0.19262760432E+04  0.16960000428E+04 0.  0.
        5    1    3    3  502    0  0.29476377615E+03 -0.26400957402E+03  0.13084800671E+04  0.13670145993E+04  0.46999998093E+01 0. -1.
       -5    1    3    3    0  502 -0.29476377615E+03  0.26400957402E+03 -0.39517658550E+03  0.55926144390E+03  0.46999998093E+01 0.  1.
</event>
<event>
 5   0  0.3574092E-04  0.1700140E+04  0.7818609E-02  0.8761284E-01
        2   -1    0    0  501    0  0.00000000000E+00  0.00000000000E+00  0.15904054802E+04  0.15904054802E+04  0.25500000920E-02 0. -1.
       -2   -1    0    0    0  501  0.00000000000E+00  0.00000000000E+00 -0.45436166003E+03  0.45436166004E+03  0.25500000920E-02 0.  1.
    10030    2    1    2    0    0  0.00000000000E+00  0.00000000000E+00  0.11360438202E+04  0.20447671403E+04  0.17001403167E+04 0.  0.
        3    1    3    3  502    0 -0.78061098538E+03  0.30187423298E+03  0.74696929194E+03  0.11218042148E+04  0.10100000352E+00 0. -1.
       -3    1    3    3    0  502  0.78061098538E+03 -0.30187423298E+03  0.38907452824E+03  0.92296292545E+03  0.10100000352E+00 0.  1.
</event>
<event>
 5   0  0.1930116E-04  0.1701747E+04  0.7818609E-02  0.8760369E-01
       -1   -1    0    0    0  501  0.00000000000E+00  0.00000000000E+00  0.10120104627E+04  0.10120104627E+04  0.50400001928E-02 0. -1.
        1   -1    0    0  501    0  0.00000000000E+00  0.00000000000E+00 -0.71539321295E+03  0.71539321297E+03  0.50400001928E-02 0.  1.
    10030    2    1    2    0    0  0.00000000000E+00  0.00000000000E+00  0.29661724975E+03  0.17274036757E+04  0.17017466515E+04 0.  0.
        1    1    3    3  502    0 -0.53014210420E+03  0.76391989785E+02  0.81941112365E+03  0.97893869897E+03  0.50400001928E-02 0. -1.
       -1    1    3    3    0  502  0.53014210420E+03 -0.76391989785E+02 -0.52279387390E+03  0.74846497671E+03  0.50400001928E-02 0.  1.
</event>
<event>
 5   0  0.1930116E-04  0.1643556E+04  0.7818609E-02  0.8794228E-01
        1   -1    0    0  501    0  0.00000000000E+00  0.00000000000E+00  0.13542152154E+04  0.13542152154E+04  0.50400001928E-02 0. -1.
       -1   -1    0    0    0  501  0.00000000000E+00  0.00000000000E+00 -0.49867906015E+03  0.49867906017E+03  0.50400001928E-02 0.  1.
    10030    2    1    2    0    0  0.00000000000E+00  0.00000000000E+00  0.85553615522E+03  0.18528942755E+04  0.16435556223E+04 0.  0.
        1    1    3    3  502    0 -0.27942200658E+03 -0.70757608192E+03  0.77812103659E+03  0.10882154736E+04  0.50400001928E-02 0.  1.
       -1    1    3    3    0  502  0.27942200658E+03  0.70757608192E+03  0.77415118624E+02  0.76467880190E+03  0.50400001928E-02 0. -1.
</event>
<event>
 5   0  0.1824538E-04  0.1690641E+04  0.7818609E-02  0.8766720E-01
        1   -1    0    0  501    0  0.00000000000E+00  0.00000000000E+00  0.13538885642E+04  0.13538885642E+04  0.50400001928E-02 0.  1.
       -1   -1    0    0    0  501  0.00000000000E+00  0.00000000000E+00 -0.52778841811E+03  0.52778841813E+03  0.50400001928E-02 0. -1.
    10030    2    1    2    0    0  0.00000000000E+00  0.00000000000E+00  0.82610014611E+03  0.18816769824E+04  0.16906409478E+04 0.  0.
        3    1    3    3  502    0 -0.36395828278E+03 -0.68403293888E+03  0.78917034508E+03  0.11059640757E+04  0.10100000352E+00 0.  1.
       -3    1    3    3    0  502  0.36395828278E+03  0.68403293888E+03  0.36929801022E+02  0.77571290661E+03  0.10100000352E+00 0. -1.
</event>
<event>
 5   0  0.3573262E-04  0.1736306E+04  0.7818609E-02  0.8740925E-01
       -2   -1    0    0    0  501  0.00000000000E+00  0.00000000000E+00  0.23172421720E+03  0.23172421722E+03  0.25500000920E-02 0.  1.
        2   -1    0    0  501    0  0.00000000000E+00  0.00000000000E+00 -0.32525267560E+04  0.32525267560E+04  0.25500000920E-02 0. -1.
    10030    2    1    2    0    0  0.00000000000E+00  0.00000000000E+00 -0.30208025388E+04  0.34842509732E+04  0.17363055221E+04 0.  0.
        5    1    3    3  502    0  0.38004793449E+03 -0.28628553531E+02 -0.30756445495E+04  0.30991720687E+04  0.46999998093E+01 0. -1.
       -5    1    3    3    0  502 -0.38004793449E+03  0.28628553531E+02  0.54842010675E+02  0.38507890454E+03  0.46999998093E+01 0.  1.
</event>
<event>
 5   0  0.3516723E-04  0.1749368E+04  0.7818609E-02  0.8733698E-01
        2   -1    0    0  501    0  0.00000000000E+00  0.00000000000E+00  0.11705985272E+04  0.11705985272E+04  0.25500000920E-02 0.  1.
       -2   -1    0    0    0  501  0.00000000000E+00  0.00000000000E+00 -0.65357312372E+03  0.65357312373E+03  0.25500000920E-02 0. -1.
    10030    2    1    2    0    0  0.00000000000E+00  0.00000000000E+00  0.51702540352E+03  0.18241716510E+04  0.17493675841E+04 0.  0.
        1    1    3    3  502    0  0.10763529170E+03  0.47303970325E+03  0.10174532182E+04  0.11271925160E+04  0.50400001928E-02 0.  1.
       -1    1    3    3    0  502 -0.10763529170E+03 -0.47303970325E+03 -0.50042781468E+03  0.69697913498E+03  0.50400001928E-02 0. -1.
</event>
<event>
 5   0  0.1815663E-04  0.1661509E+04  0.7818609E-02  0.8783627E-01
        1   -1    0    0  501    0  0.00000000000E+00  0.00000000000E+00  0.58913343305E+03  0.58913343307E+03  0.50400001928E-02 0.  1.
       -1   -1    0    0    0  501  0.00000000000E+00  0.00000000000E+00 -0.11714720609E+04  0.11714720609E+04  0.50400001928E-02 0. -1.
    10030    2    1    2    0    0  0.00000000000E+00  0.00000000000E+00 -0.58233862787E+03  0.17606054940E+04  0.16615093825E+04 0.  0.
        5    1    3    3  502    0  0.24127166637E+03  0.61986459261E+03  0.23619529488E+03  0.70587140294E+03  0.46999998093E+01 0.  1.
       -5    1    3    3    0  502 -0.24127166637E+03 -0.61986459261E+03 -0.81853392275E+03  0.10547340911E+04  0.46999998093E+01 0. -1.
</event>
<event>
 5   0  0.1815663E-04  0.1660253E+04  0.7818609E-02  0.8784364E-01
        1   -1    0    0  501    0  0.00000000000E+00  0.00000000000E+00  0.13684593589E+04  0.13684593589E+04  0.50400001928E-02 0.  1.
       -1   -1    0    0    0  501  0.00000000000E+00  0.00000000000E+00 -0.50356600723E+03  0.50356600726E+03  0.50400001928E-02 0. -1.
    10030    2    1    2    0    0  0.00000000000E+00  0.00000000000E+00  0.86489335166E+03  0.18720253662E+04  0.16602525295E+04 0.  0.
        5    1    3    3  502    0 -0.81513772315E+03  0.62528754238E+02  0.27010946226E+03  0.86101136137E+03  0.46999998093E+01 0. -1.
       -5    1    3    3    0  502  0.81513772315E+03 -0.62528754238E+02  0.59478388940E+03  0.10110140048E+04  0.46999998093E+01 0.  1.
</event>
<event>
 5   0  0.3516723E-04  0.1749606E+04  0.7818609E-02  0.8733567E-01
       -2   -1    0    0    0  501  0.00000000000E+00  0.00000000000E+00  0.40356627582E+03  0.40356627583E+03  0.25500000920E-02 0.  1.
        2   -1    0    0  501    0  0.00000000000E+00  0.00000000000E+00 -0.18962930904E+04  0.18962930904E+04  0.25500000920E-02 0. -1.
    10030    2    1    2    0    0  0.00000000000E+00  0.00000000000E+00 -0.14927268146E+04  0.22998593662E+04  0.17496056017E+04 0.  0.
        1    1    3    3  502    0  0.14336247837E+03 -0.16508081103E+03  0.36707102431E+03  0.42725356790E+03  0.50400001928E-02 0.  1.
       -1    1    3    3    0  502 -0.14336247837E+03  0.16508081103E+03 -0.18597978389E+04  0.18726057983E+04  0.50400001928E-02 0. -1.
</event>
<event>
 5   0  0.1824538E-04  0.1692264E+04  0.7818609E-02  0.8765789E-01
        1   -1    0    0  501    0  0.00000000000E+00  0.00000000000E+00  0.11482289450E+04  0.11482289451E+04  0.50400001928E-02 0. -1.
       -1   -1    0    0    0  501  0.00000000000E+00  0.00000000000E+00 -0.62351614352E+03  0.62351614354E+03  0.50400001928E-02 0.  1.
    10030    2    1    2    0    0  0.00000000000E+00  0.00000000000E+00  0.52471280153E+03  0.17717450886E+04  0.16922639082E+04 0.  0.
        3    1    3    3  502    0 -0.71683324542E+03  0.24036029014E+03  0.66008868316E+03  0.10036633154E+04  0.10100000352E+00 0.  1.
       -3    1    3    3    0  502  0.71683324542E+03 -0.24036029014E+03 -0.13537588162E+03  0.76808177321E+03  0.10100000352E+00 0. -1.
</event>
<event>
 5   0  0.1893284E-04  0.1747767E+04  0.7818609E-02  0.8734581E-01
       -1   -1    0    0    0  501  0.00000000000E+00  0.00000000000E+00  0.62171238011E+03  0.62171238013E+03  0.50400001928E-02 0.  1.
        1   -1    0    0  501    0  0.00000000000E+00  0.00000000000E+00 -0.12283365561E+04  0.12283365561E+04  0.50400001928E-02 0. -1.
    10030    2    1    2    0    0  0.00000000000E+00  0.00000000000E+00 -0.60662417598E+03  0.18500489362E+04  0.17477666250E+04 0.  0.
        2    1    3    3  502    0 -0.58067906425E+03  0.50399296883E+03 -0.74291726193E+03  0.10691693722E+04  0.25500000920E-02 0. -1.
       -2    1    3    3    0  502  0.58067906425E+03 -0.50399296883E+03  0.13629308594E+03  0.78087956407E+03  0.25500000920E-02 0.  1.
</event>
<event>
 5   0  0.1920289E-04  0.1709440E+04  0.7818609E-02  0.8755999E-01
        1   -1    0    0  501    0  0.00000000000E+00  0.00000000000E+00  0.50922184048E+03  0.50922184051E+03  0.50400001928E-02 0.  1.
       -1   -1    0    0    0  501  0.00000000000E+00  0.00000000000E+00 -0.14346319266E+04  0.14346319266E+04  0.50400001928E-02 0. -1.
    10030    2    1    2    0    0  0.00000000000E+00  0.00000000000E+00 -0.92541008616E+03  0.19438537672E+04  0.17094395691E+04 0.  0.
        4    1    3    3  502    0  0.76952593719E+03  0.14962151792E+03 -0.84997649986E+03  0.11562951309E+04  0.12699999809E+01 0. -1.
       -4    1    3    3    0  502 -0.76952593719E+03 -0.14962151792E+03 -0.75433586293E+02  0.78755863621E+03  0.12699999809E+01 0.  1.
</event>
<event>
 5   0  0.1920289E-04  0.1701093E+04  0.7818609E-02  0.8760741E-01
        1   -1    0    0  501    0  0.00000000000E+00  0.00000000000E+00  0.88901647495E+03  0.88901647497E+03  0.50400001928E-02 0. -1.
       -1   -1    0    0    0  501  0.00000000000E+00  0.00000000000E+00 -0.81374140544E+03  0.81374140546E+03  0.50400001928E-02 0.  1.
    10030    2    1    2    0    0  0.00000000000E+00  0.00000000000E+00  0.75275069511E+02  0.17027578804E+04  0.17010931965E+04 0.  0.
        4    1    3    3  502    0 -0.88914030130E+02  0.15790030960E+03  0.86946802776E+03  0.88815228239E+03  0.12699999809E+01 0. -1.
       -4    1    3    3    0  502  0.88914030130E+02 -0.15790030960E+03 -0.79419295824E+03  0.81460559804E+03  0.12699999809E+01 0.  1.
</event>
<event>
 5   0  0.1930116E-04  0.1695993E+04  0.7818609E-02  0.8763653E-01
        1   -1    0    0  501    0  0.00000000000E+00  0.00000000000E+00  0.13574038179E+04  0.13574038179E+04  0.50400001928E-02 0.  1.
       -1   -1    0    0    0  501  0.00000000000E+00  0.00000000000E+00 -0.52975958101E+03  0.52975958103E+03  0.50400001928E-02 0. -1.
    10030    2    1    2    0    0  0.00000000000E+00  0.00000000000E+00  0.82764423687E+03  0.18871633989E+04  0.16959925446E+04 0.  0.
        1    1    3    3  502    0  0.17809990466E+03  0.14315536819E+03 -0.49485778707E+03  0.54506629407E+03  0.50400001928E-02 0. -1.
       -1    1    3    3    0  502 -0.17809990466E+03 -0.14315536819E+03  0.13225020239E+04  0.13420971048E+04  0.50400001928E-02 0.  1.
</event>
<event>
 5   0  0.1824538E-04  0.1695174E+04  0.7818609E-02  0.8764122E-01
        1   -1    0    0  501    0  0.00000000000E+00  0.00000000000E+00  0.91727945259E+03  0.91727945260E+03  0.50400001928E-02 0. -1.
       -1   -1    0    0    0  501  0.00000000000E+00  0.00000000000E+00 -0.78318922522E+03  0.78318922524E+03  0.50400001928E-02 0.  1.
    10030    2    1    2    0    0  0.00000000000E+00  0.00000000000E+00  0.13409022737E+03  0.17004686778E+04  0.16951736003E+04 0.  0.
        3    1    3    3  502    0  0.48271769153E+03  0.69403376466E+03  0.12809684739E+03  0.85504856512E+03  0.10100000352E+00 0.  1.
       -3    1    3    3    0  502 -0.48271769153E+03 -0.69403376466E+03  0.59933799783E+01  0.84542011272E+03  0.10100000352E+00 0. -1.
</event>
<event>
 5   0  0.1920289E-04  0.1729072E+04  0.7818609E-02  0.8744955E-01
       -1   -1    0    0    0  501  0.00000000000E+00  0.00000000000E+00  0.78606767516E+03  0.78606767518E+03  0.50400001928E-02 0. -1.
        1   -1    0    0  501    0  0.00000000000E+00  0.00000000000E+00 -0.95083734103E+03  0.95083734104E+03  0.50400001928E-02 0.  1.
    10030    2    1    2    0    0  0.00000000000E+00  0.00000000000E+00 -0.16476966587E+03  0.17369050162E+04  0.17290720033E+04 0.  0.
        4    1    3    3  502    0  0.63309342032E+03  0.51745527938E+03  0.19969618625E+03  0.84169318918E+03  0.12699999809E+01 0. -1.
       -4    1    3    3    0  502 -0.63309342032E+03 -0.51745527938E+03 -0.36446585212E+03  0.89521182704E+03  0.12699999809E+01 0.  1.
</event>
<event>
 5   0  0.3574092E-04  0.1711299E+04  0.7818609E-02  0.8754946E-01
       -2   -1    0    0    0  501  0.00000000000E+00  0.00000000000E+00  0.74844808151E+03  0.74844808151E+03  0.25500000920E-02 0.  1.
        2   -1    0    0  501    0  0.00000000000E+00  0.00000000000E+00 -0.97820593827E+03  0.97820593828E+03  0.25500000920E-02 0. -1.
    10030    2    1    2    0    0  0.00000000000E+00  0.00000000000E+00 -0.22975785677E+03  0.17266540198E+04  0.17112993401E+04 0.  0.
        3    1    3    3  502    0  0.11628715554E+03  0.19139502213E+02 -0.96997783208E+03  0.97711106228E+03  0.10100000352E+00 0. -1.
       -3    1    3    3    0  502 -0.11628715554E+03 -0.19139502213E+02  0.74021997532E+03  0.74954295751E+03  0.10100000352E+00 0.  1.
</event>
<event>
 5   0  0.1893284E-04  0.1703141E+04  0.7818609E-02  0.8759575E-01
       -1   -1    0    0    0  501  0.00000000000E+00  0.00000000000E+00  0.92630602052E+03  0.92630602053E+03  0.50400001928E-02 0.  1.
        1   -1    0    0  501    0  0.00000000000E+00  0.00000000000E+00 -0.78286494251E+03  0.78286494252E+03  0.50400001928E-02 0. -1.
    10030    2    1    2    0    0  0.00000000000E+00  0.00000000000E+00  0.14344107801E+03  0.17091709631E+04  0.17031412267E+04 0.  0.
        2    1    3    3  502    0  0.19206885300E+03  0.42470332721E+02  0.90319375206E+03  0.92436633821E+03  0.25500000920E-02 0.  1.
       -2    1    3    3    0  502 -0.19206885300E+03 -0.42470332721E+02 -0.75975267405E+03  0.78480462485E+03  0.25500000920E-02 0. -1.
</event>
<event>
 5   0  0.1824538E-04  0.1903390E+04  0.7818609E-02  0.8653171E-01
       -1   -1    0    0    0  501  0.00000000000E+00  0.00000000000E+00  0.10182725807E+04  0.10182725807E+04  0.50400001928E-02 0. -1.
        1   -1    0    0  501    0  0.00000000000E+00  0.00000000000E+00 -0.88947070184E+03  0.88947070185E+03  0.50400001928E-02 0.  1.
    10030    2    1    2    0    0  0.00000000000E+00  0.00000000000E+00  0.12880187884E+03  0.19077432825E+04  0.19033902669E+04 0.  0.
        3    1    3    3  502    0  0.22504143713E+02 -0.49854033896E+02  0.10166958183E+04  0.10181661251E+04  0.10100000352E+00 0. -1.
       -3    1    3    3    0  502 -0.22504143713E+02  0.49854033896E+02 -0.88789393943E+03  0.88957715745E+03  0.10100000352E+00 0.  1.
</event>
<event>
 5   0  0.1893284E-04  0.1729765E+04  0.7818609E-02  0.8744568E-01
        1   -1    0    0  501    0  0.00000000000E+00  0.00000000000E+00  0.83311362950E+03  0.83311362951E+03  0.50400001928E-02 0.  1.
       -1   -1    0    0    0  501  0.00000000000E+00  0.00000000000E+00 -0.89786243417E+03  0.89786243418E+03  0.50400001928E-02 0. -1.
    10030    2    1    2    0    0  0.00000000000E+00  0.00000000000E+00 -0.64748804672E+02  0.17309760637E+04  0.17297646445E+04 0.  0.
        2    1    3    3  502    0  0.30305384943E+03 -0.64778606064E+03  0.45433337989E+03  0.84728226472E+03  0.25500000920E-02 0.  1.
       -2    1    3    3    0  502 -0.30305384943E+03  0.64778606064E+03 -0.51908218457E+03  0.88369379898E+03  0.25500000920E-02 0. -1.
</event>
<event>
 5   0  0.3516723E-04  0.1681299E+04  0.7818609E-02  0.8772103E-01
       -2   -1    0    0    0  501  0.00000000000E+00  0.00000000000E+00  0.46597805287E+03  0.46597805287E+03  0.25500000920E-02 0. -1.
        2   -1    0    0  501    0  0.00000000000E+00  0.00000000000E+00 -0.15165765232E+04  0.15165765232E+04  0.25500000920E-02 0.  1.
    10030    2    1    2    0    0  0.00000000000E+00  0.00000000000E+00 -0.10505984703E+04  0.19825545760E+04  0.16812987543E+04 0.  0.
        1    1    3    3  502    0 -0.78315689743E+03 -0.24278693220E+03 -0.30655839081E+03  0.87536179231E+03  0.50400001928E-02 0. -1.
       -1    1    3    3    0  502  0.78315689743E+03  0.24278693220E+03 -0.74404007949E+03  0.11071927837E+04  0.50400001928E-02 0.  1.
</event>
<event>
 5   0  0.1930116E-04  0.1698826E+04  0.7818609E-02  0.8762034E-01
        1   -1    0    0  501    0  0.00000000000E+00  0.00000000000E+00  0.73407807043E+03  0.73407807045E+03  0.50400001928E-02 0.  1.
       -1   -1    0    0    0  501  0.00000000000E+00  0.00000000000E+00 -0.98286897285E+03  0.98286897286E+03  0.50400001928E-02 0. -1.
    10030    2    1    2    0    0  0.00000000000E+00  0.00000000000E+00 -0.24879090242E+03  0.17169470433E+04  0.16988261348E+04 0.  0.
        1    1    3    3  502    0  0.34672050007E+03 -0.44590878563E+03 -0.76555401588E+03  0.95137936783E+03  0.50400001928E-02 0. -1.
       -1    1    3    3    0  502 -0.34672050007E+03  0.44590878563E+03  0.51676311347E+03  0.76556767548E+03  0.50400001928E-02 0.  1.
</event>
<event>
 5   0  0.3678896E-04  0.1710946E+04  0.7818609E-02  0.8755146E-01
        2   -1    0    0  501    0  0.00000000000E+00  0.00000000000E+00  0.12973967156E+04  0.12973967156E+04  0.25500000920E-02 0.  1.
       -2   -1    0    0    0  501  0.00000000000E+00  0.00000000000E+00 -0.56407859000E+03  0.56407859001E+03  0.25500000920E-02 0. -1.
    10030    2    1    2    0    0  0.00000000000E+00  0.00000000000E+00  0.73331812555E+03  0.18614753056E+04  0.17109455982E+04 0.  0.
        2    1    3    3  502    0  0.38021710876E+03  0.75983171686E+03  0.25827293641E+03  0.88803952470E+03  0.25500000920E-02 0. -1.
       -2    1    3    3    0  502 -0.38021710876E+03 -0.75983171686E+03  0.47504518914E+03  0.97343578086E+03  0.25500000920E-02 0.  1.
</event>
<event>
 5   0  0.1317625E-04  0.1706194E+04  0.7818609E-02  0.8757839E-01
       -3   -1    0    0    0  501  0.00000000000E+00  0.00000000000E+00  0.82342321828E+03  0.82342322447E+03  0.10100000352E+00 0. -1.
        3   -1    0    0  501    0  0.00000000000E+00  0.00000000000E+00 -0.88384041258E+03  0.88384041835E+03  0.10100000352E+00 0.  1.
    10030    2    1    2    0    0  0.00000000000E+00  0.00000000000E+00 -0.60417194305E+02  0.17072636428E+04  0.17061942764E+04 0.  0.
        4    1    3    3  502    0 -0.58759364493E+03  0.20161078923E+03  0.55484573516E+03  0.83292773073E+03  0.12699999809E+01 0. -1.
       -4    1    3    3    0  502  0.58759364493E+03 -0.20161078923E+03 -0.61526292947E+03  0.87433591209E+03  0.12699999809E+01 0.  1.
</event>
<event>
 5   0  0.1930116E-04  0.1731946E+04  0.7818609E-02  0.8743352E-01
       -1   -1    0    0    0  501  0.00000000000E+00  0.00000000000E+00  0.91965566286E+03  0.91965566287E+03  0.50400001928E-02 0. -1.
        1   -1    0    0  501    0  0.00000000000E+00  0.00000000000E+00 -0.81542349700E+03  0.81542349702E+03  0.50400001928E-02 0.  1.
    10030    2    1    2    0    0  0.00000000000E+00  0.00000000000E+00  0.10423216586E+03  0.17350791599E+04  0.17319455380E+04 0.  0.
        1    1    3    3  502    0  0.45065318801E+03  0.61784248516E+03 -0.35493323378E+03  0.84308672911E+03  0.50400001928E-02 0. -1.
       -1    1    3    3    0  502 -0.45065318801E+03 -0.61784248516E+03  0.45916539964E+03  0.89199243079E+03  0.50400001928E-02 0.  1.
</event>
<event>
 5   0  0.1824538E-04  0.1714002E+04  0.7818609E-02  0.8753418E-01
       -1   -1    0    0    0  501  0.00000000000E+00  0.00000000000E+00  0.63040832438E+03  0.63040832440E+03  0.50400001928E-02 0. -1.
        1   -1    0    0  501    0  0.00000000000E+00  0.00000000000E+00 -0.11650400189E+04  0.11650400190E+04  0.50400001928E-02 0.  1.
    10030    2    1    2    0    0  0.00000000000E+00  0.00000000000E+00 -0.53463169456E+03  0.17954483434E+04  0.17140022476E+04 0.  0.
        3    1    3    3  502    0 -0.34843651204E+03 -0.14866700137E+03  0.53793947148E+03  0.65794282837E+03  0.10100000352E+00 0. -1.
       -3    1    3    3    0  502  0.34843651204E+03  0.14866700137E+03 -0.10725711660E+04  0.11375055150E+04  0.10100000352E+00 0.  1.
</event>
<event>
 5   0  0.3574092E-04  0.1697335E+04  0.7818609E-02  0.8762886E-01
        2   -1    0    0  501    0  0.00000000000E+00  0.00000000000E+00  0.45313704249E+03  0.45313704250E+03  0.25500000920E-02 0. -1.
       -2   -1    0    0    0  501  0.00000000000E+00  0.00000000000E+00 -0.15894452142E+04  0.15894452142E+04  0.25500000920E-02 0.  1.
    10030    2    1    2    0    0  0.00000000000E+00  0.00000000000E+00 -0.11363081717E+04  0.20425822567E+04  0.16973349741E+04 0.  0.
        3    1    3    3  502    0  0.14997456000E+03  0.80578105339E+03 -0.30323803971E+03  0.87391578175E+03  0.10100000352E+00 0. -1.
       -3    1    3    3    0  502 -0.14997456000E+03 -0.80578105339E+03 -0.83307013197E+03  0.11686664749E+04  0.10100000352E+00 0.  1.
</event>
<event>
 5   0  0.3605571E-04  0.1660828E+04  0.7818609E-02  0.8784026E-01
       -2   -1    0    0    0  501  0.00000000000E+00  0.00000000000E+00  0.37966766040E+03  0.37966766041E+03  0.25500000920E-02 0.  1.
        2   -1    0    0  501    0  0.00000000000E+00  0.00000000000E+00 -0.18162928335E+04  0.18162928335E+04  0.25500000920E-02 0. -1.
    10030    2    1    2    0    0  0.00000000000E+00  0.00000000000E+00 -0.14366251731E+04  0.21959604939E+04  0.16608282882E+04 0.  0.
        4    1    3    3  502    0 -0.56673847668E+03  0.11095505404E+03  0.70683978326E+02  0.58180869936E+03  0.12699999809E+01 0.  1.
       -4    1    3    3    0  502  0.56673847668E+03 -0.11095505404E+03 -0.15073091514E+04  0.16141517946E+04  0.12699999809E+01 0. -1.
</event>
<event>
 5   0  0.1930116E-04  0.1702383E+04  0.7818609E-02  0.8760006E-01
        1   -1    0    0  501    0  0.00000000000E+00  0.00000000000E+00  0.11241219294E+04  0.11241219294E+04  0.50400001928E-02 0.  1.
       -1   -1    0    0    0  501  0.00000000000E+00  0.00000000000E+00 -0.64452705768E+03  0.64452705770E+03  0.50400001928E-02 0. -1.
    10030    2    1    2    0    0  0.00000000000E+00  0.00000000000E+00  0.47959487168E+03  0.17686489871E+04  0.17023830352E+04 0.  0.
        1    1    3    3  502    0 -0.59961854960E+03 -0.58527802926E+03  0.84186582756E+02  0.84212834966E+03  0.50400001928E-02 0.  1.
       -1    1    3    3    0  502  0.59961854960E+03  0.58527802926E+03  0.39540828892E+03  0.92652063740E+03  0.50400001928E-02 0. -1.
</event>
<event>
 5   0  0.1815663E-04  0.1715964E+04  0.7818609E-02  0.8752312E-01
        1   -1    0    0  501    0  0.00000000000E+00  0.00000000000E+00  0.82699521814E+03  0.82699521815E+03  0.50400001928E-02 0. -1.
       -1   -1    0    0    0  501  0.00000000000E+00  0.00000000000E+00 -0.89012985258E+03  0.89012985260E+03  0.50400001928E-02 0.  1.
    10030    2    1    2    0    0  0.00000000000E+00  0.00000000000E+00 -0.63134634446E+02  0.17171250707E+04  0.17159640225E+04 0.  0.
        5    1    3    3  502    0  0.33199840560E+03 -0.52274229375E+02 -0.82150343120E+03  0.88760662112E+03  0.46999998093E+01 0.  1.
       -5    1    3    3    0  502 -0.33199840560E+03  0.52274229375E+02  0.75836879676E+03  0.82951844963E+03  0.46999998093E+01 0. -1.
</event>
<event>
 5   0  0.3574092E-04  0.1701123E+04  0.7818609E-02  0.8760724E-01
       -2   -1    0    0    0  501  0.00000000000E+00  0.00000000000E+00  0.11793857480E+04  0.11793857480E+04  0.25500000920E-02 0.  1.
        2   -1    0    0  501    0  0.00000000000E+00  0.00000000000E+00 -0.61341659897E+03  0.61341659897E+03  0.25500000920E-02 0. -1.
    10030    2    1    2    0    0  0.00000000000E+00  0.00000000000E+00  0.56596914899E+03  0.17928023469E+04  0.17011229166E+04 0.  0.
        3    1    3    3  502    0 -0.47762425121E+03 -0.57486147098E+03  0.71090185824E+03  0.10314902319E+04  0.10100000352E+00 0.  1.
       -3    1    3    3    0  502  0.47762425121E+03  0.57486147098E+03 -0.14493270925E+03  0.76131211508E+03  0.10100000352E+00 0. -1.
</event>
<event>
 5   0  0.1920289E-04  0.1694565E+04  0.7818609E-02  0.8764470E-01
       -1   -1    0    0    0  501  0.00000000000E+00  0.00000000000E+00  0.13771145836E+04  0.13771145836E+04  0.50400001928E-02 0. -1.
        1   -1    0    0  501    0  0.00000000000E+00  0.00000000000E+00 -0.52129818885E+03  0.52129818887E+03  0.50400001928E-02 0.  1.
    10030    2    1    2    0    0  0.00000000000E+00  0.00000000000E+00  0.85581639477E+03  0.18984127725E+04  0.16945646501E+04 0.  0.
        4    1    3    3  502    0  0.53341900928E+03 -0.14475385652E+03 -0.29152394288E+03  0.62488186132E+03  0.12699999809E+01 0.  1.
       -4    1    3    3    0  502 -0.53341900928E+03  0.14475385652E+03  0.11473403376E+04  0.12735309112E+04  0.12699999809E+01 0. -1.
</event>
<event>
 5   0  0.3574092E-04  0.1704645E+04  0.7818609E-02  0.8758719E-01
       -2   -1    0    0    0  501  0.00000000000E+00  0.00000000000E+00  0.43104065741E+03  0.43104065742E+03  0.25500000920E-02 0. -1.
        2   -1    0    0  501    0  0.00000000000E+00  0.00000000000E+00 -0.16853491223E+04  0.16853491223E+04  0.25500000920E-02 0.  1.
    10030    2    1    2    0    0  0.00000000000E+00  0.00000000000E+00 -0.12543084649E+04  0.21163897797E+04  0.17046454102E+04 0.  0.
        3    1    3    3  502    0 -0.52025742046E+03 -0.10678256412E+03 -0.14547926746E+04  0.15487065687E+04  0.10100000352E+00 0.  1.
       -3    1    3    3    0  502  0.52025742046E+03  0.10678256412E+03  0.20048420974E+03  0.56768321104E+03  0.10100000352E+00 0. -1.
</event>
<event>
 5   0  0.1317625E-04  0.1641613E+04  0.7818609E-02  0.8795384E-01
        3   -1    0    0  501    0  0.00000000000E+00  0.00000000000E+00  0.28839271592E+03  0.28839273360E+03  0.10100000352E+00 0.  1.
       -3   -1    0    0    0  501  0.00000000000E+00  0.00000000000E+00 -0.23361301891E+04  0.23361301913E+04  0.10100000352E+00 0. -1.
    10030    2    1    2    0    0  0.00000000000E+00  0.00000000000E+00 -0.20477374732E+04  0.26245229249E+04  0.16416125682E+04 0.  0.
        2    1    3    3  502    0  0.71656965338E+03  0.46718899849E+02 -0.16594952443E+04  0.18081977740E+04  0.25500000920E-02 0. -1.
       -2    1    3    3    0  502 -0.71656965338E+03 -0.46718899849E+02 -0.38824222881E+03  0.81632515089E+03  0.25500000920E-02 0.  1.
</event>
<event>
 5   0  0.1893284E-04  0.1702989E+04  0.7818609E-02  0.8759662E-01
       -1   -1    0    0    0  501  0.00000000000E+00  0.00000000000E+00  0.48662629212E+03  0.48662629215E+03  0.50400001928E-02 0. -1.
        1   -1    0    0  501    0  0.00000000000E+00  0.00000000000E+00 -0.14899373975E+04  0.14899373975E+04  0.50400001928E-02 0.  1.
    10030    2    1    2    0    0  0.00000000000E+00  0.00000000000E+00 -0.10033111054E+04  0.19765636897E+04  0.17029887977E+04 0.  0.
        2    1    3    3  502    0 -0.44707206588E+03  0.18964472616E+03 -0.13134462891E+04  0.14003498523E+04  0.25500000920E-02 0.  1.
       -2    1    3    3    0  502  0.44707206588E+03 -0.18964472616E+03  0.31013518374E+03  0.57621383743E+03  0.25500000920E-02 0. -1.
</event>
<event>
 5   0  0.3573262E-04  0.1689062E+04  0.7818609E-02  0.8767627E-01
        2   -1    0    0  501    0  0.00000000000E+00  0.00000000000E+00  0.14957919109E+04  0.14957919109E+04  0.25500000920E-02 0.  1.
       -2   -1    0    0    0  501  0.00000000000E+00  0.00000000000E+00 -0.47682635689E+03  0.47682635690E+03  0.25500000920E-02 0. -1.
    10030    2    1    2    0    0  0.00000000000E+00  0.00000000000E+00  0.10189655540E+04  0.19726182678E+04  0.16890624708E+04 0.  0.
        5    1    3    3  502    0 -0.16850346950E+03 -0.11068335779E+03 -0.44829557384E+03  0.49156407156E+03  0.46999998093E+01 0. -1.
       -5    1    3    3    0  502  0.16850346950E+03  0.11068335779E+03  0.14672611279E+04  0.14810541963E+04  0.46999998093E+01 0.  1.
</event>
<event>
 5   0  0.1930116E-04  0.1710344E+04  0.7818609E-02  0.8755487E-01
        1   -1    0    0  501    0  0.00000000000E+00  0.00000000000E+00  0.14653843170E+04  0.14653843170E+04  0.50400001928E-02 0.  1.
       -1   -1    0    0    0  501  0.00000000000E+00  0.00000000000E+00 -0.49906315043E+03  0.49906315046E+03  0.50400001928E-02 0. -1.
    10030    2    1    2    0    0  0.00000000000E+00  0.00000000000E+00  0.96632116657E+03  0.19644474675E+04  0.17103441921E+04 0.  0.
        1    1    3    3  502    0 -0.63418113689E+03 -0.51318918776E+03  0.77771960728E+03  0.11271187357E+04  0.50400001928E-02 0.  1.
       -1    1    3    3    0  502  0.63418113689E+03  0.51318918776E+03  0.18860155929E+03  0.83732873175E+03  0.50400001928E-02 0. -1.
</event>
<event>
 5   0  0.1930116E-04  0.1558927E+04  0.7818609E-02  0.8846186E-01
       -1   -1    0    0    0  501  0.00000000000E+00  0.00000000000E+00  0.46848673982E+03  0.46848673985E+03  0.50400001928E-02 0.  1.
        1   -1    0    0  501    0  0.00000000000E+00  0.00000000000E+00 -0.12968630207E+04  0.12968630207E+04  0.50400001928E-02 0. -1.
    10030    2    1    2    0    0  0.00000000000E+00  0.00000000000E+00 -0.82837628086E+03  0.17653497605E+04  0.15589267187E+04 0.  0.
        1    1    3    3  502    0  0.20449633833E+03 -0.39077611727E+03  0.31359213084E+03  0.54116979846E+03  0.50400001928E-02 0.  1.
       -1    1    3    3    0  502 -0.20449633833E+03  0.39077611727E+03 -0.11419684117E+04  0.12241799621E+04  0.50400001928E-02 0. -1.
</event>
<event>
 5   0  0.3574092E-04  0.1702293E+04  0.7818609E-02  0.8760057E-01
       -2   -1    0    0    0  501  0.00000000000E+00  0.00000000000E+00  0.11882952179E+04  0.11882952179E+04  0.25500000920E-02 0. -1.
        2   -1    0    0  501    0  0.00000000000E+00  0.00000000000E+00 -0.60965548963E+03  0.60965548964E+03  0.25500000920E-02 0.  1.
    10030    2    1    2    0    0  0.00000000000E+00  0.00000000000E+00  0.57863972824E+03  0.17979507075E+04  0.17022933976E+04 0.  0.
        3    1    3    3  502    0  0.36130392878E+03  0.33401257542E+03  0.10228578362E+04  0.11350520221E+04  0.10100000352E+00 0. -1.
       -3    1    3    3    0  502 -0.36130392878E+03 -0.33401257542E+03 -0.44421810798E+03  0.66289868544E+03  0.10100000352E+00 0.  1.
</event>
<event>
 5   0  0.1920289E-04  0.1700140E+04  0.7818609E-02  0.8761285E-01
       -1   -1    0    0    0  501  0.00000000000E+00  0.00000000000E+00  0.63587223656E+03  0.63587223658E+03  0.50400001928E-02 0. -1.
        1   -1    0    0  501    0  0.00000000000E+00  0.00000000000E+00 -0.11364211257E+04  0.11364211257E+04  0.50400001928E-02 0.  1.
    10030    2    1    2    0    0  0.00000000000E+00  0.00000000000E+00 -0.50054888910E+03  0.17722933622E+04  0.17001395741E+04 0.  0.
        4    1    3    3  502    0 -0.57852894829E+03  0.43115387727E+03 -0.71882494736E+03  0.10184794194E+04  0.12699999809E+01 0.  1.
       -4    1    3    3    0  502  0.57852894829E+03 -0.43115387727E+03  0.21827605827E+03  0.75381394284E+03  0.12699999809E+01 0. -1.
</event>
<event>
 5   0  0.1930116E-04  0.1706001E+04  0.7818609E-02  0.8757949E-01
       -1   -1    0    0    0  501  0.00000000000E+00  0.00000000000E+00  0.67811410876E+03  0.67811410878E+03  0.50400001928E-02 0. -1.
        1   -1    0    0  501    0  0.00000000000E+00  0.00000000000E+00 -0.10729905044E+04  0.10729905044E+04  0.50400001928E-02 0.  1.
    10030    2    1    2    0    0  0.00000000000E+00  0.00000000000E+00 -0.39487639567E+03  0.17511046132E+04  0.17060011719E+04 0.  0.
        1    1    3    3  502    0 -0.43201314835E+03  0.27458254619E+03  0.50293495282E+03  0.71761723908E+03  0.50400001928E-02 0. -1.
       -1    1    3    3    0  502  0.43201314835E+03 -0.27458254619E+03 -0.89781134850E+03  0.10334873742E+04  0.50400001928E-02 0.  1.
</event>
<event>
 5   0  0.3573262E-04  0.1796643E+04  0.7818609E-02  0.8708087E-01
        2   -1    0    0  501    0  0.00000000000E+00  0.00000000000E+00  0.23625970455E+04  0.23625970455E+04  0.25500000920E-02 0. -1.
       -2   -1    0    0    0  501  0.00000000000E+00  0.00000000000E+00 -0.34156560350E+03  0.34156560351E+03  0.25500000920E-02 0.  1.
    10030    2    1    2    0    0  0.00000000000E+00  0.00000000000E+00  0.20210314420E+04  0.27041626490E+04  0.17966434100E+04 0.  0.
        5    1    3    3  502    0  0.26604168337E+03  0.15986583935E+02 -0.28066790045E+03  0.38707920184E+03  0.46999998093E+01 0.  1.
       -5    1    3    3    0  502 -0.26604168337E+03 -0.15986583935E+02  0.23016993424E+04  0.23170834472E+04  0.46999998093E+01 0. -1.
</event>
<event>
 5   0  0.1815663E-04  0.1706943E+04  0.7818609E-02  0.8757414E-01
       -1   -1    0    0    0  501  0.00000000000E+00  0.00000000000E+00  0.29446218169E+03  0.29446218173E+03  0.50400001928E-02 0.  1.
        1   -1    0    0  501    0  0.00000000000E+00  0.00000000000E+00 -0.24737087381E+04  0.24737087381E+04  0.50400001928E-02 0. -1.
    10030    2    1    2    0    0  0.00000000000E+00  0.00000000000E+00 -0.21792465565E+04  0.27681709199E+04  0.17069430828E+04 0.  0.
        5    1    3    3  502    0 -0.22969693708E+03 -0.23212840362E+03 -0.23683590579E+04  0.23907720502E+04  0.46999998093E+01 0. -1.
       -5    1    3    3    0  502  0.22969693708E+03  0.23212840362E+03  0.18911250144E+03  0.37739886972E+03  0.46999998093E+01 0.  1.
</event>
<event>
 5   0  0.3574092E-04  0.1725457E+04  0.7818609E-02  0.8746977E-01
        2   -1    0    0  501    0  0.00000000000E+00  0.00000000000E+00  0.12914248195E+04  0.12914248195E+04  0.25500000920E-02 0.  1.
       -2   -1    0    0    0  501  0.00000000000E+00  0.00000000000E+00 -0.57634053049E+03  0.57634053050E+03  0.25500000920E-02 0. -1.
    10030    2    1    2    0    0  0.00000000000E+00  0.00000000000E+00  0.71508428896E+03  0.18677653500E+04  0.17254570010E+04 0.  0.
        3    1    3    3  502    0  0.82524862350E+02 -0.13684768287E+03 -0.56017949752E+03  0.58252787131E+03  0.10100000352E+00 0. -1.
       -3    1    3    3    0  502 -0.82524862350E+02  0.13684768287E+03  0.12752637865E+04  0.12852374786E+04  0.10100000352E+00 0.  1.
</event>
<event>
 5   0  0.1893284E-04  0.1706733E+04  0.7818609E-02  0.8757534E-01
        1   -1    0    0  501    0  0.00000000000E+00  0.00000000000E+00  0.10043426504E+04  0.10043426504E+04  0.50400001928E-02 0.  1.
       -1   -1    0    0    0  501  0.00000000000E+00  0.00000000000E+00 -0.72508531555E+03  0.72508531556E+03  0.50400001928E-02 0. -1.
    10030    2    1    2    0    0  0.00000000000E+00  0.00000000000E+00  0.27925733483E+03  0.17294279660E+04  0.17067326769E+04 0.  0.
        2    1    3    3  502    0 -0.50250194099E+03 -0.50432107063E+03  0.61640228130E+03  0.94170043824E+03  0.25500000920E-02 0.  1.
       -2    1    3    3    0  502  0.50250194099E+03  0.50432107063E+03 -0.33714494647E+03  0.78772752771E+03  0.25500000920E-02 0. -1.
</event>
<event>
 5   0  0.1920289E-04  0.1699183E+04  0.7818609E-02  0.8761831E-01
       -1   -1    0    0    0  501  0.00000000000E+00  0.00000000000E+00  0.61127080005E+03  0.61127080007E+03  0.50400001928E-02 0. -1.
        1   -1    0    0  501    0  0.00000000000E+00  0.00000000000E+00 -0.11808276922E+04  0.11808276922E+04  0.50400001928E-02 0.  1.
    10030    2    1    2    0    0  0.00000000000E+00  0.00000000000E+00 -0.56955689217E+03  0.17920984923E+04  0.16991827308E+04 0.  0.
        4    1    3    3  502    0 -0.73893007214E+03  0.39170038181E+03 -0.44247742773E+03  0.94616844566E+03  0.12699999809E+01 0. -1.
       -4    1    3    3    0  502  0.73893007214E+03 -0.39170038181E+03 -0.12707946444E+03  0.84593004664E+03  0.12699999809E+01 0.  1.
</event>
<event>
 5   0  0.1930116E-04  0.1707046E+04  0.7818609E-02  0.8757356E-01
       -1   -1    0    0    0  501  0.00000000000E+00  0.00000000000E+00  0.59029040397E+03  0.59029040399E+03  0.50400001928E-02 0.  1.
        1   -1    0    0  501    0  0.00000000000E+00  0.00000000000E+00 -0.12341410621E+04  0.12341410621E+04  0.50400001928E-02 0. -1.
    10030    2    1    2    0    0  0.00000000000E+00  0.00000000000E+00 -0.64385065812E+03  0.18244314661E+04  0.17070461343E+04 0.  0.
        1    1    3    3  502    0 -0.26660159496E+03  0.58347275831E+03  0.27980442124E+03  0.69986240383E+03  0.50400001928E-02 0.  1.
       -1    1    3    3    0  502  0.26660159496E+03 -0.58347275831E+03 -0.92365507936E+03  0.11245690623E+04  0.50400001928E-02 0. -1.
</event>
<event>
 5   0  0.1920289E-04  0.1671805E+04  0.7818609E-02  0.8777610E-01
        1   -1    0    0  501    0  0.00000000000E+00  0.00000000000E+00  0.33778293897E+04  0.33778293897E+04  0.50400001928E-02 0.  1.
       -1   -1    0    0    0  501  0.00000000000E+00  0.00000000000E+00 -0.20685855808E+03  0.20685855814E+03  0.50400001928E-02 0. -1.
    10030    2    1    2    0    0  0.00000000000E+00  0.00000000000E+00  0.31709708316E+04  0.35846879478E+04  0.16718049134E+04 0.  0.
        4    1    3    3  502    0 -0.10447210854E+03  0.56269928020E+03  0.28918421484E+04  0.29479310585E+04  0.12699999809E+01 0.  1.
       -4    1    3    3    0  502  0.10447210854E+03 -0.56269928020E+03  0.27912868314E+03  0.63675688928E+03  0.12699999809E+01 0. -1.
</event>
<event>
 5   0  0.3678896E-04  0.1694409E+04  0.7818609E-02  0.8764560E-01
        2   -1    0    0  501    0  0.00000000000E+00  0.00000000000E+00  0.11552158440E+04  0.11552158440E+04  0.25500000920E-02 0. -1.
       -2   -1    0    0    0  501  0.00000000000E+00  0.00000000000E+00 -0.62131716753E+03  0.62131716753E+03  0.25500000920E-02 0.  1.
    10030    2    1    2    0    0  0.00000000000E+00  0.00000000000E+00  0.53389867646E+03  0.17765330115E+04  0.16944089661E+04 0.  0.
        2    1    3    3  502    0  0.18286554542E+02 -0.69601161730E+03  0.77303335949E+03  0.10403591420E+04  0.25500000920E-02 0. -1.
       -2    1    3    3    0  502 -0.18286554542E+02  0.69601161730E+03 -0.23913468303E+03  0.73617386950E+03  0.25500000920E-02 0.  1.
</event>
<event>
 5   0  0.3516723E-04  0.1705068E+04  0.7818609E-02  0.8758479E-01
        2   -1    0    0  501    0  0.00000000000E+00  0.00000000000E+00  0.10438540751E+04  0.10438540751E+04  0.25500000920E-02 0. -1.
       -2   -1    0    0    0  501  0.00000000000E+00  0.00000000000E+00 -0.69627978566E+03  0.69627978567E+03  0.25500000920E-02 0.  1.
    10030    2    1    2    0    0  0.00000000000E+00  0.00000000000E+00  0.34757428942E+03  0.17401338608E+04  0.17050683173E+04 0.  0.
        1    1    3    3  502    0  0.17714830318E+03 -0.57024985313E+03  0.79478096453E+03  0.99410421885E+03  0.50400001928E-02 0. -1.
       -1    1    3    3    0  502 -0.17714830318E+03  0.57024985313E+03 -0.44720667511E+03  0.74602964191E+03  0.50400001928E-02 0.  1.
</event>
<event>
 5   0  0.3574092E-04  0.1701873E+04  0.7818609E-02  0.8760297E-01
       -2   -1    0    0    0  501  0.00000000000E+00  0.00000000000E+00  0.44290592769E+03  0.44290592770E+03  0.25500000920E-02 0.  1.
        2   -1    0    0  501    0  0.00000000000E+00  0.00000000000E+00 -0.16348681259E+04  0.16348681259E+04  0.25500000920E-02 0. -1.
    10030    2    1    2    0    0  0.00000000000E+00  0.00000000000E+00 -0.11919621982E+04  0.20777740536E+04  0.17018728319E+04 0.  0.
        3    1    3    3  502    0 -0.22573536960E+03  0.55126226359E+03 -0.13378535605E+04  0.14644789859E+04  0.10100000352E+00 0. -1.
       -3    1    3    3    0  502  0.22573536960E+03 -0.55126226359E+03  0.14589136232E+03  0.61329506777E+03  0.10100000352E+00 0.  1.
</event>
<event>
 5   0  0.3516723E-04  0.1705630E+04  0.7818609E-02  0.8758160E-01
       -2   -1    0    0    0  501  0.00000000000E+00  0.00000000000E+00  0.14431036373E+04  0.14431036373E+04  0.25500000920E-02 0. -1.
        2   -1    0    0  501    0  0.00000000000E+00  0.00000000000E+00 -0.50397861439E+03  0.50397861439E+03  0.25500000920E-02 0.  1.
    10030    2    1    2    0    0  0.00000000000E+00  0.00000000000E+00  0.93912502289E+03  0.19470822517E+04  0.17056299382E+04 0.  0.
        1    1    3    3  502    0 -0.84854584130E+03 -0.83367528628E+02  0.44936035105E+03  0.96379713360E+03  0.50400001928E-02 0. -1.
       -1    1    3    3    0  502  0.84854584130E+03  0.83367528628E+02  0.48976467184E+03  0.98328511807E+03  0.50400001928E-02 0.  1.
</event>
<event>
 5   0  0.3605571E-04  0.1691208E+04  0.7818609E-02  0.8766395E-01
       -2   -1    0    0    0  501  0.00000000000E+00  0.00000000000E+00  0.68273052631E+03  0.68273052631E+03  0.25500000920E-02 0.  1.
        2   -1    0    0  501    0  0.00000000000E+00  0.00000000000E+00 -0.10473330788E+04  0.10473330788E+04  0.25500000920E-02 0. -1.
    10030    2    1    2    0    0  0.00000000000E+00  0.00000000000E+00 -0.36460255248E+03  0.17300636051E+04  0.16912081647E+04 0.  0.
        4    1    3    3  502    0  0.17245180436E+03 -0.61288059878E+03 -0.75157778645E+03  0.98500407876E+03  0.12699999809E+01 0. -1.
       -4    1    3    3    0  502 -0.17245180436E+03  0.61288059878E+03  0.38697523397E+03  0.74505952634E+03  0.12699999809E+01 0.  1.
</event>
<event>
 5   0  0.1824538E-04  0.1723773E+04  0.7818609E-02  0.8747921E-01
       -1   -1    0    0    0  501  0.00000000000E+00  0.00000000000E+00  0.40700423532E+03  0.40700423535E+03  0.50400001928E-02 0. -1.
        1   -1    0    0  501    0  0.00000000000E+00  0.00000000000E+00 -0.18251605904E+04  0.18251605904E+04  0.50400001928E-02 0.  1.
    10030    2    1    2    0    0  0.00000000000E+00  0.00000000000E+00 -0.14181563550E+04  0.22321648257E+04  0.17237727118E+04 0.  0.
        3    1    3    3  502    0  0.27071892900E+03 -0.64974500630E+03 -0.65000861560E+02  0.70688219240E+03  0.10100000352E+00 0. -1.
       -3    1    3    3    0  502 -0.27071892900E+03  0.64974500630E+03 -0.13531554935E+04  0.15252826333E+04  0.10100000352E+00 0.  1.
</event>
<event>
 5   0  0.1930116E-04  0.1711688E+04  0.7818609E-02  0.8754726E-01
       -1   -1    0    0    0  501  0.00000000000E+00  0.00000000000E+00  0.55192598235E+03  0.55192598237E+03  0.50400001928E-02 0. -1.
        1   -1    0    0  501    0  0.00000000000E+00  0.00000000000E+00 -0.13271148609E+04  0.13271148609E+04  0.50400001928E-02 0.  1.
    10030    2    1    2    0    0  0.00000000000E+00  0.00000000000E+00 -0.77518887852E+03  0.18790408432E+04  0.17116882582E+04 0.  0.
        1    1    3    3  502    0  0.80536295829E+03 -0.27034755434E+03 -0.50152946977E+03  0.98652374720E+03  0.50400001928E-02 0.  1.
       -1    1    3    3    0  502 -0.80536295829E+03  0.27034755434E+03 -0.27365940875E+03  0.89251709605E+03  0.50400001928E-02 0. -1.
</event>
<event>
 5   0  0.1317625E-04  0.1745129E+04  0.7818609E-02  0.8736036E-01
       -3   -1    0    0    0  501  0.00000000000E+00  0.00000000000E+00  0.11332986795E+04  0.11332986840E+04  0.10100000352E+00 0.  1.
        3   -1    0    0  501    0  0.00000000000E+00  0.00000000000E+00 -0.67181633529E+03  0.67181634288E+03  0.10100000352E+00 0. -1.
    10030    2    1    2    0    0  0.00000000000E+00  0.00000000000E+00  0.46148234426E+03  0.18051150269E+04  0.17451287363E+04 0.  0.
        4    1    3    3  502    0 -0.20684154051E+03 -0.10088863870E+03  0.11013402999E+04  0.11251284413E+04  0.12699999809E+01 0.  1.
       -4    1    3    3    0  502  0.20684154051E+03  0.10088863870E+03 -0.63985795567E+03  0.67998658563E+03  0.12699999809E+01 0. -1.
</event>
<event>
 5   0  0.1930116E-04  0.1720195E+04  0.7818609E-02  0.8749929E-01
        1   -1    0    0  501    0  0.00000000000E+00  0.00000000000E+00  0.87164603441E+03  0.87164603442E+03  0.50400001928E-02 0.  1.
       -1   -1    0    0    0  501  0.00000000000E+00  0.00000000000E+00 -0.84870226764E+03  0.84870226766E+03  0.50400001928E-02 0. -1.
    10030    2    1    2    0    0  0.00000000000E+00  0.00000000000E+00  0.22943766763E+02  0.17203483021E+04  0.17201952982E+04 0.  0.
        1    1    3    3  502    0 -0.39972355118E+03  0.20777279633E+03 -0.72127296544E+03  0.85040175385E+03  0.50400001928E-02 0. -1.
       -1    1    3    3    0  502  0.39972355118E+03 -0.20777279633E+03  0.74421673220E+03  0.86994654823E+03  0.50400001928E-02 0.  1.
</event>
<event>
 5   0  0.1920289E-04  0.1670226E+04  0.7818609E-02  0.8778530E-01
        1   -1    0    0  501    0  0.00000000000E+00  0.00000000000E+00  0.48263807913E+03  0.48263807916E+03  0.50400001928E-02 0.  1.
       -1   -1    0    0    0  501  0.00000000000E+00  0.00000000000E+00 -0.14450029226E+04  0.14450029226E+04  0.50400001928E-02 0. -1.
    10030    2    1    2    0    0  0.00000000000E+00  0.00000000000E+00 -0.96236484345E+03  0.19276410017E+04  0.16702256553E+04 0.  0.
        4    1    3    3  502    0 -0.69152838336E+03  0.84843092858E+02 -0.10125816873E+04  0.12291188477E+04  0.12699999809E+01 0. -1.
       -4    1    3    3    0  502  0.69152838336E+03 -0.84843092858E+02  0.50216843852E+02  0.69852215405E+03  0.12699999809E+01 0.  1.
</event>
<event>
 5   0  0.1824538E-04  0.1614914E+04  0.7818609E-02  0.8811438E-01
        1   -1    0    0  501    0  0.00000000000E+00  0.00000000000E+00  0.11897023135E+04  0.11897023135E+04  0.50400001928E-02 0. -1.
       -1   -1    0    0    0  501  0.00000000000E+00  0.00000000000E+00 -0.54802538467E+03  0.54802538469E+03  0.50400001928E-02 0.  1.
    10030    2    1    2    0    0  0.00000000000E+00  0.00000000000E+00  0.64167692879E+03  0.17377276982E+04  0.16149143234E+04 0.  0.
        3    1    3    3  502    0 -0.58501979214E+03  0.57127929243E+01  0.91967354238E+03  0.10899909302E+04  0.10100000352E+00 0. -1.
       -3    1    3    3    0  502  0.58501979214E+03 -0.57127929243E+01 -0.27799661358E+03  0.64773676796E+03  0.10100000352E+00 0.  1.
</event>
<event>
 5   0  0.3605571E-04  0.1701179E+04  0.7818609E-02  0.8760692E-01
       -2   -1    0    0    0  501  0.00000000000E+00  0.00000000000E+00  0.59526239361E+03  0.59526239362E+03  0.25500000920E-02 0.  1.
        2   -1    0    0  501    0  0.00000000000E+00  0.00000000000E+00 -0.12154351300E+04  0.12154351300E+04  0.25500000920E-02 0. -1.
    10030    2    1    2    0    0  0.00000000000E+00  0.00000000000E+00 -0.62017273639E+03  0.18106975236E+04  0.17011793847E+04 0.  0.
        4    1    3    3  502    0  0.61864681798E+03 -0.57480888961E+03 -0.20168657559E+03  0.86822130395E+03  0.12699999809E+01 0.  1.
       -4    1    3    3    0  502 -0.61864681798E+03  0.57480888961E+03 -0.41848616080E+03  0.94247621967E+03  0.12699999809E+01 0. -1.
</event>
<event>
 5   0  0.1893284E-04  0.1499764E+04  0.7818609E-02  0.8884610E-01
        1   -1    0    0  501    0  0.00000000000E+00  0.00000000000E+00  0.74350298147E+03  0.74350298148E+03  0.50400001928E-02 0.  1.
       -1   -1    0    0    0  501  0.00000000000E+00  0.00000000000E+00 -0.75631543994E+03  0.75631543996E+03  0.50400001928E-02 0. -1.
    10030    2    1    2    0    0  0.00000000000E+00  0.00000000000E+00 -0.12812458477E+02  0.14998184214E+04  0.14997636941E+04 0.  0.
        2    1    3    3  502    0  0.44069504375E+03 -0.48290944557E+02 -0.61122466737E+03  0.75507597692E+03  0.25500000920E-02 0. -1.
       -2    1    3    3    0  502 -0.44069504375E+03  0.48290944557E+02  0.59841220890E+03  0.74474244452E+03  0.25500000920E-02 0.  1.
</event>
<event>
 5   0  0.1824538E-04  0.1697519E+04  0.7818609E-02  0.8762781E-01
        1   -1    0    0  501    0  0.00000000000E+00  0.00000000000E+00  0.14495595606E+04  0.14495595606E+04  0.50400001928E-02 0. -1.
       -1   -1    0    0    0  501  0.00000000000E+00  0.00000000000E+00 -0.49697344561E+03  0.49697344564E+03  0.50400001928E-02 0.  1.
    10030    2    1    2    0    0  0.00000000000E+00  0.00000000000E+00  0.95258611496E+03  0.19465330062E+04  0.16975189065E+04 0.  0.
        3    1    3    3  502    0  0.52623563792E+03  0.12646911022E+03  0.12260182680E+04  0.13401638654E+04  0.10100000352E+00 0. -1.
       -3    1    3    3    0  502 -0.52623563792E+03 -0.12646911022E+03 -0.27343215302E+03  0.60636914084E+03  0.10100000352E+00 0.  1.
</event>
<event>
 5   0  0.3573262E-04  0.1685711E+04  0.7818609E-02  0.8769556E-01
       -2   -1    0    0    0  501  0.00000000000E+00  0.00000000000E+00  0.62713144488E+03  0.62713144488E+03  0.25500000920E-02 0. -1.
        2   -1    0    0  501    0  0.00000000000E+00  0.00000000000E+00 -0.11327854544E+04  0.11327854544E+04  0.25500000920E-02 0.  1.
    10030    2    1    2    0    0  0.00000000000E+00  0.00000000000E+00 -0.50565400949E+03  0.17599168992E+04  0.16857109820E+04 0.  0.
        5    1    3    3  502    0 -0.77781663154E+03  0.24318361325E+03 -0.47734314775E+03  0.94446574991E+03  0.46999998093E+01 0.  1.
       -5    1    3    3    0  502  0.77781663154E+03 -0.24318361325E+03 -0.28310861739E+02  0.81545114933E+03  0.46999998093E+01 0. -1.
</event>
<event>
 5   0  0.1893284E-04  0.1705083E+04  0.7818609E-02  0.8758471E-01
        1   -1    0    0  501    0  0.00000000000E+00  0.00000000000E+00  0.11773944664E+04  0.11773944664E+04  0.50400001928E-02 0. -1.
       -1   -1    0    0    0  501  0.00000000000E+00  0.00000000000E+00 -0.61731820827E+03  0.61731820829E+03  0.50400001928E-02 0.  1.
    10030    2    1    2    0    0  0.00000000000E+00  0.00000000000E+00  0.56007625816E+03  0.17947126747E+04  0.17050830390E+04 0.  0.
        2    1    3    3  502    0  0.54081687294E+03  0.47530783017E+02 -0.41184697246E+03  0.68143964819E+03  0.25500000920E-02 0.  1.
       -2    1    3    3    0  502 -0.54081687294E+03 -0.47530783017E+02  0.97192323063E+03  0.11132730265E+04  0.25500000920E-02 0. -1.
</event>
<event>
 5   0  0.1815663E-04  0.1714896E+04  0.7818609E-02  0.8752914E-01
        1   -1    0    0  501    0  0.00000000000E+00  0.00000000000E+00  0.92414181907E+03  0.92414181908E+03  0.50400001928E-02 0.  1.
       -1   -1    0    0    0  501  0.00000000000E+00  0.00000000000E+00 -0.79556723436E+03  0.79556723437E+03  0.50400001928E-02 0. -1.
    10030    2    1    2    0    0  0.00000000000E+00  0.00000000000E+00  0.12857458471E+03  0.17197090535E+04  0.17148958583E+04 0.  0.
        5    1    3    3  502    0 -0.29971309452E+03  0.32377798315E+03  0.80156148401E+03  0.91497706203E+03  0.46999998093E+01 0.  1.
       -5    1    3    3    0  502  0.29971309452E+03 -0.32377798315E+03 -0.67298689930E+03  0.80473199142E+03  0.46999998093E+01 0. -1.
</event>
<event>
 5   0  0.1815663E-04  0.1723048E+04  0.7818609E-02  0.8748327E-01
        1   -1    0    0  501    0  0.00000000000E+00  0.00000000000E+00  0.20994844320E+04  0.20994844320E+04  0.50400001928E-02 0.  1.
       -1   -1    0    0    0  501  0.00000000000E+00  0.00000000000E+00 -0.35352665191E+03  0.35352665194E+03  0.50400001928E-02 0. -1.
    10030    2    1    2    0    0  0.00000000000E+00  0.00000000000E+00  0.17459577801E+04  0.24530110840E+04  0.17230481154E+04 0.  0.
        5    1    3    3  502    0  0.39215210008E+01 -0.62585745251E+03  0.30150598896E+02  0.62661318036E+03  0.46999998093E+01 0. -1.
       -5    1    3    3    0  502 -0.39215210008E+01  0.62585745251E+03  0.17158071812E+04  0.18263979036E+04  0.46999998093E+01 0.  1.
</event>
<event>
 5   0  0.3678896E-04  0.1601318E+04  0.7818609E-02  0.8819738E-01
        2   -1    0    0  501    0  0.00000000000E+00  0.00000000000E+00  0.12237722464E+04  0.12237722464E+04  0.25500000920E-02 0. -1.
       -2   -1    0    0    0  501  0.00000000000E+00  0.00000000000E+00 -0.52383540614E+03  0.52383540615E+03  0.25500000920E-02 0.  1.
    10030    2    1    2    0    0  0.00000000000E+00  0.00000000000E+00  0.69993684021E+03  0.17476076525E+04  0.16013184964E+04 0.  0.
        2    1    3    3  502    0 -0.27617067334E+03 -0.14456308477E+03 -0.45489160784E+03  0.55144818541E+03  0.25500000920E-02 0.  1.
       -2    1    3    3    0  502  0.27617067334E+03  0.14456308477E+03  0.11548284481E+04  0.11961594671E+04  0.25500000920E-02 0. -1.
</event>
<event>
 5   0  0.3678896E-04  0.1711967E+04  0.7818609E-02  0.8754568E-01
       -2   -1    0    0    0  501  0.00000000000E+00  0.00000000000E+00  0.51266718099E+03  0.51266718099E+03  0.25500000920E-02 0. -1.
        2   -1    0    0  501    0  0.00000000000E+00  0.00000000000E+00 -0.14292073866E+04  0.14292073866E+04  0.25500000920E-02 0.  1.
    10030    2    1    2    0    0  0.00000000000E+00  0.00000000000E+00 -0.91654020560E+03  0.19418745676E+04  0.17119669646E+04 0.  0.
        2    1    3    3  502    0  0.48514360783E+03  0.56857423232E+03 -0.93151255588E+03  0.11943017289E+04  0.25500000920E-02 0.  1.
       -2    1    3    3    0  502 -0.48514360783E+03 -0.56857423232E+03  0.14972350277E+02  0.74757283869E+03  0.25500000920E-02 0. -1.
</event>
<event>
 5   0  0.3573262E-04  0.1698577E+04  0.7818609E-02  0.8762177E-01
        2   -1    0    0  501    0  0.00000000000E+00  0.00000000000E+00  0.58440426169E+03  0.58440426170E+03  0.25500000920E-02 0.  1.
       -2   -1    0    0    0  501  0.00000000000E+00  0.00000000000E+00 -0.12342323336E+04  0.12342323336E+04  0.25500000920E-02 0. -1.
    10030    2    1    2    0    0  0.00000000000E+00  0.00000000000E+00 -0.64982807189E+03  0.18186365953E+04  0.16985766226E+04 0.  0.
        5    1    3    3  502    0  0.71289152610E+03 -0.90388272065E+01 -0.81902280942E+03  0.10858713003E+04  0.46999998093E+01 0. -1.
       -5    1    3    3    0  502 -0.71289152610E+03  0.90388272065E+01  0.16919473753E+03  0.73276529502E+03  0.46999998093E+01 0.  1.
</event>
<event>
 5   0  0.3605571E-04  0.1701833E+04  0.7818609E-02  0.8760319E-01
        2   -1    0    0  501    0  0.00000000000E+00  0.00000000000E+00  0.79626243299E+03  0.79626243299E+03  0.25500000920E-02 0.  1.
       -2   -1    0    0    0  501  0.00000000000E+00  0.00000000000E+00 -0.90932221885E+03  0.90932221886E+03  0.25500000920E-02 0. -1.
    10030    2    1    2    0    0  0.00000000000E+00  0.00000000000E+00 -0.11305978587E+03  0.17055846519E+04  0.17018332731E+04 0.  0.
        4    1    3    3  502    0  0.49089476003E+03 -0.54633746547E+03 -0.48712242340E+03  0.88133544118E+03  0.12699999809E+01 0. -1.
       -4    1    3    3    0  502 -0.49089476003E+03  0.54633746547E+03  0.37406263753E+03  0.82424921067E+03  0.12699999809E+01 0.  1.
</event>
<event>
 5   0  0.1930116E-04  0.1435045E+04  0.7818609E-02  0.8928835E-01
       -1   -1    0    0    0  501  0.00000000000E+00  0.00000000000E+00  0.38225719641E+03  0.38225719645E+03  0.50400001928E-02 0.  1.
        1   -1    0    0  501    0  0.00000000000E+00  0.00000000000E+00 -0.13468381928E+04  0.13468381928E+04  0.50400001928E-02 0. -1.
    10030    2    1    2    0    0  0.00000000000E+00  0.00000000000E+00 -0.96458099643E+03  0.17290953893E+04  0.14350450748E+04 0.  0.
        1    1    3    3  502    0  0.22573087177E+02  0.32552379404E+03 -0.12522657496E+04  0.12940806746E+04  0.50400001928E-02 0. -1.
       -1    1    3    3    0  502 -0.22573087177E+02 -0.32552379404E+03  0.28768475318E+03  0.43501471468E+03  0.50400001928E-02 0.  1.
</event>
<event>
 5   0  0.3605571E-04  0.1697770E+04  0.7818609E-02  0.8762637E-01
       -2   -1    0    0    0  501  0.00000000000E+00  0.00000000000E+00  0.26619879598E+03  0.26619879599E+03  0.25500000920E-02 0. -1.
        2   -1    0    0  501    0  0.00000000000E+00  0.00000000000E+00 -0.27070214451E+04  0.27070214451E+04  0.25500000920E-02 0.  1.
    10030    2    1    2    0    0  0.00000000000E+00  0.00000000000E+00 -0.24408226492E+04  0.29732202411E+04  0.16977701251E+04 0.  0.
        4    1    3    3  502    0  0.19257617680E+03  0.70043903913E+03 -0.19895746895E+04  0.21180437883E+04  0.12699999809E+01 0.  1.
       -4    1    3    3    0  502 -0.19257617680E+03 -0.70043903913E+03 -0.45124795970E+03  0.85517645281E+03  0.12699999809E+01 0. -1.
</event>
<event>
 5   0  0.1920289E-04  0.1707859E+04  0.7818609E-02  0.8756895E-01
       -1   -1    0    0    0  501  0.00000000000E+00  0.00000000000E+00  0.96260548658E+03  0.96260548659E+03  0.50400001928E-02 0. -1.
        1   -1    0    0  501    0  0.00000000000E+00  0.00000000000E+00 -0.75752287796E+03  0.75752287798E+03  0.50400001928E-02 0.  1.
    10030    2    1    2    0    0  0.00000000000E+00  0.00000000000E+00  0.20508260862E+03  0.17201283646E+04  0.17078591026E+04 0.  0.
        4    1    3    3  502    0  0.28114523750E+03  0.18294388054E+03 -0.68839187044E+03  0.76576503458E+03  0.12699999809E+01 0.  1.
       -4    1    3    3    0  502 -0.28114523750E+03 -0.18294388054E+03  0.89347447906E+03  0.95436332999E+03  0.12699999809E+01 0. -1.
</event>
<event>
 5   0  0.3516723E-04  0.1699947E+04  0.7818609E-02  0.8761395E-01
       -2   -1    0    0    0  501  0.00000000000E+00  0.00000000000E+00  0.71890164715E+03  0.71890164716E+03  0.25500000920E-02 0. -1.
        2   -1    0    0  501    0  0.00000000000E+00  0.00000000000E+00 -0.10049427931E+04  0.10049427931E+04  0.25500000920E-02 0.  1.
    10030    2    1    2    0    0  0.00000000000E+00  0.00000000000E+00 -0.28604114591E+03  0.17238444402E+04  0.16999470924E+04 0.  0.
        1    1    3    3  502    0  0.41895489387E+03  0.43721407992E+02  0.60561247113E+03  0.73769995922E+03  0.50400001928E-02 0. -1.
       -1    1    3    3    0  502 -0.41895489387E+03 -0.43721407992E+02 -0.89165361704E+03  0.98614448100E+03  0.50400001928E-02 0.  1.
</event>
<event>
 5   0  0.1824538E-04  0.1654826E+04  0.7818609E-02  0.8787557E-01
       -1   -1    0    0    0  501  0.00000000000E+00  0.00000000000E+00  0.58652765501E+03  0.58652765503E+03  0.50400001928E-02 0. -1.
        1   -1    0    0  501    0  0.00000000000E+00  0.00000000000E+00 -0.11672294817E+04  0.11672294817E+04  0.50400001928E-02 0.  1.
    10030    2    1    2    0    0  0.00000000000E+00  0.00000000000E+00 -0.58070182664E+03  0.17537571367E+04  0.16548261187E+04 0.  0.
        3    1    3    3  502    0  0.54969422226E+03  0.43820089626E+03 -0.75282049025E+03  0.10300109049E+04  0.10100000352E+00 0.  1.
       -3    1    3    3    0  502 -0.54969422226E+03 -0.43820089626E+03  0.17211866361E+03  0.72374623180E+03  0.10100000352E+00 0. -1.
</event>
<event>
 5   0  0.3574092E-04  0.1734406E+04  0.7818609E-02  0.8741981E-01
       -2   -1    0    0    0  501  0.00000000000E+00  0.00000000000E+00  0.14447695051E+04  0.14447695051E+04  0.25500000920E-02 0. -1.
        2   -1    0    0  501    0  0.00000000000E+00  0.00000000000E+00 -0.52052676876E+03  0.52052676876E+03  0.25500000920E-02 0.  1.
    10030    2    1    2    0    0  0.00000000000E+00  0.00000000000E+00  0.92424273632E+03  0.19652962738E+04  0.17344061832E+04 0.  0.
        3    1    3    3  502    0  0.67916964339E+03  0.30630332812E+03 -0.40745554385E+02  0.74615906060E+03  0.10100000352E+00 0.  1.
       -3    1    3    3    0  502 -0.67916964339E+03 -0.30630332812E+03  0.96498829071E+03  0.12191372132E+04  0.10100000352E+00 0. -1.
</event>
<event>
 5   0  0.1815663E-04  0.1687270E+04  0.7818609E-02  0.8768658E-01
       -1   -1    0    0    0  501  0.00000000000E+00  0.00000000000E+00  0.64462032758E+03  0.64462032760E+03  0.50400001928E-02 0.  1.
        1   -1    0    0  501    0  0.00000000000E+00  0.00000000000E+00 -0.11040924134E+04  0.11040924134E+04  0.50400001928E-02 0. -1.
    10030    2    1    2    0    0  0.00000000000E+00  0.00000000000E+00 -0.45947208580E+03  0.17487127410E+04  0.16872704741E+04 0.  0.
        5    1    3    3  502    0 -0.76853843071E+02 -0.51564377007E+03  0.45766847726E+03  0.69374169248E+03  0.46999998093E+01 0.  1.
       -5    1    3    3    0  502  0.76853843071E+02  0.51564377007E+03 -0.91714056306E+03  0.10549710485E+04  0.46999998093E+01 0. -1.
</event>
<event>
 5   0  0.3516723E-04  0.1697361E+04  0.7818609E-02  0.8762871E-01
        2   -1    0    0  501    0  0.00000000000E+00  0.00000000000E+00  0.70389828994E+03  0.70389828995E+03  0.25500000920E-02 0. -1.
       -2   -1    0    0    0  501  0.00000000000E+00  0.00000000000E+00 -0.10232427867E+04  0.10232427867E+04  0.25500000920E-02 0.  1.
    10030    2    1    2    0    0  0.00000000000E+00  0.00000000000E+00 -0.31934449674E+03  0.17271410766E+04  0.16973613024E+04 0.  0.
        1    1    3    3  502    0  0.78130720649E+02 -0.84071075605E+03 -0.72377447587E+02  0.84742992618E+03  0.50400001928E-02 0. -1.
       -1    1    3    3    0  502 -0.78130720649E+02  0.84071075605E+03 -0.24696704915E+03  0.87971115045E+03  0.50400001928E-02 0.  1.
</event>
<event>
 5   0  0.3574092E-04  0.1698045E+04  0.7818609E-02  0.8762480E-01
       -2   -1    0    0    0  501  0.00000000000E+00  0.00000000000E+00  0.36277632830E+03  0.36277632831E+03  0.25500000920E-02 0.  1.
        2   -1    0    0  501    0  0.00000000000E+00  0.00000000000E+00 -0.19870084478E+04  0.19870084479E+04  0.25500000920E-02 0. -1.
    10030    2    1    2    0    0  0.00000000000E+00  0.00000000000E+00 -0.16242321196E+04  0.23497847762E+04  0.16980454988E+04 0.  0.
        3    1    3    3  502    0  0.52011553327E+03  0.55531878562E+03 -0.13334691162E+04  0.15352651288E+04  0.10100000352E+00 0. -1.
       -3    1    3    3    0  502 -0.52011553327E+03 -0.55531878562E+03 -0.29076300332E+03  0.81451964734E+03  0.10100000352E+00 0.  1.
</event>
<event>
 5   0  0.1317625E-04  0.1700570E+04  0.7818609E-02  0.8761039E-01
        3   -1    0    0  501    0  0.00000000000E+00  0.00000000000E+00  0.14455859278E+04  0.14455859313E+04  0.10100000352E+00 0. -1.
       -3   -1    0    0    0  501  0.00000000000E+00  0.00000000000E+00 -0.50013262928E+03  0.50013263948E+03  0.10100000352E+00 0.  1.
    10030    2    1    2    0    0  0.00000000000E+00  0.00000000000E+00  0.94545329851E+03  0.19457185708E+04  0.17005701447E+04 0.  0.
        4    1    3    3  502    0 -0.40004845186E+03  0.22757741253E+02 -0.38533467572E+03  0.55591465518E+03  0.12699999809E+01 0.  1.
       -4    1    3    3    0  502  0.40004845186E+03 -0.22757741253E+02  0.13307879742E+04  0.13898039156E+04  0.12699999809E+01 0. -1.
</event>
<event>
 5   0  0.1920289E-04  0.1714081E+04  0.7818609E-02  0.8753374E-01
        1   -1    0    0  501    0  0.00000000000E+00  0.00000000000E+00  0.17301763373E+04  0.17301763373E+04  0.50400001928E-02 0. -1.
       -1   -1    0    0    0  501  0.00000000000E+00  0.00000000000E+00 -0.42453396941E+03  0.42453396944E+03  0.50400001928E-02 0.  1.
    10030    2    1    2    0    0  0.00000000000E+00  0.00000000000E+00  0.13056423679E+04  0.21547103067E+04  0.17140812446E+04 0.  0.
        4    1    3    3  502    0  0.81123853231E+03 -0.21641688893E+03  0.43664709841E+03  0.94636490191E+03  0.12699999809E+01 0. -1.
       -4    1    3    3    0  502 -0.81123853231E+03  0.21641688893E+03  0.86899526946E+03  0.12083454048E+04  0.12699999809E+01 0.  1.
</event>
<event>
 5   0  0.1893284E-04  0.1707106E+04  0.7818609E-02  0.8757322E-01
       -1   -1    0    0    0  501  0.00000000000E+00  0.00000000000E+00  0.73588223524E+03  0.73588223526E+03  0.50400001928E-02 0. -1.
        1   -1    0    0  501    0  0.00000000000E+00  0.00000000000E+00 -0.99004013092E+03  0.99004013093E+03  0.50400001928E-02 0.  1.
    10030    2    1    2    0    0  0.00000000000E+00  0.00000000000E+00 -0.25415789568E+03  0.17259223662E+04  0.17071062586E+04 0.  0.
        2    1    3    3  502    0  0.66297110770E+03 -0.18610652294E+03 -0.63700574146E+03  0.93805257965E+03  0.25500000920E-02 0.  1.
       -2    1    3    3    0  502 -0.66297110770E+03  0.18610652294E+03  0.38284784579E+03  0.78786978655E+03  0.25500000920E-02 0. -1.
</event>
<event>
 5   0  0.3605571E-04  0.1696159E+04  0.7818609E-02  0.8763558E-01
        2   -1    0    0  501    0  0.00000000000E+00  0.00000000000E+00  0.18353501267E+04  0.18353501267E+04  0.25500000920E-02 0.  1.
       -2   -1    0    0    0  501  0.00000000000E+00  0.00000000000E+00 -0.39188122206E+03  0.39188122207E+03  0.25500000920E-02 0. -1.
    10030    2    1    2    0    0  0.00000000000E+00  0.00000000000E+00  0.14434689047E+04  0.22272313488E+04  0.16961594861E+04 0.  0.
        4    1    3    3  502    0 -0.47702134830E+03  0.47739119894E+03  0.47323762243E+02  0.67653002515E+03  0.12699999809E+01 0. -1.
       -4    1    3    3    0  502  0.47702134830E+03 -0.47739119894E+03  0.13961451424E+04  0.15507013237E+04  0.12699999809E+01 0.  1.
</event>
<event>
 5   0  0.3516723E-04  0.1705418E+04  0.7818609E-02  0.8758280E-01
       -2   -1    0    0    0  501  0.00000000000E+00  0.00000000000E+00  0.51586343556E+03  0.51586343556E+03  0.25500000920E-02 0. -1.
        2   -1    0    0  501    0  0.00000000000E+00  0.00000000000E+00 -0.14095059973E+04  0.14095059973E+04  0.25500000920E-02 0.  1.
    10030    2    1    2    0    0  0.00000000000E+00  0.00000000000E+00 -0.89364256176E+03  0.19253694329E+04  0.17054179619E+04 0.  0.
        1    1    3    3  502    0 -0.72360502746E+03 -0.31457377797E+03 -0.81186830070E+03  0.11321179423E+04  0.50400001928E-02 0. -1.
       -1    1    3    3    0  502  0.72360502746E+03  0.31457377797E+03 -0.81774261068E+02  0.79325149060E+03  0.50400001928E-02 0.  1.
</event>
<event>
 5   0  0.1930116E-04  0.1700090E+04  0.7818609E-02  0.8761313E-01
        1   -1    0    0  501    0  0.00000000000E+00  0.00000000000E+00  0.56416237912E+03  0.56416237914E+03  0.50400001928E-02 0. -1.
       -1   -1    0    0    0  501  0.00000000000E+00  0.00000000000E+00 -0.12807952573E+04  0.12807952573E+04  0.50400001928E-02 0.  1.
    10030    2    1    2    0    0  0.00000000000E+00  0.00000000000E+00 -0.71663287816E+03  0.18449576364E+04  0.17000899971E+04 0.  0.
        1    1    3    3  502    0 -0.39371297435E+03  0.18691948665E+02 -0.11756309015E+04  0.12399464955E+04  0.50400001928E-02 0.  1.
       -1    1    3    3    0  502  0.39371297435E+03 -0.18691948665E+02  0.45899802338E+03  0.60501114089E+03  0.50400001928E-02 0. -1.
</event>
<event>
 5   0  0.3573262E-04  0.1707075E+04  0.7818609E-02  0.8757340E-01
       -2   -1    0    0    0  501  0.00000000000E+00  0.00000000000E+00  0.11252617231E+04  0.11252617231E+04  0.25500000920E-02 0. -1.
        2   -1    0    0  501    0  0.00000000000E+00  0.00000000000E+00 -0.64742793056E+03  0.64742793057E+03  0.25500000920E-02 0.  1.
    10030    2    1    2    0    0  0.00000000000E+00  0.00000000000E+00  0.47783379255E+03  0.17726896537E+04  0.17070745370E+04 0.  0.
        5    1    3    3  502    0  0.52810658756E+03 -0.44074805941E+02  0.93371178186E+03  0.10736288641E+04  0.46999998093E+01 0. -1.
       -5    1    3    3    0  502 -0.52810658756E+03  0.44074805941E+02 -0.45587798931E+03  0.69906078954E+03  0.46999998093E+01 0.  1.
</event>
<event>
 5   0  0.1920289E-04  0.1704953E+04  0.7818609E-02  0.8758544E-01
       -1   -1    0    0    0  501  0.00000000000E+00  0.00000000000E+00  0.75046003839E+03  0.75046003841E+03  0.50400001928E-02 0. -1.
        1   -1    0    0  501    0  0.00000000000E+00  0.00000000000E+00 -0.96836124753E+03  0.96836124755E+03  0.50400001928E-02 0.  1.
    10030    2    1    2    0    0  0.00000000000E+00  0.00000000000E+00 -0.21790120914E+03  0.17188212860E+04  0.17049532768E+04 0.  0.
        4    1    3    3  502    0  0.56333601654E+03 -0.57746395877E+03 -0.38669601839E+03  0.89462143656E+03  0.12699999809E+01 0.  1.
       -4    1    3    3    0  502 -0.56333601654E+03  0.57746395877E+03  0.16879480925E+03  0.82419984940E+03  0.12699999809E+01 0. -1.
</event>
<event>
 5   0  0.1824538E-04  0.1703716E+04  0.7818609E-02  0.8759248E-01
       -1   -1    0    0    0  501  0.00000000000E+00  0.00000000000E+00  0.15361270343E+04  0.15361270343E+04  0.50400001928E-02 0. -1.
        1   -1    0    0  501    0  0.00000000000E+00  0.00000000000E+00 -0.47239694278E+03  0.47239694281E+03  0.50400001928E-02 0.  1.
    10030    2    1    2    0    0  0.00000000000E+00  0.00000000000E+00  0.10637300915E+04  0.20085239771E+04  0.17037156039E+04 0.  0.
        3    1    3    3  502    0  0.18400402470E+03 -0.40976685547E+03  0.13851659197E+04  0.14561768410E+04  0.10100000352E+00 0. -1.
       -3    1    3    3    0  502 -0.18400402470E+03  0.40976685547E+03 -0.32143582818E+03  0.55234713613E+03  0.10100000352E+00 0.  1.
</event>
<event>
 5   0  0.1893284E-04  0.1691141E+04  0.7818609E-02  0.8766433E-01
        1   -1    0    0  501    0  0.00000000000E+00  0.00000000000E+00  0.11529187192E+04  0.11529187192E+04  0.50400001928E-02 0. -1.
       -1   -1    0    0    0  501  0.00000000000E+00  0.00000000000E+00 -0.62015592674E+03  0.62015592676E+03  0.50400001928E-02 0.  1.
    10030    2    1    2    0    0  0.00000000000E+00  0.00000000000E+00  0.53276279246E+03  0.17730746460E+04  0.16911408892E+04 0.  0.
        2    1    3    3  502    0  0.26596836414E+03  0.44964425889E+03  0.96347784819E+03  0.10959966671E+04  0.25500000920E-02 0. -1.
       -2    1    3    3    0  502 -0.26596836414E+03 -0.44964425889E+03 -0.43071505573E+03  0.67707797890E+03  0.25500000920E-02 0.  1.
</event>
<event>
 5   0  0.3605571E-04  0.1690795E+04  0.7818609E-02  0.8766632E-01
        2   -1    0    0  501    0  0.00000000000E+00  0.00000000000E+00  0.12844470438E+04  0.12844470438E+04  0.25500000920E-02 0. -1.
       -2   -1    0    0    0  501  0.00000000000E+00  0.00000000000E+00 -0.55642398659E+03  0.55642398659E+03  0.25500000920E-02 0.  1.
    10030    2    1    2    0    0  0.00000000000E+00  0.00000000000E+00  0.72802305725E+03  0.18408710304E+04  0.16907952504E+04 0.  0.
        4    1    3    3  502    0  0.30207623724E+03  0.35931287109E+03  0.11295113722E+04  0.12231734731E+04  0.12699999809E+01 0. -1.
       -4    1    3    3    0  502 -0.30207623724E+03 -0.35931287109E+03 -0.40148831494E+03  0.61769755736E+03  0.12699999809E+01 0.  1.
</event>
<event>
 5   0  0.1930116E-04  0.1714890E+04  0.7818609E-02  0.8752917E-01
       -1   -1    0    0    0  501  0.00000000000E+00  0.00000000000E+00  0.94185312411E+03  0.94185312412E+03  0.50400001928E-02 0. -1.
        1   -1    0    0  501    0  0.00000000000E+00  0.00000000000E+00 -0.78060179253E+03  0.78060179255E+03  0.50400001928E-02 0.  1.
    10030    2    1    2    0    0  0.00000000000E+00  0.00000000000E+00  0.16125133158E+03  0.17224549167E+04  0.17148903603E+04 0.  0.
        1    1    3    3  502    0  0.42001708207E+03  0.53112499285E+03 -0.44772143042E+03  0.81176510552E+03  0.50400001928E-02 0.  1.
       -1    1    3    3    0  502 -0.42001708207E+03 -0.53112499285E+03  0.60897276199E+03  0.91068981115E+03  0.50400001928E-02 0. -1.
</event>
<event>
 5   0  0.1824538E-04  0.1580404E+04  0.7818609E-02  0.8832678E-01
        1   -1    0    0  501    0  0.00000000000E+00  0.00000000000E+00  0.76712883978E+03  0.76712883979E+03  0.50400001928E-02 0.  1.
       -1   -1    0    0    0  501  0.00000000000E+00  0.00000000000E+00 -0.81396927275E+03  0.81396927276E+03  0.50400001928E-02 0. -1.
    10030    2    1    2    0    0  0.00000000000E+00  0.00000000000E+00 -0.46840432968E+02  0.15810981126E+04  0.15804041304E+04 0.  0.
        3    1    3    3  502    0 -0.54923383679E+03  0.56668345236E+03  0.16987505681E+02  0.78935196725E+03  0.10100000352E+00 0. -1.
       -3    1    3    3    0  502  0.54923383679E+03 -0.56668345236E+03 -0.63827938650E+02  0.79174614531E+03  0.10100000352E+00 0.  1.
</event>
<event>
 5   0  0.3678896E-04  0.1719810E+04  0.7818609E-02  0.8750146E-01
        2   -1    0    0  501    0  0.00000000000E+00  0.00000000000E+00  0.85397278257E+03  0.85397278257E+03  0.25500000920E-02 0. -1.
       -2   -1    0    0    0  501  0.00000000000E+00  0.00000000000E+00 -0.86587866356E+03  0.86587866356E+03  0.25500000920E-02 0.  1.
    10030    2    1    2    0    0  0.00000000000E+00  0.00000000000E+00 -0.11905880990E+02  0.17198514461E+04  0.17198102357E+04 0.  0.
        2    1    3    3  502    0 -0.17361749832E+03 -0.28865114962E+02  0.83576823309E+03  0.85409880578E+03  0.25500000920E-02 0. -1.
       -2    1    3    3    0  502  0.17361749832E+03  0.28865114962E+02 -0.84767411408E+03  0.86575264035E+03  0.25500000920E-02 0.  1.
</event>
<event>
 5   0  0.3605571E-04  0.1725070E+04  0.7818609E-02  0.8747194E-01
       -2   -1    0    0    0  501  0.00000000000E+00  0.00000000000E+00  0.48172739258E+03  0.48172739259E+03  0.25500000920E-02 0.  1.
        2   -1    0    0  501    0  0.00000000000E+00  0.00000000000E+00 -0.15443724055E+04  0.15443724055E+04  0.25500000920E-02 0. -1.
    10030    2    1    2    0    0  0.00000000000E+00  0.00000000000E+00 -0.10626450130E+04  0.20260997981E+04  0.17250698445E+04 0.  0.
        4    1    3    3  502    0  0.30520179039E+03 -0.17711265713E+03  0.39307023330E+03  0.52822613281E+03  0.12699999809E+01 0.  1.
       -4    1    3    3    0  502 -0.30520179039E+03  0.17711265713E+03 -0.14557152462E+04  0.14978736653E+04  0.12699999809E+01 0. -1.
</event>
<event>
 5   0  0.1815663E-04  0.1715725E+04  0.7818609E-02  0.8752446E-01
        1   -1    0    0  501    0  0.00000000000E+00  0.00000000000E+00  0.93272545278E+03  0.93272545280E+03  0.50400001928E-02 0.  1.
       -1   -1    0    0    0  501  0.00000000000E+00  0.00000000000E+00 -0.78900818786E+03  0.78900818788E+03  0.50400001928E-02 0. -1.
    10030    2    1    2    0    0  0.00000000000E+00  0.00000000000E+00  0.14371726492E+03  0.17217336407E+04  0.17157249422E+04 0.  0.
        5    1    3    3  502    0  0.33198369756E+03  0.58761419384E+03  0.60324339425E+03  0.90522278968E+03  0.46999998093E+01 0.  1.
       -5    1    3    3    0  502 -0.33198369756E+03 -0.58761419384E+03 -0.45952612933E+03  0.81651085099E+03  0.46999998093E+01 0. -1.
</event>
<event>
 5   0  0.3605571E-04  0.1687555E+04  0.7818609E-02  0.8768494E-01
       -2   -1    0    0    0  501  0.00000000000E+00  0.00000000000E+00  0.79651248056E+03  0.79651248056E+03  0.25500000920E-02 0. -1.
        2   -1    0    0  501    0  0.00000000000E+00  0.00000000000E+00 -0.89384718093E+03  0.89384718093E+03  0.25500000920E-02 0.  1.
    10030    2    1    2    0    0  0.00000000000E+00  0.00000000000E+00 -0.97334700373E+02  0.16903596615E+04  0.16875549595E+04 0.  0.
        4    1    3    3  502    0 -0.69924662840E+03 -0.37320930667E+03 -0.33850580440E+03  0.86186937898E+03  0.12699999809E+01 0.  1.
       -4    1    3    3    0  502  0.69924662840E+03  0.37320930667E+03  0.24117110403E+03  0.82849028252E+03  0.12699999809E+01 0. -1.
</event>
<event>
 5   0  0.1893284E-04  0.1678628E+04  0.7818609E-02  0.8773648E-01
        1   -1    0    0  501    0  0.00000000000E+00  0.00000000000E+00  0.92073177278E+03  0.92073177280E+03  0.50400001928E-02 0.  1.
       -1   -1    0    0    0  501  0.00000000000E+00  0.00000000000E+00 -0.76509622280E+03  0.76509622281E+03  0.50400001928E-02 0. -1.
    10030    2    1    2    0    0  0.00000000000E+00  0.00000000000E+00  0.15563554999E+03  0.16858279956E+04  0.16786284897E+04 0.  0.
        2    1    3    3  502    0  0.64938806647E+03  0.17082056581E+03  0.58352873039E+03  0.88960120604E+03  0.25500000920E-02 0.  1.
       -2    1    3    3    0  502 -0.64938806647E+03 -0.17082056581E+03 -0.42789318041E+03  0.79622678957E+03  0.25500000920E-02 0. -1.
</event>
<event>
 5   0  0.3573262E-04  0.1699585E+04  0.7818609E-02  0.8761601E-01
       -2   -1    0    0    0  501  0.00000000000E+00  0.00000000000E+00  0.76314806494E+03  0.76314806495E+03  0.25500000920E-02 0.  1.
        2   -1    0    0  501    0  0.00000000000E+00  0.00000000000E+00 -0.94627467705E+03  0.94627467706E+03  0.25500000920E-02 0. -1.
    10030    2    1    2    0    0  0.00000000000E+00  0.00000000000E+00 -0.18312661211E+03  0.17094227420E+04  0.16995854656E+04 0.  0.
        5    1    3    3  502    0 -0.21353692691E+03 -0.24805165169E+03  0.69719383791E+03  0.77021359289E+03  0.46999998093E+01 0.  1.
       -5    1    3    3    0  502  0.21353692691E+03  0.24805165169E+03 -0.88032045002E+03  0.93920914911E+03  0.46999998093E+01 0. -1.
</event>
<event>
 5   0  0.1920289E-04  0.1654975E+04  0.7818609E-02  0.8787469E-01
        1   -1    0    0  501    0  0.00000000000E+00  0.00000000000E+00  0.87534338616E+03  0.87534338618E+03  0.50400001928E-02 0.  1.
       -1   -1    0    0    0  501  0.00000000000E+00  0.00000000000E+00 -0.78224747342E+03  0.78224747344E+03  0.50400001928E-02 0. -1.
    10030    2    1    2    0    0  0.00000000000E+00  0.00000000000E+00  0.93095912743E+02  0.16575908596E+04  0.16549745040E+04 0.  0.
        4    1    3    3  502    0  0.15692706603E+02  0.76702195056E+03  0.35714238642E+03  0.84623946419E+03  0.12699999809E+01 0.  1.
       -4    1    3    3    0  502 -0.15692706603E+02 -0.76702195056E+03 -0.26404647368E+03  0.81135139542E+03  0.12699999809E+01 0. -1.
</event>
<event>
 5   0  0.3574092E-04  0.1703679E+04  0.7818609E-02  0.8759269E-01
       -2   -1    0    0    0  501  0.00000000000E+00  0.00000000000E+00  0.57370130589E+03  0.57370130590E+03  0.25500000920E-02 0.  1.
        2   -1    0    0  501    0  0.00000000000E+00  0.00000000000E+00 -0.12648223001E+04  0.12648223001E+04  0.25500000920E-02 0. -1.
    10030    2    1    2    0    0  0.00000000000E+00  0.00000000000E+00 -0.69112099425E+03  0.18385236060E+04  0.17036786144E+04 0.  0.
        3    1    3    3  502    0  0.43649801877E+03 -0.71044842725E+03 -0.53360116388E+03  0.98994833222E+03  0.10100000352E+00 0. -1.
       -3    1    3    3    0  502 -0.43649801877E+03  0.71044842725E+03 -0.15751983037E+03  0.84857527382E+03  0.10100000352E+00 0.  1.
</event>
<event>
 5   0  0.1317625E-04  0.1684753E+04  0.7818609E-02  0.8770109E-01
       -4   -1    0    0    0  501  0.00000000000E+00  0.00000000000E+00  0.94125066655E+03  0.94125152334E+03  0.12699999809E+01 0. -1.
        4   -1    0    0  501    0  0.00000000000E+00  0.00000000000E+00 -0.75388650187E+03  0.75388757160E+03  0.12699999809E+01 0.  1.
    10030    2    1    2    0    0  0.00000000000E+00  0.00000000000E+00  0.18736416468E+03  0.16951390949E+04  0.16847525697E+04 0.  0.
        3    1    3    3  502    0 -0.19135223726E+03 -0.52132907107E+03 -0.54362486843E+03  0.77712784458E+03  0.10100000352E+00 0.  1.
       -3    1    3    3    0  502  0.19135223726E+03  0.52132907107E+03  0.73098903310E+03  0.91801125035E+03  0.10100000352E+00 0. -1.
</event>
<event>
 5   0  0.3678896E-04  0.1697245E+04  0.7818609E-02  0.8762937E-01
        2   -1    0    0  501    0  0.00000000000E+00  0.00000000000E+00  0.23424455330E+04  0.23424455330E+04  0.25500000920E-02 0.  1.
       -2   -1    0    0    0  501  0.00000000000E+00  0.00000000000E+00 -0.30743949672E+03  0.30743949673E+03  0.25500000920E-02 0. -1.
    10030    2    1    2    0    0  0.00000000000E+00  0.00000000000E+00  0.20350060363E+04  0.26498850297E+04  0.16972451512E+04 0.  0.
        2    1    3    3  502    0 -0.32076620482E+03 -0.77516145175E+03  0.81759718442E+03  0.11714228060E+04  0.25500000920E-02 0. -1.
       -2    1    3    3    0  502  0.32076620482E+03  0.77516145175E+03  0.12174088519E+04  0.14784622237E+04  0.25500000920E-02 0.  1.
</event>
<event>
 5   0  0.1317625E-04  0.1711169E+04  0.7818609E-02  0.8755020E-01
        3   -1    0    0  501    0  0.00000000000E+00  0.00000000000E+00  0.49513144807E+03  0.49513145837E+03  0.10100000352E+00 0.  1.
       -3   -1    0    0    0  501  0.00000000000E+00  0.00000000000E+00 -0.14784453760E+04  0.14784453795E+04  0.10100000352E+00 0. -1.
    10030    2    1    2    0    0  0.00000000000E+00  0.00000000000E+00 -0.98331392797E+03  0.19735768379E+04  0.17111689730E+04 0.  0.
        3    1    3    3  502    0 -0.81563044725E+02 -0.67771529260E+03  0.10326851671E+03  0.69037304759E+03  0.10100000352E+00 0.  1.
       -3    1    3    3    0  502  0.81563044725E+02  0.67771529260E+03 -0.10865824447E+04  0.12832037903E+04  0.10100000352E+00 0. -1.
</event>
<event>
 5   0  0.3605571E-04  0.1712378E+04  0.7818609E-02  0.8754336E-01
       -2   -1    0    0    0  501  0.00000000000E+00  0.00000000000E+00  0.50205610715E+03  0.50205610715E+03  0.25500000920E-02 0.  1.
        2   -1    0    0  501    0  0.00000000000E+00  0.00000000000E+00 -0.14601141681E+04  0.14601141681E+04  0.25500000920E-02 0. -1.
    10030    2    1    2    0    0  0.00000000000E+00  0.00000000000E+00 -0.95805806095E+03  0.19621702752E+04  0.17123775696E+04 0.  0.
        4    1    3    3  502    0 -0.67651401784E+03 -0.31441945665E+03  0.24113350394E+01  0.74601490500E+03  0.12699999809E+01 0.  1.
       -4    1    3    3    0  502  0.67651401784E+03  0.31441945665E+03 -0.96046939599E+03  0.12161553702E+04  0.12699999809E+01 0. -1.
</event>
<event>
 5   0  0.3573262E-04  0.1675135E+04  0.7818609E-02  0.8775674E-01
       -2   -1    0    0    0  501  0.00000000000E+00  0.00000000000E+00  0.45938241627E+03  0.45938241628E+03  0.25500000920E-02 0.  1.
        2   -1    0    0  501    0  0.00000000000E+00  0.00000000000E+00 -0.15270923524E+04  0.15270923524E+04  0.25500000920E-02 0. -1.
    10030    2    1    2    0    0  0.00000000000E+00  0.00000000000E+00 -0.10677099361E+04  0.19864747687E+04  0.16751350688E+04 0.  0.
        5    1    3    3  502    0  0.12701142295E+03  0.21535501749E+03 -0.14817918864E+04  0.15027438138E+04  0.46999998093E+01 0. -1.
       -5    1    3    3    0  502 -0.12701142295E+03 -0.21535501749E+03  0.41408195033E+03  0.48373095488E+03  0.46999998093E+01 0.  1.
</event>
<event>
 5   0  0.1920289E-04  0.1747943E+04  0.7818609E-02  0.8734483E-01
        1   -1    0    0  501    0  0.00000000000E+00  0.00000000000E+00  0.89012972160E+03  0.89012972161E+03  0.50400001928E-02 0.  1.
       -1   -1    0    0    0  501  0.00000000000E+00  0.00000000000E+00 -0.85810706017E+03  0.85810706018E+03  0.50400001928E-02 0. -1.
    10030    2    1    2    0    0  0.00000000000E+00  0.00000000000E+00  0.32022661429E+02  0.17482367818E+04  0.17479434757E+04 0.  0.
        4    1    3    3  502    0 -0.19725802918E+03 -0.51380404772E+03 -0.66301323024E+03  0.86168061711E+03  0.12699999809E+01 0. -1.
       -4    1    3    3    0  502  0.19725802918E+03  0.51380404772E+03  0.69503589167E+03  0.88655616468E+03  0.12699999809E+01 0.  1.
</event>
<event>
 5   0  0.1893284E-04  0.1729889E+04  0.7818609E-02  0.8744499E-01
        1   -1    0    0  501    0  0.00000000000E+00  0.00000000000E+00  0.27077907279E+04  0.27077907279E+04  0.50400001928E-02 0.  1.
       -1   -1    0    0    0  501  0.00000000000E+00  0.00000000000E+00 -0.27628748728E+03  0.27628748733E+03  0.50400001928E-02 0. -1.
    10030    2    1    2    0    0  0.00000000000E+00  0.00000000000E+00  0.24315032407E+04  0.29840782153E+04  0.17298886628E+04 0.  0.
        2    1    3    3  502    0 -0.35092680804E+03  0.73472165386E+03  0.71234613724E+03  0.10818514466E+04  0.25500000920E-02 0. -1.
       -2    1    3    3    0  502  0.35092680804E+03 -0.73472165386E+03  0.17191571034E+04  0.19022267687E+04  0.25500000920E-02 0.  1.
</event>
<event>
 5   0  0.3573262E-04  0.1711553E+04  0.7818609E-02  0.8754803E-01
       -2   -1    0    0    0  501  0.00000000000E+00  0.00000000000E+00  0.88983607116E+03  0.88983607116E+03  0.25500000920E-02 0. -1.
        2   -1    0    0  501    0  0.00000000000E+00  0.00000000000E+00 -0.82302025710E+03  0.82302025710E+03  0.25500000920E-02 0.  1.
    10030    2    1    2    0    0  0.00000000000E+00  0.00000000000E+00  0.66815814059E+02  0.17128563283E+04  0.17115526426E+04 0.  0.
        5    1    3    3  502    0 -0.82750912608E+03  0.60779983757E+02  0.24300826910E+03  0.86460434247E+03  0.46999998093E+01 0. -1.
       -5    1    3    3    0  502  0.82750912608E+03 -0.60779983757E+02 -0.17619245504E+03  0.84825198579E+03  0.46999998093E+01 0.  1.
</event>
<event>
 5   0  0.1824538E-04  0.1701585E+04  0.7818609E-02  0.8760461E-01
       -1   -1    0    0    0  501  0.00000000000E+00  0.00000000000E+00  0.28760170710E+04  0.28760170710E+04  0.50400001928E-02 0.  1.
        1   -1    0    0  501    0  0.00000000000E+00  0.00000000000E+00 -0.25168403052E+03  0.25168403057E+03  0.50400001928E-02 0. -1.
    10030    2    1    2    0    0  0.00000000000E+00  0.00000000000E+00  0.26243330405E+04  0.31277011016E+04  0.17015846360E+04 0.  0.
        3    1    3    3  502    0  0.52489752547E+03  0.13453030800E+01  0.25429163430E+04  0.25965251318E+04  0.10100000352E+00 0. -1.
       -3    1    3    3    0  502 -0.52489752547E+03 -0.13453030800E+01  0.81416697473E+02  0.53117596982E+03  0.10100000352E+00 0.  1.
</event>
<event>
 5   0  0.3516723E-04  0.1708052E+04  0.7818609E-02  0.8756785E-01
        2   -1    0    0  501    0  0.00000000000E+00  0.00000000000E+00  0.60324862882E+03  0.60324862883E+03  0.25500000920E-02 0.  1.
       -2   -1    0    0    0  501  0.00000000000E+00  0.00000000000E+00 -0.12090540106E+04  0.12090540106E+04  0.25500000920E-02 0. -1.
    10030    2    1    2    0    0  0.00000000000E+00  0.00000000000E+00 -0.60580538177E+03  0.18123026394E+04  0.17080517253E+04 0.  0.
        1    1    3    3  502    0 -0.57447742291E+03  0.42778842456E+03  0.19060169782E+03  0.74118570740E+03  0.50400001928E-02 0.  1.
       -1    1    3    3    0  502  0.57447742291E+03 -0.42778842456E+03 -0.79640707960E+03  0.10711169320E+04  0.50400001928E-02 0. -1.
</event>
<event>
 5   0  0.1930116E-04  0.1633054E+04  0.7818609E-02  0.8800495E-01
        1   -1    0    0  501    0  0.00000000000E+00  0.00000000000E+00  0.12292127817E+04  0.12292127818E+04  0.50400001928E-02 0. -1.
       -1   -1    0    0    0  501  0.00000000000E+00  0.00000000000E+00 -0.54239287694E+03  0.54239287696E+03  0.50400001928E-02 0.  1.
    10030    2    1    2    0    0  0.00000000000E+00  0.00000000000E+00  0.68681990480E+03  0.17716056587E+04  0.16330538963E+04 0.  0.
        1    1    3    3  502    0 -0.43229926801E+02 -0.74564295926E+03  0.70134868830E+03  0.10245692909E+04  0.50400001928E-02 0. -1.
       -1    1    3    3    0  502  0.43229926801E+02  0.74564295926E+03 -0.14528783493E+02  0.74703636781E+03  0.50400001928E-02 0.  1.
</event>
<event>
 5   0  0.3516723E-04  0.1706318E+04  0.7818609E-02  0.8757769E-01
       -2   -1    0    0    0  501  0.00000000000E+00  0.00000000000E+00  0.48019984420E+03  0.48019984421E+03  0.25500000920E-02 0.  1.
        2   -1    0    0  501    0  0.00000000000E+00  0.00000000000E+00 -0.15157869519E+04  0.15157869519E+04  0.25500000920E-02 0. -1.
    10030    2    1    2    0    0  0.00000000000E+00  0.00000000000E+00 -0.10355871077E+04  0.19959867961E+04  0.17063184441E+04 0.  0.
        1    1    3    3  502    0  0.18634623967E+02 -0.93784024305E+02 -0.15094993963E+04  0.15125247502E+04  0.50400001928E-02 0. -1.
       -1    1    3    3    0  502 -0.18634623967E+02  0.93784024305E+02  0.47391228866E+03  0.48346204587E+03  0.50400001928E-02 0.  1.
</event>
<event>
 5   0  0.3516723E-04  0.1693385E+04  0.7818609E-02  0.8765146E-01
        2   -1    0    0  501    0  0.00000000000E+00  0.00000000000E+00  0.19360915654E+04  0.19360915654E+04  0.25500000920E-02 0. -1.
       -2   -1    0    0    0  501  0.00000000000E+00  0.00000000000E+00 -0.37027577537E+03  0.37027577538E+03  0.25500000920E-02 0.  1.
    10030    2    1    2    0    0  0.00000000000E+00  0.00000000000E+00  0.15658157900E+04  0.23063673408E+04  0.16933845465E+04 0.  0.
        1    1    3    3  502    0  0.41265432625E+03  0.60404367579E+03  0.20228693012E+03  0.75899430654E+03  0.50400001928E-02 0.  1.
       -1    1    3    3    0  502 -0.41265432625E+03 -0.60404367579E+03  0.13635288599E+04  0.15473730342E+04  0.50400001928E-02 0. -1.
</event>
<event>
 5   0  0.3573262E-04  0.1691869E+04  0.7818609E-02  0.8766015E-01
       -2   -1    0    0    0  501  0.00000000000E+00  0.00000000000E+00  0.60468313157E+03  0.60468313157E+03  0.25500000920E-02 0. -1.
        2   -1    0    0  501    0  0.00000000000E+00  0.00000000000E+00 -0.11834381300E+04  0.11834381300E+04  0.25500000920E-02 0.  1.
    10030    2    1    2    0    0  0.00000000000E+00  0.00000000000E+00 -0.57875499844E+03  0.17881212616E+04  0.16918688773E+04 0.  0.
        5    1    3    3  502    0 -0.24716912147E+01  0.69444251477E+03  0.22114192414E+03  0.72882258211E+03  0.46999998093E+01 0. -1.
       -5    1    3    3    0  502  0.24716912147E+01 -0.69444251477E+03 -0.79989692258E+03  0.10592986795E+04  0.46999998093E+01 0.  1.
</event>
<event>
 5   0  0.3574092E-04  0.1666285E+04  0.7818609E-02  0.8780830E-01
       -2   -1    0    0    0  501  0.00000000000E+00  0.00000000000E+00  0.39807399932E+03  0.39807399933E+03  0.25500000920E-02 0. -1.
        2   -1    0    0  501    0  0.00000000000E+00  0.00000000000E+00 -0.17437127949E+04  0.17437127950E+04  0.25500000920E-02 0.  1.
    10030    2    1    2    0    0  0.00000000000E+00  0.00000000000E+00 -0.13456387956E+04  0.21417867943E+04  0.16662853609E+04 0.  0.
        3    1    3    3  502    0 -0.17681766703E+03  0.44068929941E+03 -0.15527604181E+04  0.16237415041E+04  0.10100000352E+00 0.  1.
       -3    1    3    3    0  502  0.17681766703E+03 -0.44068929941E+03  0.20712162244E+03  0.51804529018E+03  0.10100000352E+00 0. -1.
</event>
<event>
 5   0  0.1893284E-04  0.1701509E+04  0.7818609E-02  0.8760504E-01
        1   -1    0    0  501    0  0.00000000000E+00  0.00000000000E+00  0.11182173140E+04  0.11182173140E+04  0.50400001928E-02 0.  1.
       -1   -1    0    0    0  501  0.00000000000E+00  0.00000000000E+00 -0.64726557345E+03  0.64726557347E+03  0.50400001928E-02 0. -1.
    10030    2    1    2    0    0  0.00000000000E+00  0.00000000000E+00  0.47095174058E+03  0.17654828875E+04  0.17015094135E+04 0.  0.
        2    1    3    3  502    0 -0.58990580552E+03  0.75410217238E+01  0.87149712044E+03  0.10524034195E+04  0.25500000920E-02 0.  1.
       -2    1    3    3    0  502  0.58990580552E+03 -0.75410217238E+01 -0.40054537986E+03  0.71307946803E+03  0.25500000920E-02 0. -1.
</event>
<event>
 5   0  0.1824538E-04  0.1696772E+04  0.7818609E-02  0.8763208E-01
        1   -1    0    0  501    0  0.00000000000E+00  0.00000000000E+00  0.28520234679E+04  0.28520234679E+04  0.50400001928E-02 0. -1.
       -1   -1    0    0    0  501  0.00000000000E+00  0.00000000000E+00 -0.25236769277E+03  0.25236769282E+03  0.50400001928E-02 0.  1.
    10030    2    1    2    0    0  0.00000000000E+00  0.00000000000E+00  0.25996557751E+04  0.31043911607E+04  0.16967717376E+04 0.  0.
        3    1    3    3  502    0  0.77459829881E+03 -0.34092910858E+03  0.14084287849E+04  0.16431393227E+04  0.10100000352E+00 0.  1.
       -3    1    3    3    0  502 -0.77459829881E+03  0.34092910858E+03  0.11912269903E+04  0.14612518380E+04  0.10100000352E+00 0. -1.
</event>
<event>
 5   0  0.1317625E-04  0.1689416E+04  0.7818609E-02  0.8767424E-01
        3   -1    0    0  501    0  0.00000000000E+00  0.00000000000E+00  0.52232472772E+03  0.52232473748E+03  0.10100000352E+00 0.  1.
       -3   -1    0    0    0  501  0.00000000000E+00  0.00000000000E+00 -0.13660693169E+04  0.13660693206E+04  0.10100000352E+00 0. -1.
    10030    2    1    2    0    0  0.00000000000E+00  0.00000000000E+00 -0.84374458917E+03  0.18883940581E+04  0.16894162267E+04 0.  0.
        5    1    3    3  502    0  0.52448967485E+03  0.21781212453E+03  0.27705534716E+03  0.63191241165E+03  0.46999998093E+01 0.  1.
       -5    1    3    3    0  502 -0.52448967485E+03 -0.21781212453E+03 -0.11207999363E+04  0.12564816465E+04  0.46999998093E+01 0. -1.
</event>
<event>
 5   0  0.1893284E-04  0.1635232E+04  0.7818609E-02  0.8799191E-01
       -1   -1    0    0    0  501  0.00000000000E+00  0.00000000000E+00  0.42813450003E+03  0.42813450006E+03  0.50400001928E-02 0. -1.
        1   -1    0    0  501    0  0.00000000000E+00  0.00000000000E+00 -0.15614161796E+04  0.15614161796E+04  0.50400001928E-02 0.  1.
    10030    2    1    2    0    0  0.00000000000E+00  0.00000000000E+00 -0.11332816796E+04  0.19895506797E+04  0.16352322593E+04 0.  0.
        2    1    3    3  502    0 -0.69253539404E+03  0.43447511442E+03 -0.55318907276E+03  0.98711298608E+03  0.25500000920E-02 0. -1.
       -2    1    3    3    0  502  0.69253539404E+03 -0.43447511442E+03 -0.58009260681E+03  0.10024376936E+04  0.25500000920E-02 0.  1.
</event>
<event>
 5   0  0.1930116E-04  0.1898993E+04  0.7818609E-02  0.8655358E-01
       -1   -1    0    0    0  501  0.00000000000E+00  0.00000000000E+00  0.78788111540E+03  0.78788111541E+03  0.50400001928E-02 0. -1.
        1   -1    0    0  501    0  0.00000000000E+00  0.00000000000E+00 -0.11442638194E+04  0.11442638194E+04  0.50400001928E-02 0.  1.
    10030    2    1    2    0    0  0.00000000000E+00  0.00000000000E+00 -0.35638270396E+03  0.19321449348E+04  0.18989932642E+04 0.  0.
        1    1    3    3  502    0  0.62539504919E+03  0.47830444518E+03 -0.71816300014E+03  0.10656698385E+04  0.50400001928E-02 0.  1.
       -1    1    3    3    0  502 -0.62539504919E+03 -0.47830444518E+03  0.36178029617E+03  0.86647509632E+03  0.50400001928E-02 0. -1.
</event>
<event>
 5   0  0.3516723E-04  0.1701890E+04  0.7818609E-02  0.8760287E-01
        2   -1    0    0  501    0  0.00000000000E+00  0.00000000000E+00  0.86542836335E+03  0.86542836335E+03  0.25500000920E-02 0.  1.
       -2   -1    0    0    0  501  0.00000000000E+00  0.00000000000E+00 -0.83670411814E+03  0.83670411814E+03  0.25500000920E-02 0. -1.
    10030    2    1    2    0    0  0.00000000000E+00  0.00000000000E+00  0.28724245213E+02  0.17021324815E+04  0.17018900970E+04 0.  0.
        1    1    3    3  502    0  0.83369160287E+03  0.13091680130E+03  0.12358654941E+03  0.85290945169E+03  0.50400001928E-02 0.  1.
       -1    1    3    3    0  502 -0.83369160287E+03 -0.13091680130E+03 -0.94862304198E+02  0.84922302980E+03  0.50400001928E-02 0. -1.
</event>
<event>
 5   0  0.1824538E-04  0.1632329E+04  0.7818609E-02  0.8800929E-01
        1   -1    0    0  501    0  0.00000000000E+00  0.00000000000E+00  0.16190269489E+04  0.16190269489E+04  0.50400001928E-02 0. -1.
       -1   -1    0    0    0  501  0.00000000000E+00  0.00000000000E+00 -0.41143518170E+03  0.41143518173E+03  0.50400001928E-02 0.  1.
    10030    2    1    2    0    0  0.00000000000E+00  0.00000000000E+00  0.12075917672E+04  0.20304621307E+04  0.16323291910E+04 0.  0.
        3    1    3    3  502    0  0.42500447685E+03 -0.69270776094E+03  0.51028113090E+03  0.95961434450E+03  0.10100000352E+00 0.  1.
       -3    1    3    3    0  502 -0.42500447685E+03  0.69270776094E+03  0.69731063632E+03  0.10708477862E+04  0.10100000352E+00 0. -1.
</event>
<event>
 5   0  0.3678896E-04  0.1836276E+04  0.7818609E-02  0.8687242E-01
       -2   -1    0    0    0  501  0.00000000000E+00  0.00000000000E+00  0.55015610605E+03  0.55015610605E+03  0.25500000920E-02 0.  1.
        2   -1    0    0  501    0  0.00000000000E+00  0.00000000000E+00 -0.15322518997E+04  0.15322518997E+04  0.25500000920E-02 0. -1.
    10030    2    1    2    0    0  0.00000000000E+00  0.00000000000E+00 -0.98209579362E+03  0.20824080057E+04  0.18362763829E+04 0.  0.
        2    1    3    3  502    0  0.44536396967E+03 -0.19055014237E+03 -0.13755392257E+04  0.14583437811E+04  0.25500000920E-02 0. -1.
       -2    1    3    3    0  502 -0.44536396967E+03  0.19055014237E+03  0.39344343210E+03  0.62406422467E+03  0.25500000920E-02 0.  1.
</event>
<event>
 5   0  0.1815663E-04  0.1706325E+04  0.7818609E-02  0.8757765E-01
       -1   -1    0    0    0  501  0.00000000000E+00  0.00000000000E+00  0.14021282113E+04  0.14021282113E+04  0.50400001928E-02 0. -1.
        1   -1    0    0  501    0  0.00000000000E+00  0.00000000000E+00 -0.51912946236E+03  0.51912946238E+03  0.50400001928E-02 0.  1.
    10030    2    1    2    0    0  0.00000000000E+00  0.00000000000E+00  0.88299874892E+03  0.19212576737E+04  0.17063247809E+04 0.  0.
        5    1    3    3  502    0 -0.57950758584E+03  0.78547449905E+02  0.11409253231E+04  0.12820808972E+04  0.46999998093E+01 0. -1.
       -5    1    3    3    0  502  0.57950758584E+03 -0.78547449905E+02 -0.25792657422E+03  0.63917677650E+03  0.46999998093E+01 0.  1.
</event>
<event>
 5   0  0.3605571E-04  0.1709929E+04  0.7818609E-02  0.8755722E-01
        2   -1    0    0  501    0  0.00000000000E+00  0.00000000000E+00  0.78015068958E+03  0.78015068958E+03  0.25500000920E-02 0. -1.
       -2   -1    0    0    0  501  0.00000000000E+00  0.00000000000E+00 -0.93695286630E+03  0.93695286630E+03  0.25500000920E-02 0.  1.
    10030    2    1    2    0    0  0.00000000000E+00  0.00000000000E+00 -0.15680217672E+03  0.17171035559E+04  0.17099291503E+04 0.  0.
        4    1    3    3  502    0 -0.28008715817E+03  0.79188598271E+03  0.81737706528E+02  0.84392825012E+03  0.12699999809E+01 0. -1.
       -4    1    3    3    0  502  0.28008715817E+03 -0.79188598271E+03 -0.23853988325E+03  0.87317530576E+03  0.12699999809E+01 0.  1.
</event>
<event>
 5   0  0.3516723E-04  0.1703905E+04  0.7818609E-02  0.8759140E-01
        2   -1    0    0  501    0  0.00000000000E+00  0.00000000000E+00  0.98037248012E+03  0.98037248013E+03  0.25500000920E-02 0. -1.
       -2   -1    0    0    0  501  0.00000000000E+00  0.00000000000E+00 -0.74035451320E+03  0.74035451321E+03  0.25500000920E-02 0.  1.
    10030    2    1    2    0    0  0.00000000000E+00  0.00000000000E+00  0.24001796692E+03  0.17207269933E+04  0.17039051503E+04 0.  0.
        1    1    3    3  502    0 -0.10983719376E+03  0.52661080695E+03  0.78716721529E+03  0.95342297853E+03  0.50400001928E-02 0. -1.
       -1    1    3    3    0  502  0.10983719376E+03 -0.52661080695E+03 -0.54714924837E+03  0.76730401481E+03  0.50400001928E-02 0.  1.
</event>
<event>
 5   0  0.3516723E-04  0.1713705E+04  0.7818609E-02  0.8753586E-01
        2   -1    0    0  501    0  0.00000000000E+00  0.00000000000E+00  0.55732905328E+03  0.55732905329E+03  0.25500000920E-02 0.  1.
       -2   -1    0    0    0  501  0.00000000000E+00  0.00000000000E+00 -0.13173481280E+04  0.13173481280E+04  0.25500000920E-02 0. -1.
    10030    2    1    2    0    0  0.00000000000E+00  0.00000000000E+00 -0.76001907471E+03  0.18746771813E+04  0.17137052080E+04 0.  0.
        1    1    3    3  502    0  0.74910483365E+03 -0.11915640072E+03  0.55974343081E+02  0.76058492409E+03  0.50400001928E-02 0.  1.
       -1    1    3    3    0  502 -0.74910483365E+03  0.11915640072E+03 -0.81599341780E+03  0.11140922572E+04  0.50400001928E-02 0. -1.
</event>
<event>
 5   0  0.1920289E-04  0.1725130E+04  0.7818609E-02  0.8747160E-01
        1   -1    0    0  501    0  0.00000000000E+00  0.00000000000E+00  0.11806881402E+04  0.11806881402E+04  0.50400001928E-02 0. -1.
       -1   -1    0    0    0  501  0.00000000000E+00  0.00000000000E+00 -0.63015674452E+03  0.63015674454E+03  0.50400001928E-02 0.  1.
    10030    2    1    2    0    0  0.00000000000E+00  0.00000000000E+00  0.55053139566E+03  0.18108448847E+04  0.17251302499E+04 0.  0.
        4    1    3    3  502    0  0.74657244965E+03  0.20553799905E+02  0.72824389903E+03  0.10431364583E+04  0.12699999809E+01 0. -1.
       -4    1    3    3    0  502 -0.74657244965E+03 -0.20553799905E+02 -0.17771250337E+03  0.76770842643E+03  0.12699999809E+01 0.  1.
</event>
<event>
 5   0  0.3605571E-04  0.1681794E+04  0.7818609E-02  0.8771816E-01
       -2   -1    0    0    0  501  0.00000000000E+00  0.00000000000E+00  0.13178884843E+04  0.13178884843E+04  0.25500000920E-02 0. -1.
        2   -1    0    0  501    0  0.00000000000E+00  0.00000000000E+00 -0.53654621455E+03  0.53654621456E+03  0.25500000920E-02 0.  1.
    10030    2    1    2    0    0  0.00000000000E+00  0.00000000000E+00  0.78134226979E+03  0.18544346989E+04  0.16817943721E+04 0.  0.
        4    1    3    3  502    0  0.56509454587E+03 -0.11263235134E+03 -0.28464257473E+03  0.64268258152E+03  0.12699999809E+01 0.  1.
       -4    1    3    3    0  502 -0.56509454587E+03  0.11263235134E+03  0.10659848445E+04  0.12117521174E+04  0.12699999809E+01 0. -1.
</event>
<event>
 5   0  0.3605571E-04  0.1676367E+04  0.7818609E-02  0.8774959E-01
        2   -1    0    0  501    0  0.00000000000E+00  0.00000000000E+00  0.11158575999E+04  0.11158575999E+04  0.25500000920E-02 0.  1.
       -2   -1    0    0    0  501  0.00000000000E+00  0.00000000000E+00 -0.62960665798E+03  0.62960665798E+03  0.25500000920E-02 0. -1.
    10030    2    1    2    0    0  0.00000000000E+00  0.00000000000E+00  0.48625094189E+03  0.17454642578E+04  0.16763667549E+04 0.  0.
        4    1    3    3  502    0 -0.17966915523E+03  0.17540442681E+03 -0.58952530056E+03  0.64077251126E+03  0.12699999809E+01 0. -1.
       -4    1    3    3    0  502  0.17966915523E+03 -0.17540442681E+03  0.10757762424E+04  0.11046917466E+04  0.12699999809E+01 0.  1.
</event>
<event>
 5   0  0.1893284E-04  0.1728854E+04  0.7818609E-02  0.8745077E-01
        1   -1    0    0  501    0  0.00000000000E+00  0.00000000000E+00  0.14733366617E+04  0.14733366617E+04  0.50400001928E-02 0.  1.
       -1   -1    0    0    0  501  0.00000000000E+00  0.00000000000E+00 -0.50717123078E+03  0.50717123080E+03  0.50400001928E-02 0. -1.
    10030    2    1    2    0    0  0.00000000000E+00  0.00000000000E+00  0.96616543088E+03  0.19805078925E+04  0.17288539187E+04 0.  0.
        2    1    3    3  502    0 -0.56169839428E+03  0.55127235736E+03  0.73510285173E+02  0.79044927741E+03  0.25500000920E-02 0. -1.
       -2    1    3    3    0  502  0.56169839428E+03 -0.55127235736E+03  0.89265514571E+03  0.11900586151E+04  0.25500000920E-02 0.  1.
</event>
<event>
 5   0  0.3516723E-04  0.1704230E+04  0.7818609E-02  0.8758955E-01
        2   -1    0    0  501    0  0.00000000000E+00  0.00000000000E+00  0.14615288672E+04  0.14615288672E+04  0.25500000920E-02 0. -1.
       -2   -1    0    0    0  501  0.00000000000E+00  0.00000000000E+00 -0.49680869665E+03  0.49680869666E+03  0.25500000920E-02 0.  1.
    10030    2    1    2    0    0  0.00000000000E+00  0.00000000000E+00  0.96472017059E+03  0.19583375639E+04  0.17042303268E+04 0.  0.
        1    1    3    3  502    0  0.22545304200E+03 -0.21698285353E+03  0.13931215412E+04  0.14278299134E+04  0.50400001928E-02 0. -1.
       -1    1    3    3    0  502 -0.22545304200E+03  0.21698285353E+03 -0.42840137064E+03  0.53050765052E+03  0.50400001928E-02 0.  1.
</event>
<event>
 5   0  0.1815663E-04  0.1701130E+04  0.7818609E-02  0.8760720E-01
       -1   -1    0    0    0  501  0.00000000000E+00  0.00000000000E+00  0.99408930106E+03  0.99408930108E+03  0.50400001928E-02 0.  1.
        1   -1    0    0  501    0  0.00000000000E+00  0.00000000000E+00 -0.72776279174E+03  0.72776279176E+03  0.50400001928E-02 0. -1.
    10030    2    1    2    0    0  0.00000000000E+00  0.00000000000E+00  0.26632650932E+03  0.17218520928E+04  0.17011304536E+04 0.  0.
        5    1    3    3  502    0 -0.84162441557E+03  0.87619878456E+02  0.45914564780E+02  0.84743090411E+03  0.46999998093E+01 0.  1.
       -5    1    3    3    0  502  0.84162441557E+03 -0.87619878456E+02  0.22041194454E+03  0.87442118872E+03  0.46999998093E+01 0. -1.
</event>
<event>
 5   0  0.1815663E-04  0.1692042E+04  0.7818609E-02  0.8765916E-01
        1   -1    0    0  501    0  0.00000000000E+00  0.00000000000E+00  0.12195128473E+04  0.12195128473E+04  0.50400001928E-02 0.  1.
       -1   -1    0    0    0  501  0.00000000000E+00  0.00000000000E+00 -0.58691572649E+03  0.58691572651E+03  0.50400001928E-02 0. -1.
    10030    2    1    2    0    0  0.00000000000E+00  0.00000000000E+00  0.63259712077E+03  0.18064285738E+04  0.16920416883E+04 0.  0.
        5    1    3    3  502    0  0.73534500467E+03 -0.13642029314E+03  0.73848981740E+03  0.10510623543E+04  0.46999998093E+01 0.  1.
       -5    1    3    3    0  502 -0.73534500467E+03  0.13642029314E+03 -0.10589269663E+03  0.75536621945E+03  0.46999998093E+01 0. -1.
</event>
<event>
 5   0  0.1815663E-04  0.1696396E+04  0.7818609E-02  0.8763422E-01
        1   -1    0    0  501    0  0.00000000000E+00  0.00000000000E+00  0.85617900824E+03  0.85617900826E+03  0.50400001928E-02 0. -1.
       -1   -1    0    0    0  501  0.00000000000E+00  0.00000000000E+00 -0.84029179679E+03  0.84029179681E+03  0.50400001928E-02 0.  1.
    10030    2    1    2    0    0  0.00000000000E+00  0.00000000000E+00  0.15887211449E+02  0.16964708051E+04  0.16963964127E+04 0.  0.
        5    1    3    3  502    0 -0.23581904797E+02 -0.37619870767E+01  0.85582974040E+03  0.85617573741E+03  0.46999998093E+01 0. -1.
       -5    1    3    3    0  502  0.23581904797E+02  0.37619870767E+01 -0.83994252895E+03  0.84029506765E+03  0.46999998093E+01 0.  1.
</event>
<event>
 5   0  0.1893284E-04  0.1700379E+04  0.7818609E-02  0.8761148E-01
        1   -1    0    0  501    0  0.00000000000E+00  0.00000000000E+00  0.55104147697E+03  0.55104147699E+03  0.50400001928E-02 0. -1.
       -1   -1    0    0    0  501  0.00000000000E+00  0.00000000000E+00 -0.13117378690E+04  0.13117378691E+04  0.50400001928E-02 0.  1.
    10030    2    1    2    0    0  0.00000000000E+00  0.00000000000E+00 -0.76069639208E+03  0.18627793460E+04  0.17003787493E+04 0.  0.
        2    1    3    3  502    0  0.34214211800E+03 -0.32734221676E+03  0.39321408746E+03  0.61549287110E+03  0.25500000920E-02 0. -1.
       -2    1    3    3    0  502 -0.34214211800E+03  0.32734221676E+03 -0.11539104795E+04  0.12472864749E+04  0.25500000920E-02 0.  1.
</event>
<event>
 5   0  0.3574092E-04  0.1655631E+04  0.7818609E-02  0.8787082E-01
        2   -1    0    0  501    0  0.00000000000E+00  0.00000000000E+00  0.87935803665E+03  0.87935803665E+03  0.25500000920E-02 0.  1.
       -2   -1    0    0    0  501  0.00000000000E+00  0.00000000000E+00 -0.77929453012E+03  0.77929453012E+03  0.25500000920E-02 0. -1.
    10030    2    1    2    0    0  0.00000000000E+00  0.00000000000E+00  0.10006350653E+03  0.16586525668E+04  0.16556314904E+04 0.  0.
        3    1    3    3  502    0 -0.19865986013E+03  0.79491770819E+03 -0.68162316184E+02  0.82219584915E+03  0.10100000352E+00 0. -1.
       -3    1    3    3    0  502  0.19865986013E+03 -0.79491770819E+03  0.16822582272E+03  0.83645671762E+03  0.10100000352E+00 0.  1.
</event>
<event>
 5   0  0.3573262E-04  0.1672658E+04  0.7818609E-02  0.8777114E-01
        2   -1    0    0  501    0  0.00000000000E+00  0.00000000000E+00  0.51353764545E+03  0.51353764545E+03  0.25500000920E-02 0.  1.
       -2   -1    0    0    0  501  0.00000000000E+00  0.00000000000E+00 -0.13620146350E+04  0.13620146350E+04  0.25500000920E-02 0. -1.
    10030    2    1    2    0    0  0.00000000000E+00  0.00000000000E+00 -0.84847698952E+03  0.18755522804E+04  0.16726575127E+04 0.  0.
        5    1    3    3  502    0  0.23976271538E+03  0.57412685024E+03 -0.10508800560E+04  0.12212611440E+04  0.46999998093E+01 0. -1.
       -5    1    3    3    0  502 -0.23976271538E+03 -0.57412685024E+03  0.20240306646E+03  0.65429113639E+03  0.46999998093E+01 0.  1.
</event>
<event>
 5   0  0.3678896E-04  0.1763336E+04  0.7818609E-02  0.8726043E-01
       -2   -1    0    0    0  501  0.00000000000E+00  0.00000000000E+00  0.53352427961E+03  0.53352427962E+03  0.25500000920E-02 0.  1.
        2   -1    0    0  501    0  0.00000000000E+00  0.00000000000E+00 -0.14569885049E+04  0.14569885049E+04  0.25500000920E-02 0. -1.
    10030    2    1    2    0    0  0.00000000000E+00  0.00000000000E+00 -0.92346422530E+03  0.19905127845E+04  0.17633363179E+04 0.  0.
        2    1    3    3  502    0 -0.33708656317E+03 -0.44151039542E+03  0.31115192642E+03  0.63669011431E+03  0.25500000920E-02 0.  1.
       -2    1    3    3    0  502  0.33708656317E+03  0.44151039542E+03 -0.12346161517E+04  0.13538226702E+04  0.25500000920E-02 0. -1.
</event>
<event>
 5   0  0.1893284E-04  0.1716396E+04  0.7818609E-02  0.8752068E-01
        1   -1    0    0  501    0  0.00000000000E+00  0.00000000000E+00  0.15189518860E+04  0.15189518860E+04  0.50400001928E-02 0. -1.
       -1   -1    0    0    0  501  0.00000000000E+00  0.00000000000E+00 -0.48487646465E+03  0.48487646468E+03  0.50400001928E-02 0.  1.
    10030    2    1    2    0    0  0.00000000000E+00  0.00000000000E+00  0.10340754214E+04  0.20038283507E+04  0.17163962486E+04 0.  0.
        2    1    3    3  502    0 -0.18733208906E+03  0.28779058426E+03 -0.40117532880E+03  0.52807042752E+03  0.25500000920E-02 0.  1.
       -2    1    3    3    0  502  0.18733208906E+03 -0.28779058426E+03  0.14352507502E+04  0.14757579232E+04  0.25500000920E-02 0. -1.
</event>
<event>
 5   0  0.3516723E-04  0.1666724E+04  0.7818609E-02  0.8780574E-01
       -2   -1    0    0    0  501  0.00000000000E+00  0.00000000000E+00  0.10234007327E+04  0.10234007327E+04  0.25500000920E-02 0.  1.
        2   -1    0    0  501    0  0.00000000000E+00  0.00000000000E+00 -0.67861181467E+03  0.67861181468E+03  0.25500000920E-02 0. -1.
    10030    2    1    2    0    0  0.00000000000E+00  0.00000000000E+00  0.34478891802E+03  0.17020125474E+04  0.16667235264E+04 0.  0.
        1    1    3    3  502    0  0.60486008394E+03  0.57024430143E+03  0.11234860287E+03  0.83884235292E+03  0.50400001928E-02 0. -1.
       -1    1    3    3    0  502 -0.60486008394E+03 -0.57024430143E+03  0.23244031515E+03  0.86317019446E+03  0.50400001928E-02 0.  1.
</event>
<event>
 5   0  0.1317625E-04  0.1704447E+04  0.7818609E-02  0.8758832E-01
       -4   -1    0    0    0  501  0.00000000000E+00  0.00000000000E+00  0.58418726086E+03  0.58418864132E+03  0.12699999809E+01 0. -1.
        4   -1    0    0  501    0  0.00000000000E+00  0.00000000000E+00 -0.12432370108E+04  0.12432376594E+04  0.12699999809E+01 0.  1.
    10030    2    1    2    0    0  0.00000000000E+00  0.00000000000E+00 -0.65904974990E+03  0.18274263008E+04  0.17044472159E+04 0.  0.
        5    1    3    3  502    0  0.70156702712E+03  0.30089407590E+03  0.76662877590E+02  0.76722410367E+03  0.46999998093E+01 0. -1.
       -5    1    3    3    0  502 -0.70156702712E+03 -0.30089407590E+03 -0.73571262749E+03  0.10602021971E+04  0.46999998093E+01 0.  1.
</event>
<event>
 5   0  0.1930116E-04  0.1721149E+04  0.7818609E-02  0.8749393E-01
       -1   -1    0    0    0  501  0.00000000000E+00  0.00000000000E+00  0.72288253962E+03  0.72288253963E+03  0.50400001928E-02 0. -1.
        1   -1    0    0  501    0  0.00000000000E+00  0.00000000000E+00 -0.10244936788E+04  0.10244936788E+04  0.50400001928E-02 0.  1.
    10030    2    1    2    0    0  0.00000000000E+00  0.00000000000E+00 -0.30161113919E+03  0.17473762185E+04  0.17211491422E+04 0.  0.
        1    1    3    3  502    0  0.49029748441E+03  0.53584223690E+03  0.31782340463E+03  0.79279899257E+03  0.50400001928E-02 0. -1.
       -1    1    3    3    0  502 -0.49029748441E+03 -0.53584223690E+03 -0.61943454382E+03  0.95457722588E+03  0.50400001928E-02 0.  1.
</event>
<event>
 5   0  0.1824538E-04  0.1660736E+04  0.7818609E-02  0.8784081E-01
        1   -1    0    0  501    0  0.00000000000E+00  0.00000000000E+00  0.14482448190E+04  0.14482448190E+04  0.50400001928E-02 0. -1.
       -1   -1    0    0    0  501  0.00000000000E+00  0.00000000000E+00 -0.47610103621E+03  0.47610103624E+03  0.50400001928E-02 0.  1.
    10030    2    1    2    0    0  0.00000000000E+00  0.00000000000E+00  0.97214378277E+03  0.19243458552E+04  0.16607358117E+04 0.  0.
        3    1    3    3  502    0 -0.26748995461E+03  0.66397084960E+03 -0.15634228120E+01  0.71582862434E+03  0.10100000352E+00 0.  1.
       -3    1    3    3    0  502  0.26748995461E+03 -0.66397084960E+03  0.97370720558E+03  0.12085172309E+04  0.10100000352E+00 0. -1.
</event>
<event>
 5   0  0.1893284E-04  0.1704807E+04  0.7818609E-02  0.8758627E-01
        1   -1    0    0  501    0  0.00000000000E+00  0.00000000000E+00  0.15667728423E+04  0.15667728423E+04  0.50400001928E-02 0. -1.
       -1   -1    0    0    0  501  0.00000000000E+00  0.00000000000E+00 -0.46375073794E+03  0.46375073797E+03  0.50400001928E-02 0.  1.
    10030    2    1    2    0    0  0.00000000000E+00  0.00000000000E+00  0.11030221043E+04  0.20305235802E+04  0.17048073930E+04 0.  0.
        2    1    3    3  502    0  0.23991947693E+03  0.79598323747E+03  0.77573815370E+03  0.11370665560E+04  0.25500000920E-02 0.  1.
       -2    1    3    3    0  502 -0.23991947693E+03 -0.79598323747E+03  0.32728395063E+03  0.89345702420E+03  0.25500000920E-02 0. -1.
</event>
<event>
 5   0  0.1824538E-04  0.1711643E+04  0.7818609E-02  0.8754752E-01
        1   -1    0    0  501    0  0.00000000000E+00  0.00000000000E+00  0.24084962221E+04  0.24084962221E+04  0.50400001928E-02 0. -1.
       -1   -1    0    0    0  501  0.00000000000E+00  0.00000000000E+00 -0.30410271232E+03  0.30410271237E+03  0.50400001928E-02 0.  1.
    10030    2    1    2    0    0  0.00000000000E+00  0.00000000000E+00  0.21043935098E+04  0.27125989345E+04  0.17116427593E+04 0.  0.
        3    1    3    3  502    0  0.29692990628E+03 -0.74039225385E+03  0.56095661159E+03  0.97520274256E+03  0.10100000352E+00 0.  1.
       -3    1    3    3    0  502 -0.29692990628E+03  0.74039225385E+03  0.15434368982E+04  0.17373961919E+04  0.10100000352E+00 0. -1.
</event>
<event>
 5   0  0.1930116E-04  0.1690491E+04  0.7818609E-02  0.8766806E-01
       -1   -1    0    0    0  501  0.00000000000E+00  0.00000000000E+00  0.47614048540E+03  0.47614048543E+03  0.50400001928E-02 0. -1.
        1   -1    0    0  501    0  0.00000000000E+00  0.00000000000E+00 -0.15004821192E+04  0.15004821193E+04  0.50400001928E-02 0.  1.
    10030    2    1    2    0    0  0.00000000000E+00  0.00000000000E+00 -0.10243416338E+04  0.19766226047E+04  0.16904913897E+04 0.  0.
        1    1    3    3  502    0 -0.21692750243E+03 -0.79368083238E+03 -0.28588523642E+03  0.87104372648E+03  0.50400001928E-02 0. -1.
       -1    1    3    3    0  502  0.21692750243E+03  0.79368083238E+03 -0.73845639742E+03  0.11055788782E+04  0.50400001928E-02 0.  1.
</event>
<event>
 5   0  0.1893284E-04  0.1464144E+04  0.7818609E-02  0.8908653E-01
       -1   -1    0    0    0  501  0.00000000000E+00  0.00000000000E+00  0.50985888241E+03  0.50985888244E+03  0.50400001928E-02 0. -1.
        1   -1    0    0  501    0  0.00000000000E+00  0.00000000000E+00 -0.10511321855E+04  0.10511321855E+04  0.50400001928E-02 0.  1.
    10030    2    1    2    0    0  0.00000000000E+00  0.00000000000E+00 -0.54127330307E+03  0.15609910679E+04  0.14641435468E+04 0.  0.
        2    1    3    3  502    0  0.16916381548E+03 -0.96967962289E+02 -0.10229385205E+04  0.10413560385E+04  0.25500000920E-02 0.  1.
       -2    1    3    3    0  502 -0.16916381548E+03  0.96967962289E+02  0.48166521740E+03  0.51963502946E+03  0.25500000920E-02 0. -1.
</event>
<event>
 5   0  0.3678896E-04  0.1689851E+04  0.7818609E-02  0.8767174E-01
        2   -1    0    0  501    0  0.00000000000E+00  0.00000000000E+00  0.23399673760E+04  0.23399673760E+04  0.25500000920E-02 0.  1.
       -2   -1    0    0    0  501  0.00000000000E+00  0.00000000000E+00 -0.30508928568E+03  0.30508928569E+03  0.25500000920E-02 0. -1.
    10030    2    1    2    0    0  0.00000000000E+00  0.00000000000E+00  0.20348780903E+04  0.26450566617E+04  0.16898508517E+04 0.  0.
        2    1    3    3  502    0 -0.41956948498E+03 -0.72620034523E+03  0.85709737698E+03  0.11991753032E+04  0.25500000920E-02 0. -1.
       -2    1    3    3    0  502  0.41956948498E+03  0.72620034523E+03  0.11777807133E+04  0.14458813585E+04  0.25500000920E-02 0.  1.
</event>
<event>
 5   0  0.1893284E-04  0.1763679E+04  0.7818609E-02  0.8725857E-01
       -1   -1    0    0    0  501  0.00000000000E+00  0.00000000000E+00  0.15624568228E+04  0.15624568228E+04  0.50400001928E-02 0.  1.
        1   -1    0    0  501    0  0.00000000000E+00  0.00000000000E+00 -0.49770366521E+03  0.49770366523E+03  0.50400001928E-02 0. -1.
    10030    2    1    2    0    0  0.00000000000E+00  0.00000000000E+00  0.10647531576E+04  0.20601604880E+04  0.17636785279E+04 0.  0.
        2    1    3    3  502    0  0.86611689391E+02 -0.45586886943E+03 -0.34356339810E+03  0.57736801035E+03  0.25500000920E-02 0. -1.
       -2    1    3    3    0  502 -0.86611689391E+02  0.45586886943E+03  0.14083165557E+04  0.14827924777E+04  0.25500000920E-02 0.  1.
</event>
<event>
 5   0  0.1815663E-04  0.1710391E+04  0.7818609E-02  0.8755460E-01
        1   -1    0    0  501    0  0.00000000000E+00  0.00000000000E+00  0.18663411364E+04  0.18663411365E+04  0.50400001928E-02 0.  1.
       -1   -1    0    0    0  501  0.00000000000E+00  0.00000000000E+00 -0.39186789437E+03  0.39186789440E+03  0.50400001928E-02 0. -1.
    10030    2    1    2    0    0  0.00000000000E+00  0.00000000000E+00  0.14744732421E+04  0.22582090309E+04  0.17103907990E+04 0.  0.
        5    1    3    3  502    0 -0.38518303861E+03 -0.62503427564E+03  0.13162146911E+04  0.15071420046E+04  0.46999998093E+01 0.  1.
       -5    1    3    3    0  502  0.38518303861E+03  0.62503427564E+03  0.15825855096E+03  0.75106702625E+03  0.46999998093E+01 0. -1.
</event>
<event>
 5   0  0.1317625E-04  0.1693904E+04  0.7818609E-02  0.8764849E-01
        3   -1    0    0  501    0  0.00000000000E+00  0.00000000000E+00  0.10391931747E+04  0.10391931796E+04  0.10100000352E+00 0. -1.
       -3   -1    0    0    0  501  0.00000000000E+00  0.00000000000E+00 -0.69027331284E+03  0.69027332023E+03  0.10100000352E+00 0.  1.
    10030    2    1    2    0    0  0.00000000000E+00  0.00000000000E+00  0.34891986189E+03  0.17294664999E+04  0.16939035699E+04 0.  0.
        3    1    3    3  502    0 -0.89730867682E+02  0.56899398740E+03 -0.45947953394E+03  0.73683596453E+03  0.10100000352E+00 0.  1.
       -3    1    3    3    0  502  0.89730867682E+02 -0.56899398740E+03  0.80839939582E+03  0.99263053534E+03  0.10100000352E+00 0. -1.
</event>
<event>
 5   0  0.3574092E-04  0.1565170E+04  0.7818609E-02  0.8842236E-01
       -2   -1    0    0    0  501  0.00000000000E+00  0.00000000000E+00  0.90409040101E+03  0.90409040101E+03  0.25500000920E-02 0.  1.
        2   -1    0    0  501    0  0.00000000000E+00  0.00000000000E+00 -0.67740897971E+03  0.67740897971E+03  0.25500000920E-02 0. -1.
    10030    2    1    2    0    0  0.00000000000E+00  0.00000000000E+00  0.22668142130E+03  0.15814993807E+04  0.15651695833E+04 0.  0.
        3    1    3    3  502    0 -0.56891807435E+03 -0.19009414908E+03 -0.39453181148E+03  0.71795467915E+03  0.10100000352E+00 0. -1.
       -3    1    3    3    0  502  0.56891807435E+03  0.19009414908E+03  0.62121323278E+03  0.86354470158E+03  0.10100000352E+00 0.  1.
</event>
<event>
 5   0  0.3574092E-04  0.1625580E+04  0.7818609E-02  0.8804986E-01
        2   -1    0    0  501    0  0.00000000000E+00  0.00000000000E+00  0.14180322203E+04  0.14180322203E+04  0.25500000920E-02 0.  1.
       -2   -1    0    0    0  501  0.00000000000E+00  0.00000000000E+00 -0.46587610185E+03  0.46587610185E+03  0.25500000920E-02 0. -1.
    10030    2    1    2    0    0  0.00000000000E+00  0.00000000000E+00  0.95215611844E+03  0.18839083221E+04  0.16255796789E+04 0.  0.
        3    1    3    3  502    0  0.45217316146E+03  0.56360626348E+03  0.90739793815E+03  0.11599498336E+04  0.10100000352E+00 0.  1.
       -3    1    3    3    0  502 -0.45217316146E+03 -0.56360626348E+03  0.44758180288E+02  0.72395848851E+03  0.10100000352E+00 0. -1.
</event>
<event>
 5   0  0.3605571E-04  0.1713165E+04  0.7818609E-02  0.8753891E-01
       -2   -1    0    0    0  501  0.00000000000E+00  0.00000000000E+00  0.59343350631E+03  0.59343350632E+03  0.25500000920E-02 0.  1.
        2   -1    0    0  501    0  0.00000000000E+00  0.00000000000E+00 -0.12364204571E+04  0.12364204571E+04  0.25500000920E-02 0. -1.
    10030    2    1    2    0    0  0.00000000000E+00  0.00000000000E+00 -0.64298695080E+03  0.18298539634E+04  0.17131647056E+04 0.  0.
        4    1    3    3  502    0 -0.79275861899E+03 -0.15859318383E+03 -0.62381611843E+03  0.10211592376E+04  0.12699999809E+01 0. -1.
       -4    1    3    3    0  502  0.79275861899E+03  0.15859318383E+03 -0.19170832364E+02  0.80869472587E+03  0.12699999809E+01 0.  1.
</event>
<event>
 5   0  0.3574092E-04  0.1718397E+04  0.7818609E-02  0.8750941E-01
        2   -1    0    0  501    0  0.00000000000E+00  0.00000000000E+00  0.17274846978E+04  0.17274846978E+04  0.25500000920E-02 0. -1.
       -2   -1    0    0    0  501  0.00000000000E+00  0.00000000000E+00 -0.42733930691E+03  0.42733930691E+03  0.25500000920E-02 0.  1.
    10030    2    1    2    0    0  0.00000000000E+00  0.00000000000E+00  0.13001453909E+04  0.21548240047E+04  0.17183970594E+04 0.  0.
        3    1    3    3  502    0 -0.75714946122E+02 -0.74352653307E+03  0.11856306843E+03  0.75671769495E+03  0.10100000352E+00 0.  1.
       -3    1    3    3    0  502  0.75714946122E+02  0.74352653307E+03  0.11815823224E+04  0.13981063097E+04  0.10100000352E+00 0. -1.
</event>
<event>
 5   0  0.3516723E-04  0.1702096E+04  0.7818609E-02  0.8760170E-01
       -2   -1    0    0    0  501  0.00000000000E+00  0.00000000000E+00  0.87319932515E+03  0.87319932515E+03  0.25500000920E-02 0.  1.
        2   -1    0    0  501    0  0.00000000000E+00  0.00000000000E+00 -0.82945863145E+03  0.82945863145E+03  0.25500000920E-02 0. -1.
    10030    2    1    2    0    0  0.00000000000E+00  0.00000000000E+00  0.43740693702E+02  0.17026579566E+04  0.17020960222E+04 0.  0.
        1    1    3    3  502    0 -0.39211313695E+02 -0.65992371998E+03 -0.51425983266E+03  0.83755597952E+03  0.50400001928E-02 0. -1.
       -1    1    3    3    0  502  0.39211313695E+02  0.65992371998E+03  0.55800052637E+03  0.86510197709E+03  0.50400001928E-02 0.  1.
</event>
<event>
 5   0  0.3574092E-04  0.1778580E+04  0.7818609E-02  0.8717774E-01
       -2   -1    0    0    0  501  0.00000000000E+00  0.00000000000E+00  0.31658455918E+03  0.31658455919E+03  0.25500000920E-02 0. -1.
        2   -1    0    0  501    0  0.00000000000E+00  0.00000000000E+00 -0.24980260955E+04  0.24980260955E+04  0.25500000920E-02 0.  1.
    10030    2    1    2    0    0  0.00000000000E+00  0.00000000000E+00 -0.21814415363E+04  0.28146106547E+04  0.17785797596E+04 0.  0.
        3    1    3    3  502    0 -0.63041046875E+03  0.18303246695E+03 -0.14132583829E+03  0.67148436008E+03  0.10100000352E+00 0. -1.
       -3    1    3    3    0  502  0.63041046875E+03 -0.18303246695E+03 -0.20401156980E+04  0.21431262946E+04  0.10100000352E+00 0.  1.
</event>
<event>
 5   0  0.3573262E-04  0.1691100E+04  0.7818609E-02  0.8766456E-01
       -2   -1    0    0    0  501  0.00000000000E+00  0.00000000000E+00  0.33931388574E+03  0.33931388575E+03  0.25500000920E-02 0.  1.
        2   -1    0    0  501    0  0.00000000000E+00  0.00000000000E+00 -0.21070613386E+04  0.21070613386E+04  0.25500000920E-02 0. -1.
    10030    2    1    2    0    0  0.00000000000E+00  0.00000000000E+00 -0.17677474529E+04  0.24463752244E+04  0.16911004350E+04 0.  0.
        5    1    3    3  502    0  0.36166007006E+03  0.80456281955E+01 -0.19894437267E+04  0.20220710101E+04  0.46999998093E+01 0. -1.
       -5    1    3    3    0  502 -0.36166007006E+03 -0.80456281955E+01  0.22169627380E+03  0.42430421424E+03  0.46999998093E+01 0.  1.
</event>
<event>
 5   0  0.1824538E-04  0.1701611E+04  0.7818609E-02  0.8760446E-01
       -1   -1    0    0    0  501  0.00000000000E+00  0.00000000000E+00  0.15552248734E+04  0.15552248734E+04  0.50400001928E-02 0.  1.
        1   -1    0    0  501    0  0.00000000000E+00  0.00000000000E+00 -0.46544391057E+03  0.46544391059E+03  0.50400001928E-02 0. -1.
    10030    2    1    2    0    0  0.00000000000E+00  0.00000000000E+00  0.10897809628E+04  0.20206687840E+04  0.17016109390E+04 0.  0.
        3    1    3    3  502    0 -0.81684349885E+03 -0.16545090222E+03  0.34175229459E+03  0.90077852090E+03  0.10100000352E+00 0. -1.
       -3    1    3    3    0  502  0.81684349885E+03  0.16545090222E+03  0.74802866821E+03  0.11198902631E+04  0.10100000352E+00 0.  1.
</event>
<event>
 5   0  0.1930116E-04  0.1622828E+04  0.7818609E-02  0.8806645E-01
        1   -1    0    0  501    0  0.00000000000E+00  0.00000000000E+00  0.96375226495E+03  0.96375226496E+03  0.50400001928E-02 0.  1.
       -1   -1    0    0    0  501  0.00000000000E+00  0.00000000000E+00 -0.68315573828E+03  0.68315573830E+03  0.50400001928E-02 0. -1.
    10030    2    1    2    0    0  0.00000000000E+00  0.00000000000E+00  0.28059652667E+03  0.16469080033E+04  0.16228282597E+04 0.  0.
        1    1    3    3  502    0  0.79202692123E+03 -0.17617677812E+03  0.14732846047E+03  0.82465179100E+03  0.50400001928E-02 0. -1.
       -1    1    3    3    0  502 -0.79202692123E+03  0.17617677812E+03  0.13326806620E+03  0.82225621226E+03  0.50400001928E-02 0.  1.
</event>
<event>
 5   0  0.1824538E-04  0.1527522E+04  0.7818609E-02  0.8866355E-01
        1   -1    0    0  501    0  0.00000000000E+00  0.00000000000E+00  0.11703227512E+04  0.11703227512E+04  0.50400001928E-02 0. -1.
       -1   -1    0    0    0  501  0.00000000000E+00  0.00000000000E+00 -0.49843595867E+03  0.49843595870E+03  0.50400001928E-02 0.  1.
    10030    2    1    2    0    0  0.00000000000E+00  0.00000000000E+00  0.67188679253E+03  0.16687587099E+04  0.15275221013E+04 0.  0.
        3    1    3    3  502    0  0.81290486916E+02 -0.41044797076E+03  0.10339699327E+04  0.11154234675E+04  0.10100000352E+00 0. -1.
       -3    1    3    3    0  502 -0.81290486916E+02  0.41044797076E+03 -0.36208314012E+03  0.55333524244E+03  0.10100000352E+00 0.  1.
</event>
<event>
 5   0  0.1930116E-04  0.1688220E+04  0.7818609E-02  0.8768112E-01
        1   -1    0    0  501    0  0.00000000000E+00  0.00000000000E+00  0.62225630865E+03  0.62225630867E+03  0.50400001928E-02 0.  1.
       -1   -1    0    0    0  501  0.00000000000E+00  0.00000000000E+00 -0.11450609896E+04  0.11450609896E+04  0.50400001928E-02 0. -1.
    10030    2    1    2    0    0  0.00000000000E+00  0.00000000000E+00 -0.52280468097E+03  0.17673172983E+04  0.16882196831E+04 0.  0.
        1    1    3    3  502    0 -0.26493671044E+03  0.15520489726E+03  0.56172042277E+03  0.64016392749E+03  0.50400001928E-02 0.  1.
       -1    1    3    3    0  502  0.26493671044E+03 -0.15520489726E+03 -0.10845251037E+04  0.11271533708E+04  0.50400001928E-02 0. -1.
</event>
<event>
 5   0  0.1920289E-04  0.1705651E+04  0.7818609E-02  0.8758148E-01
        1   -1    0    0  501    0  0.00000000000E+00  0.00000000000E+00  0.77910665274E+03  0.77910665276E+03  0.50400001928E-02 0.  1.
       -1   -1    0    0    0  501  0.00000000000E+00  0.00000000000E+00 -0.93352006720E+03  0.93352006721E+03  0.50400001928E-02 0. -1.
    10030    2    1    2    0    0  0.00000000000E+00  0.00000000000E+00 -0.15441341445E+03  0.17126267200E+04  0.17056514238E+04 0.  0.
        4    1    3    3  502    0  0.31937952921E+03 -0.78019600729E+03  0.52165029525E+02  0.84464897838E+03  0.12699999809E+01 0.  1.
       -4    1    3    3    0  502 -0.31937952921E+03  0.78019600729E+03 -0.20657844398E+03  0.86797774159E+03  0.12699999809E+01 0. -1.
</event>
<event>
 5   0  0.3605571E-04  0.1677071E+04  0.7818609E-02  0.8774550E-01
       -2   -1    0    0    0  501  0.00000000000E+00  0.00000000000E+00  0.78138455212E+03  0.78138455212E+03  0.25500000920E-02 0.  1.
        2   -1    0    0  501    0  0.00000000000E+00  0.00000000000E+00 -0.89986698275E+03  0.89986698276E+03  0.25500000920E-02 0. -1.
    10030    2    1    2    0    0  0.00000000000E+00  0.00000000000E+00 -0.11848243064E+03  0.16812515349E+04  0.16770714466E+04 0.  0.
        4    1    3    3  502    0  0.11432665940E+03 -0.80155054134E+02  0.76964800327E+03  0.78221165907E+03  0.12699999809E+01 0.  1.
       -4    1    3    3    0  502 -0.11432665940E+03  0.80155054134E+02 -0.88813043391E+03  0.89903987580E+03  0.12699999809E+01 0. -1.
</event>
<event>
 5   0  0.3573262E-04  0.1700123E+04  0.7818609E-02  0.8761294E-01
       -2   -1    0    0    0  501  0.00000000000E+00  0.00000000000E+00  0.58182119025E+03  0.58182119026E+03  0.25500000920E-02 0.  1.
        2   -1    0    0  501    0  0.00000000000E+00  0.00000000000E+00 -0.12419701474E+04  0.12419701474E+04  0.25500000920E-02 0. -1.
    10030    2    1    2    0    0  0.00000000000E+00  0.00000000000E+00 -0.66014895719E+03  0.18237913377E+04  0.17001229949E+04 0.  0.
        5    1    3    3  502    0  0.11279427918E+03  0.29390379555E+03 -0.11771189924E+04  0.12184962875E+04  0.46999998093E+01 0. -1.
       -5    1    3    3    0  502 -0.11279427918E+03 -0.29390379555E+03  0.51697003521E+03  0.60529505017E+03  0.46999998093E+01 0.  1.
</event>
<event>
 5   0  0.1930116E-04  0.1702857E+04  0.7818609E-02  0.8759737E-01
        1   -1    0    0  501    0  0.00000000000E+00  0.00000000000E+00  0.12532961193E+04  0.12532961194E+04  0.50400001928E-02 0.  1.
       -1   -1    0    0    0  501  0.00000000000E+00  0.00000000000E+00 -0.57841920040E+03  0.57841920042E+03  0.50400001928E-02 0. -1.
    10030    2    1    2    0    0  0.00000000000E+00  0.00000000000E+00  0.67487691895E+03  0.18317153198E+04  0.17028570571E+04 0.  0.
        1    1    3    3  502    0  0.68959044612E+03  0.19354111883E+03  0.83264181203E+03  0.10983103092E+04  0.50400001928E-02 0.  1.
       -1    1    3    3    0  502 -0.68959044612E+03 -0.19354111883E+03 -0.15776489309E+03  0.73340501060E+03  0.50400001928E-02 0. -1.
</event>
<event>
 5   0  0.3574092E-04  0.1707533E+04  0.7818609E-02  0.8757079E-01
        2   -1    0    0  501    0  0.00000000000E+00  0.00000000000E+00  0.11243292979E+04  0.11243292979E+04  0.25500000920E-02 0.  1.
       -2   -1    0    0    0  501  0.00000000000E+00  0.00000000000E+00 -0.64831325082E+03  0.64831325083E+03  0.25500000920E-02 0. -1.
    10030    2    1    2    0    0  0.00000000000E+00  0.00000000000E+00  0.47601604708E+03  0.17726425487E+04  0.17075334048E+04 0.  0.
        3    1    3    3  502    0  0.77245222217E+03  0.11469280588E+02  0.61532754427E+03  0.98764466123E+03  0.10100000352E+00 0.  1.
       -3    1    3    3    0  502 -0.77245222217E+03 -0.11469280588E+02 -0.13931149719E+03  0.78499788750E+03  0.10100000352E+00 0. -1.
</event>
<event>
 5   0  0.3516723E-04  0.1579910E+04  0.7818609E-02  0.8832986E-01
       -2   -1    0    0    0  501  0.00000000000E+00  0.00000000000E+00  0.91548699002E+03  0.91548699002E+03  0.25500000920E-02 0. -1.
        2   -1    0    0  501    0  0.00000000000E+00  0.00000000000E+00 -0.68163560205E+03  0.68163560206E+03  0.25500000920E-02 0.  1.
    10030    2    1    2    0    0  0.00000000000E+00  0.00000000000E+00  0.23385138797E+03  0.15971225921E+04  0.15799095235E+04 0.  0.
        1    1    3    3  502    0  0.64545372355E+03 -0.35732564953E+03 -0.16852712654E+03  0.75676516930E+03  0.50400001928E-02 0.  1.
       -1    1    3    3    0  502 -0.64545372355E+03  0.35732564953E+03  0.40237851450E+03  0.84035742278E+03  0.50400001928E-02 0. -1.
</event>
<event>
 5   0  0.3678896E-04  0.1664236E+04  0.7818609E-02  0.8782029E-01
        2   -1    0    0  501    0  0.00000000000E+00  0.00000000000E+00  0.12790206303E+04  0.12790206303E+04  0.25500000920E-02 0. -1.
       -2   -1    0    0    0  501  0.00000000000E+00  0.00000000000E+00 -0.54136761963E+03  0.54136761964E+03  0.25500000920E-02 0.  1.
    10030    2    1    2    0    0  0.00000000000E+00  0.00000000000E+00  0.73765301062E+03  0.18203882499E+04  0.16642359858E+04 0.  0.
        2    1    3    3  502    0 -0.53813415022E+02  0.66656898698E+03  0.91047610992E+03  0.11296799745E+04  0.25500000920E-02 0. -1.
       -2    1    3    3    0  502  0.53813415022E+02 -0.66656898698E+03 -0.17282309930E+03  0.69070827539E+03  0.25500000920E-02 0.  1.
</event>
<event>
 5   0  0.1893284E-04  0.1729891E+04  0.7818609E-02  0.8744498E-01
       -1   -1    0    0    0  501  0.00000000000E+00  0.00000000000E+00  0.72555368177E+03  0.72555368179E+03  0.50400001928E-02 0. -1.
        1   -1    0    0  501    0  0.00000000000E+00  0.00000000000E+00 -0.10311163829E+04  0.10311163829E+04  0.50400001928E-02 0.  1.
    10030    2    1    2    0    0  0.00000000000E+00  0.00000000000E+00 -0.30556270114E+03  0.17566700647E+04  0.17298905029E+04 0.  0.
        2    1    3    3  502    0  0.47807594872E+03  0.47008205019E+03 -0.70768038951E+03  0.97485654348E+03  0.25500000920E-02 0.  1.
       -2    1    3    3    0  502 -0.47807594872E+03 -0.47008205019E+03  0.40211768837E+03  0.78181352123E+03  0.25500000920E-02 0. -1.
</event>
<event>
 5   0  0.1920289E-04  0.1704193E+04  0.7818609E-02  0.8758977E-01
       -1   -1    0    0    0  501  0.00000000000E+00  0.00000000000E+00  0.10074381069E+04  0.10074381069E+04  0.50400001928E-02 0. -1.
        1   -1    0    0  501    0  0.00000000000E+00  0.00000000000E+00 -0.72070756176E+03  0.72070756178E+03  0.50400001928E-02 0.  1.
    10030    2    1    2    0    0  0.00000000000E+00  0.00000000000E+00  0.28673054512E+03  0.17281456687E+04  0.17041927845E+04 0.  0.
        4    1    3    3  502    0 -0.26995359396E+03  0.39623969669E+03 -0.57093989906E+03  0.74555671908E+03  0.12699999809E+01 0.  1.
       -4    1    3    3    0  502  0.26995359396E+03 -0.39623969669E+03  0.85767044418E+03  0.98258894959E+03  0.12699999809E+01 0. -1.
</event>
<event>
 5   0  0.3573262E-04  0.1700112E+04  0.7818609E-02  0.8761300E-01
        2   -1    0    0  501    0  0.00000000000E+00  0.00000000000E+00  0.10950164588E+04  0.10950164588E+04  0.25500000920E-02 0. -1.
       -2   -1    0    0    0  501  0.00000000000E+00  0.00000000000E+00 -0.65989450239E+03  0.65989450239E+03  0.25500000920E-02 0.  1.
    10030    2    1    2    0    0  0.00000000000E+00  0.00000000000E+00  0.43512195639E+03  0.17549109612E+04  0.17001121624E+04 0.  0.
        5    1    3    3  502    0 -0.55912652300E+03  0.23736107858E+03  0.83137964133E+03  0.10296489442E+04  0.46999998093E+01 0. -1.
       -5    1    3    3    0  502  0.55912652300E+03 -0.23736107858E+03 -0.39625768493E+03  0.72526201694E+03  0.46999998093E+01 0.  1.
</event>
<event>
 5   0  0.1317625E-04  0.1678569E+04  0.7818609E-02  0.8773682E-01
        4   -1    0    0  501    0  0.00000000000E+00  0.00000000000E+00  0.84662922133E+03  0.84663017387E+03  0.12699999809E+01 0.  1.
       -4   -1    0    0    0  501  0.00000000000E+00  0.00000000000E+00 -0.83200194359E+03  0.83200291288E+03  0.12699999809E+01 0. -1.
    10030    2    1    2    0    0  0.00000000000E+00  0.00000000000E+00  0.14627277738E+02  0.16786330868E+04  0.16785693559E+04 0.  0.
        1    1    3    3  502    0  0.28529636956E+03 -0.18595670211E+03  0.77443132202E+03  0.84600105561E+03  0.50400001928E-02 0.  1.
       -1    1    3    3    0  502 -0.28529636956E+03  0.18595670211E+03 -0.75980404428E+03  0.83263203114E+03  0.50400001928E-02 0. -1.
</event>
<event>
 5   0  0.1815663E-04  0.1724952E+04  0.7818609E-02  0.8747260E-01
        1   -1    0    0  501    0  0.00000000000E+00  0.00000000000E+00  0.78215943744E+03  0.78215943745E+03  0.50400001928E-02 0.  1.
       -1   -1    0    0    0  501  0.00000000000E+00  0.00000000000E+00 -0.95103940979E+03  0.95103940980E+03  0.50400001928E-02 0. -1.
    10030    2    1    2    0    0  0.00000000000E+00  0.00000000000E+00 -0.16887997235E+03  0.17331988473E+04  0.17249515353E+04 0.  0.
        5    1    3    3  502    0  0.82964079352E+03  0.16269741166E+03 -0.25574874194E+03  0.88329145985E+03  0.46999998093E+01 0. -1.
       -5    1    3    3    0  502 -0.82964079352E+03 -0.16269741166E+03  0.86868769591E+02  0.84990738741E+03  0.46999998093E+01 0.  1.
</event>
<event>
 5   0  0.1920289E-04  0.1841143E+04  0.7818609E-02  0.8684721E-01
        1   -1    0    0  501    0  0.00000000000E+00  0.00000000000E+00  0.13515412837E+04  0.13515412837E+04  0.50400001928E-02 0. -1.
       -1   -1    0    0    0  501  0.00000000000E+00  0.00000000000E+00 -0.62702609377E+03  0.62702609379E+03  0.50400001928E-02 0.  1.
    10030    2    1    2    0    0  0.00000000000E+00  0.00000000000E+00  0.72451518989E+03  0.19785673775E+04  0.18411427448E+04 0.  0.
        4    1    3    3  502    0  0.84844319649E+03 -0.18523874108E+03  0.34041789584E+02  0.86909706317E+03  0.12699999809E+01 0.  1.
       -4    1    3    3    0  502 -0.84844319649E+03  0.18523874108E+03  0.69047340030E+03  0.11094703143E+04  0.12699999809E+01 0. -1.
</event>
<event>
 5   0  0.1824538E-04  0.1695660E+04  0.7818609E-02  0.8763844E-01
       -1   -1    0    0    0  501  0.00000000000E+00  0.00000000000E+00  0.38867526603E+03  0.38867526606E+03  0.50400001928E-02 0.  1.
        1   -1    0    0  501    0  0.00000000000E+00  0.00000000000E+00 -0.18493987427E+04  0.18493987427E+04  0.50400001928E-02 0. -1.
    10030    2    1    2    0    0  0.00000000000E+00  0.00000000000E+00 -0.14607234766E+04  0.22380740087E+04  0.16956598106E+04 0.  0.
        3    1    3    3  502    0  0.74736572456E+03  0.12585708701E+03 -0.22877113096E+03  0.79166392690E+03  0.10100000352E+00 0.  1.
       -3    1    3    3    0  502 -0.74736572456E+03 -0.12585708701E+03 -0.12319523457E+04  0.14464100818E+04  0.10100000352E+00 0. -1.
</event>
<event>
 5   0  0.1815663E-04  0.1693840E+04  0.7818609E-02  0.8764885E-01
        1   -1    0    0  501    0  0.00000000000E+00  0.00000000000E+00  0.20340687666E+04  0.20340687666E+04  0.50400001928E-02 0.  1.
       -1   -1    0    0    0  501  0.00000000000E+00  0.00000000000E+00 -0.35263005349E+03  0.35263005353E+03  0.50400001928E-02 0. -1.
    10030    2    1    2    0    0  0.00000000000E+00  0.00000000000E+00  0.16814387131E+04  0.23866988202E+04  0.16938403444E+04 0.  0.
        5    1    3    3  502    0  0.30593964083E+03  0.33081846349E+03 -0.16968719030E+03  0.48151402073E+03  0.46999998093E+01 0. -1.
       -5    1    3    3    0  502 -0.30593964083E+03 -0.33081846349E+03  0.18511259034E+04  0.19051847994E+04  0.46999998093E+01 0.  1.
</event>
<event>
 5   0  0.1930116E-04  0.1687604E+04  0.7818609E-02  0.8768466E-01
        1   -1    0    0  501    0  0.00000000000E+00  0.00000000000E+00  0.55194958513E+03  0.55194958515E+03  0.50400001928E-02 0.  1.
       -1   -1    0    0    0  501  0.00000000000E+00  0.00000000000E+00 -0.12899768224E+04  0.12899768224E+04  0.50400001928E-02 0. -1.
    10030    2    1    2    0    0  0.00000000000E+00  0.00000000000E+00 -0.73802723729E+03  0.18419264076E+04  0.16876044228E+04 0.  0.
        1    1    3    3  502    0  0.47342732744E+03  0.25293954582E+03  0.34159156459E+03  0.63623631241E+03  0.50400001928E-02 0.  1.
       -1    1    3    3    0  502 -0.47342732744E+03 -0.25293954582E+03 -0.10796188019E+04  0.12056900952E+04  0.50400001928E-02 0. -1.
</event>
<event>
 5   0  0.1317625E-04  0.1686644E+04  0.7818609E-02  0.8769019E-01
        3   -1    0    0  501    0  0.00000000000E+00  0.00000000000E+00  0.12003876667E+04  0.12003876710E+04  0.10100000352E+00 0. -1.
       -3   -1    0    0    0  501  0.00000000000E+00  0.00000000000E+00 -0.59246849924E+03  0.59246850785E+03  0.10100000352E+00 0.  1.
    10030    2    1    2    0    0  0.00000000000E+00  0.00000000000E+00  0.60791916751E+03  0.17928561788E+04  0.16866438758E+04 0.  0.
        5    1    3    3  502    0  0.10724486410E+03  0.82439105311E+03  0.45446588350E+03  0.94746155520E+03  0.46999998093E+01 0. -1.
       -5    1    3    3    0  502 -0.10724486410E+03 -0.82439105311E+03  0.15345328401E+03  0.84539462365E+03  0.46999998093E+01 0.  1.
</event>
<event>
 5   0  0.3516723E-04  0.1709554E+04  0.7818609E-02  0.8755934E-01
        2   -1    0    0  501    0  0.00000000000E+00  0.00000000000E+00  0.92601810974E+03  0.92601810974E+03  0.25500000920E-02 0. -1.
       -2   -1    0    0    0  501  0.00000000000E+00  0.00000000000E+00 -0.78901661305E+03  0.78901661305E+03  0.25500000920E-02 0.  1.
    10030    2    1    2    0    0  0.00000000000E+00  0.00000000000E+00  0.13700149669E+03  0.17150347228E+04  0.17095539448E+04 0.  0.
        1    1    3    3  502    0  0.50312947119E+03 -0.49023574352E+03 -0.42006501201E+03  0.81848943997E+03  0.50400001928E-02 0.  1.
       -1    1    3    3    0  502 -0.50312947119E+03  0.49023574352E+03  0.55706650870E+03  0.89654528282E+03  0.50400001928E-02 0. -1.
</event>
<event>
 5   0  0.1930116E-04  0.1691676E+04  0.7818609E-02  0.8766126E-01
       -1   -1    0    0    0  501  0.00000000000E+00  0.00000000000E+00  0.38353104044E+03  0.38353104048E+03  0.50400001928E-02 0.  1.
        1   -1    0    0  501    0  0.00000000000E+00  0.00000000000E+00 -0.18654072873E+04  0.18654072873E+04  0.50400001928E-02 0. -1.
    10030    2    1    2    0    0  0.00000000000E+00  0.00000000000E+00 -0.14818762469E+04  0.22489383278E+04  0.16916756164E+04 0.  0.
        1    1    3    3  502    0 -0.26853730086E+03 -0.24335881648E+02  0.32486535787E+03  0.42218718344E+03  0.50400001928E-02 0.  1.
       -1    1    3    3    0  502  0.26853730086E+03  0.24335881648E+02 -0.18067416047E+04  0.18267511444E+04  0.50400001928E-02 0. -1.
</event>
<event>
 5   0  0.3605571E-04  0.1702349E+04  0.7818609E-02  0.8760026E-01
        2   -1    0    0  501    0  0.00000000000E+00  0.00000000000E+00  0.14759498365E+04  0.14759498365E+04  0.25500000920E-02 0. -1.
       -2   -1    0    0    0  501  0.00000000000E+00  0.00000000000E+00 -0.49086913265E+03  0.49086913266E+03  0.25500000920E-02 0.  1.
    10030    2    1    2    0    0  0.00000000000E+00  0.00000000000E+00  0.98508070387E+03  0.19668189692E+04  0.17023492193E+04 0.  0.
        4    1    3    3  502    0 -0.89447967765E+02 -0.26682977671E+03 -0.43556170511E+03  0.51856984152E+03  0.12699999809E+01 0.  1.
       -4    1    3    3    0  502  0.89447967765E+02  0.26682977671E+03  0.14206424090E+04  0.14482491277E+04  0.12699999809E+01 0. -1.
</event>
<event>
 5   0  0.3573262E-04  0.1638480E+04  0.7818609E-02  0.8797251E-01
       -2   -1    0    0    0  501  0.00000000000E+00  0.00000000000E+00  0.40125391236E+03  0.40125391237E+03  0.25500000920E-02 0.  1.
        2   -1    0    0  501    0  0.00000000000E+00  0.00000000000E+00 -0.16726426647E+04  0.16726426647E+04  0.25500000920E-02 0. -1.
    10030    2    1    2    0    0  0.00000000000E+00  0.00000000000E+00 -0.12713887523E+04  0.20738965771E+04  0.16384802876E+04 0.  0.
        5    1    3    3  502    0 -0.79658352955E+03  0.18828156471E+03 -0.59301315794E+03  0.10107828464E+04  0.46999998093E+01 0. -1.
       -5    1    3    3    0  502  0.79658352955E+03 -0.18828156471E+03 -0.67837559438E+03  0.10631137306E+04  0.46999998093E+01 0.  1.
</event>
<event>
 5   0  0.1893284E-04  0.1693180E+04  0.7818609E-02  0.8765264E-01
        1   -1    0    0  501    0  0.00000000000E+00  0.00000000000E+00  0.61593258730E+03  0.61593258732E+03  0.50400001928E-02 0. -1.
       -1   -1    0    0    0  501  0.00000000000E+00  0.00000000000E+00 -0.11636254139E+04  0.11636254139E+04  0.50400001928E-02 0.  1.
    10030    2    1    2    0    0  0.00000000000E+00  0.00000000000E+00 -0.54769282657E+03  0.17795580012E+04  0.16931802170E+04 0.  0.
        2    1    3    3  502    0 -0.80204369777E+03 -0.27073850461E+03 -0.26134945748E+03  0.88593282473E+03  0.25500000920E-02 0.  1.
       -2    1    3    3    0  502  0.80204369777E+03  0.27073850461E+03 -0.28634336909E+03  0.89362517648E+03  0.25500000920E-02 0. -1.
</event>
<event>
 5   0  0.1930116E-04  0.1708625E+04  0.7818609E-02  0.8756460E-01
        1   -1    0    0  501    0  0.00000000000E+00  0.00000000000E+00  0.11343242398E+04  0.11343242398E+04  0.50400001928E-02 0. -1.
       -1   -1    0    0    0  501  0.00000000000E+00  0.00000000000E+00 -0.64342274622E+03  0.64342274624E+03  0.50400001928E-02 0.  1.
    10030    2    1    2    0    0  0.00000000000E+00  0.00000000000E+00  0.49090149357E+03  0.17777469860E+04  0.17086251988E+04 0.  0.
        1    1    3    3  502    0 -0.54251108768E+03  0.61701100342E+03  0.18217730762E+01  0.82159855007E+03  0.50400001928E-02 0.  1.
       -1    1    3    3    0  502  0.54251108768E+03 -0.61701100342E+03  0.48907972049E+03  0.95614843598E+03  0.50400001928E-02 0. -1.
</event>
<event>
 5   0  0.3678896E-04  0.1669621E+04  0.7818609E-02  0.8778883E-01
       -2   -1    0    0    0  501  0.00000000000E+00  0.00000000000E+00  0.23893752771E+04  0.23893752771E+04  0.25500000920E-02 0. -1.
        2   -1    0    0  501    0  0.00000000000E+00  0.00000000000E+00 -0.29166976164E+03  0.29166976165E+03  0.25500000920E-02 0.  1.
    10030    2    1    2    0    0  0.00000000000E+00  0.00000000000E+00  0.20977055155E+04  0.26810450388E+04  0.16696209361E+04 0.  0.
        2    1    3    3  502    0  0.10202839943E+03  0.55935947233E+03  0.20303719341E+04  0.21084835794E+04  0.25500000920E-02 0. -1.
       -2    1    3    3    0  502 -0.10202839943E+03 -0.55935947233E+03  0.67333581324E+02  0.57256145937E+03  0.25500000920E-02 0.  1.
</event>
<event>
 5   0  0.1824538E-04  0.1710819E+04  0.7818609E-02  0.8755218E-01
        1   -1    0    0  501    0  0.00000000000E+00  0.00000000000E+00  0.58481609591E+03  0.58481609593E+03  0.50400001928E-02 0.  1.
       -1   -1    0    0    0  501  0.00000000000E+00  0.00000000000E+00 -0.12512062893E+04  0.12512062893E+04  0.50400001928E-02 0. -1.
    10030    2    1    2    0    0  0.00000000000E+00  0.00000000000E+00 -0.66639019339E+03  0.18360223852E+04  0.17108191925E+04 0.  0.
        3    1    3    3  502    0  0.70633148274E+03 -0.48206382290E+03 -0.31078960528E+03  0.90987904790E+03  0.10100000352E+00 0.  1.
       -3    1    3    3    0  502 -0.70633148274E+03  0.48206382290E+03 -0.35560058812E+03  0.92614333735E+03  0.10100000352E+00 0. -1.
</event>
<event>
 5   0  0.1824538E-04  0.1711706E+04  0.7818609E-02  0.8754716E-01
       -1   -1    0    0    0  501  0.00000000000E+00  0.00000000000E+00  0.43429993660E+03  0.43429993663E+03  0.50400001928E-02 0.  1.
        1   -1    0    0  501    0  0.00000000000E+00  0.00000000000E+00 -0.16865868212E+04  0.16865868213E+04  0.50400001928E-02 0. -1.
    10030    2    1    2    0    0  0.00000000000E+00  0.00000000000E+00 -0.12522868846E+04  0.21208867579E+04  0.17117062243E+04 0.  0.
        3    1    3    3  502    0 -0.71366086207E+03 -0.43936212824E+03 -0.84123036312E+03  0.11874423943E+04  0.10100000352E+00 0. -1.
       -3    1    3    3    0  502  0.71366086207E+03  0.43936212824E+03 -0.41105652152E+03  0.93344436356E+03  0.10100000352E+00 0.  1.
</event>
<event>
 5   0  0.3678896E-04  0.1716952E+04  0.7818609E-02  0.8751755E-01
        2   -1    0    0  501    0  0.00000000000E+00  0.00000000000E+00  0.12528315509E+04  0.12528315509E+04  0.25500000920E-02 0.  1.
       -2   -1    0    0    0  501  0.00000000000E+00  0.00000000000E+00 -0.58825196236E+03  0.58825196237E+03  0.25500000920E-02 0. -1.
    10030    2    1    2    0    0  0.00000000000E+00  0.00000000000E+00  0.66457958849E+03  0.18410835132E+04  0.17169515058E+04 0.  0.
        2    1    3    3  502    0 -0.53964197877E+03  0.41898435763E+03 -0.22511873656E+03  0.71933288729E+03  0.25500000920E-02 0. -1.
       -2    1    3    3    0  502  0.53964197877E+03 -0.41898435763E+03  0.88969832505E+03  0.11217506259E+04  0.25500000920E-02 0.  1.
</event>
<event>
 5   0  0.1815663E-04  0.1728683E+04  0.7818609E-02  0.8745173E-01
        1   -1    0    0  501    0  0.00000000000E+00  0.00000000000E+00  0.56410058886E+03  0.56410058888E+03  0.50400001928E-02 0. -1.
       -1   -1    0    0    0  501  0.00000000000E+00  0.00000000000E+00 -0.13243842039E+04  0.13243842039E+04  0.50400001928E-02 0.  1.
    10030    2    1    2    0    0  0.00000000000E+00  0.00000000000E+00 -0.76028361504E+03  0.18884847928E+04  0.17286826306E+04 0.  0.
        5    1    3    3  502    0  0.10601689679E+03  0.31496698584E+03 -0.12517842613E+04  0.12951562498E+04  0.46999998093E+01 0.  1.
       -5    1    3    3    0  502 -0.10601689679E+03 -0.31496698584E+03  0.49150064629E+03  0.59332854295E+03  0.46999998093E+01 0. -1.
</event>
<event>
 5   0  0.3574092E-04  0.1394206E+04  0.7818609E-02  0.8958023E-01
       -2   -1    0    0    0  501  0.00000000000E+00  0.00000000000E+00  0.72819587535E+03  0.72819587535E+03  0.25500000920E-02 0.  1.
        2   -1    0    0  501    0  0.00000000000E+00  0.00000000000E+00 -0.66733761928E+03  0.66733761929E+03  0.25500000920E-02 0. -1.
    10030    2    1    2    0    0  0.00000000000E+00  0.00000000000E+00  0.60858256065E+02  0.13955334946E+04  0.13942058698E+04 0.  0.
        3    1    3    3  502    0 -0.94855910325E+02  0.28155946730E+03 -0.60078941603E+03  0.67023974067E+03  0.10100000352E+00 0. -1.
       -3    1    3    3    0  502  0.94855910325E+02 -0.28155946730E+03  0.66164767210E+03  0.72529375397E+03  0.10100000352E+00 0.  1.
</event>
<event>
 5   0  0.3574092E-04  0.1689047E+04  0.7818609E-02  0.8767636E-01
       -2   -1    0    0    0  501  0.00000000000E+00  0.00000000000E+00  0.91493311572E+03  0.91493311573E+03  0.25500000920E-02 0. -1.
        2   -1    0    0  501    0  0.00000000000E+00  0.00000000000E+00 -0.77953270603E+03  0.77953270603E+03  0.25500000920E-02 0.  1.
    10030    2    1    2    0    0  0.00000000000E+00  0.00000000000E+00  0.13540040970E+03  0.16944658218E+04  0.16890474091E+04 0.  0.
        3    1    3    3  502    0 -0.34190912075E+03  0.76868815580E+03  0.14167242062E+03  0.85314384056E+03  0.10100000352E+00 0.  1.
       -3    1    3    3    0  502  0.34190912075E+03 -0.76868815580E+03 -0.62720109242E+01  0.84132198120E+03  0.10100000352E+00 0. -1.
</event>
<event>
 5   0  0.3678896E-04  0.1679682E+04  0.7818609E-02  0.8773038E-01
       -2   -1    0    0    0  501  0.00000000000E+00  0.00000000000E+00  0.72803759372E+03  0.72803759373E+03  0.25500000920E-02 0. -1.
        2   -1    0    0  501    0  0.00000000000E+00  0.00000000000E+00 -0.96881329611E+03  0.96881329612E+03  0.25500000920E-02 0.  1.
    10030    2    1    2    0    0  0.00000000000E+00  0.00000000000E+00 -0.24077570239E+03  0.16968508898E+04  0.16796815185E+04 0.  0.
        2    1    3    3  502    0  0.61093763504E+03 -0.19885323744E+03  0.42601524130E+03  0.77089324149E+03  0.25500000920E-02 0. -1.
       -2    1    3    3    0  502 -0.61093763504E+03  0.19885323744E+03 -0.66679094369E+03  0.92595764835E+03  0.25500000920E-02 0.  1.
</event>
<event>
 5   0  0.1920289E-04  0.1714993E+04  0.7818609E-02  0.8752859E-01
        1   -1    0    0  501    0  0.00000000000E+00  0.00000000000E+00  0.15962955619E+04  0.15962955619E+04  0.50400001928E-02 0.  1.
       -1   -1    0    0    0  501  0.00000000000E+00  0.00000000000E+00 -0.46062895042E+03  0.46062895045E+03  0.50400001928E-02 0. -1.
    10030    2    1    2    0    0  0.00000000000E+00  0.00000000000E+00  0.11356666114E+04  0.20569245123E+04  0.17149926522E+04 0.  0.
        4    1    3    3  502    0 -0.25455758370E+03 -0.79318798424E+03  0.81172792589E+03  0.11631210514E+04  0.12699999809E+01 0.  1.
       -4    1    3    3    0  502  0.25455758370E+03  0.79318798424E+03  0.32393868554E+03  0.89380346086E+03  0.12699999809E+01 0. -1.
</event>
<event>
 5   0  0.3516723E-04  0.1686200E+04  0.7818609E-02  0.8769274E-01
        2   -1    0    0  501    0  0.00000000000E+00  0.00000000000E+00  0.74386793455E+03  0.74386793455E+03  0.25500000920E-02 0.  1.
       -2   -1    0    0    0  501  0.00000000000E+00  0.00000000000E+00 -0.95556938996E+03  0.95556938996E+03  0.25500000920E-02 0. -1.
    10030    2    1    2    0    0  0.00000000000E+00  0.00000000000E+00 -0.21170145541E+03  0.16994373245E+04  0.16861997846E+04 0.  0.
        1    1    3    3  502    0 -0.66121683711E+03 -0.30294244146E+03  0.32391876100E+03  0.79618163271E+03  0.50400001928E-02 0.  1.
       -1    1    3    3    0  502  0.66121683711E+03  0.30294244146E+03 -0.53562021642E+03  0.90325569180E+03  0.50400001928E-02 0. -1.
</event>
<event>
 5   0  0.3678896E-04  0.1708221E+04  0.7818609E-02  0.8756689E-01
        2   -1    0    0  501    0  0.00000000000E+00  0.00000000000E+00  0.98584769148E+03  0.98584769149E+03  0.25500000920E-02 0.  1.
       -2   -1    0    0    0  501  0.00000000000E+00  0.00000000000E+00 -0.73997720533E+03  0.73997720533E+03  0.25500000920E-02 0. -1.
    10030    2    1    2    0    0  0.00000000000E+00  0.00000000000E+00  0.24587048615E+03  0.17258248968E+04  0.17082210860E+04 0.  0.
        2    1    3    3  502    0  0.44354877844E+03 -0.71442483296E+03 -0.28160165124E+02  0.84138656734E+03  0.25500000920E-02 0. -1.
       -2    1    3    3    0  502 -0.44354877844E+03  0.71442483296E+03  0.27403065128E+03  0.88443832947E+03  0.25500000920E-02 0.  1.
</event>
<event>
 5   0  0.3516723E-04  0.1695081E+04  0.7818609E-02  0.8764175E-01
       -2   -1    0    0    0  501  0.00000000000E+00  0.00000000000E+00  0.66291416647E+03  0.66291416647E+03  0.25500000920E-02 0.  1.
        2   -1    0    0  501    0  0.00000000000E+00  0.00000000000E+00 -0.10835870808E+04  0.10835870808E+04  0.25500000920E-02 0. -1.
    10030    2    1    2    0    0  0.00000000000E+00  0.00000000000E+00 -0.42067291429E+03  0.17465012472E+04  0.16950813862E+04 0.  0.
        1    1    3    3  502    0 -0.73385777708E+03 -0.24004376167E+03  0.14977545892E+03  0.78651187697E+03  0.50400001928E-02 0.  1.
       -1    1    3    3    0  502  0.73385777708E+03  0.24004376167E+03 -0.57044837321E+03  0.95998937026E+03  0.50400001928E-02 0. -1.
</event>
<event>
 5   0  0.3574092E-04  0.1705412E+04  0.7818609E-02  0.8758284E-01
       -2   -1    0    0    0  501  0.00000000000E+00  0.00000000000E+00  0.11471916889E+04  0.11471916889E+04  0.25500000920E-02 0.  1.
        2   -1    0    0  501    0  0.00000000000E+00  0.00000000000E+00 -0.63381517803E+03  0.63381517803E+03  0.25500000920E-02 0. -1.
    10030    2    1    2    0    0  0.00000000000E+00  0.00000000000E+00  0.51337651083E+03  0.17810068669E+04  0.17054119790E+04 0.  0.
        3    1    3    3  502    0 -0.11588682119E+03  0.40831353172E+03 -0.51566004342E+03  0.66787348060E+03  0.10100000352E+00 0. -1.
       -3    1    3    3    0  502  0.11588682119E+03 -0.40831353172E+03  0.10290365542E+04  0.11131333863E+04  0.10100000352E+00 0.  1.
</event>
<event>
 5   0  0.1893284E-04  0.1692971E+04  0.7818609E-02  0.8765383E-01
        1   -1    0    0  501    0  0.00000000000E+00  0.00000000000E+00  0.25550300126E+04  0.25550300126E+04  0.50400001928E-02 0.  1.
       -1   -1    0    0    0  501  0.00000000000E+00  0.00000000000E+00 -0.28044211551E+03  0.28044211556E+03  0.50400001928E-02 0. -1.
    10030    2    1    2    0    0  0.00000000000E+00  0.00000000000E+00  0.22745878971E+04  0.28354721282E+04  0.16929713784E+04 0.  0.
        2    1    3    3  502    0 -0.25215591146E+03  0.62636657255E+02 -0.21200705773E+03  0.33534004689E+03  0.25500000920E-02 0. -1.
       -2    1    3    3    0  502  0.25215591146E+03 -0.62636657255E+02  0.24865949548E+04  0.25001320813E+04  0.25500000920E-02 0.  1.
</event>
<event>
 5   0  0.3516723E-04  0.1693912E+04  0.7818609E-02  0.8764844E-01
        2   -1    0    0  501    0  0.00000000000E+00  0.00000000000E+00  0.50109491258E+03  0.50109491258E+03  0.25500000920E-02 0. -1.
       -2   -1    0    0    0  501  0.00000000000E+00  0.00000000000E+00 -0.14315333494E+04  0.14315333494E+04  0.25500000920E-02 0.  1.
    10030    2    1    2    0    0  0.00000000000E+00  0.00000000000E+00 -0.93043843678E+03  0.19326282619E+04  0.16939115426E+04 0.  0.
        1    1    3    3  502    0 -0.56233836443E+03  0.45697508316E+03 -0.96551692613E+03  0.12071758768E+04  0.50400001928E-02 0.  1.
       -1    1    3    3    0  502  0.56233836443E+03 -0.45697508316E+03  0.35078489354E+02  0.72545238519E+03  0.50400001928E-02 0. -1.
</event>
<event>
 5   0  0.3605571E-04  0.1415799E+04  0.7818609E-02  0.8942461E-01
       -2   -1    0    0    0  501  0.00000000000E+00  0.00000000000E+00  0.80382729171E+03  0.80382729172E+03  0.25500000920E-02 0. -1.
        2   -1    0    0  501    0  0.00000000000E+00  0.00000000000E+00 -0.62341921709E+03  0.62341921710E+03  0.25500000920E-02 0.  1.
    10030    2    1    2    0    0  0.00000000000E+00  0.00000000000E+00  0.18040807462E+03  0.14272465088E+04  0.14157985462E+04 0.  0.
        4    1    3    3  502    0  0.26551132561E+03  0.34434066722E+03  0.65333799227E+03  0.78480501029E+03  0.12699999809E+01 0. -1.
       -4    1    3    3    0  502 -0.26551132561E+03 -0.34434066722E+03 -0.47292991764E+03  0.64244149853E+03  0.12699999809E+01 0.  1.
</event>
<event>
 5   0  0.1930116E-04  0.1717265E+04  0.7818609E-02  0.8751579E-01
        1   -1    0    0  501    0  0.00000000000E+00  0.00000000000E+00  0.63458376309E+03  0.63458376311E+03  0.50400001928E-02 0.  1.
       -1   -1    0    0    0  501  0.00000000000E+00  0.00000000000E+00 -0.11617842299E+04  0.11617842299E+04  0.50400001928E-02 0. -1.
    10030    2    1    2    0    0  0.00000000000E+00  0.00000000000E+00 -0.52720046678E+03  0.17963679930E+04  0.17172645789E+04 0.  0.
        1    1    3    3  502    0  0.10359448081E+03 -0.85205514640E+03 -0.23975504125E+03  0.89118587781E+03  0.50400001928E-02 0.  1.
       -1    1    3    3    0  502 -0.10359448081E+03  0.85205514640E+03 -0.28744542552E+03  0.90518211518E+03  0.50400001928E-02 0. -1.
</event>
<event>
 5   0  0.1893284E-04  0.1729044E+04  0.7818609E-02  0.8744971E-01
       -1   -1    0    0    0  501  0.00000000000E+00  0.00000000000E+00  0.58320887078E+03  0.58320887080E+03  0.50400001928E-02 0.  1.
        1   -1    0    0  501    0  0.00000000000E+00  0.00000000000E+00 -0.12815281204E+04  0.12815281205E+04  0.50400001928E-02 0. -1.
    10030    2    1    2    0    0  0.00000000000E+00  0.00000000000E+00 -0.69831924967E+03  0.18647369913E+04  0.17290443233E+04 0.  0.
        2    1    3    3  502    0 -0.79552679011E+03  0.29968901853E+03 -0.51873191991E+03  0.99587106914E+03  0.25500000920E-02 0. -1.
       -2    1    3    3    0  502  0.79552679011E+03 -0.29968901853E+03 -0.17958732976E+03  0.86886592212E+03  0.25500000920E-02 0.  1.
</event>
<event>
 5   0  0.1815663E-04  0.1735945E+04  0.7818609E-02  0.8741125E-01
        1   -1    0    0  501    0  0.00000000000E+00  0.00000000000E+00  0.22897598833E+04  0.22897598833E+04  0.50400001928E-02 0. -1.
       -1   -1    0    0    0  501  0.00000000000E+00  0.00000000000E+00 -0.32901963749E+03  0.32901963753E+03  0.50400001928E-02 0.  1.
    10030    2    1    2    0    0  0.00000000000E+00  0.00000000000E+00  0.19607402458E+04  0.26187795208E+04  0.17359446613E+04 0.  0.
        5    1    3    3  502    0  0.43541835064E+03 -0.57330141414E+03  0.17118128829E+04  0.18570377184E+04  0.46999998093E+01 0. -1.
       -5    1    3    3    0  502 -0.43541835064E+03  0.57330141414E+03  0.24892736288E+03  0.76174180239E+03  0.46999998093E+01 0.  1.
</event>
<event>
 5   0  0.1317625E-04  0.1663408E+04  0.7818609E-02  0.8782514E-01
       -3   -1    0    0    0  501  0.00000000000E+00  0.00000000000E+00  0.11882457952E+04  0.11882457995E+04  0.10100000352E+00 0. -1.
        3   -1    0    0  501    0  0.00000000000E+00  0.00000000000E+00 -0.58214483635E+03  0.58214484511E+03  0.10100000352E+00 0.  1.
    10030    2    1    2    0    0  0.00000000000E+00  0.00000000000E+00  0.60610095886E+03  0.17703906446E+04  0.16634075454E+04 0.  0.
        3    1    3    3  502    0 -0.42213616069E+03  0.97092375943E+02 -0.45261757894E+03  0.62648906663E+03  0.10100000352E+00 0.  1.
       -3    1    3    3    0  502  0.42213616069E+03 -0.97092375943E+02  0.10587185378E+04  0.11439015780E+04  0.10100000352E+00 0. -1.
</event>
<event>
 5   0  0.1824538E-04  0.1696867E+04  0.7818609E-02  0.8763153E-01
        1   -1    0    0  501    0  0.00000000000E+00  0.00000000000E+00  0.47222030067E+03  0.47222030069E+03  0.50400001928E-02 0. -1.
       -1   -1    0    0    0  501  0.00000000000E+00  0.00000000000E+00 -0.15243715747E+04  0.15243715748E+04  0.50400001928E-02 0.  1.
    10030    2    1    2    0    0  0.00000000000E+00  0.00000000000E+00 -0.10521512741E+04  0.19965918754E+04  0.16968667636E+04 0.  0.
        3    1    3    3  502    0 -0.79111954880E+03  0.26859537440E+03 -0.35224575773E+03  0.90669217471E+03  0.10100000352E+00 0.  1.
       -3    1    3    3    0  502  0.79111954880E+03 -0.26859537440E+03 -0.69990551634E+03  0.10898997007E+04  0.10100000352E+00 0. -1.
</event>
<event>
 5   0  0.3605571E-04  0.1690876E+04  0.7818609E-02  0.8766585E-01
        2   -1    0    0  501    0  0.00000000000E+00  0.00000000000E+00  0.11075624744E+04  0.11075624744E+04  0.25500000920E-02 0.  1.
       -2   -1    0    0    0  501  0.00000000000E+00  0.00000000000E+00 -0.64535014909E+03  0.64535014909E+03  0.25500000920E-02 0. -1.
    10030    2    1    2    0    0  0.00000000000E+00  0.00000000000E+00  0.46221232531E+03  0.17529126235E+04  0.16908762320E+04 0.  0.
        4    1    3    3  502    0 -0.69816234243E+02 -0.13309689703E+03  0.10936007412E+04  0.11038810101E+04  0.12699999809E+01 0.  1.
       -4    1    3    3    0  502  0.69816234243E+02  0.13309689703E+03 -0.63138841585E+03  0.64903161336E+03  0.12699999809E+01 0. -1.
</event>
<event>
 5   0  0.1930116E-04  0.1709951E+04  0.7818609E-02  0.8755709E-01
       -1   -1    0    0    0  501  0.00000000000E+00  0.00000000000E+00  0.48160441595E+03  0.48160441598E+03  0.50400001928E-02 0. -1.
        1   -1    0    0  501    0  0.00000000000E+00  0.00000000000E+00 -0.15178074025E+04  0.15178074025E+04  0.50400001928E-02 0.  1.
    10030    2    1    2    0    0  0.00000000000E+00  0.00000000000E+00 -0.10362029866E+04  0.19994118185E+04  0.17099505813E+04 0.  0.
        1    1    3    3  502    0  0.81164979073E+02 -0.83642171205E+03 -0.70221662553E+03  0.10951242959E+04  0.50400001928E-02 0. -1.
       -1    1    3    3    0  502 -0.81164979073E+02  0.83642171205E+03 -0.33398636105E+03  0.90428752264E+03  0.50400001928E-02 0.  1.
</event>
<event>
 5   0  0.3573262E-04  0.1716693E+04  0.7818609E-02  0.8751901E-01
       -2   -1    0    0    0  501  0.00000000000E+00  0.00000000000E+00  0.46174772591E+03  0.46174772592E+03  0.25500000920E-02 0.  1.
        2   -1    0    0  501    0  0.00000000000E+00  0.00000000000E+00 -0.15955865378E+04  0.15955865378E+04  0.25500000920E-02 0. -1.
    10030    2    1    2    0    0  0.00000000000E+00  0.00000000000E+00 -0.11338388119E+04  0.20573342637E+04  0.17166926986E+04 0.  0.
        5    1    3    3  502    0 -0.55886271575E+03  0.40440558854E+03 -0.11790162844E+04  0.13660061874E+04  0.46999998093E+01 0. -1.
       -5    1    3    3    0  502  0.55886271575E+03 -0.40440558854E+03  0.45177472517E+02  0.69132807633E+03  0.46999998093E+01 0.  1.
</event>
<event>
 5   0  0.3573262E-04  0.1688547E+04  0.7818609E-02  0.8767923E-01
       -2   -1    0    0    0  501  0.00000000000E+00  0.00000000000E+00  0.85653069655E+03  0.85653069656E+03  0.25500000920E-02 0.  1.
        2   -1    0    0  501    0  0.00000000000E+00  0.00000000000E+00 -0.83219192101E+03  0.83219192101E+03  0.25500000920E-02 0. -1.
    10030    2    1    2    0    0  0.00000000000E+00  0.00000000000E+00  0.24338775543E+02  0.16887226176E+04  0.16885472167E+04 0.  0.
        5    1    3    3  502    0  0.42373616908E+03  0.61593048995E+03 -0.38011251538E+03  0.83870753173E+03  0.46999998093E+01 0. -1.
       -5    1    3    3    0  502 -0.42373616908E+03 -0.61593048995E+03  0.40445129092E+03  0.85001508584E+03  0.46999998093E+01 0.  1.
</event>
<event>
 5   0  0.3573262E-04  0.1708572E+04  0.7818609E-02  0.8756491E-01
       -2   -1    0    0    0  501  0.00000000000E+00  0.00000000000E+00  0.41540171254E+03  0.41540171255E+03  0.25500000920E-02 0.  1.
        2   -1    0    0  501    0  0.00000000000E+00  0.00000000000E+00 -0.17568639099E+04  0.17568639099E+04  0.25500000920E-02 0. -1.
    10030    2    1    2    0    0  0.00000000000E+00  0.00000000000E+00 -0.13414621973E+04  0.21722656224E+04  0.17085716571E+04 0.  0.
        5    1    3    3  502    0 -0.39978699592E+03  0.41855964104E+03  0.12808444344E+03  0.59283178885E+03  0.46999998093E+01 0.  1.
       -5    1    3    3    0  502  0.39978699592E+03 -0.41855964104E+03 -0.14695466408E+04  0.15794338336E+04  0.46999998093E+01 0. -1.
</event>
<event>
 5   0  0.3678896E-04  0.1695112E+04  0.7818609E-02  0.8764157E-01
        2   -1    0    0  501    0  0.00000000000E+00  0.00000000000E+00  0.97234966659E+03  0.97234966659E+03  0.25500000920E-02 0.  1.
       -2   -1    0    0    0  501  0.00000000000E+00  0.00000000000E+00 -0.73877893522E+03  0.73877893523E+03  0.25500000920E-02 0. -1.
    10030    2    1    2    0    0  0.00000000000E+00  0.00000000000E+00  0.23357073137E+03  0.17111286018E+04  0.16951123283E+04 0.  0.
        2    1    3    3  502    0 -0.19638978572E+02  0.70646955988E+03  0.58903739995E+03  0.92002716648E+03  0.25500000920E-02 0.  1.
       -2    1    3    3    0  502  0.19638978572E+02 -0.70646955988E+03 -0.35546666858E+03  0.79110143534E+03  0.25500000920E-02 0. -1.
</event>
<event>
 5   0  0.1920289E-04  0.1724534E+04  0.7818609E-02  0.8747494E-01
        1   -1    0    0  501    0  0.00000000000E+00  0.00000000000E+00  0.16433825353E+04  0.16433825354E+04  0.50400001928E-02 0.  1.
       -1   -1    0    0    0  501  0.00000000000E+00  0.00000000000E+00 -0.45242305693E+03  0.45242305696E+03  0.50400001928E-02 0. -1.
    10030    2    1    2    0    0  0.00000000000E+00  0.00000000000E+00  0.11909594784E+04  0.20958055923E+04  0.17245337345E+04 0.  0.
        4    1    3    3  502    0 -0.72029018347E+03 -0.47396101970E+03  0.60368099009E+03  0.10525632272E+04  0.12699999809E+01 0. -1.
       -4    1    3    3    0  502  0.72029018347E+03  0.47396101970E+03  0.58727848832E+03  0.10432423651E+04  0.12699999809E+01 0.  1.
</event>
<event>
 5   0  0.3516723E-04  0.1691326E+04  0.7818609E-02  0.8766327E-01
       -2   -1    0    0    0  501  0.00000000000E+00  0.00000000000E+00  0.60828673150E+03  0.60828673151E+03  0.25500000920E-02 0. -1.
        2   -1    0    0  501    0  0.00000000000E+00  0.00000000000E+00 -0.11756722870E+04  0.11756722870E+04  0.25500000920E-02 0.  1.
    10030    2    1    2    0    0  0.00000000000E+00  0.00000000000E+00 -0.56738555549E+03  0.17839590185E+04  0.16913259328E+04 0.  0.
        1    1    3    3  502    0  0.68883893152E+03  0.41760112790E+03 -0.12192408219E+02  0.80562921399E+03  0.50400001928E-02 0. -1.
       -1    1    3    3    0  502 -0.68883893152E+03 -0.41760112790E+03 -0.55519314727E+03  0.97832980451E+03  0.50400001928E-02 0.  1.
</event>
<event>
 5   0  0.3573262E-04  0.1697476E+04  0.7818609E-02  0.8762805E-01
        2   -1    0    0  501    0  0.00000000000E+00  0.00000000000E+00  0.11183283310E+04  0.11183283310E+04  0.25500000920E-02 0. -1.
       -2   -1    0    0    0  501  0.00000000000E+00  0.00000000000E+00 -0.64413660203E+03  0.64413660204E+03  0.25500000920E-02 0.  1.
    10030    2    1    2    0    0  0.00000000000E+00  0.00000000000E+00  0.47419172893E+03  0.17624649330E+04  0.16974760217E+04 0.  0.
        5    1    3    3  502    0  0.17200417116E+03 -0.80108361410E+03  0.46696237913E+03  0.94307812253E+03  0.46999998093E+01 0.  1.
       -5    1    3    3    0  502 -0.17200417116E+03  0.80108361410E+03  0.72293498043E+01  0.81938681047E+03  0.46999998093E+01 0. -1.
</event>
<event>
 5   0  0.3605571E-04  0.1714740E+04  0.7818609E-02  0.8753002E-01
       -2   -1    0    0    0  501  0.00000000000E+00  0.00000000000E+00  0.78867335978E+03  0.78867335978E+03  0.25500000920E-02 0. -1.
        2   -1    0    0  501    0  0.00000000000E+00  0.00000000000E+00 -0.93205006303E+03  0.93205006303E+03  0.25500000920E-02 0.  1.
    10030    2    1    2    0    0  0.00000000000E+00  0.00000000000E+00 -0.14337670325E+03  0.17207234228E+04  0.17147396942E+04 0.  0.
        4    1    3    3  502    0  0.25178972423E+03  0.83616699809E+02 -0.88981958377E+03  0.92853127157E+03  0.12699999809E+01 0.  1.
       -4    1    3    3    0  502 -0.25178972423E+03 -0.83616699809E+02  0.74644288052E+03  0.79219215125E+03  0.12699999809E+01 0. -1.
</event>
<event>
 5   0  0.3574092E-04  0.1634610E+04  0.7818609E-02  0.8799563E-01
       -2   -1    0    0    0  501  0.00000000000E+00  0.00000000000E+00  0.79044551958E+03  0.79044551958E+03  0.25500000920E-02 0.  1.
        2   -1    0    0  501    0  0.00000000000E+00  0.00000000000E+00 -0.84507754367E+03  0.84507754367E+03  0.25500000920E-02 0. -1.
    10030    2    1    2    0    0  0.00000000000E+00  0.00000000000E+00 -0.54632024091E+02  0.16355230633E+04  0.16346103610E+04 0.  0.
        3    1    3    3  502    0 -0.12506969917E+03  0.21697048765E+03  0.75110882790E+03  0.79175949866E+03  0.10100000352E+00 0.  1.
       -3    1    3    3    0  502  0.12506969917E+03 -0.21697048765E+03 -0.80574085199E+03  0.84376356459E+03  0.10100000352E+00 0. -1.
</event>
<event>
 5   0  0.3573262E-04  0.1700571E+04  0.7818609E-02  0.8761039E-01
       -2   -1    0    0    0  501  0.00000000000E+00  0.00000000000E+00  0.51632622715E+03  0.51632622716E+03  0.25500000920E-02 0. -1.
        2   -1    0    0  501    0  0.00000000000E+00  0.00000000000E+00 -0.14002489859E+04  0.14002489859E+04  0.25500000920E-02 0.  1.
    10030    2    1    2    0    0  0.00000000000E+00  0.00000000000E+00 -0.88392275879E+03  0.19165752131E+04  0.17005708171E+04 0.  0.
        5    1    3    3  502    0  0.37220067889E+02  0.17744152977E+03  0.49427336386E+03  0.52649698780E+03  0.46999998093E+01 0. -1.
       -5    1    3    3    0  502 -0.37220067889E+02 -0.17744152977E+03 -0.13781961227E+04  0.13900782253E+04  0.46999998093E+01 0.  1.
</event>
<event>
 5   0  0.1920289E-04  0.1717605E+04  0.7818609E-02  0.8751387E-01
        1   -1    0    0  501    0  0.00000000000E+00  0.00000000000E+00  0.72157466148E+03  0.72157466149E+03  0.50400001928E-02 0. -1.
       -1   -1    0    0    0  501  0.00000000000E+00  0.00000000000E+00 -0.10221284762E+04  0.10221284762E+04  0.50400001928E-02 0.  1.
    10030    2    1    2    0    0  0.00000000000E+00  0.00000000000E+00 -0.30055381472E+03  0.17437031377E+04  0.17176053205E+04 0.  0.
        4    1    3    3  502    0  0.75066895532E+03  0.31861504681E+03  0.12311204949E+03  0.82472881492E+03  0.12699999809E+01 0.  1.
       -4    1    3    3    0  502 -0.75066895532E+03 -0.31861504681E+03 -0.42366586420E+03  0.91897432278E+03  0.12699999809E+01 0. -1.
</event>
<event>
 5   0  0.1824538E-04  0.1697924E+04  0.7818609E-02  0.8762549E-01
       -1   -1    0    0    0  501  0.00000000000E+00  0.00000000000E+00  0.56225024832E+03  0.56225024834E+03  0.50400001928E-02 0.  1.
        1   -1    0    0  501    0  0.00000000000E+00  0.00000000000E+00 -0.12818778376E+04  0.12818778376E+04  0.50400001928E-02 0. -1.
    10030    2    1    2    0    0  0.00000000000E+00  0.00000000000E+00 -0.71962758927E+03  0.18441280859E+04  0.16979235937E+04 0.  0.
        3    1    3    3  502    0  0.56587656061E+03 -0.37457631564E+03 -0.91384847844E+03  0.11382630407E+04  0.10100000352E+00 0. -1.
       -3    1    3    3    0  502 -0.56587656061E+03  0.37457631564E+03  0.19422088917E+03  0.70586504523E+03  0.10100000352E+00 0.  1.
</event>
<event>
 5   0  0.1815663E-04  0.1683862E+04  0.7818609E-02  0.8770622E-01
       -1   -1    0    0    0  501  0.00000000000E+00  0.00000000000E+00  0.11282545184E+04  0.11282545184E+04  0.50400001928E-02 0. -1.
        1   -1    0    0  501    0  0.00000000000E+00  0.00000000000E+00 -0.62826963910E+03  0.62826963912E+03  0.50400001928E-02 0.  1.
    10030    2    1    2    0    0  0.00000000000E+00  0.00000000000E+00  0.49998487926E+03  0.17565241575E+04  0.16838622973E+04 0.  0.
        5    1    3    3  502    0 -0.94299409215E+01  0.82420437235E+03  0.71055555503E+02  0.82732868507E+03  0.46999998093E+01 0.  1.
       -5    1    3    3    0  502  0.94299409215E+01 -0.82420437235E+03  0.42892932376E+03  0.92919547241E+03  0.46999998093E+01 0. -1.
</event>
<event>
 5   0  0.3516723E-04  0.1723814E+04  0.7818609E-02  0.8747898E-01
        2   -1    0    0  501    0  0.00000000000E+00  0.00000000000E+00  0.57928769441E+03  0.57928769442E+03  0.25500000920E-02 0.  1.
       -2   -1    0    0    0  501  0.00000000000E+00  0.00000000000E+00 -0.12824084387E+04  0.12824084387E+04  0.25500000920E-02 0. -1.
    10030    2    1    2    0    0  0.00000000000E+00  0.00000000000E+00 -0.70312074432E+03  0.18616961331E+04  0.17238137112E+04 0.  0.
        1    1    3    3  502    0 -0.68536474966E+03  0.13904585926E+03  0.19254814435E+03  0.72535052146E+03  0.50400001928E-02 0.  1.
       -1    1    3    3    0  502  0.68536474966E+03 -0.13904585926E+03 -0.89566888866E+03  0.11363456117E+04  0.50400001928E-02 0. -1.
</event>
<event>
 5   0  0.3573262E-04  0.1701282E+04  0.7818609E-02  0.8760633E-01
       -2   -1    0    0    0  501  0.00000000000E+00  0.00000000000E+00  0.44393143555E+03  0.44393143556E+03  0.25500000920E-02 0. -1.
        2   -1    0    0  501    0  0.00000000000E+00  0.00000000000E+00 -0.16299599922E+04  0.16299599922E+04  0.25500000920E-02 0.  1.
    10030    2    1    2    0    0  0.00000000000E+00  0.00000000000E+00 -0.11860285567E+04  0.20738914278E+04  0.17012824330E+04 0.  0.
        5    1    3    3  502    0 -0.80264837835E+03 -0.16059385344E+03 -0.31096645035E+03  0.87564663436E+03  0.46999998093E+01 0.  1.
       -5    1    3    3    0  502  0.80264837835E+03  0.16059385344E+03 -0.87506210632E+03  0.11982447934E+04  0.46999998093E+01 0. -1.
</event>
<event>
 5   0  0.1815663E-04  0.1714157E+04  0.7818609E-02  0.8753331E-01
        1   -1    0    0  501    0  0.00000000000E+00  0.00000000000E+00  0.16938457202E+04  0.16938457202E+04  0.50400001928E-02 0.  1.
       -1   -1    0    0    0  501  0.00000000000E+00  0.00000000000E+00 -0.43367798016E+03  0.43367798019E+03  0.50400001928E-02 0. -1.
    10030    2    1    2    0    0  0.00000000000E+00  0.00000000000E+00  0.12601677400E+04  0.21275237003E+04  0.17141570414E+04 0.  0.
        5    1    3    3  502    0 -0.34231301977E+03  0.13527411113E+03  0.15907395104E+04  0.16327741940E+04  0.46999998093E+01 0.  1.
       -5    1    3    3    0  502  0.34231301977E+03 -0.13527411113E+03 -0.33057177041E+03  0.49474950635E+03  0.46999998093E+01 0. -1.
</event>
<event>
 5   0  0.1930116E-04  0.1654237E+04  0.7818609E-02  0.8787904E-01
        1   -1    0    0  501    0  0.00000000000E+00  0.00000000000E+00  0.57843714914E+03  0.57843714916E+03  0.50400001928E-02 0. -1.
       -1   -1    0    0    0  501  0.00000000000E+00  0.00000000000E+00 -0.11827125897E+04  0.11827125897E+04  0.50400001928E-02 0.  1.
    10030    2    1    2    0    0  0.00000000000E+00  0.00000000000E+00 -0.60427544057E+03  0.17611497389E+04  0.16542368617E+04 0.  0.
        1    1    3    3  502    0 -0.11165316529E+03  0.42376991928E+03 -0.10489567117E+04  0.11368190519E+04  0.50400001928E-02 0.  1.
       -1    1    3    3    0  502  0.11165316529E+03 -0.42376991928E+03  0.44468127110E+03  0.62433068698E+03  0.50400001928E-02 0. -1.
</event>
<event>
 5   0  0.3605571E-04  0.1699203E+04  0.7818609E-02  0.8761819E-01
        2   -1    0    0  501    0  0.00000000000E+00  0.00000000000E+00  0.92768706978E+03  0.92768706978E+03  0.25500000920E-02 0.  1.
       -2   -1    0    0    0  501  0.00000000000E+00  0.00000000000E+00 -0.77808857276E+03  0.77808857276E+03  0.25500000920E-02 0. -1.
    10030    2    1    2    0    0  0.00000000000E+00  0.00000000000E+00  0.14959849702E+03  0.17057756425E+04  0.16992029992E+04 0.  0.
        4    1    3    3  502    0 -0.47145046508E+03 -0.49284677345E+03  0.58337273738E+03  0.89749030454E+03  0.12699999809E+01 0.  1.
       -4    1    3    3    0  502  0.47145046508E+03  0.49284677345E+03 -0.43377424036E+03  0.80828533800E+03  0.12699999809E+01 0. -1.
</event>
<event>
 5   0  0.1930116E-04  0.1726999E+04  0.7818609E-02  0.8746114E-01
       -1   -1    0    0    0  501  0.00000000000E+00  0.00000000000E+00  0.60064081372E+03  0.60064081374E+03  0.50400001928E-02 0. -1.
        1   -1    0    0  501    0  0.00000000000E+00  0.00000000000E+00 -0.12413927212E+04  0.12413927212E+04  0.50400001928E-02 0.  1.
    10030    2    1    2    0    0  0.00000000000E+00  0.00000000000E+00 -0.64075190745E+03  0.18420335349E+04  0.17269987078E+04 0.  0.
        1    1    3    3  502    0  0.72936390967E+03  0.42657945315E+03 -0.51024862944E+03  0.98706403361E+03  0.50400001928E-02 0.  1.
       -1    1    3    3    0  502 -0.72936390967E+03 -0.42657945315E+03 -0.13050327801E+03  0.85496950131E+03  0.50400001928E-02 0. -1.
</event>
<event>
 5   0  0.3605571E-04  0.1712970E+04  0.7818609E-02  0.8754002E-01
       -2   -1    0    0    0  501  0.00000000000E+00  0.00000000000E+00  0.71422252633E+03  0.71422252633E+03  0.25500000920E-02 0.  1.
        2   -1    0    0  501    0  0.00000000000E+00  0.00000000000E+00 -0.10270834692E+04  0.10270834692E+04  0.25500000920E-02 0. -1.
    10030    2    1    2    0    0  0.00000000000E+00  0.00000000000E+00 -0.31286094287E+03  0.17413059955E+04  0.17129695270E+04 0.  0.
        4    1    3    3  502    0 -0.36249977392E+03  0.49587717063E+03 -0.76318300776E+03  0.97966839833E+03  0.12699999809E+01 0. -1.
       -4    1    3    3    0  502  0.36249977392E+03 -0.49587717063E+03  0.45032206489E+03  0.76163759720E+03  0.12699999809E+01 0.  1.
</event>
<event>
 5   0  0.3516723E-04  0.1639074E+04  0.7818609E-02  0.8796896E-01
        2   -1    0    0  501    0  0.00000000000E+00  0.00000000000E+00  0.87346693666E+03  0.87346693667E+03  0.25500000920E-02 0.  1.
       -2   -1    0    0    0  501  0.00000000000E+00  0.00000000000E+00 -0.76893721176E+03  0.76893721176E+03  0.25500000920E-02 0. -1.
    10030    2    1    2    0    0  0.00000000000E+00  0.00000000000E+00  0.10452972491E+03  0.16424041484E+04  0.16390744106E+04 0.  0.
        1    1    3    3  502    0  0.40392360688E+03 -0.64494974738E+03  0.35706494019E+03  0.84060087341E+03  0.50400001928E-02 0.  1.
       -1    1    3    3    0  502 -0.40392360688E+03  0.64494974738E+03 -0.25253521528E+03  0.80180327502E+03  0.50400001928E-02 0. -1.
</event>
<event>
 5   0  0.1317625E-04  0.1724808E+04  0.7818609E-02  0.8747341E-01
       -4   -1    0    0    0  501  0.00000000000E+00  0.00000000000E+00  0.91637217842E+03  0.91637305847E+03  0.12699999809E+01 0. -1.
        4   -1    0    0  501    0  0.00000000000E+00  0.00000000000E+00 -0.81161214519E+03  0.81161313883E+03  0.12699999809E+01 0.  1.
    10030    2    1    2    0    0  0.00000000000E+00  0.00000000000E+00  0.10476003323E+03  0.17279861973E+04  0.17248077091E+04 0.  0.
        4    1    3    3  502    0  0.15690557447E+03 -0.32982238887E+03 -0.73030010079E+03  0.81654272246E+03  0.12699999809E+01 0.  1.
       -4    1    3    3    0  502 -0.15690557447E+03  0.32982238887E+03  0.83506013402E+03  0.91144347484E+03  0.12699999809E+01 0. -1.
</event>
<event>
 5   0  0.1930116E-04  0.1553446E+04  0.7818609E-02  0.8849670E-01
       -1   -1    0    0    0  501  0.00000000000E+00  0.00000000000E+00  0.16002072413E+04  0.16002072413E+04  0.50400001928E-02 0. -1.
        1   -1    0    0  501    0  0.00000000000E+00  0.00000000000E+00 -0.37701286825E+03  0.37701286829E+03  0.50400001928E-02 0.  1.
    10030    2    1    2    0    0  0.00000000000E+00  0.00000000000E+00  0.12231943731E+04  0.19772201096E+04  0.15534461328E+04 0.  0.
        1    1    3    3  502    0 -0.70409006497E+03  0.30532743533E+03  0.45922771179E+03  0.89434766934E+03  0.50400001928E-02 0.  1.
       -1    1    3    3    0  502  0.70409006497E+03 -0.30532743533E+03  0.76396666130E+03  0.10828724403E+04  0.50400001928E-02 0. -1.
</event>
<event>
 5   0  0.1317625E-04  0.1690591E+04  0.7818609E-02  0.8766749E-01
       -3   -1    0    0    0  501  0.00000000000E+00  0.00000000000E+00  0.13534870500E+04  0.13534870538E+04  0.10100000352E+00 0.  1.
        3   -1    0    0  501    0  0.00000000000E+00  0.00000000000E+00 -0.52791358552E+03  0.52791359518E+03  0.10100000352E+00 0. -1.
    10030    2    1    2    0    0  0.00000000000E+00  0.00000000000E+00  0.82557346453E+03  0.18814006490E+04  0.16905906828E+04 0.  0.
        1    1    3    3  502    0  0.44272960303E+03  0.18928963950E+03  0.11859555585E+04  0.12799729121E+04  0.50400001928E-02 0.  1.
       -1    1    3    3    0  502 -0.44272960303E+03 -0.18928963950E+03 -0.36038209396E+03  0.60142773688E+03  0.50400001928E-02 0. -1.
</event>
<event>
 5   0  0.3605571E-04  0.1705762E+04  0.7818609E-02  0.8758085E-01
        2   -1    0    0  501    0  0.00000000000E+00  0.00000000000E+00  0.12197719452E+04  0.12197719452E+04  0.25500000920E-02 0. -1.
       -2   -1    0    0    0  501  0.00000000000E+00  0.00000000000E+00 -0.59634599391E+03  0.59634599392E+03  0.25500000920E-02 0.  1.
    10030    2    1    2    0    0  0.00000000000E+00  0.00000000000E+00  0.62342595134E+03  0.18161179392E+04  0.17057621324E+04 0.  0.
        4    1    3    3  502    0  0.28859859634E+03  0.29350840261E+03 -0.48358575804E+03  0.63505364379E+03  0.12699999809E+01 0.  1.
       -4    1    3    3    0  502 -0.28859859634E+03 -0.29350840261E+03  0.11070117094E+04  0.11810642954E+04  0.12699999809E+01 0. -1.
</event>
<event>
 5   0  0.1920289E-04  0.1697038E+04  0.7818609E-02  0.8763056E-01
        1   -1    0    0  501    0  0.00000000000E+00  0.00000000000E+00  0.10380777642E+04  0.10380777642E+04  0.50400001928E-02 0. -1.
       -1   -1    0    0    0  501  0.00000000000E+00  0.00000000000E+00 -0.69357436799E+03  0.69357436801E+03  0.50400001928E-02 0.  1.
    10030    2    1    2    0    0  0.00000000000E+00  0.00000000000E+00  0.34450339624E+03  0.17316521322E+04  0.16970375709E+04 0.  0.
        4    1    3    3  502    0 -0.51986236387E+03  0.14487826643E+03 -0.49588316472E+03  0.73290402878E+03  0.12699999809E+01 0.  1.
       -4    1    3    3    0  502  0.51986236387E+03 -0.14487826643E+03  0.84038656096E+03  0.99874810347E+03  0.12699999809E+01 0. -1.
</event>
<event>
 5   0  0.3605571E-04  0.1705513E+04  0.7818609E-02  0.8758226E-01
       -2   -1    0    0    0  501  0.00000000000E+00  0.00000000000E+00  0.65577670528E+03  0.65577670529E+03  0.25500000920E-02 0. -1.
        2   -1    0    0  501    0  0.00000000000E+00  0.00000000000E+00 -0.11089045488E+04  0.11089045488E+04  0.25500000920E-02 0.  1.
    10030    2    1    2    0    0  0.00000000000E+00  0.00000000000E+00 -0.45312784355E+03  0.17646812541E+04  0.17055131445E+04 0.  0.
        4    1    3    3  502    0 -0.95179846435E+02  0.73877838823E+03  0.20297601694E+03  0.77204506762E+03  0.12699999809E+01 0. -1.
       -4    1    3    3    0  502  0.95179846435E+02 -0.73877838823E+03 -0.65610386049E+03  0.99263618649E+03  0.12699999809E+01 0.  1.
</event>
<event>
 5   0  0.1893284E-04  0.1653196E+04  0.7818609E-02  0.8788518E-01
        1   -1    0    0  501    0  0.00000000000E+00  0.00000000000E+00  0.17439217271E+04  0.17439217271E+04  0.50400001928E-02 0.  1.
       -1   -1    0    0    0  501  0.00000000000E+00  0.00000000000E+00 -0.39179761949E+03  0.39179761952E+03  0.50400001928E-02 0. -1.
    10030    2    1    2    0    0  0.00000000000E+00  0.00000000000E+00  0.13521241076E+04  0.21357193466E+04  0.16531961545E+04 0.  0.
        2    1    3    3  502    0 -0.27610016078E+02  0.70983168800E+03  0.12220844018E+04  0.14135464702E+04  0.25500000920E-02 0.  1.
       -2    1    3    3    0  502  0.27610016078E+02 -0.70983168800E+03  0.13003970573E+03  0.72217287636E+03  0.25500000920E-02 0. -1.
</event>
<event>
 5   0  0.3516723E-04  0.1710814E+04  0.7818609E-02  0.8755221E-01
        2   -1    0    0  501    0  0.00000000000E+00  0.00000000000E+00  0.59844827552E+03  0.59844827553E+03  0.25500000920E-02 0.  1.
       -2   -1    0    0    0  501  0.00000000000E+00  0.00000000000E+00 -0.12226967456E+04  0.12226967456E+04  0.25500000920E-02 0. -1.
    10030    2    1    2    0    0  0.00000000000E+00  0.00000000000E+00 -0.62424847010E+03  0.18211450211E+04  0.17108135596E+04 0.  0.
        1    1    3    3  502    0 -0.67843603682E+03 -0.44231490503E+03 -0.60520313325E+03  0.10110335127E+04  0.50400001928E-02 0. -1.
       -1    1    3    3    0  502  0.67843603682E+03  0.44231490503E+03 -0.19045336852E+02  0.81011150846E+03  0.50400001928E-02 0.  1.
</event>
<event>
 5   0  0.1824538E-04  0.1704980E+04  0.7818609E-02  0.8758529E-01
        1   -1    0    0  501    0  0.00000000000E+00  0.00000000000E+00  0.58764180174E+03  0.58764180176E+03  0.50400001928E-02 0. -1.
       -1   -1    0    0    0  501  0.00000000000E+00  0.00000000000E+00 -0.12367042132E+04  0.12367042132E+04  0.50400001928E-02 0.  1.
    10030    2    1    2    0    0  0.00000000000E+00  0.00000000000E+00 -0.64906241146E+03  0.18243460150E+04  0.17049798733E+04 0.  0.
        3    1    3    3  502    0 -0.42350592050E+03  0.65501516353E+03  0.43553817043E+02  0.78121640685E+03  0.10100000352E+00 0. -1.
       -3    1    3    3    0  502  0.42350592050E+03 -0.65501516353E+03 -0.69261622851E+03  0.10431296081E+04  0.10100000352E+00 0.  1.
</event>
<event>
 5   0  0.1930116E-04  0.1706619E+04  0.7818609E-02  0.8757598E-01
        1   -1    0    0  501    0  0.00000000000E+00  0.00000000000E+00  0.12232781467E+04  0.12232781467E+04  0.50400001928E-02 0.  1.
       -1   -1    0    0    0  501  0.00000000000E+00  0.00000000000E+00 -0.59523453818E+03  0.59523453821E+03  0.50400001928E-02 0. -1.
    10030    2    1    2    0    0  0.00000000000E+00  0.00000000000E+00  0.62804360847E+03  0.18185126849E+04  0.17066193515E+04 0.  0.
        1    1    3    3  502    0 -0.55986357014E+03 -0.55279586165E+03 -0.37948334030E+02  0.78769953530E+03  0.50400001928E-02 0. -1.
       -1    1    3    3    0  502  0.55986357014E+03  0.55279586165E+03  0.66599194250E+03  0.10308131496E+04  0.50400001928E-02 0.  1.
</event>
<event>
 5   0  0.1824538E-04  0.1698323E+04  0.7818609E-02  0.8762321E-01
       -1   -1    0    0    0  501  0.00000000000E+00  0.00000000000E+00  0.40330215172E+03  0.40330215175E+03  0.50400001928E-02 0. -1.
        1   -1    0    0  501    0  0.00000000000E+00  0.00000000000E+00 -0.17879286643E+04  0.17879286644E+04  0.50400001928E-02 0.  1.
    10030    2    1    2    0    0  0.00000000000E+00  0.00000000000E+00 -0.13846265126E+04  0.21912308161E+04  0.16983232643E+04 0.  0.
        3    1    3    3  502    0  0.81927517368E+03 -0.21151792264E+03 -0.59995729502E+03  0.10372561920E+04  0.10100000352E+00 0. -1.
       -3    1    3    3    0  502 -0.81927517368E+03  0.21151792264E+03 -0.78466921761E+03  0.11539746241E+04  0.10100000352E+00 0.  1.
</event>
<event>
 5   0  0.3574092E-04  0.1700808E+04  0.7818609E-02  0.8760904E-01
        2   -1    0    0  501    0  0.00000000000E+00  0.00000000000E+00  0.15385297524E+04  0.15385297524E+04  0.25500000920E-02 0.  1.
       -2   -1    0    0    0  501  0.00000000000E+00  0.00000000000E+00 -0.47005056347E+03  0.47005056348E+03  0.25500000920E-02 0. -1.
    10030    2    1    2    0    0  0.00000000000E+00  0.00000000000E+00  0.10684791889E+04  0.20085803159E+04  0.17008077811E+04 0.  0.
        3    1    3    3  502    0  0.43111132457E+03 -0.44839731161E+03 -0.15058255751E+03  0.63999393752E+03  0.10100000352E+00 0. -1.
       -3    1    3    3    0  502 -0.43111132457E+03  0.44839731161E+03  0.12190617464E+04  0.13685863784E+04  0.10100000352E+00 0.  1.
</event>
<event>
 5   0  0.3678896E-04  0.1651545E+04  0.7818609E-02  0.8789493E-01
        2   -1    0    0  501    0  0.00000000000E+00  0.00000000000E+00  0.77580819864E+03  0.77580819864E+03  0.25500000920E-02 0. -1.
       -2   -1    0    0    0  501  0.00000000000E+00  0.00000000000E+00 -0.87895510356E+03  0.87895510357E+03  0.25500000920E-02 0.  1.
    10030    2    1    2    0    0  0.00000000000E+00  0.00000000000E+00 -0.10314690493E+03  0.16547633022E+04  0.16515454285E+04 0.  0.
        2    1    3    3  502    0  0.24055920459E+03 -0.54210381053E+03 -0.62728441021E+03  0.86326763150E+03  0.25500000920E-02 0.  1.
       -2    1    3    3    0  502 -0.24055920459E+03  0.54210381053E+03  0.52413750528E+03  0.79149567071E+03  0.25500000920E-02 0. -1.
</event>
<event>
 5   0  0.1920289E-04  0.1733892E+04  0.7818609E-02  0.8742267E-01
        1   -1    0    0  501    0  0.00000000000E+00  0.00000000000E+00  0.99797776908E+03  0.99797776909E+03  0.50400001928E-02 0. -1.
       -1   -1    0    0    0  501  0.00000000000E+00  0.00000000000E+00 -0.75311873883E+03  0.75311873884E+03  0.50400001928E-02 0.  1.
    10030    2    1    2    0    0  0.00000000000E+00  0.00000000000E+00  0.24485903025E+03  0.17510965079E+04  0.17338924521E+04 0.  0.
        4    1    3    3  502    0  0.19782261209E+03 -0.27556806159E+02 -0.72956482280E+03  0.75641232604E+03  0.12699999809E+01 0.  1.
       -4    1    3    3    0  502 -0.19782261209E+03  0.27556806159E+02  0.97442385305E+03  0.99468418190E+03  0.12699999809E+01 0. -1.
</event>
<event>
 5   0  0.3516723E-04  0.1705716E+04  0.7818609E-02  0.8758111E-01
       -2   -1    0    0    0  501  0.00000000000E+00  0.00000000000E+00  0.55935820014E+03  0.55935820014E+03  0.25500000920E-02 0. -1.
        2   -1    0    0  501    0  0.00000000000E+00  0.00000000000E+00 -0.13003598730E+04  0.13003598730E+04  0.25500000920E-02 0.  1.
    10030    2    1    2    0    0  0.00000000000E+00  0.00000000000E+00 -0.74100167289E+03  0.18597180732E+04  0.17057162227E+04 0.  0.
        1    1    3    3  502    0 -0.31469502247E+03 -0.55982706814E+03 -0.98235191675E+03  0.11736501147E+04  0.50400001928E-02 0.  1.
       -1    1    3    3    0  502  0.31469502247E+03  0.55982706814E+03  0.24135024386E+03  0.68606795846E+03  0.50400001928E-02 0. -1.
</event>
<event>
 5   0  0.3573262E-04  0.1693177E+04  0.7818609E-02  0.8765265E-01
        2   -1    0    0  501    0  0.00000000000E+00  0.00000000000E+00  0.22569772440E+04  0.22569772440E+04  0.25500000920E-02 0.  1.
       -2   -1    0    0    0  501  0.00000000000E+00  0.00000000000E+00 -0.31755398027E+03  0.31755398028E+03  0.25500000920E-02 0. -1.
    10030    2    1    2    0    0  0.00000000000E+00  0.00000000000E+00  0.19394232637E+04  0.25745312243E+04  0.16931770223E+04 0.  0.
        5    1    3    3  502    0  0.13659020775E+03 -0.30272930614E+03  0.21537646034E+04  0.21792260035E+04  0.46999998093E+01 0.  1.
       -5    1    3    3    0  502 -0.13659020775E+03  0.30272930614E+03 -0.21434133968E+03  0.39530522074E+03  0.46999998093E+01 0. -1.
</event>
<event>
 5   0  0.1920289E-04  0.1704951E+04  0.7818609E-02  0.8758546E-01
        1   -1    0    0  501    0  0.00000000000E+00  0.00000000000E+00  0.13143968032E+04  0.13143968032E+04  0.50400001928E-02 0. -1.
       -1   -1    0    0    0  501  0.00000000000E+00  0.00000000000E+00 -0.55288816747E+03  0.55288816749E+03  0.50400001928E-02 0.  1.
    10030    2    1    2    0    0  0.00000000000E+00  0.00000000000E+00  0.76150863575E+03  0.18672849707E+04  0.17049509552E+04 0.  0.
        4    1    3    3  502    0  0.21511439344E+03 -0.71281947208E+03  0.83540244498E+03  0.11190552533E+04  0.12699999809E+01 0. -1.
       -4    1    3    3    0  502 -0.21511439344E+03  0.71281947208E+03 -0.73893809228E+02  0.74822971738E+03  0.12699999809E+01 0.  1.
</event>
<event>
 5   0  0.3516723E-04  0.1636063E+04  0.7818609E-02  0.8798695E-01
       -2   -1    0    0    0  501  0.00000000000E+00  0.00000000000E+00  0.39308148250E+03  0.39308148251E+03  0.25500000920E-02 0.  1.
        2   -1    0    0  501    0  0.00000000000E+00  0.00000000000E+00 -0.17023828121E+04  0.17023828121E+04  0.25500000920E-02 0. -1.
    10030    2    1    2    0    0  0.00000000000E+00  0.00000000000E+00 -0.13093013296E+04  0.20954642946E+04  0.16360625411E+04 0.  0.
        1    1    3    3  502    0  0.48899519547E+03  0.77850323763E+02  0.17934225341E+03  0.52663138720E+03  0.50400001928E-02 0.  1.
       -1    1    3    3    0  502 -0.48899519547E+03 -0.77850323763E+02 -0.14886435830E+04  0.15688329074E+04  0.50400001928E-02 0. -1.
</event>
<event>
 5   0  0.1930116E-04  0.1703748E+04  0.7818609E-02  0.8759230E-01
       -1   -1    0    0    0  501  0.00000000000E+00  0.00000000000E+00  0.62763314104E+03  0.62763314106E+03  0.50400001928E-02 0.  1.
        1   -1    0    0  501    0  0.00000000000E+00  0.00000000000E+00 -0.11562319203E+04  0.11562319203E+04  0.50400001928E-02 0. -1.
    10030    2    1    2    0    0  0.00000000000E+00  0.00000000000E+00 -0.52859877928E+03  0.17838650614E+04  0.17037481879E+04 0.  0.
        1    1    3    3  502    0  0.55406838089E+03 -0.64527995780E+03 -0.21396075775E+03  0.87701607768E+03  0.50400001928E-02 0. -1.
       -1    1    3    3    0  502 -0.55406838089E+03  0.64527995780E+03 -0.31463802153E+03  0.90684898371E+03  0.50400001928E-02 0.  1.
</event>
<event>
 5   0  0.3516723E-04  0.1714793E+04  0.7818609E-02  0.8752972E-01
       -2   -1    0    0    0  501  0.00000000000E+00  0.00000000000E+00  0.46707744035E+03  0.46707744035E+03  0.25500000920E-02 0. -1.
        2   -1    0    0  501    0  0.00000000000E+00  0.00000000000E+00 -0.15738905187E+04  0.15738905187E+04  0.25500000920E-02 0.  1.
    10030    2    1    2    0    0  0.00000000000E+00  0.00000000000E+00 -0.11068130783E+04  0.20409679590E+04  0.17147929961E+04 0.  0.
        1    1    3    3  502    0 -0.74250473772E+03 -0.40454402501E+03 -0.72239826968E+03  0.11121278765E+04  0.50400001928E-02 0.  1.
       -1    1    3    3    0  502  0.74250473772E+03  0.40454402501E+03 -0.38441480865E+03  0.92884008249E+03  0.50400001928E-02 0. -1.
</event>
<event>
 5   0  0.1920289E-04  0.1694233E+04  0.7818609E-02  0.8764660E-01
        1   -1    0    0  501    0  0.00000000000E+00  0.00000000000E+00  0.19413441998E+04  0.19413441998E+04  0.50400001928E-02 0. -1.
       -1   -1    0    0    0  501  0.00000000000E+00  0.00000000000E+00 -0.36964416747E+03  0.36964416750E+03  0.50400001928E-02 0.  1.
    10030    2    1    2    0    0  0.00000000000E+00  0.00000000000E+00  0.15717000323E+04  0.23109883673E+04  0.16942332314E+04 0.  0.
        4    1    3    3  502    0  0.95192544519E+01 -0.13502764824E+03 -0.35479549691E+03  0.37974272807E+03  0.12699999809E+01 0.  1.
       -4    1    3    3    0  502 -0.95192544519E+01  0.13502764824E+03  0.19264955293E+04  0.19312456392E+04  0.12699999809E+01 0. -1.
</event>
<event>
 5   0  0.3678896E-04  0.1679586E+04  0.7818609E-02  0.8773093E-01
        2   -1    0    0  501    0  0.00000000000E+00  0.00000000000E+00  0.16636313841E+04  0.16636313841E+04  0.25500000920E-02 0.  1.
       -2   -1    0    0    0  501  0.00000000000E+00  0.00000000000E+00 -0.42392364187E+03  0.42392364188E+03  0.25500000920E-02 0. -1.
    10030    2    1    2    0    0  0.00000000000E+00  0.00000000000E+00  0.12397077422E+04  0.20875550260E+04  0.16795864671E+04 0.  0.
        2    1    3    3  502    0 -0.50166720841E+03 -0.18253935212E+03  0.14255952433E+04  0.15222721179E+04  0.25500000920E-02 0.  1.
       -2    1    3    3    0  502  0.50166720841E+03  0.18253935212E+03 -0.18588750114E+03  0.56528290807E+03  0.25500000920E-02 0. -1.
</event>
<event>
 5   0  0.3678896E-04  0.1691807E+04  0.7818609E-02  0.8766051E-01
        2   -1    0    0  501    0  0.00000000000E+00  0.00000000000E+00  0.12249892057E+04  0.12249892057E+04  0.25500000920E-02 0.  1.
       -2   -1    0    0    0  501  0.00000000000E+00  0.00000000000E+00 -0.58412984956E+03  0.58412984956E+03  0.25500000920E-02 0. -1.
    10030    2    1    2    0    0  0.00000000000E+00  0.00000000000E+00  0.64085935610E+03  0.18091190552E+04  0.16918070344E+04 0.  0.
        2    1    3    3  502    0  0.31783316760E+03  0.69955678804E+03  0.69873344330E+03  0.10385692307E+04  0.25500000920E-02 0.  1.
       -2    1    3    3    0  502 -0.31783316760E+03 -0.69955678804E+03 -0.57874087197E+02  0.77054982454E+03  0.25500000920E-02 0. -1.
</event>
<event>
 5   0  0.1920289E-04  0.1682075E+04  0.7818609E-02  0.8771654E-01
        1   -1    0    0  501    0  0.00000000000E+00  0.00000000000E+00  0.78588960521E+03  0.78588960522E+03  0.50400001928E-02 0. -1.
       -1   -1    0    0    0  501  0.00000000000E+00  0.00000000000E+00 -0.90005526358E+03  0.90005526359E+03  0.50400001928E-02 0.  1.
    10030    2    1    2    0    0  0.00000000000E+00  0.00000000000E+00 -0.11416565837E+03  0.16859448688E+04  0.16820749993E+04 0.  0.
        4    1    3    3  502    0  0.43094032554E+03  0.79232088951E+02  0.66245119267E+03  0.79424837655E+03  0.12699999809E+01 0. -1.
       -4    1    3    3    0  502 -0.43094032554E+03 -0.79232088951E+02 -0.77661685104E+03  0.89169649226E+03  0.12699999809E+01 0.  1.
</event>
<event>
 5   0  0.1815663E-04  0.1729303E+04  0.7818609E-02  0.8744826E-01
       -1   -1    0    0    0  501  0.00000000000E+00  0.00000000000E+00  0.49956953885E+03  0.49956953887E+03  0.50400001928E-02 0. -1.
        1   -1    0    0  501    0  0.00000000000E+00  0.00000000000E+00 -0.14965331612E+04  0.14965331612E+04  0.50400001928E-02 0.  1.
    10030    2    1    2    0    0  0.00000000000E+00  0.00000000000E+00 -0.99696362232E+03  0.19961027000E+04  0.17293031906E+04 0.  0.
        5    1    3    3  502    0  0.23843232693E+03 -0.57504079847E+03  0.19416250140E+03  0.65210663345E+03  0.46999998093E+01 0. -1.
       -5    1    3    3    0  502 -0.23843232693E+03  0.57504079847E+03 -0.11911261237E+04  0.13439960666E+04  0.46999998093E+01 0.  1.
</event>
<event>
 5   0  0.1893284E-04  0.1435585E+04  0.7818609E-02  0.8928455E-01
       -1   -1    0    0    0  501  0.00000000000E+00  0.00000000000E+00  0.11312531875E+04  0.11312531875E+04  0.50400001928E-02 0.  1.
        1   -1    0    0  501    0  0.00000000000E+00  0.00000000000E+00 -0.45544742080E+03  0.45544742083E+03  0.50400001928E-02 0. -1.
    10030    2    1    2    0    0  0.00000000000E+00  0.00000000000E+00  0.67580576670E+03  0.15867006083E+04  0.14355853810E+04 0.  0.
        2    1    3    3  502    0 -0.49769511246E+03  0.96527814027E+02 -0.22372810540E+03  0.55414105515E+03  0.25500000920E-02 0. -1.
       -2    1    3    3    0  502  0.49769511246E+03 -0.96527814027E+02  0.89953387210E+03  0.10325595532E+04  0.25500000920E-02 0.  1.
</event>
<event>
 5   0  0.3574092E-04  0.1631250E+04  0.7818609E-02  0.8801577E-01
        2   -1    0    0  501    0  0.00000000000E+00  0.00000000000E+00  0.17059773704E+04  0.17059773704E+04  0.25500000920E-02 0. -1.
       -2   -1    0    0    0  501  0.00000000000E+00  0.00000000000E+00 -0.38994877466E+03  0.38994877467E+03  0.25500000920E-02 0.  1.
    10030    2    1    2    0    0  0.00000000000E+00  0.00000000000E+00  0.13160285957E+04  0.20959261450E+04  0.16312495642E+04 0.  0.
        3    1    3    3  502    0  0.34932004578E+03  0.16888705136E+03 -0.26377391544E+03  0.46917376223E+03  0.10100000352E+00 0.  1.
       -3    1    3    3    0  502 -0.34932004578E+03 -0.16888705136E+03  0.15798025112E+04  0.16267523828E+04  0.10100000352E+00 0. -1.
</event>
<event>
 5   0  0.1893284E-04  0.1703569E+04  0.7818609E-02  0.8759332E-01
        1   -1    0    0  501    0  0.00000000000E+00  0.00000000000E+00  0.73978786140E+03  0.73978786142E+03  0.50400001928E-02 0.  1.
       -1   -1    0    0    0  501  0.00000000000E+00  0.00000000000E+00 -0.98073598144E+03  0.98073598145E+03  0.50400001928E-02 0. -1.
    10030    2    1    2    0    0  0.00000000000E+00  0.00000000000E+00 -0.24094812003E+03  0.17205238429E+04  0.17035686946E+04 0.  0.
        2    1    3    3  502    0  0.79199663320E+03 -0.30738065029E+03 -0.58257011699E+02  0.85154883043E+03  0.25500000920E-02 0.  1.
       -2    1    3    3    0  502 -0.79199663320E+03  0.30738065029E+03 -0.18269110833E+03  0.86897501244E+03  0.25500000920E-02 0. -1.
</event>
<event>
 5   0  0.1930116E-04  0.1696153E+04  0.7818609E-02  0.8763561E-01
       -1   -1    0    0    0  501  0.00000000000E+00  0.00000000000E+00  0.39061323192E+03  0.39061323196E+03  0.50400001928E-02 0. -1.
        1   -1    0    0  501    0  0.00000000000E+00  0.00000000000E+00 -0.18412938248E+04  0.18412938248E+04  0.50400001928E-02 0.  1.
    10030    2    1    2    0    0  0.00000000000E+00  0.00000000000E+00 -0.14506805929E+04  0.22319070568E+04  0.16961529788E+04 0.  0.
        1    1    3    3  502    0 -0.41623476914E+03  0.60155461504E+03 -0.12899586058E+04  0.14829405054E+04  0.50400001928E-02 0.  1.
       -1    1    3    3    0  502  0.41623476914E+03 -0.60155461504E+03 -0.16072198712E+03  0.74896655138E+03  0.50400001928E-02 0. -1.
</event>
<event>
 5   0  0.3516723E-04  0.1707117E+04  0.7818609E-02  0.8757316E-01
        2   -1    0    0  501    0  0.00000000000E+00  0.00000000000E+00  0.79223007908E+03  0.79223007908E+03  0.25500000920E-02 0.  1.
       -2   -1    0    0    0  501  0.00000000000E+00  0.00000000000E+00 -0.91963445536E+03  0.91963445536E+03  0.25500000920E-02 0. -1.
    10030    2    1    2    0    0  0.00000000000E+00  0.00000000000E+00 -0.12740437628E+03  0.17118645344E+04  0.17071169583E+04 0.  0.
        1    1    3    3  502    0  0.60305720513E+03  0.15995373632E+03  0.52041143509E+03  0.81246000038E+03  0.50400001928E-02 0.  1.
       -1    1    3    3    0  502 -0.60305720513E+03 -0.15995373632E+03 -0.64781581136E+03  0.89940453407E+03  0.50400001928E-02 0. -1.
</event>
<event>
 5   0  0.1317625E-04  0.1694151E+04  0.7818609E-02  0.8764707E-01
        3   -1    0    0  501    0  0.00000000000E+00  0.00000000000E+00  0.10077854963E+04  0.10077855014E+04  0.10100000352E+00 0.  1.
       -3   -1    0    0    0  501  0.00000000000E+00  0.00000000000E+00 -0.71199379662E+03  0.71199380378E+03  0.10100000352E+00 0. -1.
    10030    2    1    2    0    0  0.00000000000E+00  0.00000000000E+00  0.29579169971E+03  0.17197793052E+04  0.16941511529E+04 0.  0.
        2    1    3    3  502    0 -0.60351834941E+03  0.59303878841E+03  0.18859764435E+03  0.86689011651E+03  0.25500000920E-02 0. -1.
       -2    1    3    3    0  502  0.60351834941E+03 -0.59303878841E+03  0.10719405536E+03  0.85288918867E+03  0.25500000920E-02 0.  1.
</event>
<event>
 5   0  0.1815663E-04  0.1807198E+04  0.7818609E-02  0.8702481E-01
        1   -1    0    0  501    0  0.00000000000E+00  0.00000000000E+00  0.10194397934E+04  0.10194397934E+04  0.50400001928E-02 0. -1.
       -1   -1    0    0    0  501  0.00000000000E+00  0.00000000000E+00 -0.80092183128E+03  0.80092183129E+03  0.50400001928E-02 0.  1.
    10030    2    1    2    0    0  0.00000000000E+00  0.00000000000E+00  0.21851796208E+03  0.18203616247E+04  0.18071984796E+04 0.  0.
        5    1    3    3  502    0  0.74480716886E+03  0.51009216316E+03  0.14875892248E+03  0.91492242333E+03  0.46999998093E+01 0. -1.
       -5    1    3    3    0  502 -0.74480716886E+03 -0.51009216316E+03  0.69759039606E+02  0.90543920133E+03  0.46999998093E+01 0.  1.
</event>
<event>
 5   0  0.3678896E-04  0.1658577E+04  0.7818609E-02  0.8785349E-01
        2   -1    0    0  501    0  0.00000000000E+00  0.00000000000E+00  0.90145142840E+03  0.90145142840E+03  0.25500000920E-02 0.  1.
       -2   -1    0    0    0  501  0.00000000000E+00  0.00000000000E+00 -0.76290203132E+03  0.76290203132E+03  0.25500000920E-02 0. -1.
    10030    2    1    2    0    0  0.00000000000E+00  0.00000000000E+00  0.13854939708E+03  0.16643534597E+04  0.16585766499E+04 0.  0.
        2    1    3    3  502    0 -0.61990573510E+03  0.46491061732E+02 -0.48152192059E+03  0.78632556823E+03  0.25500000920E-02 0. -1.
       -2    1    3    3    0  502  0.61990573510E+03 -0.46491061732E+02  0.62007131767E+03  0.87802789149E+03  0.25500000920E-02 0.  1.
</event>
<event>
 5   0  0.3678896E-04  0.1536401E+04  0.7818609E-02  0.8860601E-01
       -2   -1    0    0    0  501  0.00000000000E+00  0.00000000000E+00  0.12814899899E+04  0.12814899899E+04  0.25500000920E-02 0.  1.
        2   -1    0    0  501    0  0.00000000000E+00  0.00000000000E+00 -0.46050471893E+03  0.46050471894E+03  0.25500000920E-02 0. -1.
    10030    2    1    2    0    0  0.00000000000E+00  0.00000000000E+00  0.82098527096E+03  0.17419947088E+04  0.15364012336E+04 0.  0.
        2    1    3    3  502    0  0.87440136327E+02  0.62271546441E+03 -0.89816447770E+02  0.63520651866E+03  0.25500000920E-02 0. -1.
       -2    1    3    3    0  502 -0.87440136327E+02 -0.62271546441E+03  0.91080171873E+03  0.11067881902E+04  0.25500000920E-02 0.  1.
</event>
<event>
 5   0  0.1824538E-04  0.1696421E+04  0.7818609E-02  0.8763408E-01
       -1   -1    0    0    0  501  0.00000000000E+00  0.00000000000E+00  0.60866561881E+03  0.60866561883E+03  0.50400001928E-02 0.  1.
        1   -1    0    0  501    0  0.00000000000E+00  0.00000000000E+00 -0.11820304279E+04  0.11820304279E+04  0.50400001928E-02 0. -1.
    10030    2    1    2    0    0  0.00000000000E+00  0.00000000000E+00 -0.57336480907E+03  0.17906960467E+04  0.16964212706E+04 0.  0.
        3    1    3    3  502    0  0.84223370547E+03 -0.98716615295E+02 -0.26669087968E+03  0.88894691645E+03  0.10100000352E+00 0. -1.
       -3    1    3    3    0  502 -0.84223370547E+03  0.98716615295E+02 -0.30667392939E+03  0.90174913027E+03  0.10100000352E+00 0.  1.
</event>
<event>
 5   0  0.3573262E-04  0.1696331E+04  0.7818609E-02  0.8763460E-01
       -2   -1    0    0    0  501  0.00000000000E+00  0.00000000000E+00  0.91963281174E+03  0.91963281174E+03  0.25500000920E-02 0.  1.
        2   -1    0    0  501    0  0.00000000000E+00  0.00000000000E+00 -0.78225194095E+03  0.78225194095E+03  0.25500000920E-02 0. -1.
    10030    2    1    2    0    0  0.00000000000E+00  0.00000000000E+00  0.13738087079E+03  0.17018847527E+04  0.16963308073E+04 0.  0.
        5    1    3    3  502    0 -0.31060625095E+03  0.12292127967E+03 -0.71346231662E+03  0.78780483076E+03  0.46999998093E+01 0. -1.
       -5    1    3    3    0  502  0.31060625095E+03 -0.12292127967E+03  0.85084318741E+03  0.91407992194E+03  0.46999998093E+01 0.  1.
</event>
<event>
 5   0  0.1920289E-04  0.1697037E+04  0.7818609E-02  0.8763056E-01
        1   -1    0    0  501    0  0.00000000000E+00  0.00000000000E+00  0.11788895284E+04  0.11788895284E+04  0.50400001928E-02 0.  1.
       -1   -1    0    0    0  501  0.00000000000E+00  0.00000000000E+00 -0.61073004933E+03  0.61073004935E+03  0.50400001928E-02 0. -1.
    10030    2    1    2    0    0  0.00000000000E+00  0.00000000000E+00  0.56815947904E+03  0.17896195777E+04  0.16970365463E+04 0.  0.
        4    1    3    3  502    0  0.27713381150E+03  0.36481271805E+02 -0.56078170743E+03  0.62658739930E+03  0.12699999809E+01 0. -1.
       -4    1    3    3    0  502 -0.27713381150E+03 -0.36481271805E+02  0.11289411865E+04  0.11630321784E+04  0.12699999809E+01 0.  1.
</event>
<event>
 5   0  0.3678896E-04  0.1699615E+04  0.7818609E-02  0.8761584E-01
        2   -1    0    0  501    0  0.00000000000E+00  0.00000000000E+00  0.17536089297E+04  0.17536089297E+04  0.25500000920E-02 0.  1.
       -2   -1    0    0    0  501  0.00000000000E+00  0.00000000000E+00 -0.41182090839E+03  0.41182090840E+03  0.25500000920E-02 0. -1.
    10030    2    1    2    0    0  0.00000000000E+00  0.00000000000E+00  0.13417880213E+04  0.21654298381E+04  0.16996150416E+04 0.  0.
        2    1    3    3  502    0  0.23229807798E+01 -0.39047017617E+03 -0.29075555283E+03  0.48683790550E+03  0.25500000920E-02 0. -1.
       -2    1    3    3    0  502 -0.23229807798E+01  0.39047017617E+03  0.16325435742E+04  0.16785919326E+04  0.25500000920E-02 0.  1.
</event>
<event>
 5   0  0.1815663E-04  0.1701605E+04  0.7818609E-02  0.8760450E-01
        1   -1    0    0  501    0  0.00000000000E+00  0.00000000000E+00  0.52312783415E+03  0.52312783417E+03  0.50400001928E-02 0. -1.
       -1   -1    0    0    0  501  0.00000000000E+00  0.00000000000E+00 -0.13837239060E+04  0.13837239060E+04  0.50400001928E-02 0.  1.
    10030    2    1    2    0    0  0.00000000000E+00  0.00000000000E+00 -0.86059607180E+03  0.19068517401E+04  0.17016045252E+04 0.  0.
        5    1    3    3  502    0 -0.48660957103E+03  0.42211577297E+03  0.19250027332E+03  0.67234592706E+03  0.46999998093E+01 0. -1.
       -5    1    3    3    0  502  0.48660957103E+03 -0.42211577297E+03 -0.10530963451E+04  0.12345058131E+04  0.46999998093E+01 0.  1.
</event>
<event>
 5   0  0.1317625E-04  0.1680943E+04  0.7818609E-02  0.8772308E-01
       -3   -1    0    0    0  501  0.00000000000E+00  0.00000000000E+00  0.85666205083E+03  0.85666205678E+03  0.10100000352E+00 0. -1.
        3   -1    0    0  501    0  0.00000000000E+00  0.00000000000E+00 -0.82458719764E+03  0.82458720383E+03  0.10100000352E+00 0.  1.
    10030    2    1    2    0    0  0.00000000000E+00  0.00000000000E+00  0.32074853189E+02  0.16812492606E+04  0.16809432709E+04 0.  0.
        2    1    3    3  502    0  0.51239701405E+03  0.26427813337E+03 -0.59562842340E+03  0.82895527657E+03  0.25500000920E-02 0.  1.
       -2    1    3    3    0  502 -0.51239701405E+03 -0.26427813337E+03  0.62770327659E+03  0.85229398404E+03  0.25500000920E-02 0. -1.
</event>
<event>
 5   0  0.1893284E-04  0.1704563E+04  0.7818609E-02  0.8758766E-01
       -1   -1    0    0    0  501  0.00000000000E+00  0.00000000000E+00  0.98715947856E+03  0.98715947858E+03  0.50400001928E-02 0.  1.
        1   -1    0    0  501    0  0.00000000000E+00  0.00000000000E+00 -0.73583262534E+03  0.73583262535E+03  0.50400001928E-02 0. -1.
    10030    2    1    2    0    0  0.00000000000E+00  0.00000000000E+00  0.25132685323E+03  0.17229921039E+04  0.17045634641E+04 0.  0.
        2    1    3    3  502    0 -0.31419653498E+03  0.73457748440E+03 -0.17429491960E+03  0.81774217342E+03  0.25500000920E-02 0. -1.
       -2    1    3    3    0  502  0.31419653498E+03 -0.73457748440E+03  0.42562177283E+03  0.90524993051E+03  0.25500000920E-02 0.  1.
</event>
<event>
 5   0  0.1815663E-04  0.1724035E+04  0.7818609E-02  0.8747774E-01
        1   -1    0    0  501    0  0.00000000000E+00  0.00000000000E+00  0.11687433267E+04  0.11687433267E+04  0.50400001928E-02 0.  1.
       -1   -1    0    0    0  501  0.00000000000E+00  0.00000000000E+00 -0.63578908623E+03  0.63578908625E+03  0.50400001928E-02 0. -1.
    10030    2    1    2    0    0  0.00000000000E+00  0.00000000000E+00  0.53295424049E+03  0.18045324130E+04  0.17240350945E+04 0.  0.
        5    1    3    3  502    0  0.62089227491E+03 -0.57471561384E+03  0.93703593955E+02  0.85123892495E+03  0.46999998093E+01 0. -1.
       -5    1    3    3    0  502 -0.62089227491E+03  0.57471561384E+03  0.43925064653E+03  0.95329348803E+03  0.46999998093E+01 0.  1.
</event>
<event>
 5   0  0.3678896E-04  0.1694646E+04  0.7818609E-02  0.8764424E-01
       -2   -1    0    0    0  501  0.00000000000E+00  0.00000000000E+00  0.78572592550E+03  0.78572592551E+03  0.25500000920E-02 0.  1.
        2   -1    0    0  501    0  0.00000000000E+00  0.00000000000E+00 -0.91374923088E+03  0.91374923089E+03  0.25500000920E-02 0. -1.
    10030    2    1    2    0    0  0.00000000000E+00  0.00000000000E+00 -0.12802330538E+03  0.16994751564E+04  0.16946462287E+04 0.  0.
        2    1    3    3  502    0 -0.37505270083E+03 -0.30411389361E+03 -0.76227631612E+03  0.90233861206E+03  0.25500000920E-02 0. -1.
       -2    1    3    3    0  502  0.37505270083E+03  0.30411389361E+03  0.63425301074E+03  0.79713654434E+03  0.25500000920E-02 0.  1.
</event>
<event>
 5   0  0.3678896E-04  0.1716003E+04  0.7818609E-02  0.8752289E-01
       -2   -1    0    0    0  501  0.00000000000E+00  0.00000000000E+00  0.62347987577E+03  0.62347987578E+03  0.25500000920E-02 0. -1.
        2   -1    0    0  501    0  0.00000000000E+00  0.00000000000E+00 -0.11807389005E+04  0.11807389005E+04  0.25500000920E-02 0.  1.
    10030    2    1    2    0    0  0.00000000000E+00  0.00000000000E+00 -0.55725902469E+03  0.18042187762E+04  0.17160034300E+04 0.  0.
        2    1    3    3  502    0  0.65364137997E+03  0.25889270355E+03 -0.79574078506E+03  0.10618266726E+04  0.25500000920E-02 0.  1.
       -2    1    3    3    0  502 -0.65364137997E+03 -0.25889270355E+03  0.23848176037E+03  0.74239210367E+03  0.25500000920E-02 0. -1.
</event>
<event>
 5   0  0.1920289E-04  0.1702922E+04  0.7818609E-02  0.8759700E-01
       -1   -1    0    0    0  501  0.00000000000E+00  0.00000000000E+00  0.87962018765E+03  0.87962018766E+03  0.50400001928E-02 0. -1.
        1   -1    0    0  501    0  0.00000000000E+00  0.00000000000E+00 -0.82420330326E+03  0.82420330327E+03  0.50400001928E-02 0.  1.
    10030    2    1    2    0    0  0.00000000000E+00  0.00000000000E+00  0.55416884390E+02  0.17038234909E+04  0.17029220350E+04 0.  0.
        4    1    3    3  502    0 -0.75370067574E+03 -0.38863465120E+03 -0.49030598572E+02  0.84941580703E+03  0.12699999809E+01 0. -1.
       -4    1    3    3    0  502  0.75370067574E+03  0.38863465120E+03  0.10444748296E+03  0.85440768391E+03  0.12699999809E+01 0.  1.
</event>
<event>
 5   0  0.3605571E-04  0.1689819E+04  0.7818609E-02  0.8767192E-01
        2   -1    0    0  501    0  0.00000000000E+00  0.00000000000E+00  0.20415873335E+04  0.20415873335E+04  0.25500000920E-02 0. -1.
       -2   -1    0    0    0  501  0.00000000000E+00  0.00000000000E+00 -0.34966535166E+03  0.34966535167E+03  0.25500000920E-02 0.  1.
    10030    2    1    2    0    0  0.00000000000E+00  0.00000000000E+00  0.16919219818E+04  0.23912526852E+04  0.16898193429E+04 0.  0.
        4    1    3    3  502    0 -0.16973531635E+02  0.27925484460E+03 -0.28221518160E+03  0.39738946971E+03  0.12699999809E+01 0.  1.
       -4    1    3    3    0  502  0.16973531635E+02 -0.27925484460E+03  0.19741371634E+04  0.19938632155E+04  0.12699999809E+01 0. -1.
</event>
<event>
 5   0  0.1317625E-04  0.1416231E+04  0.7818609E-02  0.8942153E-01
       -3   -1    0    0    0  501  0.00000000000E+00  0.00000000000E+00  0.70569598076E+03  0.70569598798E+03  0.10100000352E+00 0. -1.
        3   -1    0    0  501    0  0.00000000000E+00  0.00000000000E+00 -0.71054341485E+03  0.71054342203E+03  0.10100000352E+00 0.  1.
    10030    2    1    2    0    0  0.00000000000E+00  0.00000000000E+00 -0.48474340911E+01  0.14162394100E+04  0.14162311142E+04 0.  0.
        1    1    3    3  502    0 -0.44642124499E+03 -0.41423491379E+03  0.35888872363E+03  0.70688302268E+03  0.50400001928E-02 0. -1.
       -1    1    3    3    0  502  0.44642124499E+03  0.41423491379E+03 -0.36373615772E+03  0.70935638733E+03  0.50400001928E-02 0.  1.
</event>
<event>
 5   0  0.1317625E-04  0.1672933E+04  0.7818609E-02  0.8776954E-01
       -3   -1    0    0    0  501  0.00000000000E+00  0.00000000000E+00  0.72346403635E+03  0.72346404340E+03  0.10100000352E+00 0. -1.
        3   -1    0    0  501    0  0.00000000000E+00  0.00000000000E+00 -0.96711957963E+03  0.96711958490E+03  0.10100000352E+00 0.  1.
    10030    2    1    2    0    0  0.00000000000E+00  0.00000000000E+00 -0.24365554327E+03  0.16905836283E+04  0.16729330472E+04 0.  0.
        2    1    3    3  502    0 -0.38463417982E+02 -0.69869845306E+03  0.34128378186E+03  0.77854581278E+03  0.25500000920E-02 0. -1.
       -2    1    3    3    0  502  0.38463417982E+02  0.69869845306E+03 -0.58493932514E+03  0.91203781552E+03  0.25500000920E-02 0.  1.
</event>
<event>
 5   0  0.1824538E-04  0.1694255E+04  0.7818609E-02  0.8764648E-01
       -1   -1    0    0    0  501  0.00000000000E+00  0.00000000000E+00  0.70684538377E+03  0.70684538379E+03  0.50400001928E-02 0.  1.
        1   -1    0    0  501    0  0.00000000000E+00  0.00000000000E+00 -0.10152503345E+04  0.10152503345E+04  0.50400001928E-02 0. -1.
    10030    2    1    2    0    0  0.00000000000E+00  0.00000000000E+00 -0.30840495074E+03  0.17220957183E+04  0.16942550131E+04 0.  0.
        3    1    3    3  502    0 -0.72322245234E+03 -0.25634250760E+03 -0.51907595512E+03  0.92639195493E+03  0.10100000352E+00 0. -1.
       -3    1    3    3    0  502  0.72322245234E+03  0.25634250760E+03  0.21067100439E+03  0.79570376338E+03  0.10100000352E+00 0.  1.
</event>
<event>
 5   0  0.3678896E-04  0.1696883E+04  0.7818609E-02  0.8763144E-01
       -2   -1    0    0    0  501  0.00000000000E+00  0.00000000000E+00  0.67260161714E+03  0.67260161714E+03  0.25500000920E-02 0.  1.
        2   -1    0    0  501    0  0.00000000000E+00  0.00000000000E+00 -0.10702518976E+04  0.10702518976E+04  0.25500000920E-02 0. -1.
    10030    2    1    2    0    0  0.00000000000E+00  0.00000000000E+00 -0.39765028050E+03  0.17428535148E+04  0.16968832100E+04 0.  0.
        2    1    3    3  502    0 -0.44425258294E+03 -0.54945925707E+03  0.28356587540E+03  0.76136419559E+03  0.25500000920E-02 0. -1.
       -2    1    3    3    0  502  0.44425258294E+03  0.54945925707E+03 -0.68121615591E+03  0.98148931920E+03  0.25500000920E-02 0.  1.
</event>
<event>
 5   0  0.1930116E-04  0.1703916E+04  0.7818609E-02  0.8759134E-01
        1   -1    0    0  501    0  0.00000000000E+00  0.00000000000E+00  0.15213815820E+04  0.15213815820E+04  0.50400001928E-02 0. -1.
       -1   -1    0    0    0  501  0.00000000000E+00  0.00000000000E+00 -0.47708745916E+03  0.47708745919E+03  0.50400001928E-02 0.  1.
    10030    2    1    2    0    0  0.00000000000E+00  0.00000000000E+00  0.10442941229E+04  0.19984690412E+04  0.17039155770E+04 0.  0.
        1    1    3    3  502    0  0.26309220455E+03  0.10770718841E+03  0.14641100312E+04  0.14914545015E+04  0.50400001928E-02 0. -1.
       -1    1    3    3    0  502 -0.26309220455E+03 -0.10770718841E+03 -0.41981590836E+03  0.50701453970E+03  0.50400001928E-02 0.  1.
</event>
<event>
 5   0  0.3678896E-04  0.1690924E+04  0.7818609E-02  0.8766558E-01
        2   -1    0    0  501    0  0.00000000000E+00  0.00000000000E+00  0.55884918977E+03  0.55884918977E+03  0.25500000920E-02 0. -1.
       -2   -1    0    0    0  501  0.00000000000E+00  0.00000000000E+00 -0.12790677563E+04  0.12790677563E+04  0.25500000920E-02 0.  1.
    10030    2    1    2    0    0  0.00000000000E+00  0.00000000000E+00 -0.72021856654E+03  0.18379169461E+04  0.16909239832E+04 0.  0.
        2    1    3    3  502    0  0.26783152131E+03 -0.57440428581E+03  0.24811744980E+03  0.68061463125E+03  0.25500000920E-02 0. -1.
       -2    1    3    3    0  502 -0.26783152131E+03  0.57440428581E+03 -0.96833601635E+03  0.11573023148E+04  0.25500000920E-02 0.  1.
</event>
<event>
 5   0  0.3678896E-04  0.1610569E+04  0.7818609E-02  0.8814081E-01
       -2   -1    0    0    0  501  0.00000000000E+00  0.00000000000E+00  0.59722017551E+03  0.59722017551E+03  0.25500000920E-02 0.  1.
        2   -1    0    0  501    0  0.00000000000E+00  0.00000000000E+00 -0.10858357138E+04  0.10858357138E+04  0.25500000920E-02 0. -1.
    10030    2    1    2    0    0  0.00000000000E+00  0.00000000000E+00 -0.48861553829E+03  0.16830558893E+04  0.16105688381E+04 0.  0.
        2    1    3    3  502    0  0.22803522694E+03 -0.77191769105E+03 -0.21816150968E+03  0.83393730627E+03  0.25500000920E-02 0. -1.
       -2    1    3    3    0  502 -0.22803522694E+03  0.77191769105E+03 -0.27045402861E+03  0.84911858305E+03  0.25500000920E-02 0.  1.
</event>
<event>
 5   0  0.1824538E-04  0.1701126E+04  0.7818609E-02  0.8760723E-01
       -1   -1    0    0    0  501  0.00000000000E+00  0.00000000000E+00  0.88268082903E+03  0.88268082904E+03  0.50400001928E-02 0. -1.
        1   -1    0    0  501    0  0.00000000000E+00  0.00000000000E+00 -0.81961343705E+03  0.81961343706E+03  0.50400001928E-02 0.  1.
    10030    2    1    2    0    0  0.00000000000E+00  0.00000000000E+00  0.63067391978E+02  0.17022942661E+04  0.17011255899E+04 0.  0.
        3    1    3    3  502    0  0.92488800421E+02  0.89273491936E+02  0.87290447370E+03  0.88231863007E+03  0.10100000352E+00 0. -1.
       -3    1    3    3    0  502 -0.92488800421E+02 -0.89273491936E+02 -0.80983708172E+03  0.81997563604E+03  0.10100000352E+00 0.  1.
</event>
<event>
 5   0  0.1930116E-04  0.1675145E+04  0.7818609E-02  0.8775668E-01
       -1   -1    0    0    0  501  0.00000000000E+00  0.00000000000E+00  0.43173761955E+03  0.43173761958E+03  0.50400001928E-02 0.  1.
        1   -1    0    0  501    0  0.00000000000E+00  0.00000000000E+00 -0.16248934051E+04  0.16248934051E+04  0.50400001928E-02 0. -1.
    10030    2    1    2    0    0  0.00000000000E+00  0.00000000000E+00 -0.11931557855E+04  0.20566310246E+04  0.16751449021E+04 0.  0.
        1    1    3    3  502    0  0.40703116562E+03 -0.39238654755E+03  0.16212352105E+03  0.58815440880E+03  0.50400001928E-02 0.  1.
       -1    1    3    3    0  502 -0.40703116562E+03  0.39238654755E+03 -0.13552793066E+04  0.14684766158E+04  0.50400001928E-02 0. -1.
</event>
<event>
 5   0  0.1824538E-04  0.1700628E+04  0.7818609E-02  0.8761006E-01
        1   -1    0    0  501    0  0.00000000000E+00  0.00000000000E+00  0.82909652157E+03  0.82909652158E+03  0.50400001928E-02 0. -1.
       -1   -1    0    0    0  501  0.00000000000E+00  0.00000000000E+00 -0.87207475009E+03  0.87207475011E+03  0.50400001928E-02 0.  1.
    10030    2    1    2    0    0  0.00000000000E+00  0.00000000000E+00 -0.42978228525E+02  0.17011712717E+04  0.17006282861E+04 0.  0.
        3    1    3    3  502    0 -0.89912605851E+02 -0.33672874355E+03 -0.79734207094E+03  0.87018671084E+03  0.10100000352E+00 0.  1.
       -3    1    3    3    0  502  0.89912605851E+02  0.33672874355E+03  0.75436384242E+03  0.83098456085E+03  0.10100000352E+00 0. -1.
</event>
<event>
 5   0  0.1317625E-04  0.1743401E+04  0.7818609E-02  0.8736991E-01
       -3   -1    0    0    0  501  0.00000000000E+00  0.00000000000E+00  0.67184849648E+03  0.67184850407E+03  0.10100000352E+00 0.  1.
        3   -1    0    0  501    0  0.00000000000E+00  0.00000000000E+00 -0.11310021663E+04  0.11310021708E+04  0.10100000352E+00 0. -1.
    10030    2    1    2    0    0  0.00000000000E+00  0.00000000000E+00 -0.45915366985E+03  0.18028506749E+04  0.17434014063E+04 0.  0.
        1    1    3    3  502    0 -0.38095853180E+03 -0.75031143744E+03 -0.46485542155E+03  0.96134656554E+03  0.50400001928E-02 0. -1.
       -1    1    3    3    0  502  0.38095853180E+03  0.75031143744E+03  0.57017516972E+01  0.84150410938E+03  0.50400001928E-02 0.  1.
</event>
<event>
 5   0  0.1920289E-04  0.1674078E+04  0.7818609E-02  0.8776288E-01
       -1   -1    0    0    0  501  0.00000000000E+00  0.00000000000E+00  0.12597981258E+04  0.12597981259E+04  0.50400001928E-02 0.  1.
        1   -1    0    0  501    0  0.00000000000E+00  0.00000000000E+00 -0.55614825125E+03  0.55614825127E+03  0.50400001928E-02 0. -1.
    10030    2    1    2    0    0  0.00000000000E+00  0.00000000000E+00  0.70364987460E+03  0.18159463771E+04  0.16740782833E+04 0.  0.
        4    1    3    3  502    0  0.59139069485E+03  0.22232629732E+03  0.94740864284E+03  0.11387522495E+04  0.12699999809E+01 0.  1.
       -4    1    3    3    0  502 -0.59139069485E+03 -0.22232629732E+03 -0.24375876824E+03  0.67719412758E+03  0.12699999809E+01 0. -1.
</event>
<event>
 5   0  0.1920289E-04  0.1866929E+04  0.7818609E-02  0.8671495E-01
       -1   -1    0    0    0  501  0.00000000000E+00  0.00000000000E+00  0.46334282734E+03  0.46334282737E+03  0.50400001928E-02 0.  1.
        1   -1    0    0  501    0  0.00000000000E+00  0.00000000000E+00 -0.18805858551E+04  0.18805858551E+04  0.50400001928E-02 0. -1.
    10030    2    1    2    0    0  0.00000000000E+00  0.00000000000E+00 -0.14172430277E+04  0.23439286824E+04  0.18669289940E+04 0.  0.
        4    1    3    3  502    0 -0.69368360585E+03  0.54080944009E+03 -0.11010179973E+04  0.14092246232E+04  0.12699999809E+01 0. -1.
       -4    1    3    3    0  502  0.69368360585E+03 -0.54080944009E+03 -0.31622503044E+03  0.93470405920E+03  0.12699999809E+01 0.  1.
</event>
<event>
 5   0  0.3516723E-04  0.1684156E+04  0.7818609E-02  0.8770453E-01
        2   -1    0    0  501    0  0.00000000000E+00  0.00000000000E+00  0.74706184210E+03  0.74706184210E+03  0.25500000920E-02 0.  1.
       -2   -1    0    0    0  501  0.00000000000E+00  0.00000000000E+00 -0.94917921803E+03  0.94917921803E+03  0.25500000920E-02 0. -1.
    10030    2    1    2    0    0  0.00000000000E+00  0.00000000000E+00 -0.20211737593E+03  0.16962410601E+04  0.16841562577E+04 0.  0.
        1    1    3    3  502    0 -0.81164288442E+03 -0.34590543908E+02 -0.32431318504E+03  0.87472265295E+03  0.50400001928E-02 0. -1.
       -1    1    3    3    0  502  0.81164288442E+03  0.34590543908E+02  0.12219580911E+03  0.82151840719E+03  0.50400001928E-02 0.  1.
</event>
<event>
 5   0  0.3574092E-04  0.1865078E+04  0.7818609E-02  0.8672437E-01
       -2   -1    0    0    0  501  0.00000000000E+00  0.00000000000E+00  0.12883199374E+04  0.12883199374E+04  0.25500000920E-02 0.  1.
        2   -1    0    0  501    0  0.00000000000E+00  0.00000000000E+00 -0.67501003582E+03  0.67501003582E+03  0.25500000920E-02 0. -1.
    10030    2    1    2    0    0  0.00000000000E+00  0.00000000000E+00  0.61330990162E+03  0.19633299733E+04  0.18650778934E+04 0.  0.
        3    1    3    3  502    0  0.31720573498E+03 -0.52128075421E+02 -0.61484111587E+03  0.69380575273E+03  0.10100000352E+00 0. -1.
       -3    1    3    3    0  502 -0.31720573498E+03  0.52128075421E+02  0.12281510175E+04  0.12695242205E+04  0.10100000352E+00 0.  1.
</event>
<event>
 5   0  0.1317625E-04  0.1691125E+04  0.7818609E-02  0.8766442E-01
        3   -1    0    0  501    0  0.00000000000E+00  0.00000000000E+00  0.11464187274E+04  0.11464187319E+04  0.10100000352E+00 0.  1.
       -3   -1    0    0    0  501  0.00000000000E+00  0.00000000000E+00 -0.62366065116E+03  0.62366065934E+03  0.10100000352E+00 0. -1.
    10030    2    1    2    0    0  0.00000000000E+00  0.00000000000E+00  0.52275807628E+03  0.17700793912E+04  0.16911253782E+04 0.  0.
        2    1    3    3  502    0  0.13285862683E+03 -0.70302156789E+02 -0.60956442791E+03  0.62782370117E+03  0.25500000920E-02 0. -1.
       -2    1    3    3    0  502 -0.13285862683E+03  0.70302156789E+02  0.11323225042E+04  0.11422556901E+04  0.25500000920E-02 0.  1.
</event>
<event>
 5   0  0.3678896E-04  0.1697681E+04  0.7818609E-02  0.8762688E-01
       -2   -1    0    0    0  501  0.00000000000E+00  0.00000000000E+00  0.51680646607E+03  0.51680646608E+03  0.25500000920E-02 0.  1.
        2   -1    0    0  501    0  0.00000000000E+00  0.00000000000E+00 -0.13941968252E+04  0.13941968252E+04  0.25500000920E-02 0. -1.
    10030    2    1    2    0    0  0.00000000000E+00  0.00000000000E+00 -0.87739035910E+03  0.19110032912E+04  0.16976806934E+04 0.  0.
        2    1    3    3  502    0  0.25072164260E+03  0.11323462195E+03  0.46523232865E+03  0.54048546818E+03  0.25500000920E-02 0.  1.
       -2    1    3    3    0  502 -0.25072164260E+03 -0.11323462195E+03 -0.13426226878E+04  0.13705178231E+04  0.25500000920E-02 0. -1.
</event>
<event>
 5   0  0.3605571E-04  0.1684912E+04  0.7818609E-02  0.8770017E-01
       -2   -1    0    0    0  501  0.00000000000E+00  0.00000000000E+00  0.10216462911E+04  0.10216462911E+04  0.25500000920E-02 0.  1.
        2   -1    0    0  501    0  0.00000000000E+00  0.00000000000E+00 -0.69469467277E+03  0.69469467278E+03  0.25500000920E-02 0. -1.
    10030    2    1    2    0    0  0.00000000000E+00  0.00000000000E+00  0.32695161830E+03  0.17163409639E+04  0.16849121471E+04 0.  0.
        4    1    3    3  502    0  0.13536030078E+03  0.82708611050E+03  0.76223086283E+02  0.84154941447E+03  0.12699999809E+01 0.  1.
       -4    1    3    3    0  502 -0.13536030078E+03 -0.82708611050E+03  0.25072853202E+03  0.87479154939E+03  0.12699999809E+01 0. -1.
</event>
<event>
 5   0  0.1920289E-04  0.1690653E+04  0.7818609E-02  0.8766714E-01
       -1   -1    0    0    0  501  0.00000000000E+00  0.00000000000E+00  0.15923110705E+04  0.15923110705E+04  0.50400001928E-02 0.  1.
        1   -1    0    0  501    0  0.00000000000E+00  0.00000000000E+00 -0.44876688803E+03  0.44876688806E+03  0.50400001928E-02 0. -1.
    10030    2    1    2    0    0  0.00000000000E+00  0.00000000000E+00  0.11435441824E+04  0.20410779585E+04  0.16906525177E+04 0.  0.
        4    1    3    3  502    0  0.45176987166E+03  0.45803541807E+03  0.12337740102E+04  0.13914353677E+04  0.12699999809E+01 0.  1.
       -4    1    3    3    0  502 -0.45176987166E+03 -0.45803541807E+03 -0.90229827800E+02  0.64964259087E+03  0.12699999809E+01 0. -1.
</event>
<event>
 5   0  0.3573262E-04  0.1699418E+04  0.7818609E-02  0.8761697E-01
       -2   -1    0    0    0  501  0.00000000000E+00  0.00000000000E+00  0.34641915042E+03  0.34641915043E+03  0.25500000920E-02 0.  1.
        2   -1    0    0  501    0  0.00000000000E+00  0.00000000000E+00 -0.20841949674E+04  0.20841949674E+04  0.25500000920E-02 0. -1.
    10030    2    1    2    0    0  0.00000000000E+00  0.00000000000E+00 -0.17377758169E+04  0.24306141178E+04  0.16994176060E+04 0.  0.
        5    1    3    3  502    0  0.30798463682E+03  0.72026203783E+03 -0.13396835194E+04  0.15519039796E+04  0.46999998093E+01 0. -1.
       -5    1    3    3    0  502 -0.30798463682E+03 -0.72026203783E+03 -0.39809229753E+03  0.87871013822E+03  0.46999998093E+01 0.  1.
</event>
<event>
 5   0  0.3574092E-04  0.1511828E+04  0.7818609E-02  0.8876625E-01
       -2   -1    0    0    0  501  0.00000000000E+00  0.00000000000E+00  0.60455686171E+03  0.60455686171E+03  0.25500000920E-02 0. -1.
        2   -1    0    0  501    0  0.00000000000E+00  0.00000000000E+00 -0.94516525510E+03  0.94516525511E+03  0.25500000920E-02 0.  1.
    10030    2    1    2    0    0  0.00000000000E+00  0.00000000000E+00 -0.34060839340E+03  0.15497221168E+04  0.15118282183E+04 0.  0.
        3    1    3    3  502    0 -0.19157171028E+03 -0.31872966048E+03  0.50430833887E+03  0.62659015912E+03  0.10100000352E+00 0. -1.
       -3    1    3    3    0  502  0.19157171028E+03  0.31872966048E+03 -0.84491673227E+03  0.92313195770E+03  0.10100000352E+00 0.  1.
</event>
<event>
 5   0  0.1920289E-04  0.1716953E+04  0.7818609E-02  0.8751754E-01
        1   -1    0    0  501    0  0.00000000000E+00  0.00000000000E+00  0.22140362040E+04  0.22140362040E+04  0.50400001928E-02 0.  1.
       -1   -1    0    0    0  501  0.00000000000E+00  0.00000000000E+00 -0.33286821544E+03  0.33286821547E+03  0.50400001928E-02 0. -1.
    10030    2    1    2    0    0  0.00000000000E+00  0.00000000000E+00  0.18811679886E+04  0.25469044195E+04  0.17169534416E+04 0.  0.
        4    1    3    3  502    0  0.42921315319E+03 -0.52539774422E+03  0.16026953809E+03  0.69710448158E+03  0.12699999809E+01 0. -1.
       -4    1    3    3    0  502 -0.42921315319E+03  0.52539774422E+03  0.17208984505E+04  0.18497999379E+04  0.12699999809E+01 0.  1.
</event>
<event>
 5   0  0.1824538E-04  0.1707013E+04  0.7818609E-02  0.8757374E-01
       -1   -1    0    0    0  501  0.00000000000E+00  0.00000000000E+00  0.14331676416E+04  0.14331676416E+04  0.50400001928E-02 0. -1.
        1   -1    0    0  501    0  0.00000000000E+00  0.00000000000E+00 -0.50829623767E+03  0.50829623769E+03  0.50400001928E-02 0.  1.
    10030    2    1    2    0    0  0.00000000000E+00  0.00000000000E+00  0.92487140391E+03  0.19414638793E+04  0.17070134390E+04 0.  0.
        3    1    3    3  502    0 -0.33021880166E+02  0.84437035420E+03  0.32585017756E+03  0.90566554977E+03  0.10100000352E+00 0. -1.
       -3    1    3    3    0  502  0.33021880166E+02 -0.84437035420E+03  0.59902122635E+03  0.10357983295E+04  0.10100000352E+00 0.  1.
</event>
<event>
 5   0  0.3605571E-04  0.1679357E+04  0.7818609E-02  0.8773226E-01
       -2   -1    0    0    0  501  0.00000000000E+00  0.00000000000E+00  0.60141975839E+03  0.60141975840E+03  0.25500000920E-02 0.  1.
        2   -1    0    0  501    0  0.00000000000E+00  0.00000000000E+00 -0.11723263939E+04  0.11723263939E+04  0.25500000920E-02 0. -1.
    10030    2    1    2    0    0  0.00000000000E+00  0.00000000000E+00 -0.57090663555E+03  0.17737461523E+04  0.16793573254E+04 0.  0.
        4    1    3    3  502    0  0.20937879567E+03  0.54429633419E+03 -0.92352780852E+03  0.10922468611E+04  0.12699999809E+01 0. -1.
       -4    1    3    3    0  502 -0.20937879567E+03 -0.54429633419E+03  0.35262117298E+03  0.68149929128E+03  0.12699999809E+01 0.  1.
</event>
<event>
 5   0  0.3574092E-04  0.1392492E+04  0.7818609E-02  0.8959271E-01
        2   -1    0    0  501    0  0.00000000000E+00  0.00000000000E+00  0.11541887923E+04  0.11541887923E+04  0.25500000920E-02 0.  1.
       -2   -1    0    0    0  501  0.00000000000E+00  0.00000000000E+00 -0.41999947845E+03  0.41999947846E+03  0.25500000920E-02 0. -1.
    10030    2    1    2    0    0  0.00000000000E+00  0.00000000000E+00  0.73418931385E+03  0.15741882708E+04  0.13924922848E+04 0.  0.
        3    1    3    3  502    0  0.16364211795E+03  0.45684536253E+03 -0.19732332770E+03  0.52385392419E+03  0.10100000352E+00 0. -1.
       -3    1    3    3    0  502 -0.16364211795E+03 -0.45684536253E+03  0.93151264154E+03  0.10503343466E+04  0.10100000352E+00 0.  1.
</event>
<event>
 5   0  0.3678896E-04  0.1723757E+04  0.7818609E-02  0.8747930E-01
        2   -1    0    0  501    0  0.00000000000E+00  0.00000000000E+00  0.92782171708E+03  0.92782171709E+03  0.25500000920E-02 0. -1.
       -2   -1    0    0    0  501  0.00000000000E+00  0.00000000000E+00 -0.80062178839E+03  0.80062178839E+03  0.25500000920E-02 0.  1.
    10030    2    1    2    0    0  0.00000000000E+00  0.00000000000E+00  0.12719992870E+03  0.17284435055E+04  0.17237566910E+04 0.  0.
        2    1    3    3  502    0 -0.14196373764E+03 -0.14713704506E+03  0.90315258040E+03  0.92600626149E+03  0.25500000920E-02 0. -1.
       -2    1    3    3    0  502  0.14196373764E+03  0.14713704506E+03 -0.77595265170E+03  0.80243724398E+03  0.25500000920E-02 0.  1.
</event>
<event>
 5   0  0.3678896E-04  0.1701534E+04  0.7818609E-02  0.8760490E-01
        2   -1    0    0  501    0  0.00000000000E+00  0.00000000000E+00  0.13274573391E+04  0.13274573391E+04  0.25500000920E-02 0. -1.
       -2   -1    0    0    0  501  0.00000000000E+00  0.00000000000E+00 -0.54525642604E+03  0.54525642605E+03  0.25500000920E-02 0.  1.
    10030    2    1    2    0    0  0.00000000000E+00  0.00000000000E+00  0.78220091308E+03  0.18727137652E+04  0.17015341836E+04 0.  0.
        2    1    3    3  502    0 -0.72080269804E+03  0.23118228811E+03 -0.36300529708E+02  0.75783870863E+03  0.25500000920E-02 0.  1.
       -2    1    3    3    0  502  0.72080269804E+03 -0.23118228811E+03  0.81850144279E+03  0.11148750565E+04  0.25500000920E-02 0. -1.
</event>
<event>
 5   0  0.3605571E-04  0.1684289E+04  0.7818609E-02  0.8770376E-01
       -2   -1    0    0    0  501  0.00000000000E+00  0.00000000000E+00  0.12753700354E+04  0.12753700354E+04  0.25500000920E-02 0.  1.
        2   -1    0    0  501    0  0.00000000000E+00  0.00000000000E+00 -0.55607981201E+03  0.55607981202E+03  0.25500000920E-02 0. -1.
    10030    2    1    2    0    0  0.00000000000E+00  0.00000000000E+00  0.71929022340E+03  0.18314498474E+04  0.16842892027E+04 0.  0.
        4    1    3    3  502    0  0.16419030496E+03  0.81853288380E+03  0.23928825266E+03  0.86845553649E+03  0.12699999809E+01 0.  1.
       -4    1    3    3    0  502 -0.16419030496E+03 -0.81853288380E+03  0.48000197074E+03  0.96299431095E+03  0.12699999809E+01 0. -1.
</event>
<event>
 5   0  0.3573262E-04  0.1716853E+04  0.7818609E-02  0.8751810E-01
        2   -1    0    0  501    0  0.00000000000E+00  0.00000000000E+00  0.10505750836E+04  0.10505750836E+04  0.25500000920E-02 0. -1.
       -2   -1    0    0    0  501  0.00000000000E+00  0.00000000000E+00 -0.70142156439E+03  0.70142156439E+03  0.25500000920E-02 0.  1.
    10030    2    1    2    0    0  0.00000000000E+00  0.00000000000E+00  0.34915351923E+03  0.17519966480E+04  0.17168529566E+04 0.  0.
        5    1    3    3  502    0  0.77096823600E+03 -0.36916983966E+03  0.94253808650E+02  0.85999084988E+03  0.46999998093E+01 0. -1.
       -5    1    3    3    0  502 -0.77096823600E+03  0.36916983966E+03  0.25489971058E+03  0.89200579813E+03  0.46999998093E+01 0.  1.
</event>
<event>
 5   0  0.3573262E-04  0.1643383E+04  0.7818609E-02  0.8794331E-01
        2   -1    0    0  501    0  0.00000000000E+00  0.00000000000E+00  0.51797954530E+03  0.51797954531E+03  0.25500000920E-02 0.  1.
       -2   -1    0    0    0  501  0.00000000000E+00  0.00000000000E+00 -0.13034816899E+04  0.13034816899E+04  0.25500000920E-02 0. -1.
    10030    2    1    2    0    0  0.00000000000E+00  0.00000000000E+00 -0.78550214461E+03  0.18214612352E+04  0.16433829171E+04 0.  0.
        5    1    3    3  502    0  0.28900704863E+03  0.42062481706E+03  0.32100614653E+03  0.60292399769E+03  0.46999998093E+01 0.  1.
       -5    1    3    3    0  502 -0.28900704863E+03 -0.42062481706E+03 -0.11065082911E+04  0.12185372375E+04  0.46999998093E+01 0. -1.
</event>
<event>
 5   0  0.3574092E-04  0.1708080E+04  0.7818609E-02  0.8756770E-01
       -2   -1    0    0    0  501  0.00000000000E+00  0.00000000000E+00  0.13486671814E+04  0.13486671814E+04  0.25500000920E-02 0.  1.
        2   -1    0    0  501    0  0.00000000000E+00  0.00000000000E+00 -0.54081836861E+03  0.54081836862E+03  0.25500000920E-02 0. -1.
    10030    2    1    2    0    0  0.00000000000E+00  0.00000000000E+00  0.80784881278E+03  0.18894855500E+04  0.17080796057E+04 0.  0.
        3    1    3    3  502    0  0.27171892146E+03  0.36491075462E+03  0.12034532182E+04  0.12865810079E+04  0.10100000352E+00 0.  1.
       -3    1    3    3    0  502 -0.27171892146E+03 -0.36491075462E+03 -0.39560440546E+03  0.60290454214E+03  0.10100000352E+00 0. -1.
</event>
<event>
 5   0  0.1930116E-04  0.1678133E+04  0.7818609E-02  0.8773935E-01
        1   -1    0    0  501    0  0.00000000000E+00  0.00000000000E+00  0.13324506948E+04  0.13324506948E+04  0.50400001928E-02 0. -1.
       -1   -1    0    0    0  501  0.00000000000E+00  0.00000000000E+00 -0.52837441477E+03  0.52837441479E+03  0.50400001928E-02 0.  1.
    10030    2    1    2    0    0  0.00000000000E+00  0.00000000000E+00  0.80407628003E+03  0.18608251096E+04  0.16781333154E+04 0.  0.
        1    1    3    3  502    0  0.59066178703E+03 -0.51700707841E+03  0.73366062317E+02  0.78839092137E+03  0.50400001928E-02 0.  1.
       -1    1    3    3    0  502 -0.59066178703E+03  0.51700707841E+03  0.73071021771E+03  0.10724341882E+04  0.50400001928E-02 0. -1.
</event>
<event>
 5   0  0.1930116E-04  0.1385811E+04  0.7818609E-02  0.8964154E-01
        1   -1    0    0  501    0  0.00000000000E+00  0.00000000000E+00  0.13238540285E+04  0.13238540285E+04  0.50400001928E-02 0.  1.
       -1   -1    0    0    0  501  0.00000000000E+00  0.00000000000E+00 -0.36266706063E+03  0.36266706066E+03  0.50400001928E-02 0. -1.
    10030    2    1    2    0    0  0.00000000000E+00  0.00000000000E+00  0.96118696789E+03  0.16865210892E+04  0.13858113137E+04 0.  0.
        1    1    3    3  502    0  0.42907495546E+03 -0.45662207957E+03  0.84060347289E+03  0.10484384768E+04  0.50400001928E-02 0.  1.
       -1    1    3    3    0  502 -0.42907495546E+03  0.45662207957E+03  0.12058349500E+03  0.63808261240E+03  0.50400001928E-02 0. -1.
</event>
<event>
 5   0  0.3678896E-04  0.1722862E+04  0.7818609E-02  0.8748432E-01
       -2   -1    0    0    0  501  0.00000000000E+00  0.00000000000E+00  0.49103624724E+03  0.49103624725E+03  0.25500000920E-02 0.  1.
        2   -1    0    0  501    0  0.00000000000E+00  0.00000000000E+00 -0.15112183140E+04  0.15112183140E+04  0.25500000920E-02 0. -1.
    10030    2    1    2    0    0  0.00000000000E+00  0.00000000000E+00 -0.10201820668E+04  0.20022545613E+04  0.17228615379E+04 0.  0.
        2    1    3    3  502    0  0.11307762347E+03 -0.95523791756E+02 -0.14963271186E+04  0.15036310018E+04  0.25500000920E-02 0. -1.
       -2    1    3    3    0  502 -0.11307762347E+03  0.95523791756E+02  0.47614505180E+03  0.49862355949E+03  0.25500000920E-02 0.  1.
</event>
<event>
 5   0  0.3605571E-04  0.1707072E+04  0.7818609E-02  0.8757341E-01
        2   -1    0    0  501    0  0.00000000000E+00  0.00000000000E+00  0.13609951181E+04  0.13609951181E+04  0.25500000920E-02 0. -1.
       -2   -1    0    0    0  501  0.00000000000E+00  0.00000000000E+00 -0.53528745772E+03  0.53528745773E+03  0.25500000920E-02 0.  1.
    10030    2    1    2    0    0  0.00000000000E+00  0.00000000000E+00  0.82570766033E+03  0.18962825758E+04  0.17070718986E+04 0.  0.
        4    1    3    3  502    0  0.11281995553E+03  0.12573979277E+03 -0.51652984389E+03  0.54345517789E+03  0.12699999809E+01 0.  1.
       -4    1    3    3    0  502 -0.11281995553E+03 -0.12573979277E+03  0.13422375042E+04  0.13528273979E+04  0.12699999809E+01 0. -1.
</event>
<event>
 5   0  0.1815663E-04  0.1715993E+04  0.7818609E-02  0.8752295E-01
       -1   -1    0    0    0  501  0.00000000000E+00  0.00000000000E+00  0.49761157013E+03  0.49761157016E+03  0.50400001928E-02 0. -1.
        1   -1    0    0  501    0  0.00000000000E+00  0.00000000000E+00 -0.14793823681E+04  0.14793823681E+04  0.50400001928E-02 0.  1.
    10030    2    1    2    0    0  0.00000000000E+00  0.00000000000E+00 -0.98177079795E+03  0.19769939382E+04  0.17159927541E+04 0.  0.
        5    1    3    3  502    0  0.81593714531E+03 -0.13185680847E+03 -0.22566212080E+03  0.85678767836E+03  0.46999998093E+01 0. -1.
       -5    1    3    3    0  502 -0.81593714531E+03  0.13185680847E+03 -0.75610867715E+03  0.11202062599E+04  0.46999998093E+01 0.  1.
</event>
<event>
 5   0  0.3516723E-04  0.1703642E+04  0.7818609E-02  0.8759290E-01
       -2   -1    0    0    0  501  0.00000000000E+00  0.00000000000E+00  0.74841610436E+03  0.74841610437E+03  0.25500000920E-02 0. -1.
        2   -1    0    0  501    0  0.00000000000E+00  0.00000000000E+00 -0.96951286087E+03  0.96951286088E+03  0.25500000920E-02 0.  1.
    10030    2    1    2    0    0  0.00000000000E+00  0.00000000000E+00 -0.22109675651E+03  0.17179289652E+04  0.17036420263E+04 0.  0.
        1    1    3    3  502    0  0.19565105895E+03 -0.54830754845E+03 -0.73759796923E+03  0.93966550900E+03  0.50400001928E-02 0.  1.
       -1    1    3    3    0  502 -0.19565105895E+03  0.54830754845E+03  0.51650121272E+03  0.77826345625E+03  0.50400001928E-02 0. -1.
</event>
<event>
 5   0  0.1815663E-04  0.1707199E+04  0.7818609E-02  0.8757269E-01
       -1   -1    0    0    0  501  0.00000000000E+00  0.00000000000E+00  0.42155336006E+03  0.42155336009E+03  0.50400001928E-02 0.  1.
        1   -1    0    0  501    0  0.00000000000E+00  0.00000000000E+00 -0.17284455173E+04  0.17284455173E+04  0.50400001928E-02 0. -1.
    10030    2    1    2    0    0  0.00000000000E+00  0.00000000000E+00 -0.13068921572E+04  0.21499988774E+04  0.17071988935E+04 0.  0.
        5    1    3    3  502    0 -0.74921158684E+03 -0.38127550954E+03 -0.83990509857E+03  0.11883398843E+04  0.46999998093E+01 0. -1.
       -5    1    3    3    0  502  0.74921158684E+03  0.38127550954E+03 -0.46698705864E+03  0.96165899307E+03  0.46999998093E+01 0.  1.
</event>
<event>
 5   0  0.1920289E-04  0.1683517E+04  0.7818609E-02  0.8770821E-01
       -1   -1    0    0    0  501  0.00000000000E+00  0.00000000000E+00  0.59490067462E+03  0.59490067464E+03  0.50400001928E-02 0.  1.
        1   -1    0    0  501    0  0.00000000000E+00  0.00000000000E+00 -0.11910518373E+04  0.11910518373E+04  0.50400001928E-02 0. -1.
    10030    2    1    2    0    0  0.00000000000E+00  0.00000000000E+00 -0.59615116264E+03  0.17859525119E+04  0.16835172010E+04 0.  0.
        4    1    3    3  502    0 -0.71363528032E+03  0.75626512289E+02  0.16864994415E+03  0.73718321959E+03  0.12699999809E+01 0.  1.
       -4    1    3    3    0  502  0.71363528032E+03 -0.75626512289E+02 -0.76480110679E+03  0.10487692923E+04  0.12699999809E+01 0. -1.
</event>
<event>
 5   0  0.1930116E-04  0.1713362E+04  0.7818609E-02  0.8753780E-01
        1   -1    0    0  501    0  0.00000000000E+00  0.00000000000E+00  0.51640959889E+03  0.51640959892E+03  0.50400001928E-02 0.  1.
       -1   -1    0    0    0  501  0.00000000000E+00  0.00000000000E+00 -0.14211629861E+04  0.14211629861E+04  0.50400001928E-02 0. -1.
    10030    2    1    2    0    0  0.00000000000E+00  0.00000000000E+00 -0.90475338716E+03  0.19375725850E+04  0.17133618504E+04 0.  0.
        1    1    3    3  502    0  0.74454187620E+03 -0.34037977846E+03 -0.73779559116E+03  0.11020632166E+04  0.50400001928E-02 0. -1.
       -1    1    3    3    0  502 -0.74454187620E+03  0.34037977846E+03 -0.16695779600E+03  0.83550936839E+03  0.50400001928E-02 0.  1.
</event>
<event>
 5   0  0.1930116E-04  0.1692225E+04  0.7818609E-02  0.8765811E-01
        1   -1    0    0  501    0  0.00000000000E+00  0.00000000000E+00  0.44109048059E+03  0.44109048061E+03  0.50400001928E-02 0.  1.
       -1   -1    0    0    0  501  0.00000000000E+00  0.00000000000E+00 -0.16230381157E+04  0.16230381157E+04  0.50400001928E-02 0. -1.
    10030    2    1    2    0    0  0.00000000000E+00  0.00000000000E+00 -0.11819476351E+04  0.20641285964E+04  0.16922253544E+04 0.  0.
        1    1    3    3  502    0 -0.19153564787E+03  0.48096963394E+03 -0.14073000190E+04  0.14995035968E+04  0.50400001928E-02 0. -1.
       -1    1    3    3    0  502  0.19153564787E+03 -0.48096963394E+03  0.22535238389E+03  0.56462499956E+03  0.50400001928E-02 0.  1.
</event>
<event>
 5   0  0.1930116E-04  0.1718296E+04  0.7818609E-02  0.8750997E-01
        1   -1    0    0  501    0  0.00000000000E+00  0.00000000000E+00  0.10574624719E+04  0.10574624720E+04  0.50400001928E-02 0. -1.
       -1   -1    0    0    0  501  0.00000000000E+00  0.00000000000E+00 -0.69802543101E+03  0.69802543103E+03  0.50400001928E-02 0.  1.
    10030    2    1    2    0    0  0.00000000000E+00  0.00000000000E+00  0.35943704094E+03  0.17554879030E+04  0.17182964794E+04 0.  0.
        1    1    3    3  502    0  0.15595737623E+03  0.22742995387E+03 -0.65158151569E+03  0.70753484631E+03  0.50400001928E-02 0.  1.
       -1    1    3    3    0  502 -0.15595737623E+03 -0.22742995387E+03  0.10110185566E+04  0.10479530567E+04  0.50400001928E-02 0. -1.
</event>
<event>
 5   0  0.1893284E-04  0.1722000E+04  0.7818609E-02  0.8748916E-01
        1   -1    0    0  501    0  0.00000000000E+00  0.00000000000E+00  0.10058383399E+04  0.10058383399E+04  0.50400001928E-02 0. -1.
       -1   -1    0    0    0  501  0.00000000000E+00  0.00000000000E+00 -0.73701788908E+03  0.73701788910E+03  0.50400001928E-02 0.  1.
    10030    2    1    2    0    0  0.00000000000E+00  0.00000000000E+00  0.26882045083E+03  0.17428562290E+04  0.17219998259E+04 0.  0.
        2    1    3    3  502    0 -0.26749386785E+03 -0.35179014561E+03 -0.61346540884E+03  0.75607478713E+03  0.25500000920E-02 0.  1.
       -2    1    3    3    0  502  0.26749386785E+03  0.35179014561E+03  0.88228585967E+03  0.98678144189E+03  0.25500000920E-02 0. -1.
</event>
<event>
 5   0  0.1815663E-04  0.1699506E+04  0.7818609E-02  0.8761646E-01
       -1   -1    0    0    0  501  0.00000000000E+00  0.00000000000E+00  0.84788621917E+03  0.84788621919E+03  0.50400001928E-02 0.  1.
        1   -1    0    0  501    0  0.00000000000E+00  0.00000000000E+00 -0.85162382625E+03  0.85162382626E+03  0.50400001928E-02 0. -1.
    10030    2    1    2    0    0  0.00000000000E+00  0.00000000000E+00 -0.37376070788E+01  0.16995100455E+04  0.16995059355E+04 0.  0.
        5    1    3    3  502    0 -0.15140312051E+03 -0.52853168665E+03  0.64604430629E+03  0.84833011522E+03  0.46999998093E+01 0.  1.
       -5    1    3    3    0  502  0.15140312051E+03  0.52853168665E+03 -0.64978191337E+03  0.85117993023E+03  0.46999998093E+01 0. -1.
</event>
<event>
 5   0  0.3574092E-04  0.1695281E+04  0.7818609E-02  0.8764061E-01
       -2   -1    0    0    0  501  0.00000000000E+00  0.00000000000E+00  0.11280947081E+04  0.11280947081E+04  0.25500000920E-02 0.  1.
        2   -1    0    0  501    0  0.00000000000E+00  0.00000000000E+00 -0.63690934146E+03  0.63690934146E+03  0.25500000920E-02 0. -1.
    10030    2    1    2    0    0  0.00000000000E+00  0.00000000000E+00  0.49118536659E+03  0.17650040495E+04  0.16952805757E+04 0.  0.
        3    1    3    3  502    0  0.50782863287E+03 -0.65598117920E+03  0.42679926563E+03  0.93293024989E+03  0.10100000352E+00 0.  1.
       -3    1    3    3    0  502 -0.50782863287E+03  0.65598117920E+03  0.64386100961E+02  0.83207379962E+03  0.10100000352E+00 0. -1.
</event>
<event>
 5   0  0.1824538E-04  0.1702443E+04  0.7818609E-02  0.8759972E-01
       -1   -1    0    0    0  501  0.00000000000E+00  0.00000000000E+00  0.24646382262E+03  0.24646382267E+03  0.50400001928E-02 0. -1.
        1   -1    0    0  501    0  0.00000000000E+00  0.00000000000E+00 -0.29398976975E+04  0.29398976975E+04  0.50400001928E-02 0.  1.
    10030    2    1    2    0    0  0.00000000000E+00  0.00000000000E+00 -0.26934338749E+04  0.31863615201E+04  0.17024434495E+04 0.  0.
        3    1    3    3  502    0  0.53508219413E+03  0.39108850046E+03 -0.34698206197E+03  0.74810409115E+03  0.10100000352E+00 0. -1.
       -3    1    3    3    0  502 -0.53508219413E+03 -0.39108850046E+03 -0.23464518129E+04  0.24382574290E+04  0.10100000352E+00 0.  1.
</event>
<event>
 5   0  0.1893284E-04  0.1707206E+04  0.7818609E-02  0.8757265E-01
       -1   -1    0    0    0  501  0.00000000000E+00  0.00000000000E+00  0.59952607778E+03  0.59952607780E+03  0.50400001928E-02 0. -1.
        1   -1    0    0  501    0  0.00000000000E+00  0.00000000000E+00 -0.12153566804E+04  0.12153566804E+04  0.50400001928E-02 0.  1.
    10030    2    1    2    0    0  0.00000000000E+00  0.00000000000E+00 -0.61583060262E+03  0.18148827582E+04  0.17072059322E+04 0.  0.
        2    1    3    3  502    0  0.12165502612E+03 -0.11713662682E+03  0.58158889816E+03  0.60561256690E+03  0.25500000920E-02 0. -1.
       -2    1    3    3    0  502 -0.12165502612E+03  0.11713662682E+03 -0.11974195008E+04  0.12092701913E+04  0.25500000920E-02 0.  1.
</event>
<event>
 5   0  0.3573262E-04  0.1685448E+04  0.7818609E-02  0.8769708E-01
        2   -1    0    0  501    0  0.00000000000E+00  0.00000000000E+00  0.25726859487E+04  0.25726859487E+04  0.25500000920E-02 0. -1.
       -2   -1    0    0    0  501  0.00000000000E+00  0.00000000000E+00 -0.27604762973E+03  0.27604762974E+03  0.25500000920E-02 0.  1.
    10030    2    1    2    0    0  0.00000000000E+00  0.00000000000E+00  0.22966383190E+04  0.28487335784E+04  0.16854481401E+04 0.  0.
        5    1    3    3  502    0  0.83537205553E+03 -0.10887187675E+03  0.11846568077E+04  0.14536620648E+04  0.46999998093E+01 0. -1.
       -5    1    3    3    0  502 -0.83537205553E+03  0.10887187675E+03  0.11119815113E+04  0.13950715136E+04  0.46999998093E+01 0.  1.
</event>
<event>
 5   0  0.3574092E-04  0.1577264E+04  0.7818609E-02  0.8834638E-01
        2   -1    0    0  501    0  0.00000000000E+00  0.00000000000E+00  0.18436883651E+04  0.18436883651E+04  0.25500000920E-02 0. -1.
       -2   -1    0    0    0  501  0.00000000000E+00  0.00000000000E+00 -0.33733508574E+03  0.33733508575E+03  0.25500000920E-02 0.  1.
    10030    2    1    2    0    0  0.00000000000E+00  0.00000000000E+00  0.15063532794E+04  0.21810234509E+04  0.15772644328E+04 0.  0.
        3    1    3    3  502    0  0.19627598474E+03  0.18347700166E+03 -0.27209632757E+03  0.38239311448E+03  0.10100000352E+00 0.  1.
       -3    1    3    3    0  502 -0.19627598474E+03 -0.18347700166E+03  0.17784496069E+04  0.17986303364E+04  0.10100000352E+00 0. -1.
</event>
<event>
 5   0  0.1930116E-04  0.1683270E+04  0.7818609E-02  0.8770964E-01
       -1   -1    0    0    0  501  0.00000000000E+00  0.00000000000E+00  0.45260843364E+03  0.45260843367E+03  0.50400001928E-02 0.  1.
        1   -1    0    0  501    0  0.00000000000E+00  0.00000000000E+00 -0.15650376540E+04  0.15650376540E+04  0.50400001928E-02 0. -1.
    10030    2    1    2    0    0  0.00000000000E+00  0.00000000000E+00 -0.11124292203E+04  0.20176460877E+04  0.16832697243E+04 0.  0.
        1    1    3    3  502    0 -0.44285740873E+02 -0.26898369075E+03  0.39822436056E+03  0.48259309372E+03  0.50400001928E-02 0.  1.
       -1    1    3    3    0  502  0.44285740873E+02  0.26898369075E+03 -0.15106535809E+04  0.15350529940E+04  0.50400001928E-02 0. -1.
</event>
<event>
 5   0  0.3605571E-04  0.1669459E+04  0.7818609E-02  0.8778978E-01
        2   -1    0    0  501    0  0.00000000000E+00  0.00000000000E+00  0.67337910643E+03  0.67337910644E+03  0.25500000920E-02 0. -1.
       -2   -1    0    0    0  501  0.00000000000E+00  0.00000000000E+00 -0.10347409746E+04  0.10347409746E+04  0.25500000920E-02 0.  1.
    10030    2    1    2    0    0  0.00000000000E+00  0.00000000000E+00 -0.36136186812E+03  0.17081200810E+04  0.16694585384E+04 0.  0.
        4    1    3    3  502    0  0.17212396280E+03 -0.55478948684E+03  0.43266230652E+03  0.72430402294E+03  0.12699999809E+01 0. -1.
       -4    1    3    3    0  502 -0.17212396280E+03  0.55478948684E+03 -0.79402417464E+03  0.98381605805E+03  0.12699999809E+01 0.  1.
</event>
<event>
 5   0  0.3516723E-04  0.1694572E+04  0.7818609E-02  0.8764466E-01
        2   -1    0    0  501    0  0.00000000000E+00  0.00000000000E+00  0.57385739305E+03  0.57385739306E+03  0.25500000920E-02 0. -1.
       -2   -1    0    0    0  501  0.00000000000E+00  0.00000000000E+00 -0.12509967835E+04  0.12509967835E+04  0.25500000920E-02 0.  1.
    10030    2    1    2    0    0  0.00000000000E+00  0.00000000000E+00 -0.67713939042E+03  0.18248541765E+04  0.16945722208E+04 0.  0.
        1    1    3    3  502    0  0.59278082003E+03 -0.58853498926E+03 -0.18577681540E+03  0.85573100876E+03  0.50400001928E-02 0. -1.
       -1    1    3    3    0  502 -0.59278082003E+03  0.58853498926E+03 -0.49136257502E+03  0.96912316778E+03  0.50400001928E-02 0.  1.
</event>
<event>
 5   0  0.3574092E-04  0.1692256E+04  0.7818609E-02  0.8765793E-01
       -2   -1    0    0    0  501  0.00000000000E+00  0.00000000000E+00  0.10320860009E+04  0.10320860009E+04  0.25500000920E-02 0. -1.
        2   -1    0    0  501    0  0.00000000000E+00  0.00000000000E+00 -0.69367548181E+03  0.69367548182E+03  0.25500000920E-02 0.  1.
    10030    2    1    2    0    0  0.00000000000E+00  0.00000000000E+00  0.33841051910E+03  0.17257614827E+04  0.16922561910E+04 0.  0.
        3    1    3    3  502    0 -0.12372073256E+03 -0.71126877540E+03  0.61921602088E+03  0.95112490307E+03  0.10100000352E+00 0. -1.
       -3    1    3    3    0  502  0.12372073256E+03  0.71126877540E+03 -0.28080550178E+03  0.77463657966E+03  0.10100000352E+00 0.  1.
</event>
<event>
 5   0  0.1815663E-04  0.1703777E+04  0.7818609E-02  0.8759213E-01
        1   -1    0    0  501    0  0.00000000000E+00  0.00000000000E+00  0.13743057640E+04  0.13743057640E+04  0.50400001928E-02 0. -1.
       -1   -1    0    0    0  501  0.00000000000E+00  0.00000000000E+00 -0.52805865351E+03  0.52805865353E+03  0.50400001928E-02 0.  1.
    10030    2    1    2    0    0  0.00000000000E+00  0.00000000000E+00  0.84624711044E+03  0.19023644175E+04  0.17037770409E+04 0.  0.
        5    1    3    3  502    0  0.43267283217E+03  0.73235655428E+03  0.47477634964E+03  0.97415941943E+03  0.46999998093E+01 0.  1.
       -5    1    3    3    0  502 -0.43267283217E+03 -0.73235655428E+03  0.37147076080E+03  0.92820499806E+03  0.46999998093E+01 0. -1.
</event>
<event>
 5   0  0.1893284E-04  0.1704076E+04  0.7818609E-02  0.8759043E-01
       -1   -1    0    0    0  501  0.00000000000E+00  0.00000000000E+00  0.68931478376E+03  0.68931478378E+03  0.50400001928E-02 0. -1.
        1   -1    0    0  501    0  0.00000000000E+00  0.00000000000E+00 -0.10531738996E+04  0.10531738996E+04  0.50400001928E-02 0.  1.
    10030    2    1    2    0    0  0.00000000000E+00  0.00000000000E+00 -0.36385911583E+03  0.17424886834E+04  0.17040755135E+04 0.  0.
        2    1    3    3  502    0 -0.25886582763E+03  0.73141826464E+03  0.17812159411E+03  0.79605998321E+03  0.25500000920E-02 0. -1.
       -2    1    3    3    0  502  0.25886582763E+03 -0.73141826464E+03 -0.54198070995E+03  0.94642870018E+03  0.25500000920E-02 0.  1.
</event>
<event>
 5   0  0.1824538E-04  0.1698021E+04  0.7818609E-02  0.8762494E-01
       -1   -1    0    0    0  501  0.00000000000E+00  0.00000000000E+00  0.80357220803E+03  0.80357220805E+03  0.50400001928E-02 0.  1.
        1   -1    0    0  501    0  0.00000000000E+00  0.00000000000E+00 -0.89701840103E+03  0.89701840104E+03  0.50400001928E-02 0. -1.
    10030    2    1    2    0    0  0.00000000000E+00  0.00000000000E+00 -0.93446192999E+02  0.17005906091E+04  0.16980212686E+04 0.  0.
        3    1    3    3  502    0 -0.68356752368E+02 -0.83725359000E+03 -0.17000618034E+03  0.85706961859E+03  0.10100000352E+00 0. -1.
       -3    1    3    3    0  502  0.68356752368E+02  0.83725359000E+03  0.76559987343E+02  0.84352099050E+03  0.10100000352E+00 0.  1.
</event>
<event>
 5   0  0.3678896E-04  0.1704187E+04  0.7818609E-02  0.8758980E-01
       -2   -1    0    0    0  501  0.00000000000E+00  0.00000000000E+00  0.29476661298E+03  0.29476661300E+03  0.25500000920E-02 0.  1.
        2   -1    0    0  501    0  0.00000000000E+00  0.00000000000E+00 -0.24631797568E+04  0.24631797568E+04  0.25500000920E-02 0. -1.
    10030    2    1    2    0    0  0.00000000000E+00  0.00000000000E+00 -0.21684131438E+04  0.27579463698E+04  0.17041867904E+04 0.  0.
        2    1    3    3  502    0 -0.36030960801E+03  0.31129018733E+03 -0.22277855788E+04  0.22781029783E+04  0.25500000920E-02 0. -1.
       -2    1    3    3    0  502  0.36030960801E+03 -0.31129018733E+03  0.59372435012E+02  0.47984339153E+03  0.25500000920E-02 0.  1.
</event>
<event>
 5   0  0.3605571E-04  0.1699465E+04  0.7818609E-02  0.8761670E-01
       -2   -1    0    0    0  501  0.00000000000E+00  0.00000000000E+00  0.12286989613E+04  0.12286989613E+04  0.25500000920E-02 0. -1.
        2   -1    0    0  501    0  0.00000000000E+00  0.00000000000E+00 -0.58765010797E+03  0.58765010798E+03  0.25500000920E-02 0.  1.
    10030    2    1    2    0    0  0.00000000000E+00  0.00000000000E+00  0.64104885335E+03  0.18163490693E+04  0.16994647125E+04 0.  0.
        4    1    3    3  502    0 -0.61700098324E+03 -0.74131064794E+02  0.93991545042E+03  0.11267778374E+04  0.12699999809E+01 0. -1.
       -4    1    3    3    0  502  0.61700098324E+03  0.74131064794E+02 -0.29886659707E+03  0.68957123187E+03  0.12699999809E+01 0.  1.
</event>
<event>
 5   0  0.1893284E-04  0.1714823E+04  0.7818609E-02  0.8752955E-01
        1   -1    0    0  501    0  0.00000000000E+00  0.00000000000E+00  0.11255507353E+04  0.11255507354E+04  0.50400001928E-02 0.  1.
       -1   -1    0    0    0  501  0.00000000000E+00  0.00000000000E+00 -0.65315112871E+03  0.65315112873E+03  0.50400001928E-02 0. -1.
    10030    2    1    2    0    0  0.00000000000E+00  0.00000000000E+00  0.47239960663E+03  0.17787018641E+04  0.17148232950E+04 0.  0.
        2    1    3    3  502    0  0.82529952085E+03 -0.12989929786E+03  0.36245375341E+02  0.83624568994E+03  0.25500000920E-02 0. -1.
       -2    1    3    3    0  502 -0.82529952085E+03  0.12989929786E+03  0.43615423129E+03  0.94245617415E+03  0.25500000920E-02 0.  1.
</event>
<event>
 5   0  0.1815663E-04  0.1695911E+04  0.7818609E-02  0.8763700E-01
        1   -1    0    0  501    0  0.00000000000E+00  0.00000000000E+00  0.69079852874E+03  0.69079852876E+03  0.50400001928E-02 0.  1.
       -1   -1    0    0    0  501  0.00000000000E+00  0.00000000000E+00 -0.10408660602E+04  0.10408660603E+04  0.50400001928E-02 0. -1.
    10030    2    1    2    0    0  0.00000000000E+00  0.00000000000E+00 -0.35006753150E+03  0.17316645890E+04  0.16959112513E+04 0.  0.
        5    1    3    3  502    0 -0.63793763722E+03 -0.50137202706E+03  0.76468336496E+02  0.81498946925E+03  0.46999998093E+01 0.  1.
       -5    1    3    3    0  502  0.63793763722E+03  0.50137202706E+03 -0.42653586800E+03  0.91667511976E+03  0.46999998093E+01 0. -1.
</event>
<event>
 5   0  0.1893284E-04  0.1691429E+04  0.7818609E-02  0.8766268E-01
        1   -1    0    0  501    0  0.00000000000E+00  0.00000000000E+00  0.38990130740E+03  0.38990130743E+03  0.50400001928E-02 0.  1.
       -1   -1    0    0    0  501  0.00000000000E+00  0.00000000000E+00 -0.18343958073E+04  0.18343958073E+04  0.50400001928E-02 0. -1.
    10030    2    1    2    0    0  0.00000000000E+00  0.00000000000E+00 -0.14444944999E+04  0.22242971147E+04  0.16914293643E+04 0.  0.
        2    1    3    3  502    0  0.78672488779E+03  0.17149767604E+03 -0.38214777165E+03  0.89128245878E+03  0.25500000920E-02 0.  1.
       -2    1    3    3    0  502 -0.78672488779E+03 -0.17149767604E+03 -0.10623467283E+04  0.13330146560E+04  0.25500000920E-02 0. -1.
</event>
<event>
 5   0  0.3678896E-04  0.1744777E+04  0.7818609E-02  0.8736231E-01
       -2   -1    0    0    0  501  0.00000000000E+00  0.00000000000E+00  0.31982389328E+03  0.31982389329E+03  0.25500000920E-02 0. -1.
        2   -1    0    0  501    0  0.00000000000E+00  0.00000000000E+00 -0.23796268660E+04  0.23796268660E+04  0.25500000920E-02 0.  1.
    10030    2    1    2    0    0  0.00000000000E+00  0.00000000000E+00 -0.20598029727E+04  0.26994507593E+04  0.17447768096E+04 0.  0.
        2    1    3    3  502    0 -0.30421618848E+03 -0.50378646296E+03 -0.33557096814E+02  0.58946956524E+03  0.25500000920E-02 0. -1.
       -2    1    3    3    0  502  0.30421618848E+03  0.50378646296E+03 -0.20262458759E+04  0.21099811940E+04  0.25500000920E-02 0.  1.
</event>
<event>
 5   0  0.3574092E-04  0.1697229E+04  0.7818609E-02  0.8762946E-01
        2   -1    0    0  501    0  0.00000000000E+00  0.00000000000E+00  0.17198011682E+04  0.17198011682E+04  0.25500000920E-02 0.  1.
       -2   -1    0    0    0  501  0.00000000000E+00  0.00000000000E+00 -0.41873846579E+03  0.41873846580E+03  0.25500000920E-02 0. -1.
    10030    2    1    2    0    0  0.00000000000E+00  0.00000000000E+00  0.13010627024E+04  0.21385396340E+04  0.16972293924E+04 0.  0.
        3    1    3    3  502    0 -0.74940836193E+03 -0.37303195894E+03  0.82594630383E+03  0.11759902391E+04  0.10100000352E+00 0.  1.
       -3    1    3    3    0  502  0.74940836193E+03  0.37303195894E+03  0.47511639858E+03  0.96254939495E+03  0.10100000352E+00 0. -1.
</event>
<event>
 5   0  0.3678896E-04  0.1709993E+04  0.7818609E-02  0.8755685E-01
        2   -1    0    0  501    0  0.00000000000E+00  0.00000000000E+00  0.23278706647E+04  0.23278706647E+04  0.25500000920E-02 0. -1.
       -2   -1    0    0    0  501  0.00000000000E+00  0.00000000000E+00 -0.31402905710E+03  0.31402905712E+03  0.25500000920E-02 0.  1.
    10030    2    1    2    0    0  0.00000000000E+00  0.00000000000E+00  0.20138416076E+04  0.26418997218E+04  0.17099930174E+04 0.  0.
        2    1    3    3  502    0  0.24214793541E+03 -0.81941868976E+03  0.95964304253E+03  0.12849114292E+04  0.25500000920E-02 0. -1.
       -2    1    3    3    0  502 -0.24214793541E+03  0.81941868976E+03  0.10541985651E+04  0.13569882926E+04  0.25500000920E-02 0.  1.
</event>
<event>
 5   0  0.1824538E-04  0.1879414E+04  0.7818609E-02  0.8665172E-01
        1   -1    0    0  501    0  0.00000000000E+00  0.00000000000E+00  0.25715961888E+04  0.25715961888E+04  0.50400001928E-02 0.  1.
       -1   -1    0    0    0  501  0.00000000000E+00  0.00000000000E+00 -0.34338550360E+03  0.34338550364E+03  0.50400001928E-02 0. -1.
    10030    2    1    2    0    0  0.00000000000E+00  0.00000000000E+00  0.22282106852E+04  0.29149816925E+04  0.18794135813E+04 0.  0.
        3    1    3    3  502    0 -0.29647808122E+03 -0.40103390853E+03  0.23493931367E+04  0.24017442765E+04  0.10100000352E+00 0.  1.
       -3    1    3    3    0  502  0.29647808122E+03  0.40103390853E+03 -0.12118245150E+03  0.51323741600E+03  0.10100000352E+00 0. -1.
</event>
<event>
 5   0  0.1815663E-04  0.1572362E+04  0.7818609E-02  0.8837709E-01
       -1   -1    0    0    0  501  0.00000000000E+00  0.00000000000E+00  0.39467358037E+03  0.39467358040E+03  0.50400001928E-02 0. -1.
        1   -1    0    0  501    0  0.00000000000E+00  0.00000000000E+00 -0.15660556294E+04  0.15660556294E+04  0.50400001928E-02 0.  1.
    10030    2    1    2    0    0  0.00000000000E+00  0.00000000000E+00 -0.11713820490E+04  0.19607292098E+04  0.15723622768E+04 0.  0.
        5    1    3    3  502    0 -0.18192218914E+03  0.13601804656E+02 -0.15392784504E+04  0.15500583633E+04  0.46999998093E+01 0.  1.
       -5    1    3    3    0  502  0.18192218914E+03 -0.13601804656E+02  0.36789640136E+03  0.41067084645E+03  0.46999998093E+01 0. -1.
</event>
<event>
 5   0  0.3573262E-04  0.1688992E+04  0.7818609E-02  0.8767668E-01
        2   -1    0    0  501    0  0.00000000000E+00  0.00000000000E+00  0.60853112302E+03  0.60853112303E+03  0.25500000920E-02 0. -1.
       -2   -1    0    0    0  501  0.00000000000E+00  0.00000000000E+00 -0.11719586701E+04  0.11719586701E+04  0.25500000920E-02 0.  1.
    10030    2    1    2    0    0  0.00000000000E+00  0.00000000000E+00 -0.56342754704E+03  0.17804897931E+04  0.16889918006E+04 0.  0.
        5    1    3    3  502    0  0.11373129859E+03 -0.47585435241E+03 -0.10073181263E+04  0.11198589512E+04  0.46999998093E+01 0.  1.
       -5    1    3    3    0  502 -0.11373129859E+03  0.47585435241E+03  0.44389057923E+03  0.66063084193E+03  0.46999998093E+01 0. -1.
</event>
<event>
 5   0  0.1815663E-04  0.1694731E+04  0.7818609E-02  0.8764375E-01
       -1   -1    0    0    0  501  0.00000000000E+00  0.00000000000E+00  0.11869087283E+04  0.11869087284E+04  0.50400001928E-02 0.  1.
        1   -1    0    0  501    0  0.00000000000E+00  0.00000000000E+00 -0.60495655651E+03  0.60495655653E+03  0.50400001928E-02 0. -1.
    10030    2    1    2    0    0  0.00000000000E+00  0.00000000000E+00  0.58195217184E+03  0.17918652849E+04  0.16947309134E+04 0.  0.
        5    1    3    3  502    0  0.12177754370E+03  0.52946694475E+03  0.97850854598E+03  0.11192256610E+04  0.46999998093E+01 0.  1.
       -5    1    3    3    0  502 -0.12177754370E+03 -0.52946694475E+03 -0.39655637414E+03  0.67263962387E+03  0.46999998093E+01 0. -1.
</event>
<event>
 5   0  0.1893284E-04  0.1734394E+04  0.7818609E-02  0.8741988E-01
        1   -1    0    0  501    0  0.00000000000E+00  0.00000000000E+00  0.11870455082E+04  0.11870455082E+04  0.50400001928E-02 0.  1.
       -1   -1    0    0    0  501  0.00000000000E+00  0.00000000000E+00 -0.63353144799E+03  0.63353144801E+03  0.50400001928E-02 0. -1.
    10030    2    1    2    0    0  0.00000000000E+00  0.00000000000E+00  0.55351406020E+03  0.18205769562E+04  0.17343940264E+04 0.  0.
        2    1    3    3  502    0 -0.27017371294E+03  0.87999159162E+01 -0.58817737073E+03  0.64732054897E+03  0.25500000920E-02 0. -1.
       -2    1    3    3    0  502  0.27017371294E+03 -0.87999159162E+01  0.11416914309E+04  0.11732564072E+04  0.25500000920E-02 0.  1.
</event>
<event>
 5   0  0.3573262E-04  0.1652519E+04  0.7818609E-02  0.8788918E-01
        2   -1    0    0  501    0  0.00000000000E+00  0.00000000000E+00  0.71735731144E+03  0.71735731145E+03  0.25500000920E-02 0.  1.
       -2   -1    0    0    0  501  0.00000000000E+00  0.00000000000E+00 -0.95169401406E+03  0.95169401406E+03  0.25500000920E-02 0. -1.
    10030    2    1    2    0    0  0.00000000000E+00  0.00000000000E+00 -0.23433670261E+03  0.16690513255E+04  0.16525188764E+04 0.  0.
        5    1    3    3  502    0  0.50965424054E+03 -0.64654706706E+03 -0.18795528166E+03  0.84446422821E+03  0.46999998093E+01 0.  1.
       -5    1    3    3    0  502 -0.50965424054E+03  0.64654706706E+03 -0.46381420952E+02  0.82458709730E+03  0.46999998093E+01 0. -1.
</event>
<event>
 5   0  0.1930116E-04  0.1625204E+04  0.7818609E-02  0.8805212E-01
        1   -1    0    0  501    0  0.00000000000E+00  0.00000000000E+00  0.64862500937E+03  0.64862500939E+03  0.50400001928E-02 0. -1.
       -1   -1    0    0    0  501  0.00000000000E+00  0.00000000000E+00 -0.10180336255E+04  0.10180336255E+04  0.50400001928E-02 0.  1.
    10030    2    1    2    0    0  0.00000000000E+00  0.00000000000E+00 -0.36940861609E+03  0.16666586349E+04  0.16252040732E+04 0.  0.
        1    1    3    3  502    0  0.24703615098E+03  0.77405470736E+03 -0.17281019298E+03  0.83069303157E+03  0.50400001928E-02 0. -1.
       -1    1    3    3    0  502 -0.24703615098E+03 -0.77405470736E+03 -0.19659842310E+03  0.83596560328E+03  0.50400001928E-02 0.  1.
</event>
<event>
 5   0  0.3574092E-04  0.1690456E+04  0.7818609E-02  0.8766826E-01
        2   -1    0    0  501    0  0.00000000000E+00  0.00000000000E+00  0.32159721162E+04  0.32159721162E+04  0.25500000920E-02 0.  1.
       -2   -1    0    0    0  501  0.00000000000E+00  0.00000000000E+00 -0.22214446016E+03  0.22214446017E+03  0.25500000920E-02 0. -1.
    10030    2    1    2    0    0  0.00000000000E+00  0.00000000000E+00  0.29938276560E+04  0.34381165763E+04  0.16904560209E+04 0.  0.
        3    1    3    3  502    0 -0.21001319621E+03  0.78443094520E+03  0.19737741201E+04  0.21342965441E+04  0.10100000352E+00 0. -1.
       -3    1    3    3    0  502  0.21001319621E+03 -0.78443094520E+03  0.10200535359E+04  0.13038200323E+04  0.10100000352E+00 0.  1.
</event>
<event>
 5   0  0.3516723E-04  0.1715401E+04  0.7818609E-02  0.8752629E-01
        2   -1    0    0  501    0  0.00000000000E+00  0.00000000000E+00  0.95616042520E+03  0.95616042520E+03  0.25500000920E-02 0. -1.
       -2   -1    0    0    0  501  0.00000000000E+00  0.00000000000E+00 -0.76937986094E+03  0.76937986094E+03  0.25500000920E-02 0.  1.
    10030    2    1    2    0    0  0.00000000000E+00  0.00000000000E+00  0.18678056426E+03  0.17255402861E+04  0.17154014982E+04 0.  0.
        1    1    3    3  502    0 -0.23572387791E+02 -0.34755875661E+03  0.88179426233E+03  0.94811068335E+03  0.50400001928E-02 0. -1.
       -1    1    3    3    0  502  0.23572387791E+02  0.34755875661E+03 -0.69501369808E+03  0.77742960280E+03  0.50400001928E-02 0.  1.
</event>
<event>
 5   0  0.3574092E-04  0.1711760E+04  0.7818609E-02  0.8754685E-01
       -2   -1    0    0    0  501  0.00000000000E+00  0.00000000000E+00  0.57371986318E+03  0.57371986319E+03  0.25500000920E-02 0.  1.
        2   -1    0    0  501    0  0.00000000000E+00  0.00000000000E+00 -0.12768090779E+04  0.12768090779E+04  0.25500000920E-02 0. -1.
    10030    2    1    2    0    0  0.00000000000E+00  0.00000000000E+00 -0.70308921473E+03  0.18505289411E+04  0.17117601812E+04 0.  0.
        3    1    3    3  502    0 -0.10653281229E+02 -0.30469009132E+03 -0.12161158745E+04  0.12537493268E+04  0.10100000352E+00 0. -1.
       -3    1    3    3    0  502  0.10653281229E+02  0.30469009132E+03  0.51302665978E+03  0.59677961426E+03  0.10100000352E+00 0.  1.
</event>
<event>
 5   0  0.1893284E-04  0.1720855E+04  0.7818609E-02  0.8749559E-01
        1   -1    0    0  501    0  0.00000000000E+00  0.00000000000E+00  0.21118401708E+04  0.21118401708E+04  0.50400001928E-02 0.  1.
       -1   -1    0    0    0  501  0.00000000000E+00  0.00000000000E+00 -0.35056409659E+03  0.35056409663E+03  0.50400001928E-02 0. -1.
    10030    2    1    2    0    0  0.00000000000E+00  0.00000000000E+00  0.17612760742E+04  0.24624042675E+04  0.17208548360E+04 0.  0.
        2    1    3    3  502    0  0.31777161033E+03 -0.91555048277E+02 -0.25599670299E+03  0.41820501569E+03  0.25500000920E-02 0. -1.
       -2    1    3    3    0  502 -0.31777161033E+03  0.91555048277E+02  0.20172727772E+04  0.20441992518E+04  0.25500000920E-02 0.  1.
</event>
<event>
 5   0  0.3605571E-04  0.1814143E+04  0.7818609E-02  0.8698814E-01
        2   -1    0    0  501    0  0.00000000000E+00  0.00000000000E+00  0.18342571714E+04  0.18342571714E+04  0.25500000920E-02 0. -1.
       -2   -1    0    0    0  501  0.00000000000E+00  0.00000000000E+00 -0.44856240254E+03  0.44856240255E+03  0.25500000920E-02 0.  1.
    10030    2    1    2    0    0  0.00000000000E+00  0.00000000000E+00  0.13856947689E+04  0.22828195739E+04  0.18141431076E+04 0.  0.
        4    1    3    3  502    0  0.42944922631E+02 -0.30660462489E+03  0.17657129431E+04  0.17926501256E+04  0.12699999809E+01 0. -1.
       -4    1    3    3    0  502 -0.42944922631E+02  0.30660462489E+03 -0.38001817429E+03  0.49016944833E+03  0.12699999809E+01 0.  1.
</event>
<event>
 5   0  0.1815663E-04  0.1663861E+04  0.7818609E-02  0.8782248E-01
       -1   -1    0    0    0  501  0.00000000000E+00  0.00000000000E+00  0.59605977248E+03  0.59605977250E+03  0.50400001928E-02 0. -1.
        1   -1    0    0  501    0  0.00000000000E+00  0.00000000000E+00 -0.11611390987E+04  0.11611390987E+04  0.50400001928E-02 0.  1.
    10030    2    1    2    0    0  0.00000000000E+00  0.00000000000E+00 -0.56507932621E+03  0.17571988712E+04  0.16638609401E+04 0.  0.
        5    1    3    3  502    0 -0.64463395718E+03  0.40451213774E+03  0.72320323110E+02  0.76448369993E+03  0.46999998093E+01 0.  1.
       -5    1    3    3    0  502  0.64463395718E+03 -0.40451213774E+03 -0.63739964932E+03  0.99271517127E+03  0.46999998093E+01 0. -1.
</event>
<event>
 5   0  0.1317625E-04  0.1718059E+04  0.7818609E-02  0.8751131E-01
        4   -1    0    0  501    0  0.00000000000E+00  0.00000000000E+00  0.50338461852E+03  0.50338622058E+03  0.12699999809E+01 0. -1.
       -4   -1    0    0    0  501  0.00000000000E+00  0.00000000000E+00 -0.14659362013E+04  0.14659367515E+04  0.12699999809E+01 0.  1.
    10030    2    1    2    0    0  0.00000000000E+00  0.00000000000E+00 -0.96255158282E+03  0.19693229720E+04  0.17180592011E+04 0.  0.
        3    1    3    3  502    0  0.79643102445E+03 -0.68535986189E+02 -0.12074044804E+03  0.80844160216E+03  0.10100000352E+00 0. -1.
       -3    1    3    3    0  502 -0.79643102445E+03  0.68535986189E+02 -0.84181113478E+03  0.11608813699E+04  0.10100000352E+00 0.  1.
</event>
<event>
 5   0  0.1317625E-04  0.1694664E+04  0.7818609E-02  0.8764413E-01
        3   -1    0    0  501    0  0.00000000000E+00  0.00000000000E+00  0.17067465457E+04  0.17067465487E+04  0.10100000352E+00 0.  1.
       -3   -1    0    0    0  501  0.00000000000E+00  0.00000000000E+00 -0.42066695496E+03  0.42066696709E+03  0.10100000352E+00 0. -1.
    10030    2    1    2    0    0  0.00000000000E+00  0.00000000000E+00  0.12860795908E+04  0.21274135158E+04  0.16946644368E+04 0.  0.
        3    1    3    3  502    0  0.66840775001E+03 -0.24188035311E+03  0.64079568076E+02  0.71370948343E+03  0.10100000352E+00 0. -1.
       -3    1    3    3    0  502 -0.66840775001E+03  0.24188035311E+03  0.12220000227E+04  0.14137040324E+04  0.10100000352E+00 0.  1.
</event>
<event>
 5   0  0.1893284E-04  0.1678450E+04  0.7818609E-02  0.8773751E-01
        1   -1    0    0  501    0  0.00000000000E+00  0.00000000000E+00  0.57157607442E+03  0.57157607444E+03  0.50400001928E-02 0.  1.
       -1   -1    0    0    0  501  0.00000000000E+00  0.00000000000E+00 -0.12322049067E+04  0.12322049067E+04  0.50400001928E-02 0. -1.
    10030    2    1    2    0    0  0.00000000000E+00  0.00000000000E+00 -0.66062883226E+03  0.18037809811E+04  0.16784502894E+04 0.  0.
        2    1    3    3  502    0 -0.36528308915E+02  0.36661359434E+03  0.48001776932E+03  0.60510900156E+03  0.25500000920E-02 0.  1.
       -2    1    3    3    0  502  0.36528308915E+02 -0.36661359434E+03 -0.11406466016E+04  0.11986719796E+04  0.25500000920E-02 0. -1.
</event>
<event>
 5   0  0.1824538E-04  0.1707150E+04  0.7818609E-02  0.8757297E-01
       -1   -1    0    0    0  501  0.00000000000E+00  0.00000000000E+00  0.88813835605E+03  0.88813835606E+03  0.50400001928E-02 0.  1.
        1   -1    0    0  501    0  0.00000000000E+00  0.00000000000E+00 -0.82035705976E+03  0.82035705978E+03  0.50400001928E-02 0. -1.
    10030    2    1    2    0    0  0.00000000000E+00  0.00000000000E+00  0.67781296284E+02  0.17084954158E+04  0.17071503396E+04 0.  0.
        3    1    3    3  502    0  0.44389290827E+03  0.22076350755E+03  0.72928567524E+03  0.88183617900E+03  0.10100000352E+00 0.  1.
       -3    1    3    3    0  502 -0.44389290827E+03 -0.22076350755E+03 -0.66150437895E+03  0.82665923684E+03  0.10100000352E+00 0. -1.
</event>
<event>
 5   0  0.1815663E-04  0.1699919E+04  0.7818609E-02  0.8761410E-01
       -1   -1    0    0    0  501  0.00000000000E+00  0.00000000000E+00  0.46947749001E+03  0.46947749003E+03  0.50400001928E-02 0.  1.
        1   -1    0    0  501    0  0.00000000000E+00  0.00000000000E+00 -0.15387991112E+04  0.15387991112E+04  0.50400001928E-02 0. -1.
    10030    2    1    2    0    0  0.00000000000E+00  0.00000000000E+00 -0.10693216212E+04  0.20082766013E+04  0.16999194621E+04 0.  0.
        5    1    3    3  502    0 -0.53139737845E+02 -0.60300945039E+02  0.46496244825E+03  0.47188155717E+03  0.46999998093E+01 0.  1.
       -5    1    3    3    0  502  0.53139737845E+02  0.60300945039E+02 -0.15342840695E+04  0.15363950441E+04  0.46999998093E+01 0. -1.
</event>
<event>
 5   0  0.3573262E-04  0.1660582E+04  0.7818609E-02  0.8784171E-01
        2   -1    0    0  501    0  0.00000000000E+00  0.00000000000E+00  0.82903399121E+03  0.82903399121E+03  0.25500000920E-02 0. -1.
       -2   -1    0    0    0  501  0.00000000000E+00  0.00000000000E+00 -0.83155021029E+03  0.83155021029E+03  0.25500000920E-02 0.  1.
    10030    2    1    2    0    0  0.00000000000E+00  0.00000000000E+00 -0.25162190769E+01  0.16605842015E+04  0.16605822951E+04 0.  0.
        5    1    3    3  502    0 -0.43033288241E+03  0.70020813141E+03 -0.11908643646E+03  0.83047064146E+03  0.46999998093E+01 0.  1.
       -5    1    3    3    0  502  0.43033288241E+03 -0.70020813141E+03  0.11657021738E+03  0.83011356004E+03  0.46999998093E+01 0. -1.
</event>
<event>
 5   0  0.1930116E-04  0.1678307E+04  0.7818609E-02  0.8773835E-01
        1   -1    0    0  501    0  0.00000000000E+00  0.00000000000E+00  0.18660628833E+04  0.18660628833E+04  0.50400001928E-02 0. -1.
       -1   -1    0    0    0  501  0.00000000000E+00  0.00000000000E+00 -0.37736041042E+03  0.37736041046E+03  0.50400001928E-02 0.  1.
    10030    2    1    2    0    0  0.00000000000E+00  0.00000000000E+00  0.14887024729E+04  0.22434232938E+04  0.16783065936E+04 0.  0.
        1    1    3    3  502    0 -0.76579692570E+03  0.32177746928E+03  0.58510445380E+03  0.10160378404E+04  0.50400001928E-02 0.  1.
       -1    1    3    3    0  502  0.76579692570E+03 -0.32177746928E+03  0.90359801908E+03  0.12273854534E+04  0.50400001928E-02 0. -1.
</event>
<event>
 5   0  0.1815663E-04  0.1706772E+04  0.7818609E-02  0.8757511E-01
       -1   -1    0    0    0  501  0.00000000000E+00  0.00000000000E+00  0.11687943424E+04  0.11687943424E+04  0.50400001928E-02 0. -1.
        1   -1    0    0  501    0  0.00000000000E+00  0.00000000000E+00 -0.62309304234E+03  0.62309304236E+03  0.50400001928E-02 0.  1.
    10030    2    1    2    0    0  0.00000000000E+00  0.00000000000E+00  0.54570130001E+03  0.17918873847E+04  0.17067719504E+04 0.  0.
        5    1    3    3  502    0 -0.63316830406E+02  0.50803368558E+03 -0.44394044701E+03  0.67765216534E+03  0.46999998093E+01 0.  1.
       -5    1    3    3    0  502  0.63316830406E+02 -0.50803368558E+03  0.98964174702E+03  0.11142352194E+04  0.46999998093E+01 0. -1.
</event>
<event>
 5   0  0.1920289E-04  0.1699655E+04  0.7818609E-02  0.8761561E-01
       -1   -1    0    0    0  501  0.00000000000E+00  0.00000000000E+00  0.15405406821E+04  0.15405406821E+04  0.50400001928E-02 0.  1.
        1   -1    0    0  501    0  0.00000000000E+00  0.00000000000E+00 -0.46880076489E+03  0.46880076491E+03  0.50400001928E-02 0. -1.
    10030    2    1    2    0    0  0.00000000000E+00  0.00000000000E+00  0.10717399172E+04  0.20093414471E+04  0.16996548475E+04 0.  0.
        4    1    3    3  502    0  0.23521858861E+03 -0.76924024647E+03  0.21179315200E+03  0.83181505959E+03  0.12699999809E+01 0.  1.
       -4    1    3    3    0  502 -0.23521858861E+03  0.76924024647E+03  0.85994676525E+03  0.11775263875E+04  0.12699999809E+01 0. -1.
</event>
<event>
 5   0  0.1893284E-04  0.1686282E+04  0.7818609E-02  0.8769227E-01
        1   -1    0    0  501    0  0.00000000000E+00  0.00000000000E+00  0.13117350612E+04  0.13117350612E+04  0.50400001928E-02 0. -1.
       -1   -1    0    0    0  501  0.00000000000E+00  0.00000000000E+00 -0.54194406623E+03  0.54194406625E+03  0.50400001928E-02 0.  1.
    10030    2    1    2    0    0  0.00000000000E+00  0.00000000000E+00  0.76979099493E+03  0.18536791274E+04  0.16862823404E+04 0.  0.
        2    1    3    3  502    0 -0.18065381382E+03  0.14620603290E+02 -0.52027651098E+03  0.55094211164E+03  0.25500000920E-02 0.  1.
       -2    1    3    3    0  502  0.18065381382E+03 -0.14620603290E+02  0.12900675059E+04  0.13027370158E+04  0.25500000920E-02 0. -1.
</event>
<event>
 5   0  0.3678896E-04  0.1661482E+04  0.7818609E-02  0.8783642E-01
       -2   -1    0    0    0  501  0.00000000000E+00  0.00000000000E+00  0.88637564734E+03  0.88637564734E+03  0.25500000920E-02 0.  1.
        2   -1    0    0  501    0  0.00000000000E+00  0.00000000000E+00 -0.77859880280E+03  0.77859880280E+03  0.25500000920E-02 0. -1.
    10030    2    1    2    0    0  0.00000000000E+00  0.00000000000E+00  0.10777684454E+03  0.16649744501E+04  0.16614824921E+04 0.  0.
        2    1    3    3  502    0 -0.18473384222E+03  0.29522807477E+03 -0.70191473871E+03  0.78356270267E+03  0.25500000920E-02 0. -1.
       -2    1    3    3    0  502  0.18473384222E+03 -0.29522807477E+03  0.80969158325E+03  0.88141174747E+03  0.25500000920E-02 0.  1.
</event>
<event>
 5   0  0.3574092E-04  0.1715330E+04  0.7818609E-02  0.8752669E-01
       -2   -1    0    0    0  501  0.00000000000E+00  0.00000000000E+00  0.12179298986E+04  0.12179298986E+04  0.25500000920E-02 0.  1.
        2   -1    0    0  501    0  0.00000000000E+00  0.00000000000E+00 -0.60396661285E+03  0.60396661285E+03  0.25500000920E-02 0. -1.
    10030    2    1    2    0    0  0.00000000000E+00  0.00000000000E+00  0.61396328573E+03  0.18218965114E+04  0.17153297007E+04 0.  0.
        3    1    3    3  502    0  0.27949478062E+03 -0.27665663828E+03 -0.50255969436E+03  0.63813986280E+03  0.10100000352E+00 0. -1.
       -3    1    3    3    0  502 -0.27949478062E+03  0.27665663828E+03  0.11165229801E+04  0.11837566486E+04  0.10100000352E+00 0.  1.
</event>
<event>
 5   0  0.3605571E-04  0.1672847E+04  0.7818609E-02  0.8777004E-01
        2   -1    0    0  501    0  0.00000000000E+00  0.00000000000E+00  0.72623850258E+03  0.72623850259E+03  0.25500000920E-02 0.  1.
       -2   -1    0    0    0  501  0.00000000000E+00  0.00000000000E+00 -0.96332577279E+03  0.96332577280E+03  0.25500000920E-02 0. -1.
    10030    2    1    2    0    0  0.00000000000E+00  0.00000000000E+00 -0.23708727021E+03  0.16895642754E+04  0.16728469945E+04 0.  0.
        4    1    3    3  502    0 -0.35906090404E+03 -0.16166760292E+02 -0.88135044079E+03  0.95182262493E+03  0.12699999809E+01 0. -1.
       -4    1    3    3    0  502  0.35906090404E+03  0.16166760292E+02  0.64426317058E+03  0.73774165046E+03  0.12699999809E+01 0.  1.
</event>
<event>
 5   0  0.1815663E-04  0.1696646E+04  0.7818609E-02  0.8763279E-01
       -1   -1    0    0    0  501  0.00000000000E+00  0.00000000000E+00  0.17353483556E+04  0.17353483556E+04  0.50400001928E-02 0. -1.
        1   -1    0    0  501    0  0.00000000000E+00  0.00000000000E+00 -0.41470182163E+03  0.41470182166E+03  0.50400001928E-02 0.  1.
    10030    2    1    2    0    0  0.00000000000E+00  0.00000000000E+00  0.13206465340E+04  0.21500501773E+04  0.16966462499E+04 0.  0.
        5    1    3    3  502    0 -0.30984027044E+03 -0.59514886122E+02 -0.33756890098E+03  0.46207993655E+03  0.46999998093E+01 0.  1.
       -5    1    3    3    0  502  0.30984027044E+03  0.59514886122E+02  0.16582154350E+04  0.16879702408E+04  0.46999998093E+01 0. -1.
</event>
<event>
 5   0  0.3516723E-04  0.1703551E+04  0.7818609E-02  0.8759342E-01
        2   -1    0    0  501    0  0.00000000000E+00  0.00000000000E+00  0.10326987750E+04  0.10326987750E+04  0.25500000920E-02 0. -1.
       -2   -1    0    0    0  501  0.00000000000E+00  0.00000000000E+00 -0.70254907768E+03  0.70254907768E+03  0.25500000920E-02 0.  1.
    10030    2    1    2    0    0  0.00000000000E+00  0.00000000000E+00  0.33014969735E+03  0.17352478527E+04  0.17035510816E+04 0.  0.
        1    1    3    3  502    0 -0.72335344426E+03 -0.37853760951E+03 -0.82324143725E+02  0.82055358863E+03  0.50400001928E-02 0.  1.
       -1    1    3    3    0  502  0.72335344426E+03  0.37853760951E+03  0.41247384107E+03  0.91469426408E+03  0.50400001928E-02 0. -1.
</event>
<event>
 5   0  0.3573262E-04  0.1696192E+04  0.7818609E-02  0.8763539E-01
        2   -1    0    0  501    0  0.00000000000E+00  0.00000000000E+00  0.12622264315E+04  0.12622264315E+04  0.25500000920E-02 0. -1.
       -2   -1    0    0    0  501  0.00000000000E+00  0.00000000000E+00 -0.56983945320E+03  0.56983945321E+03  0.25500000920E-02 0.  1.
    10030    2    1    2    0    0  0.00000000000E+00  0.00000000000E+00  0.69238697828E+03  0.18320658847E+04  0.16961915217E+04 0.  0.
        5    1    3    3  502    0 -0.10635014203E+03 -0.43863011271E+03 -0.42933252940E+03  0.62294079918E+03  0.46999998093E+01 0.  1.
       -5    1    3    3    0  502  0.10635014203E+03  0.43863011271E+03  0.11217195077E+04  0.12091250855E+04  0.46999998093E+01 0. -1.
</event>
<event>
 5   0  0.1920289E-04  0.1707167E+04  0.7818609E-02  0.8757287E-01
       -1   -1    0    0    0  501  0.00000000000E+00  0.00000000000E+00  0.47568698834E+03  0.47568698836E+03  0.50400001928E-02 0. -1.
        1   -1    0    0  501    0  0.00000000000E+00  0.00000000000E+00 -0.15316892926E+04  0.15316892926E+04  0.50400001928E-02 0.  1.
    10030    2    1    2    0    0  0.00000000000E+00  0.00000000000E+00 -0.10560023042E+04  0.20073762810E+04  0.17071668538E+04 0.  0.
        4    1    3    3  502    0  0.57040990543E+03  0.64177380152E+02 -0.12708541050E+04  0.13944740820E+04  0.12699999809E+01 0.  1.
       -4    1    3    3    0  502 -0.57040990543E+03 -0.64177380152E+02  0.21485180071E+03  0.61290219897E+03  0.12699999809E+01 0. -1.
</event>
<event>
 5   0  0.1893284E-04  0.1724777E+04  0.7818609E-02  0.8747358E-01
        1   -1    0    0  501    0  0.00000000000E+00  0.00000000000E+00  0.85251029645E+03  0.85251029647E+03  0.50400001928E-02 0. -1.
       -1   -1    0    0    0  501  0.00000000000E+00  0.00000000000E+00 -0.87238137041E+03  0.87238137043E+03  0.50400001928E-02 0.  1.
    10030    2    1    2    0    0  0.00000000000E+00  0.00000000000E+00 -0.19871073963E+02  0.17248916669E+04  0.17247772039E+04 0.  0.
        2    1    3    3  502    0  0.49303202976E+03 -0.66021154688E+03  0.24454987852E+03  0.85951411396E+03  0.25500000920E-02 0. -1.
       -2    1    3    3    0  502 -0.49303202976E+03  0.66021154688E+03 -0.26442095248E+03  0.86537755294E+03  0.25500000920E-02 0.  1.
</event>
<event>
 5   0  0.1893284E-04  0.1698182E+04  0.7818609E-02  0.8762402E-01
       -1   -1    0    0    0  501  0.00000000000E+00  0.00000000000E+00  0.67107250641E+03  0.67107250643E+03  0.50400001928E-02 0.  1.
        1   -1    0    0  501    0  0.00000000000E+00  0.00000000000E+00 -0.10743337079E+04  0.10743337079E+04  0.50400001928E-02 0. -1.
    10030    2    1    2    0    0  0.00000000000E+00  0.00000000000E+00 -0.40326120152E+03  0.17454062144E+04  0.16981823390E+04 0.  0.
        2    1    3    3  502    0  0.47199288585E+03  0.28272923613E+02  0.52323250468E+03  0.70522967640E+03  0.25500000920E-02 0.  1.
       -2    1    3    3    0  502 -0.47199288585E+03 -0.28272923613E+02 -0.92649370620E+03  0.10401765380E+04  0.25500000920E-02 0. -1.
</event>
<event>
 5   0  0.1815663E-04  0.1707675E+04  0.7818609E-02  0.8756999E-01
       -1   -1    0    0    0  501  0.00000000000E+00  0.00000000000E+00  0.10881006148E+04  0.10881006148E+04  0.50400001928E-02 0.  1.
        1   -1    0    0  501    0  0.00000000000E+00  0.00000000000E+00 -0.67000999533E+03  0.67000999535E+03  0.50400001928E-02 0. -1.
    10030    2    1    2    0    0  0.00000000000E+00  0.00000000000E+00  0.41809061947E+03  0.17581106102E+04  0.17076747792E+04 0.  0.
        5    1    3    3  502    0  0.24970302412E+02  0.52477876137E+02 -0.66795806620E+03  0.67049795800E+03  0.46999998093E+01 0. -1.
       -5    1    3    3    0  502 -0.24970302412E+02 -0.52477876137E+02  0.10860486857E+04  0.10876126522E+04  0.46999998093E+01 0.  1.
</event>
<event>
 5   0  0.1893284E-04  0.1710994E+04  0.7818609E-02  0.8755119E-01
       -1   -1    0    0    0  501  0.00000000000E+00  0.00000000000E+00  0.11260337743E+04  0.11260337743E+04  0.50400001928E-02 0. -1.
        1   -1    0    0  501    0  0.00000000000E+00  0.00000000000E+00 -0.64995807786E+03  0.64995807788E+03  0.50400001928E-02 0.  1.
    10030    2    1    2    0    0  0.00000000000E+00  0.00000000000E+00  0.47607569648E+03  0.17759918522E+04  0.17109935682E+04 0.  0.
        2    1    3    3  502    0  0.48475084868E+03 -0.56366255308E+03  0.67740984665E+03  0.10057748055E+04  0.25500000920E-02 0. -1.
       -2    1    3    3    0  502 -0.48475084868E+03  0.56366255308E+03 -0.20133415017E+03  0.77021704673E+03  0.25500000920E-02 0.  1.
</event>
<event>
 5   0  0.3678896E-04  0.1716739E+04  0.7818609E-02  0.8751875E-01
        2   -1    0    0  501    0  0.00000000000E+00  0.00000000000E+00  0.83696584264E+03  0.83696584265E+03  0.25500000920E-02 0. -1.
       -2   -1    0    0    0  501  0.00000000000E+00  0.00000000000E+00 -0.88032064070E+03  0.88032064070E+03  0.25500000920E-02 0.  1.
    10030    2    1    2    0    0  0.00000000000E+00  0.00000000000E+00 -0.43354798056E+02  0.17172864834E+04  0.17167391262E+04 0.  0.
        2    1    3    3  502    0  0.10695743040E+03  0.25002496213E+03  0.79273568908E+03  0.83808248183E+03  0.25500000920E-02 0. -1.
       -2    1    3    3    0  502 -0.10695743040E+03 -0.25002496213E+03 -0.83609048713E+03  0.87920400152E+03  0.25500000920E-02 0.  1.
</event>
<event>
 5   0  0.3678896E-04  0.1668417E+04  0.7818609E-02  0.8779585E-01
       -2   -1    0    0    0  501  0.00000000000E+00  0.00000000000E+00  0.11432289678E+04  0.11432289678E+04  0.25500000920E-02 0. -1.
        2   -1    0    0  501    0  0.00000000000E+00  0.00000000000E+00 -0.60871786215E+03  0.60871786215E+03  0.25500000920E-02 0.  1.
    10030    2    1    2    0    0  0.00000000000E+00  0.00000000000E+00  0.53451110562E+03  0.17519468299E+04  0.16684170860E+04 0.  0.
        2    1    3    3  502    0  0.36304398487E+03 -0.24757759035E+03  0.10118460851E+04  0.11031446406E+04  0.25500000920E-02 0. -1.
       -2    1    3    3    0  502 -0.36304398487E+03  0.24757759035E+03 -0.47733497948E+03  0.64880218930E+03  0.25500000920E-02 0.  1.
</event>
<event>
 5   0  0.3574092E-04  0.1721069E+04  0.7818609E-02  0.8749438E-01
        2   -1    0    0  501    0  0.00000000000E+00  0.00000000000E+00  0.95130299814E+03  0.95130299814E+03  0.25500000920E-02 0. -1.
       -2   -1    0    0    0  501  0.00000000000E+00  0.00000000000E+00 -0.77842671524E+03  0.77842671524E+03  0.25500000920E-02 0.  1.
    10030    2    1    2    0    0  0.00000000000E+00  0.00000000000E+00  0.17287628290E+03  0.17297297134E+04  0.17210690492E+04 0.  0.
        3    1    3    3  502    0  0.22541690293E+03 -0.78645713797E+03  0.35459918936E+03  0.89166597181E+03  0.10100000352E+00 0. -1.
       -3    1    3    3    0  502 -0.22541690293E+03  0.78645713797E+03 -0.18172290646E+03  0.83806374157E+03  0.10100000352E+00 0.  1.
</event>
<event>
 5   0  0.1930116E-04  0.1693902E+04  0.7818609E-02  0.8764850E-01
        1   -1    0    0  501    0  0.00000000000E+00  0.00000000000E+00  0.83890331092E+03  0.83890331093E+03  0.50400001928E-02 0. -1.
       -1   -1    0    0    0  501  0.00000000000E+00  0.00000000000E+00 -0.85507634180E+03  0.85507634182E+03  0.50400001928E-02 0.  1.
    10030    2    1    2    0    0  0.00000000000E+00  0.00000000000E+00 -0.16173030885E+02  0.16939796528E+04  0.16939024461E+04 0.  0.
        1    1    3    3  502    0 -0.63982102228E+03  0.21411472823E+03  0.50390392481E+03  0.84210167014E+03  0.50400001928E-02 0. -1.
       -1    1    3    3    0  502  0.63982102228E+03 -0.21411472823E+03 -0.52007695569E+03  0.85187798261E+03  0.50400001928E-02 0.  1.
</event>
<event>
 5   0  0.1893284E-04  0.1690493E+04  0.7818609E-02  0.8766805E-01
        1   -1    0    0  501    0  0.00000000000E+00  0.00000000000E+00  0.10521298394E+04  0.10521298394E+04  0.50400001928E-02 0.  1.
       -1   -1    0    0    0  501  0.00000000000E+00  0.00000000000E+00 -0.67904298024E+03  0.67904298026E+03  0.50400001928E-02 0. -1.
    10030    2    1    2    0    0  0.00000000000E+00  0.00000000000E+00  0.37308685911E+03  0.17311728196E+04  0.16904926876E+04 0.  0.
        2    1    3    3  502    0 -0.43059262967E+03 -0.34559883689E+03  0.84193868343E+03  0.10068313242E+04  0.25500000920E-02 0.  1.
       -2    1    3    3    0  502  0.43059262967E+03  0.34559883689E+03 -0.46885182432E+03  0.72434149540E+03  0.25500000920E-02 0. -1.
</event>
<event>
 5   0  0.1893284E-04  0.1723413E+04  0.7818609E-02  0.8748123E-01
        1   -1    0    0  501    0  0.00000000000E+00  0.00000000000E+00  0.11893026844E+04  0.11893026844E+04  0.50400001928E-02 0. -1.
       -1   -1    0    0    0  501  0.00000000000E+00  0.00000000000E+00 -0.62434734408E+03  0.62434734410E+03  0.50400001928E-02 0.  1.
    10030    2    1    2    0    0  0.00000000000E+00  0.00000000000E+00  0.56495534028E+03  0.18136500285E+04  0.17234128609E+04 0.  0.
        2    1    3    3  502    0  0.51201323072E+03 -0.37309128363E+03  0.89717036466E+03  0.10983029261E+04  0.25500000920E-02 0. -1.
       -2    1    3    3    0  502 -0.51201323072E+03  0.37309128363E+03 -0.33221502438E+03  0.71534710231E+03  0.25500000920E-02 0.  1.
</event>
<event>
 5   0  0.3574092E-04  0.1562520E+04  0.7818609E-02  0.8843910E-01
       -2   -1    0    0    0  501  0.00000000000E+00  0.00000000000E+00  0.94872868041E+03  0.94872868041E+03  0.25500000920E-02 0. -1.
        2   -1    0    0  501    0  0.00000000000E+00  0.00000000000E+00 -0.64335274866E+03  0.64335274867E+03  0.25500000920E-02 0.  1.
    10030    2    1    2    0    0  0.00000000000E+00  0.00000000000E+00  0.30537593174E+03  0.15920814291E+04  0.15625200214E+04 0.  0.
        3    1    3    3  502    0 -0.23624829234E+03  0.73566281549E+03  0.34941473392E+02  0.77345584909E+03  0.10100000352E+00 0.  1.
       -3    1    3    3    0  502  0.23624829234E+03 -0.73566281549E+03  0.27043445835E+03  0.81862557998E+03  0.10100000352E+00 0. -1.
</event>
<event>
 5   0  0.3678896E-04  0.1652160E+04  0.7818609E-02  0.8789130E-01
        2   -1    0    0  501    0  0.00000000000E+00  0.00000000000E+00  0.12468078390E+04  0.12468078390E+04  0.25500000920E-02 0.  1.
       -2   -1    0    0    0  501  0.00000000000E+00  0.00000000000E+00 -0.54732422646E+03  0.54732422647E+03  0.25500000920E-02 0. -1.
    10030    2    1    2    0    0  0.00000000000E+00  0.00000000000E+00  0.69948361257E+03  0.17941320655E+04  0.16521599633E+04 0.  0.
        2    1    3    3  502    0 -0.56524361441E+03 -0.13519890165E+03  0.98723896797E+03  0.11456089501E+04  0.25500000920E-02 0.  1.
       -2    1    3    3    0  502  0.56524361441E+03  0.13519890165E+03 -0.28775535541E+03  0.64852311541E+03  0.25500000920E-02 0. -1.
</event>
<event>
 5   0  0.3678896E-04  0.1694852E+04  0.7818609E-02  0.8764306E-01
        2   -1    0    0  501    0  0.00000000000E+00  0.00000000000E+00  0.10402912479E+04  0.10402912479E+04  0.25500000920E-02 0.  1.
       -2   -1    0    0    0  501  0.00000000000E+00  0.00000000000E+00 -0.69031728058E+03  0.69031728059E+03  0.25500000920E-02 0. -1.
    10030    2    1    2    0    0  0.00000000000E+00  0.00000000000E+00  0.34997396733E+03  0.17306085285E+04  0.16948522358E+04 0.  0.
        2    1    3    3  502    0  0.82087404325E+03 -0.12869413444E+03  0.49363145820E+01  0.83091560481E+03  0.25500000920E-02 0. -1.
       -2    1    3    3    0  502 -0.82087404325E+03  0.12869413444E+03  0.34503765275E+03  0.89969292369E+03  0.25500000920E-02 0.  1.
</event>
<event>
 5   0  0.1920289E-04  0.1727081E+04  0.7818609E-02  0.8746068E-01
        1   -1    0    0  501    0  0.00000000000E+00  0.00000000000E+00  0.10742437907E+04  0.10742437908E+04  0.50400001928E-02 0. -1.
       -1   -1    0    0    0  501  0.00000000000E+00  0.00000000000E+00 -0.69416470174E+03  0.69416470176E+03  0.50400001928E-02 0.  1.
    10030    2    1    2    0    0  0.00000000000E+00  0.00000000000E+00  0.38007908900E+03  0.17684084925E+04  0.17270809137E+04 0.  0.
        4    1    3    3  502    0  0.30192697119E+03 -0.28283131534E+03  0.96616639806E+03  0.10510150192E+04  0.12699999809E+01 0. -1.
       -4    1    3    3    0  502 -0.30192697119E+03  0.28283131534E+03 -0.58608730906E+03  0.71739347335E+03  0.12699999809E+01 0.  1.
</event>
<event>
 5   0  0.1317625E-04  0.1711679E+04  0.7818609E-02  0.8754732E-01
       -3   -1    0    0    0  501  0.00000000000E+00  0.00000000000E+00  0.10515064676E+04  0.10515064725E+04  0.10100000352E+00 0.  1.
        3   -1    0    0  501    0  0.00000000000E+00  0.00000000000E+00 -0.69658233907E+03  0.69658234639E+03  0.10100000352E+00 0. -1.
    10030    2    1    2    0    0  0.00000000000E+00  0.00000000000E+00  0.35492412855E+03  0.17480888189E+04  0.17116785275E+04 0.  0.
        1    1    3    3  502    0  0.42129453622E+03 -0.55688637838E+03 -0.32788616013E+03  0.77144076811E+03  0.50400001928E-02 0.  1.
       -1    1    3    3    0  502 -0.42129453622E+03  0.55688637838E+03  0.68281028868E+03  0.97664805075E+03  0.50400001928E-02 0. -1.
</event>
<event>
 5   0  0.3516723E-04  0.1691676E+04  0.7818609E-02  0.8766126E-01
       -2   -1    0    0    0  501  0.00000000000E+00  0.00000000000E+00  0.73657832100E+03  0.73657832101E+03  0.25500000920E-02 0.  1.
        2   -1    0    0  501    0  0.00000000000E+00  0.00000000000E+00 -0.97130431787E+03  0.97130431787E+03  0.25500000920E-02 0. -1.
    10030    2    1    2    0    0  0.00000000000E+00  0.00000000000E+00 -0.23472599687E+03  0.17078826389E+04  0.16916757416E+04 0.  0.
        1    1    3    3  502    0  0.43901214869E+03  0.68059516347E+03  0.12890066474E+03  0.82009561920E+03  0.50400001928E-02 0.  1.
       -1    1    3    3    0  502 -0.43901214869E+03 -0.68059516347E+03 -0.36362666161E+03  0.88778701967E+03  0.50400001928E-02 0. -1.
</event>
<event>
 5   0  0.3574092E-04  0.1715783E+04  0.7818609E-02  0.8752413E-01
        2   -1    0    0  501    0  0.00000000000E+00  0.00000000000E+00  0.64802743247E+03  0.64802743248E+03  0.25500000920E-02 0.  1.
       -2   -1    0    0    0  501  0.00000000000E+00  0.00000000000E+00 -0.11357205812E+04  0.11357205812E+04  0.25500000920E-02 0. -1.
    10030    2    1    2    0    0  0.00000000000E+00  0.00000000000E+00 -0.48769314873E+03  0.17837480137E+04  0.17157833106E+04 0.  0.
        3    1    3    3  502    0 -0.79250710109E+02 -0.12701101041E+02  0.64411557485E+03  0.64909697041E+03  0.10100000352E+00 0.  1.
       -3    1    3    3    0  502  0.79250710109E+02  0.12701101041E+02 -0.11318087236E+04  0.11346510433E+04  0.10100000352E+00 0. -1.
</event>
<event>
 5   0  0.1893284E-04  0.1682539E+04  0.7818609E-02  0.8771386E-01
        1   -1    0    0  501    0  0.00000000000E+00  0.00000000000E+00  0.52263612394E+03  0.52263612396E+03  0.50400001928E-02 0. -1.
       -1   -1    0    0    0  501  0.00000000000E+00  0.00000000000E+00 -0.13541622299E+04  0.13541622299E+04  0.50400001928E-02 0.  1.
    10030    2    1    2    0    0  0.00000000000E+00  0.00000000000E+00 -0.83152610597E+03  0.18767983539E+04  0.16825386760E+04 0.  0.
        2    1    3    3  502    0  0.27129368719E+02 -0.36311788575E+03 -0.12617052033E+04  0.13131986223E+04  0.25500000920E-02 0.  1.
       -2    1    3    3    0  502 -0.27129368719E+02  0.36311788575E+03  0.43017909735E+03  0.56359973155E+03  0.25500000920E-02 0. -1.
</event>
<event>
 5   0  0.3574092E-04  0.1701665E+04  0.7818609E-02  0.8760416E-01
        2   -1    0    0  501    0  0.00000000000E+00  0.00000000000E+00  0.13216779839E+04  0.13216779839E+04  0.25500000920E-02 0.  1.
       -2   -1    0    0    0  501  0.00000000000E+00  0.00000000000E+00 -0.54772464850E+03  0.54772464851E+03  0.25500000920E-02 0. -1.
    10030    2    1    2    0    0  0.00000000000E+00  0.00000000000E+00  0.77395333537E+03  0.18694026324E+04  0.17016646076E+04 0.  0.
        3    1    3    3  502    0  0.35510970561E+03  0.38214561179E+03 -0.35142241366E+03  0.62899594168E+03  0.10100000352E+00 0. -1.
       -3    1    3    3    0  502 -0.35510970561E+03 -0.38214561179E+03  0.11253757490E+04  0.12404066907E+04  0.10100000352E+00 0.  1.
</event>
<event>
 5   0  0.3678896E-04  0.1760975E+04  0.7818609E-02  0.8727332E-01
        2   -1    0    0  501    0  0.00000000000E+00  0.00000000000E+00  0.11981935723E+04  0.11981935723E+04  0.25500000920E-02 0. -1.
       -2   -1    0    0    0  501  0.00000000000E+00  0.00000000000E+00 -0.64702277999E+03  0.64702277999E+03  0.25500000920E-02 0.  1.
    10030    2    1    2    0    0  0.00000000000E+00  0.00000000000E+00  0.55117079230E+03  0.18452163523E+04  0.17609753390E+04 0.  0.
        2    1    3    3  502    0  0.33202691407E+03  0.81230600863E+03  0.20020213719E+03  0.90009100599E+03  0.25500000920E-02 0.  1.
       -2    1    3    3    0  502 -0.33202691407E+03 -0.81230600863E+03  0.35096865511E+03  0.94512534629E+03  0.25500000920E-02 0. -1.
</event>
<event>
 5   0  0.3573262E-04  0.1655442E+04  0.7818609E-02  0.8787193E-01
       -2   -1    0    0    0  501  0.00000000000E+00  0.00000000000E+00  0.49772868581E+03  0.49772868582E+03  0.25500000920E-02 0. -1.
        2   -1    0    0  501    0  0.00000000000E+00  0.00000000000E+00 -0.13764972756E+04  0.13764972756E+04  0.25500000920E-02 0.  1.
    10030    2    1    2    0    0  0.00000000000E+00  0.00000000000E+00 -0.87876858974E+03  0.18742259614E+04  0.16554421524E+04 0.  0.
        5    1    3    3  502    0  0.21053025535E+03 -0.93033094587E+02  0.46075220785E+03  0.51506585224E+03  0.46999998093E+01 0. -1.
       -5    1    3    3    0  502 -0.21053025535E+03  0.93033094587E+02 -0.13395207976E+04  0.13591601091E+04  0.46999998093E+01 0.  1.
</event>
<event>
 5   0  0.1815663E-04  0.1711359E+04  0.7818609E-02  0.8754913E-01
       -1   -1    0    0    0  501  0.00000000000E+00  0.00000000000E+00  0.26183038444E+03  0.26183038449E+03  0.50400001928E-02 0.  1.
        1   -1    0    0  501    0  0.00000000000E+00  0.00000000000E+00 -0.27964174484E+04  0.27964174484E+04  0.50400001928E-02 0. -1.
    10030    2    1    2    0    0  0.00000000000E+00  0.00000000000E+00 -0.25345870640E+04  0.30582478329E+04  0.17113585897E+04 0.  0.
        5    1    3    3  502    0 -0.63442312472E+03  0.43314073179E+03 -0.59374381443E+03  0.97090545466E+03  0.46999998093E+01 0. -1.
       -5    1    3    3    0  502  0.63442312472E+03 -0.43314073179E+03 -0.19408432495E+04  0.20873423782E+04  0.46999998093E+01 0.  1.
</event>
<event>
 5   0  0.1815663E-04  0.1705413E+04  0.7818609E-02  0.8758283E-01
       -1   -1    0    0    0  501  0.00000000000E+00  0.00000000000E+00  0.85961843973E+03  0.85961843975E+03  0.50400001928E-02 0. -1.
        1   -1    0    0  501    0  0.00000000000E+00  0.00000000000E+00 -0.84585060262E+03  0.84585060263E+03  0.50400001928E-02 0.  1.
    10030    2    1    2    0    0  0.00000000000E+00  0.00000000000E+00  0.13767837116E+02  0.17054690424E+04  0.17054134693E+04 0.  0.
        5    1    3    3  502    0  0.34608809587E+02 -0.78858633584E+02  0.85524535983E+03  0.85958313693E+03  0.46999998093E+01 0. -1.
       -5    1    3    3    0  502 -0.34608809587E+02  0.78858633584E+02 -0.84147752272E+03  0.84588590544E+03  0.46999998093E+01 0.  1.
</event>
<event>
 5   0  0.3516723E-04  0.1682145E+04  0.7818609E-02  0.8771614E-01
        2   -1    0    0  501    0  0.00000000000E+00  0.00000000000E+00  0.91472914125E+03  0.91472914126E+03  0.25500000920E-02 0. -1.
       -2   -1    0    0    0  501  0.00000000000E+00  0.00000000000E+00 -0.77334665855E+03  0.77334665856E+03  0.25500000920E-02 0.  1.
    10030    2    1    2    0    0  0.00000000000E+00  0.00000000000E+00  0.14138248270E+03  0.16880757998E+04  0.16821447320E+04 0.  0.
        1    1    3    3  502    0  0.66744394729E+02  0.83579586592E+03  0.41764643768E+01  0.83846704562E+03  0.50400001928E-02 0. -1.
       -1    1    3    3    0  502 -0.66744394729E+02 -0.83579586592E+03  0.13720601832E+03  0.84960875419E+03  0.50400001928E-02 0.  1.
</event>
<event>
 5   0  0.1893284E-04  0.1700678E+04  0.7818609E-02  0.8760978E-01
        1   -1    0    0  501    0  0.00000000000E+00  0.00000000000E+00  0.15846337457E+04  0.15846337457E+04  0.50400001928E-02 0. -1.
       -1   -1    0    0    0  501  0.00000000000E+00  0.00000000000E+00 -0.45630516385E+03  0.45630516387E+03  0.50400001928E-02 0.  1.
    10030    2    1    2    0    0  0.00000000000E+00  0.00000000000E+00  0.11283285819E+04  0.20409389096E+04  0.17006781718E+04 0.  0.
        2    1    3    3  502    0 -0.37463109005E+03  0.75383568701E+03  0.41985643392E+03  0.94068917383E+03  0.25500000920E-02 0. -1.
       -2    1    3    3    0  502  0.37463109005E+03 -0.75383568701E+03  0.70847214797E+03  0.11002497358E+04  0.25500000920E-02 0.  1.
</event>
<event>
 5   0  0.3678896E-04  0.1715270E+04  0.7818609E-02  0.8752703E-01
       -2   -1    0    0    0  501  0.00000000000E+00  0.00000000000E+00  0.15395024109E+04  0.15395024109E+04  0.25500000920E-02 0.  1.
        2   -1    0    0  501    0  0.00000000000E+00  0.00000000000E+00 -0.47777649310E+03  0.47777649311E+03  0.25500000920E-02 0. -1.
    10030    2    1    2    0    0  0.00000000000E+00  0.00000000000E+00  0.10617259178E+04  0.20172789040E+04  0.17152703146E+04 0.  0.
        2    1    3    3  502    0 -0.41628727328E+03  0.69762581817E+03  0.20758003827E+03  0.83849051776E+03  0.25500000920E-02 0. -1.
       -2    1    3    3    0  502  0.41628727328E+03 -0.69762581817E+03  0.85414587956E+03  0.11787883863E+04  0.25500000920E-02 0.  1.
</event>
<event>
 5   0  0.1930116E-04  0.1676550E+04  0.7818609E-02  0.8774853E-01
       -1   -1    0    0    0  501  0.00000000000E+00  0.00000000000E+00  0.65645360274E+03  0.65645360276E+03  0.50400001928E-02 0. -1.
        1   -1    0    0  501    0  0.00000000000E+00  0.00000000000E+00 -0.10704569492E+04  0.10704569492E+04  0.50400001928E-02 0.  1.
    10030    2    1    2    0    0  0.00000000000E+00  0.00000000000E+00 -0.41400334645E+03  0.17269105520E+04  0.16765504119E+04 0.  0.
        1    1    3    3  502    0  0.19695308608E+03 -0.77758955304E+03 -0.45776734728E+03  0.92357293993E+03  0.50400001928E-02 0.  1.
       -1    1    3    3    0  502 -0.19695308608E+03  0.77758955304E+03  0.43764000836E+02  0.80333761203E+03  0.50400001928E-02 0. -1.
</event>
<event>
 5   0  0.3605571E-04  0.1705281E+04  0.7818609E-02  0.8758358E-01
        2   -1    0    0  501    0  0.00000000000E+00  0.00000000000E+00  0.93810561360E+03  0.93810561361E+03  0.25500000920E-02 0.  1.
       -2   -1    0    0    0  501  0.00000000000E+00  0.00000000000E+00 -0.77496149588E+03  0.77496149589E+03  0.25500000920E-02 0. -1.
    10030    2    1    2    0    0  0.00000000000E+00  0.00000000000E+00  0.16314411772E+03  0.17130671095E+04  0.17052808914E+04 0.  0.
        4    1    3    3  502    0 -0.48470226784E+03 -0.14408962815E+03  0.77121664543E+03  0.92221192601E+03  0.12699999809E+01 0.  1.
       -4    1    3    3    0  502  0.48470226784E+03  0.14408962815E+03 -0.60807252771E+03  0.79085518348E+03  0.12699999809E+01 0. -1.
</event>
<event>
 5   0  0.1920289E-04  0.1689092E+04  0.7818609E-02  0.8767610E-01
       -1   -1    0    0    0  501  0.00000000000E+00  0.00000000000E+00  0.69316465932E+03  0.69316465934E+03  0.50400001928E-02 0. -1.
        1   -1    0    0  501    0  0.00000000000E+00  0.00000000000E+00 -0.10289879716E+04  0.10289879717E+04  0.50400001928E-02 0.  1.
    10030    2    1    2    0    0  0.00000000000E+00  0.00000000000E+00 -0.33582331233E+03  0.17221526310E+04  0.16890921785E+04 0.  0.
        4    1    3    3  502    0 -0.63948713246E+03 -0.11873162782E+03 -0.71717243001E+03  0.96818329840E+03  0.12699999809E+01 0.  1.
       -4    1    3    3    0  502  0.63948713246E+03  0.11873162782E+03  0.38134911769E+03  0.75396933259E+03  0.12699999809E+01 0. -1.
</event>
<event>
 5   0  0.3573262E-04  0.1689165E+04  0.7818609E-02  0.8767568E-01
        2   -1    0    0  501    0  0.00000000000E+00  0.00000000000E+00  0.21244686077E+04  0.21244686077E+04  0.25500000920E-02 0.  1.
       -2   -1    0    0    0  501  0.00000000000E+00  0.00000000000E+00 -0.33576386804E+03  0.33576386805E+03  0.25500000920E-02 0. -1.
    10030    2    1    2    0    0  0.00000000000E+00  0.00000000000E+00  0.17887047396E+04  0.24602324757E+04  0.16891652344E+04 0.  0.
        5    1    3    3  502    0 -0.30875010924E+02 -0.76971299835E+03  0.39005248893E+03  0.86346650210E+03  0.46999998093E+01 0. -1.
       -5    1    3    3    0  502  0.30875010924E+02  0.76971299835E+03  0.13986522507E+04  0.15967659736E+04  0.46999998093E+01 0.  1.
</event>
<event>
 5   0  0.1920289E-04  0.1704718E+04  0.7818609E-02  0.8758678E-01
       -1   -1    0    0    0  501  0.00000000000E+00  0.00000000000E+00  0.70363809656E+03  0.70363809658E+03  0.50400001928E-02 0. -1.
        1   -1    0    0  501    0  0.00000000000E+00  0.00000000000E+00 -0.10325137911E+04  0.10325137911E+04  0.50400001928E-02 0.  1.
    10030    2    1    2    0    0  0.00000000000E+00  0.00000000000E+00 -0.32887569453E+03  0.17361518877E+04  0.17047182039E+04 0.  0.
        4    1    3    3  502    0 -0.61523534193E+03 -0.57041499418E+03 -0.11242669111E+02  0.83905649515E+03  0.12699999809E+01 0.  1.
       -4    1    3    3    0  502  0.61523534193E+03  0.57041499418E+03 -0.31763302542E+03  0.89709539252E+03  0.12699999809E+01 0. -1.
</event>
<event>
 5   0  0.1815663E-04  0.1712685E+04  0.7818609E-02  0.8754162E-01
       -1   -1    0    0    0  501  0.00000000000E+00  0.00000000000E+00  0.54767030702E+03  0.54767030705E+03  0.50400001928E-02 0. -1.
        1   -1    0    0  501    0  0.00000000000E+00  0.00000000000E+00 -0.13389854802E+04  0.13389854802E+04  0.50400001928E-02 0.  1.
    10030    2    1    2    0    0  0.00000000000E+00  0.00000000000E+00 -0.79131517318E+03  0.18866557873E+04  0.17126851305E+04 0.  0.
        5    1    3    3  502    0 -0.62402987472E+01  0.12756356517E+03  0.53710564837E+03  0.55210141459E+03  0.46999998093E+01 0. -1.
       -5    1    3    3    0  502  0.62402987472E+01 -0.12756356517E+03 -0.13284208215E+04  0.13345543727E+04  0.46999998093E+01 0.  1.
</event>
<event>
 5   0  0.3516723E-04  0.1712286E+04  0.7818609E-02  0.8754388E-01
        2   -1    0    0  501    0  0.00000000000E+00  0.00000000000E+00  0.59247159815E+03  0.59247159815E+03  0.25500000920E-02 0. -1.
       -2   -1    0    0    0  501  0.00000000000E+00  0.00000000000E+00 -0.12371582862E+04  0.12371582862E+04  0.25500000920E-02 0.  1.
    10030    2    1    2    0    0  0.00000000000E+00  0.00000000000E+00 -0.64468668803E+03  0.18296298843E+04  0.17122863627E+04 0.  0.
        1    1    3    3  502    0  0.40364903220E+03  0.60946055745E+03 -0.79853689001E+03  0.10826060581E+04  0.50400001928E-02 0.  1.
       -1    1    3    3    0  502 -0.40364903220E+03 -0.60946055745E+03  0.15385020198E+03  0.74702382624E+03  0.50400001928E-02 0. -1.
</event>
<event>
 5   0  0.1815663E-04  0.1689966E+04  0.7818609E-02  0.8767108E-01
       -1   -1    0    0    0  501  0.00000000000E+00  0.00000000000E+00  0.37940612218E+03  0.37940612221E+03  0.50400001928E-02 0.  1.
        1   -1    0    0  501    0  0.00000000000E+00  0.00000000000E+00 -0.18818792854E+04  0.18818792854E+04  0.50400001928E-02 0. -1.
    10030    2    1    2    0    0  0.00000000000E+00  0.00000000000E+00 -0.15024731632E+04  0.22612854076E+04  0.16899662980E+04 0.  0.
        5    1    3    3  502    0 -0.11699758691E+03  0.11616411161E+03 -0.18601302847E+04  0.18674285266E+04  0.46999998093E+01 0. -1.
       -5    1    3    3    0  502  0.11699758691E+03 -0.11616411161E+03  0.35765712145E+03  0.39385688097E+03  0.46999998093E+01 0.  1.
</event>
<event>
 5   0  0.3516723E-04  0.1695056E+04  0.7818609E-02  0.8764189E-01
       -2   -1    0    0    0  501  0.00000000000E+00  0.00000000000E+00  0.39009189167E+03  0.39009189168E+03  0.25500000920E-02 0.  1.
        2   -1    0    0  501    0  0.00000000000E+00  0.00000000000E+00 -0.18413714145E+04  0.18413714145E+04  0.25500000920E-02 0. -1.
    10030    2    1    2    0    0  0.00000000000E+00  0.00000000000E+00 -0.14512795228E+04  0.22314633062E+04  0.16950564101E+04 0.  0.
        1    1    3    3  502    0 -0.34438586845E+03 -0.74803307846E+03 -0.98942024824E+03  0.12872868913E+04  0.50400001928E-02 0. -1.
       -1    1    3    3    0  502  0.34438586845E+03  0.74803307846E+03 -0.46185927457E+03  0.94417641487E+03  0.50400001928E-02 0.  1.
</event>
<event>
 5   0  0.1824538E-04  0.1728028E+04  0.7818609E-02  0.8745539E-01
       -1   -1    0    0    0  501  0.00000000000E+00  0.00000000000E+00  0.57256648662E+03  0.57256648665E+03  0.50400001928E-02 0. -1.
        1   -1    0    0  501    0  0.00000000000E+00  0.00000000000E+00 -0.13038133399E+04  0.13038133399E+04  0.50400001928E-02 0.  1.
    10030    2    1    2    0    0  0.00000000000E+00  0.00000000000E+00 -0.73124685329E+03  0.18763798266E+04  0.17280275730E+04 0.  0.
        3    1    3    3  502    0  0.78294562884E+03  0.61644250130E+02 -0.75670446870E+03  0.10905987046E+04  0.10100000352E+00 0.  1.
       -3    1    3    3    0  502 -0.78294562884E+03 -0.61644250130E+02  0.25457615405E+02  0.78578112199E+03  0.10100000352E+00 0. -1.
</event>
<event>
 5   0  0.1815663E-04  0.1707136E+04  0.7818609E-02  0.8757305E-01
       -1   -1    0    0    0  501  0.00000000000E+00  0.00000000000E+00  0.57437995958E+03  0.57437995960E+03  0.50400001928E-02 0.  1.
        1   -1    0    0  501    0  0.00000000000E+00  0.00000000000E+00 -0.12684600774E+04  0.12684600774E+04  0.50400001928E-02 0. -1.
    10030    2    1    2    0    0  0.00000000000E+00  0.00000000000E+00 -0.69408011783E+03  0.18428400370E+04  0.17071356689E+04 0.  0.
        5    1    3    3  502    0 -0.59169828364E+03  0.44319412922E+03  0.11352265575E+03  0.74795546552E+03  0.46999998093E+01 0.  1.
       -5    1    3    3    0  502  0.59169828364E+03 -0.44319412922E+03 -0.80760277358E+03  0.10948845715E+04  0.46999998093E+01 0. -1.
</event>
<event>
 5   0  0.3605571E-04  0.1709597E+04  0.7818609E-02  0.8755910E-01
       -2   -1    0    0    0  501  0.00000000000E+00  0.00000000000E+00  0.10246749903E+04  0.10246749903E+04  0.25500000920E-02 0.  1.
        2   -1    0    0  501    0  0.00000000000E+00  0.00000000000E+00 -0.71308527559E+03  0.71308527559E+03  0.25500000920E-02 0. -1.
    10030    2    1    2    0    0  0.00000000000E+00  0.00000000000E+00  0.31158971473E+03  0.17377602659E+04  0.17095972015E+04 0.  0.
        4    1    3    3  502    0 -0.58041722398E+03 -0.21116366128E+03  0.75646515917E+03  0.97658353236E+03  0.12699999809E+01 0.  1.
       -4    1    3    3    0  502  0.58041722398E+03  0.21116366128E+03 -0.44487544444E+03  0.76117673355E+03  0.12699999809E+01 0. -1.
</event>
<event>
 5   0  0.3678896E-04  0.1627636E+04  0.7818609E-02  0.8803748E-01
       -2   -1    0    0    0  501  0.00000000000E+00  0.00000000000E+00  0.66603499694E+03  0.66603499695E+03  0.25500000920E-02 0.  1.
        2   -1    0    0  501    0  0.00000000000E+00  0.00000000000E+00 -0.99439153607E+03  0.99439153607E+03  0.25500000920E-02 0. -1.
    10030    2    1    2    0    0  0.00000000000E+00  0.00000000000E+00 -0.32835653913E+03  0.16604265330E+04  0.16276357869E+04 0.  0.
        2    1    3    3  502    0  0.41492923711E+03  0.70898064315E+02 -0.87470610462E+03  0.97072322358E+03  0.25500000920E-02 0. -1.
       -2    1    3    3    0  502 -0.41492923711E+03 -0.70898064315E+02  0.54634956549E+03  0.68970330944E+03  0.25500000920E-02 0.  1.
</event>
<event>
 5   0  0.1920289E-04  0.1740552E+04  0.7818609E-02  0.8738568E-01
        1   -1    0    0  501    0  0.00000000000E+00  0.00000000000E+00  0.70297793255E+03  0.70297793257E+03  0.50400001928E-02 0. -1.
       -1   -1    0    0    0  501  0.00000000000E+00  0.00000000000E+00 -0.10773890290E+04  0.10773890290E+04  0.50400001928E-02 0.  1.
    10030    2    1    2    0    0  0.00000000000E+00  0.00000000000E+00 -0.37441109643E+03  0.17803669616E+04  0.17405524550E+04 0.  0.
        4    1    3    3  502    0  0.31523961472E+03 -0.40819605603E+03 -0.90422466514E+03  0.10409725706E+04  0.12699999809E+01 0.  1.
       -4    1    3    3    0  502 -0.31523961472E+03  0.40819605603E+03  0.52981356871E+03  0.73939439093E+03  0.12699999809E+01 0. -1.
</event>
<event>
 5   0  0.3573262E-04  0.1696107E+04  0.7818609E-02  0.8763588E-01
       -2   -1    0    0    0  501  0.00000000000E+00  0.00000000000E+00  0.71080992487E+03  0.71080992488E+03  0.25500000920E-02 0.  1.
        2   -1    0    0  501    0  0.00000000000E+00  0.00000000000E+00 -0.10117966951E+04  0.10117966951E+04  0.25500000920E-02 0. -1.
    10030    2    1    2    0    0  0.00000000000E+00  0.00000000000E+00 -0.30098677027E+03  0.17226066200E+04  0.16961074646E+04 0.  0.
        5    1    3    3  502    0  0.72843265720E+02  0.84870635947E+02  0.70327327641E+03  0.71212678472E+03  0.46999998093E+01 0.  1.
       -5    1    3    3    0  502 -0.72843265720E+02 -0.84870635947E+02 -0.10042600467E+04  0.10104798353E+04  0.46999998093E+01 0. -1.
</event>
<event>
 5   0  0.1930116E-04  0.1688116E+04  0.7818609E-02  0.8768171E-01
       -1   -1    0    0    0  501  0.00000000000E+00  0.00000000000E+00  0.48011224039E+03  0.48011224042E+03  0.50400001928E-02 0.  1.
        1   -1    0    0  501    0  0.00000000000E+00  0.00000000000E+00 -0.14838904815E+04  0.14838904815E+04  0.50400001928E-02 0. -1.
    10030    2    1    2    0    0  0.00000000000E+00  0.00000000000E+00 -0.10037782411E+04  0.19640027219E+04  0.16881160903E+04 0.  0.
        1    1    3    3  502    0  0.18684202465E+03  0.13114952254E+03 -0.14472949283E+04  0.14651869331E+04  0.50400001928E-02 0. -1.
       -1    1    3    3    0  502 -0.18684202465E+03 -0.13114952254E+03  0.44351668713E+03  0.49881578887E+03  0.50400001928E-02 0.  1.
</event>
<event>
 5   0  0.3605571E-04  0.1750284E+04  0.7818609E-02  0.8733194E-01
        2   -1    0    0  501    0  0.00000000000E+00  0.00000000000E+00  0.20063555880E+04  0.20063555880E+04  0.25500000920E-02 0. -1.
       -2   -1    0    0    0  501  0.00000000000E+00  0.00000000000E+00 -0.38172380143E+03  0.38172380144E+03  0.25500000920E-02 0.  1.
    10030    2    1    2    0    0  0.00000000000E+00  0.00000000000E+00  0.16246317866E+04  0.23880793894E+04  0.17502841850E+04 0.  0.
        4    1    3    3  502    0  0.79278124379E+03 -0.57886786939E+02  0.31282966117E+03  0.85423473965E+03  0.12699999809E+01 0.  1.
       -4    1    3    3    0  502 -0.79278124379E+03  0.57886786939E+02  0.13118021254E+04  0.15338446498E+04  0.12699999809E+01 0. -1.
</event>
<event>
 5   0  0.1893284E-04  0.1686725E+04  0.7818609E-02  0.8768972E-01
        1   -1    0    0  501    0  0.00000000000E+00  0.00000000000E+00  0.98498241254E+03  0.98498241255E+03  0.50400001928E-02 0. -1.
       -1   -1    0    0    0  501  0.00000000000E+00  0.00000000000E+00 -0.72210444829E+03  0.72210444831E+03  0.50400001928E-02 0.  1.
    10030    2    1    2    0    0  0.00000000000E+00  0.00000000000E+00  0.26287796425E+03  0.17070868609E+04  0.16867248520E+04 0.  0.
        2    1    3    3  502    0 -0.22260755940E+03 -0.54732099761E+03 -0.47761121944E+03  0.75975448460E+03  0.25500000920E-02 0. -1.
       -2    1    3    3    0  502  0.22260755940E+03  0.54732099761E+03  0.74048918369E+03  0.94733237625E+03  0.25500000920E-02 0.  1.
</event>
<event>
 5   0  0.1893284E-04  0.1702506E+04  0.7818609E-02  0.8759936E-01
       -1   -1    0    0    0  501  0.00000000000E+00  0.00000000000E+00  0.11390703255E+04  0.11390703256E+04  0.50400001928E-02 0. -1.
        1   -1    0    0  501    0  0.00000000000E+00  0.00000000000E+00 -0.63616058465E+03  0.63616058467E+03  0.50400001928E-02 0.  1.
    10030    2    1    2    0    0  0.00000000000E+00  0.00000000000E+00  0.50290974089E+03  0.17752309102E+04  0.17025059698E+04 0.  0.
        2    1    3    3  502    0 -0.20557657420E+03  0.54013896922E+03  0.90314829666E+03  0.10722353658E+04  0.25500000920E-02 0. -1.
       -2    1    3    3    0  502  0.20557657420E+03 -0.54013896922E+03 -0.40023855577E+03  0.70299554441E+03  0.25500000920E-02 0.  1.
</event>
<event>
 5   0  0.3678896E-04  0.1681517E+04  0.7818609E-02  0.8771976E-01
        2   -1    0    0  501    0  0.00000000000E+00  0.00000000000E+00  0.56688895984E+03  0.56688895985E+03  0.25500000920E-02 0.  1.
       -2   -1    0    0    0  501  0.00000000000E+00  0.00000000000E+00 -0.12469376230E+04  0.12469376230E+04  0.25500000920E-02 0. -1.
    10030    2    1    2    0    0  0.00000000000E+00  0.00000000000E+00 -0.68004866312E+03  0.18138265828E+04  0.16815173768E+04 0.  0.
        2    1    3    3  502    0  0.56744092971E+03  0.61863962718E+03 -0.39028425446E+03  0.92575698556E+03  0.25500000920E-02 0.  1.
       -2    1    3    3    0  502 -0.56744092971E+03 -0.61863962718E+03 -0.28976440867E+03  0.88806959725E+03  0.25500000920E-02 0. -1.
</event>
<event>
 5   0  0.1815663E-04  0.1699157E+04  0.7818609E-02  0.8761845E-01
       -1   -1    0    0    0  501  0.00000000000E+00  0.00000000000E+00  0.61011806437E+03  0.61011806439E+03  0.50400001928E-02 0. -1.
        1   -1    0    0  501    0  0.00000000000E+00  0.00000000000E+00 -0.11830231987E+04  0.11830231987E+04  0.50400001928E-02 0.  1.
    10030    2    1    2    0    0  0.00000000000E+00  0.00000000000E+00 -0.57290513433E+03  0.17931412631E+04  0.16991572313E+04 0.  0.
        5    1    3    3  502    0  0.40375258853E+02 -0.84849508077E+03 -0.30090959264E+03  0.90118962298E+03  0.46999998093E+01 0.  1.
       -5    1    3    3    0  502 -0.40375258853E+02  0.84849508077E+03 -0.27199554168E+03  0.89195164012E+03  0.46999998093E+01 0. -1.
</event>
<event>
 5   0  0.1930116E-04  0.1685842E+04  0.7818609E-02  0.8769481E-01
        1   -1    0    0  501    0  0.00000000000E+00  0.00000000000E+00  0.63403596003E+03  0.63403596005E+03  0.50400001928E-02 0.  1.
       -1   -1    0    0    0  501  0.00000000000E+00  0.00000000000E+00 -0.11206234236E+04  0.11206234236E+04  0.50400001928E-02 0. -1.
    10030    2    1    2    0    0  0.00000000000E+00  0.00000000000E+00 -0.48658746360E+03  0.17546593837E+04  0.16858416868E+04 0.  0.
        1    1    3    3  502    0  0.82969377076E+03  0.22752767575E+01 -0.39808805504E+03  0.92025595880E+03  0.50400001928E-02 0. -1.
       -1    1    3    3    0  502 -0.82969377076E+03 -0.22752767575E+01 -0.88499408554E+02  0.83440342489E+03  0.50400001928E-02 0.  1.
</event>
<event>
 5   0  0.1815663E-04  0.1696740E+04  0.7818609E-02  0.8763226E-01
       -1   -1    0    0    0  501  0.00000000000E+00  0.00000000000E+00  0.44649383134E+03  0.44649383137E+03  0.50400001928E-02 0.  1.
        1   -1    0    0  501    0  0.00000000000E+00  0.00000000000E+00 -0.16119641060E+04  0.16119641060E+04  0.50400001928E-02 0. -1.
    10030    2    1    2    0    0  0.00000000000E+00  0.00000000000E+00 -0.11654702747E+04  0.20584579374E+04  0.16967404395E+04 0.  0.
        5    1    3    3  502    0  0.51194911321E+03 -0.49332707455E+03 -0.11442786265E+04  0.13471670877E+04  0.46999998093E+01 0. -1.
       -5    1    3    3    0  502 -0.51194911321E+03  0.49332707455E+03 -0.21191648196E+02  0.71129084976E+03  0.46999998093E+01 0.  1.
</event>
<event>
 5   0  0.3678896E-04  0.1692422E+04  0.7818609E-02  0.8765698E-01
        2   -1    0    0  501    0  0.00000000000E+00  0.00000000000E+00  0.17721666643E+04  0.17721666643E+04  0.25500000920E-02 0. -1.
       -2   -1    0    0    0  501  0.00000000000E+00  0.00000000000E+00 -0.40406622181E+03  0.40406622182E+03  0.25500000920E-02 0.  1.
    10030    2    1    2    0    0  0.00000000000E+00  0.00000000000E+00  0.13681004425E+04  0.21762328861E+04  0.16924215651E+04 0.  0.
        2    1    3    3  502    0  0.47041043170E+03  0.95806930302E+02 -0.21201499954E+03  0.52480024980E+03  0.25500000920E-02 0.  1.
       -2    1    3    3    0  502 -0.47041043170E+03 -0.95806930302E+02  0.15801154420E+04  0.16514326363E+04  0.25500000920E-02 0. -1.
</event>
<event>
 5   0  0.3678896E-04  0.1707426E+04  0.7818609E-02  0.8757140E-01
       -2   -1    0    0    0  501  0.00000000000E+00  0.00000000000E+00  0.11779328794E+04  0.11779328794E+04  0.25500000920E-02 0. -1.
        2   -1    0    0  501    0  0.00000000000E+00  0.00000000000E+00 -0.61873286915E+03  0.61873286915E+03  0.25500000920E-02 0.  1.
    10030    2    1    2    0    0  0.00000000000E+00  0.00000000000E+00  0.55920001029E+03  0.17966657486E+04  0.17074258873E+04 0.  0.
        2    1    3    3  502    0 -0.66807549398E+03 -0.50807036695E+03  0.11534733523E+03  0.84721034648E+03  0.25500000920E-02 0. -1.
       -2    1    3    3    0  502  0.66807549398E+03  0.50807036695E+03  0.44385267506E+03  0.94945540211E+03  0.25500000920E-02 0.  1.
</event>
<event>
 5   0  0.1930116E-04  0.1697091E+04  0.7818609E-02  0.8763025E-01
       -1   -1    0    0    0  501  0.00000000000E+00  0.00000000000E+00  0.50063161907E+03  0.50063161909E+03  0.50400001928E-02 0.  1.
        1   -1    0    0  501    0  0.00000000000E+00  0.00000000000E+00 -0.14382414177E+04  0.14382414177E+04  0.50400001928E-02 0. -1.
    10030    2    1    2    0    0  0.00000000000E+00  0.00000000000E+00 -0.93760979861E+03  0.19388730368E+04  0.16970906040E+04 0.  0.
        1    1    3    3  502    0 -0.37445613637E+03 -0.52217346047E+03  0.16436054441E+03  0.66324724611E+03  0.50400001928E-02 0.  1.
       -1    1    3    3    0  502  0.37445613637E+03  0.52217346047E+03 -0.11019703430E+04  0.12756257907E+04  0.50400001928E-02 0. -1.
</event>
<event>
 5   0  0.3574092E-04  0.1695197E+04  0.7818609E-02  0.8764108E-01
        2   -1    0    0  501    0  0.00000000000E+00  0.00000000000E+00  0.20861183588E+04  0.20861183588E+04  0.25500000920E-02 0.  1.
       -2   -1    0    0    0  501  0.00000000000E+00  0.00000000000E+00 -0.34438284956E+03  0.34438284957E+03  0.25500000920E-02 0. -1.
    10030    2    1    2    0    0  0.00000000000E+00  0.00000000000E+00  0.17417355093E+04  0.24305012084E+04  0.16951971979E+04 0.  0.
        3    1    3    3  502    0 -0.39262247538E+03 -0.67496758687E+03  0.39818489207E+03  0.87651860789E+03  0.10100000352E+00 0. -1.
       -3    1    3    3    0  502  0.39262247538E+03  0.67496758687E+03  0.13435506172E+04  0.15539826005E+04  0.10100000352E+00 0.  1.
</event>
<event>
 5   0  0.3574092E-04  0.1706271E+04  0.7818609E-02  0.8757796E-01
        2   -1    0    0  501    0  0.00000000000E+00  0.00000000000E+00  0.12262854385E+04  0.12262854385E+04  0.25500000920E-02 0. -1.
       -2   -1    0    0    0  501  0.00000000000E+00  0.00000000000E+00 -0.59353227123E+03  0.59353227123E+03  0.25500000920E-02 0.  1.
    10030    2    1    2    0    0  0.00000000000E+00  0.00000000000E+00  0.63275316728E+03  0.18198177097E+04  0.17062707657E+04 0.  0.
        3    1    3    3  502    0  0.31155240246E+03 -0.57136494505E+03 -0.27198345319E+03  0.70533524576E+03  0.10100000352E+00 0.  1.
       -3    1    3    3    0  502 -0.31155240246E+03  0.57136494505E+03  0.90473662047E+03  0.11144824640E+04  0.10100000352E+00 0. -1.
</event>
<event>
 5   0  0.3605571E-04  0.1725567E+04  0.7818609E-02  0.8746915E-01
       -2   -1    0    0    0  501  0.00000000000E+00  0.00000000000E+00  0.49575166553E+03  0.49575166553E+03  0.25500000920E-02 0.  1.
        2   -1    0    0  501    0  0.00000000000E+00  0.00000000000E+00 -0.15015487433E+04  0.15015487433E+04  0.25500000920E-02 0. -1.
    10030    2    1    2    0    0  0.00000000000E+00  0.00000000000E+00 -0.10057970778E+04  0.19973004088E+04  0.17255669102E+04 0.  0.
        4    1    3    3  502    0  0.44231189602E+03  0.24001451053E+03  0.30828156488E+03  0.59015753386E+03  0.12699999809E+01 0.  1.
       -4    1    3    3    0  502 -0.44231189602E+03 -0.24001451053E+03 -0.13140786426E+04  0.14071428750E+04  0.12699999809E+01 0. -1.
</event>
<event>
 5   0  0.1920289E-04  0.1670825E+04  0.7818609E-02  0.8778181E-01
       -1   -1    0    0    0  501  0.00000000000E+00  0.00000000000E+00  0.77559394298E+03  0.77559394299E+03  0.50400001928E-02 0.  1.
        1   -1    0    0  501    0  0.00000000000E+00  0.00000000000E+00 -0.89984466041E+03  0.89984466042E+03  0.50400001928E-02 0. -1.
    10030    2    1    2    0    0  0.00000000000E+00  0.00000000000E+00 -0.12425071743E+03  0.16754386034E+04  0.16708250277E+04 0.  0.
        4    1    3    3  502    0 -0.54464640571E+03 -0.59917488321E+03  0.14402003467E+03  0.82243153588E+03  0.12699999809E+01 0.  1.
       -4    1    3    3    0  502  0.54464640571E+03  0.59917488321E+03 -0.26827075210E+03  0.85300706753E+03  0.12699999809E+01 0. -1.
</event>
<event>
 5   0  0.1920289E-04  0.1700884E+04  0.7818609E-02  0.8760860E-01
       -1   -1    0    0    0  501  0.00000000000E+00  0.00000000000E+00  0.77031963395E+03  0.77031963397E+03  0.50400001928E-02 0.  1.
        1   -1    0    0  501    0  0.00000000000E+00  0.00000000000E+00 -0.93889854705E+03  0.93889854707E+03  0.50400001928E-02 0. -1.
    10030    2    1    2    0    0  0.00000000000E+00  0.00000000000E+00 -0.16857891310E+03  0.17092181810E+04  0.17008844583E+04 0.  0.
        4    1    3    3  502    0  0.26468101430E+03 -0.24811185070E+03  0.68865726983E+03  0.77837393198E+03  0.12699999809E+01 0.  1.
       -4    1    3    3    0  502 -0.26468101430E+03  0.24811185070E+03 -0.85723618293E+03  0.93084424906E+03  0.12699999809E+01 0. -1.
</event>
<event>
 5   0  0.3573262E-04  0.1517055E+04  0.7818609E-02  0.8873190E-01
       -2   -1    0    0    0  501  0.00000000000E+00  0.00000000000E+00  0.59841575939E+03  0.59841575940E+03  0.25500000920E-02 0. -1.
        2   -1    0    0  501    0  0.00000000000E+00  0.00000000000E+00 -0.96147904852E+03  0.96147904852E+03  0.25500000920E-02 0.  1.
    10030    2    1    2    0    0  0.00000000000E+00  0.00000000000E+00 -0.36306328913E+03  0.15598948079E+04  0.15170553252E+04 0.  0.
        5    1    3    3  502    0 -0.51808389191E+03 -0.11418272418E+03 -0.73895978871E+03  0.90968800854E+03  0.46999998093E+01 0. -1.
       -5    1    3    3    0  502  0.51808389191E+03  0.11418272418E+03  0.37589649958E+03  0.65020679937E+03  0.46999998093E+01 0.  1.
</event>
<event>
 5   0  0.1920289E-04  0.1715355E+04  0.7818609E-02  0.8752655E-01
       -1   -1    0    0    0  501  0.00000000000E+00  0.00000000000E+00  0.49882142029E+03  0.49882142031E+03  0.50400001928E-02 0. -1.
        1   -1    0    0  501    0  0.00000000000E+00  0.00000000000E+00 -0.14746977897E+04  0.14746977897E+04  0.50400001928E-02 0.  1.
    10030    2    1    2    0    0  0.00000000000E+00  0.00000000000E+00 -0.97587636941E+03  0.19735192100E+04  0.17153551772E+04 0.  0.
        4    1    3    3  502    0  0.12626951060E+03  0.84803451556E+03 -0.51373366154E+03  0.99951509082E+03  0.12699999809E+01 0.  1.
       -4    1    3    3    0  502 -0.12626951060E+03 -0.84803451556E+03 -0.46214270788E+03  0.97400411920E+03  0.12699999809E+01 0. -1.
</event>
<event>
 5   0  0.3574092E-04  0.1683820E+04  0.7818609E-02  0.8770646E-01
        2   -1    0    0  501    0  0.00000000000E+00  0.00000000000E+00  0.80632679237E+03  0.80632679237E+03  0.25500000920E-02 0.  1.
       -2   -1    0    0    0  501  0.00000000000E+00  0.00000000000E+00 -0.87906380064E+03  0.87906380064E+03  0.25500000920E-02 0. -1.
    10030    2    1    2    0    0  0.00000000000E+00  0.00000000000E+00 -0.72737008275E+02  0.16853905930E+04  0.16838202929E+04 0.  0.
        3    1    3    3  502    0 -0.28179422011E+03  0.78845004774E+03  0.51754638313E+02  0.83889213434E+03  0.10100000352E+00 0.  1.
       -3    1    3    3    0  502  0.28179422011E+03 -0.78845004774E+03 -0.12449164659E+03  0.84649845868E+03  0.10100000352E+00 0. -1.
</event>
<event>
 5   0  0.3574092E-04  0.1589115E+04  0.7818609E-02  0.8827263E-01
       -2   -1    0    0    0  501  0.00000000000E+00  0.00000000000E+00  0.37659811465E+03  0.37659811465E+03  0.25500000920E-02 0.  1.
        2   -1    0    0  501    0  0.00000000000E+00  0.00000000000E+00 -0.16763802426E+04  0.16763802426E+04  0.25500000920E-02 0. -1.
    10030    2    1    2    0    0  0.00000000000E+00  0.00000000000E+00 -0.12997821279E+04  0.20529783572E+04  0.15891150226E+04 0.  0.
        3    1    3    3  502    0  0.19241264168E+03  0.41206960736E+03 -0.14916091891E+04  0.15593979508E+04  0.10100000352E+00 0. -1.
       -3    1    3    3    0  502 -0.19241264168E+03 -0.41206960736E+03  0.19182706113E+03  0.49358040639E+03  0.10100000352E+00 0.  1.
</event>
<event>
 5   0  0.1920289E-04  0.1644886E+04  0.7818609E-02  0.8793438E-01
       -1   -1    0    0    0  501  0.00000000000E+00  0.00000000000E+00  0.79154944657E+03  0.79154944659E+03  0.50400001928E-02 0. -1.
        1   -1    0    0  501    0  0.00000000000E+00  0.00000000000E+00 -0.85454213646E+03  0.85454213648E+03  0.50400001928E-02 0.  1.
    10030    2    1    2    0    0  0.00000000000E+00  0.00000000000E+00 -0.62992689890E+02  0.16460915831E+04  0.16448858382E+04 0.  0.
        4    1    3    3  502    0 -0.72254175635E+03  0.39282454950E+03 -0.25745310538E+02  0.82282571075E+03  0.12699999809E+01 0. -1.
       -4    1    3    3    0  502  0.72254175635E+03 -0.39282454950E+03 -0.37247379352E+02  0.82326587232E+03  0.12699999809E+01 0.  1.
</event>
<event>
 5   0  0.1824538E-04  0.1705352E+04  0.7818609E-02  0.8758318E-01
        1   -1    0    0  501    0  0.00000000000E+00  0.00000000000E+00  0.15928925095E+04  0.15928925095E+04  0.50400001928E-02 0. -1.
       -1   -1    0    0    0  501  0.00000000000E+00  0.00000000000E+00 -0.45643764142E+03  0.45643764144E+03  0.50400001928E-02 0.  1.
    10030    2    1    2    0    0  0.00000000000E+00  0.00000000000E+00  0.11364548681E+04  0.20493301509E+04  0.17053516940E+04 0.  0.
        3    1    3    3  502    0 -0.21728388172E+03 -0.54274924353E+03  0.13141245260E+04  0.14383018830E+04  0.10100000352E+00 0. -1.
       -3    1    3    3    0  502  0.21728388172E+03  0.54274924353E+03 -0.17766965798E+03  0.61102826790E+03  0.10100000352E+00 0.  1.
</event>
<event>
 5   0  0.1920289E-04  0.1721584E+04  0.7818609E-02  0.8749149E-01
       -1   -1    0    0    0  501  0.00000000000E+00  0.00000000000E+00  0.49451957404E+03  0.49451957407E+03  0.50400001928E-02 0.  1.
        1   -1    0    0  501    0  0.00000000000E+00  0.00000000000E+00 -0.14983493729E+04  0.14983493729E+04  0.50400001928E-02 0. -1.
    10030    2    1    2    0    0  0.00000000000E+00  0.00000000000E+00 -0.10038297989E+04  0.19928689470E+04  0.17215842631E+04 0.  0.
        4    1    3    3  502    0 -0.21957689924E+03  0.75130302649E+03 -0.91653364931E+03  0.12052824547E+04  0.12699999809E+01 0.  1.
       -4    1    3    3    0  502  0.21957689924E+03 -0.75130302649E+03 -0.87296149573E+02  0.78758649234E+03  0.12699999809E+01 0. -1.
</event>
<event>
 5   0  0.3573262E-04  0.1709176E+04  0.7818609E-02  0.8756148E-01
        2   -1    0    0  501    0  0.00000000000E+00  0.00000000000E+00  0.13046924832E+04  0.13046924832E+04  0.25500000920E-02 0. -1.
       -2   -1    0    0    0  501  0.00000000000E+00  0.00000000000E+00 -0.55976444435E+03  0.55976444435E+03  0.25500000920E-02 0.  1.
    10030    2    1    2    0    0  0.00000000000E+00  0.00000000000E+00  0.74492803884E+03  0.18644569275E+04  0.17091757814E+04 0.  0.
        5    1    3    3  502    0 -0.26983157272E+03 -0.66615609265E+03 -0.13184141542E+03  0.73073748106E+03  0.46999998093E+01 0.  1.
       -5    1    3    3    0  502  0.26983157272E+03  0.66615609265E+03  0.87676945426E+03  0.11337194465E+04  0.46999998093E+01 0. -1.
</event>
<event>
 5   0  0.1920289E-04  0.1697258E+04  0.7818609E-02  0.8762930E-01
       -1   -1    0    0    0  501  0.00000000000E+00  0.00000000000E+00  0.74463117231E+03  0.74463117233E+03  0.50400001928E-02 0.  1.
        1   -1    0    0  501    0  0.00000000000E+00  0.00000000000E+00 -0.96715175731E+03  0.96715175733E+03  0.50400001928E-02 0. -1.
    10030    2    1    2    0    0  0.00000000000E+00  0.00000000000E+00 -0.22252058500E+03  0.17117829297E+04  0.16972581971E+04 0.  0.
        4    1    3    3  502    0  0.63481907066E+03 -0.45622769804E+03  0.22176353968E+03  0.81260054477E+03  0.12699999809E+01 0. -1.
       -4    1    3    3    0  502 -0.63481907066E+03  0.45622769804E+03 -0.44428412468E+03  0.89918238488E+03  0.12699999809E+01 0.  1.
</event>
<event>
 5   0  0.1893284E-04  0.1712720E+04  0.7818609E-02  0.8754143E-01
       -1   -1    0    0    0  501  0.00000000000E+00  0.00000000000E+00  0.62890306690E+03  0.62890306692E+03  0.50400001928E-02 0.  1.
        1   -1    0    0  501    0  0.00000000000E+00  0.00000000000E+00 -0.11660814268E+04  0.11660814268E+04  0.50400001928E-02 0. -1.
    10030    2    1    2    0    0  0.00000000000E+00  0.00000000000E+00 -0.53717835987E+03  0.17949844937E+04  0.17127196917E+04 0.  0.
        2    1    3    3  502    0  0.43665587942E+03 -0.86370869988E+02 -0.10353186566E+04  0.11269485370E+04  0.25500000920E-02 0. -1.
       -2    1    3    3    0  502 -0.43665587942E+03  0.86370869988E+02  0.49814029676E+03  0.66803595673E+03  0.25500000920E-02 0.  1.
</event>
<event>
 5   0  0.1815663E-04  0.1704734E+04  0.7818609E-02  0.8758669E-01
        1   -1    0    0  501    0  0.00000000000E+00  0.00000000000E+00  0.10824327514E+04  0.10824327514E+04  0.50400001928E-02 0. -1.
       -1   -1    0    0    0  501  0.00000000000E+00  0.00000000000E+00 -0.67120027475E+03  0.67120027477E+03  0.50400001928E-02 0.  1.
    10030    2    1    2    0    0  0.00000000000E+00  0.00000000000E+00  0.41123247666E+03  0.17536330262E+04  0.17047335982E+04 0.  0.
        5    1    3    3  502    0  0.70477037497E+03  0.48396207418E+02  0.69622821460E+03  0.99186656922E+03  0.46999998093E+01 0.  1.
       -5    1    3    3    0  502 -0.70477037497E+03 -0.48396207418E+02 -0.28499573793E+03  0.76176645697E+03  0.46999998093E+01 0. -1.
</event>
<event>
 5   0  0.3678896E-04  0.1660903E+04  0.7818609E-02  0.8783982E-01
        2   -1    0    0  501    0  0.00000000000E+00  0.00000000000E+00  0.19053315235E+04  0.19053315235E+04  0.25500000920E-02 0.  1.
       -2   -1    0    0    0  501  0.00000000000E+00  0.00000000000E+00 -0.36195794094E+03  0.36195794095E+03  0.25500000920E-02 0. -1.
    10030    2    1    2    0    0  0.00000000000E+00  0.00000000000E+00  0.15433735825E+04  0.22672894644E+04  0.16609032182E+04 0.  0.
        2    1    3    3  502    0  0.63315146378E+03  0.45814610602E+03  0.11550602033E+04  0.13946120263E+04  0.25500000920E-02 0.  1.
       -2    1    3    3    0  502 -0.63315146378E+03 -0.45814610602E+03  0.38831337921E+03  0.87267743814E+03  0.25500000920E-02 0. -1.
</event>
<event>
 5   0  0.3605571E-04  0.1696082E+04  0.7818609E-02  0.8763602E-01
        2   -1    0    0  501    0  0.00000000000E+00  0.00000000000E+00  0.97822862264E+03  0.97822862265E+03  0.25500000920E-02 0.  1.
       -2   -1    0    0    0  501  0.00000000000E+00  0.00000000000E+00 -0.73517957875E+03  0.73517957876E+03  0.25500000920E-02 0. -1.
    10030    2    1    2    0    0  0.00000000000E+00  0.00000000000E+00  0.24304904389E+03  0.17134082014E+04  0.16960821993E+04 0.  0.
        4    1    3    3  502    0  0.13417223423E+03 -0.62602849113E+02 -0.72202086016E+03  0.73704615904E+03  0.12699999809E+01 0. -1.
       -4    1    3    3    0  502 -0.13417223423E+03  0.62602849113E+02  0.96506990405E+03  0.97636204236E+03  0.12699999809E+01 0.  1.
</event>
<event>
 5   0  0.3574092E-04  0.1743292E+04  0.7818609E-02  0.8737051E-01
       -2   -1    0    0    0  501  0.00000000000E+00  0.00000000000E+00  0.42836508468E+03  0.42836508468E+03  0.25500000920E-02 0.  1.
        2   -1    0    0  501    0  0.00000000000E+00  0.00000000000E+00 -0.17736430748E+04  0.17736430748E+04  0.25500000920E-02 0. -1.
    10030    2    1    2    0    0  0.00000000000E+00  0.00000000000E+00 -0.13452779901E+04  0.22020081594E+04  0.17432920190E+04 0.  0.
        3    1    3    3  502    0  0.56803053443E+03 -0.31425629768E+03  0.62099077038E+02  0.65212883255E+03  0.10100000352E+00 0.  1.
       -3    1    3    3    0  502 -0.56803053443E+03  0.31425629768E+03 -0.14073770671E+04  0.15498793269E+04  0.10100000352E+00 0. -1.
</event>
<event>
 5   0  0.1930116E-04  0.1718206E+04  0.7818609E-02  0.8751049E-01
        1   -1    0    0  501    0  0.00000000000E+00  0.00000000000E+00  0.14888299114E+04  0.14888299114E+04  0.50400001928E-02 0. -1.
       -1   -1    0    0    0  501  0.00000000000E+00  0.00000000000E+00 -0.49572997953E+03  0.49572997955E+03  0.50400001928E-02 0.  1.
    10030    2    1    2    0    0  0.00000000000E+00  0.00000000000E+00  0.99309993185E+03  0.19845598909E+04  0.17182056006E+04 0.  0.
        1    1    3    3  502    0 -0.22575318680E+03 -0.17825156620E+03  0.14315586077E+04  0.14601705960E+04  0.50400001928E-02 0. -1.
       -1    1    3    3    0  502  0.22575318680E+03  0.17825156620E+03 -0.43845867583E+03  0.52438929493E+03  0.50400001928E-02 0.  1.
</event>
<event>
 5   0  0.1824538E-04  0.1642143E+04  0.7818609E-02  0.8795068E-01
       -1   -1    0    0    0  501  0.00000000000E+00  0.00000000000E+00  0.52755717223E+03  0.52755717225E+03  0.50400001928E-02 0. -1.
        1   -1    0    0  501    0  0.00000000000E+00  0.00000000000E+00 -0.12778861629E+04  0.12778861629E+04  0.50400001928E-02 0.  1.
    10030    2    1    2    0    0  0.00000000000E+00  0.00000000000E+00 -0.75032899069E+03  0.18054433352E+04  0.16421425158E+04 0.  0.
        3    1    3    3  502    0  0.68937293182E+03 -0.44350945468E+03 -0.42699396775E+03  0.92426161568E+03  0.10100000352E+00 0.  1.
       -3    1    3    3    0  502 -0.68937293182E+03  0.44350945468E+03 -0.32333502294E+03  0.88118171950E+03  0.10100000352E+00 0. -1.
</event>
<event>
 5   0  0.1815663E-04  0.1729439E+04  0.7818609E-02  0.8744750E-01
       -1   -1    0    0    0  501  0.00000000000E+00  0.00000000000E+00  0.45758851487E+03  0.45758851490E+03  0.50400001928E-02 0.  1.
        1   -1    0    0  501    0  0.00000000000E+00  0.00000000000E+00 -0.16340881073E+04  0.16340881073E+04  0.50400001928E-02 0. -1.
    10030    2    1    2    0    0  0.00000000000E+00  0.00000000000E+00 -0.11764995924E+04  0.20916766222E+04  0.17294391579E+04 0.  0.
        5    1    3    3  502    0  0.50981616078E+03 -0.65784574486E+03 -0.30449350203E+03  0.88623468934E+03  0.46999998093E+01 0.  1.
       -5    1    3    3    0  502 -0.50981616078E+03  0.65784574486E+03 -0.87200609042E+03  0.12054419329E+04  0.46999998093E+01 0. -1.
</event>
<event>
 5   0  0.1815663E-04  0.1685817E+04  0.7818609E-02  0.8769495E-01
       -1   -1    0    0    0  501  0.00000000000E+00  0.00000000000E+00  0.89875855330E+03  0.89875855331E+03  0.50400001928E-02 0.  1.
        1   -1    0    0  501    0  0.00000000000E+00  0.00000000000E+00 -0.79052928807E+03  0.79052928809E+03  0.50400001928E-02 0. -1.
    10030    2    1    2    0    0  0.00000000000E+00  0.00000000000E+00  0.10822926523E+03  0.16892878414E+04  0.16858172609E+04 0.  0.
        5    1    3    3  502    0  0.47068891954E+03 -0.52558415761E+03  0.51624309513E+03  0.87425155932E+03  0.46999998093E+01 0.  1.
       -5    1    3    3    0  502 -0.47068891954E+03  0.52558415761E+03 -0.40801382990E+03  0.81503628208E+03  0.46999998093E+01 0. -1.
</event>
<event>
 5   0  0.3678896E-04  0.1681073E+04  0.7818609E-02  0.8772233E-01
        2   -1    0    0  501    0  0.00000000000E+00  0.00000000000E+00  0.92515300356E+03  0.92515300356E+03  0.25500000920E-02 0.  1.
       -2   -1    0    0    0  501  0.00000000000E+00  0.00000000000E+00 -0.76365895998E+03  0.76365895998E+03  0.25500000920E-02 0. -1.
    10030    2    1    2    0    0  0.00000000000E+00  0.00000000000E+00  0.16149404358E+03  0.16888119635E+04  0.16810727296E+04 0.  0.
        2    1    3    3  502    0 -0.43379639773E+03  0.42780707047E+03  0.66246652897E+03  0.90003339173E+03  0.25500000920E-02 0.  1.
       -2    1    3    3    0  502  0.43379639773E+03 -0.42780707047E+03 -0.50097248539E+03  0.78877857181E+03  0.25500000920E-02 0. -1.
</event>
<event>
 5   0  0.3678896E-04  0.1703220E+04  0.7818609E-02  0.8759530E-01
        2   -1    0    0  501    0  0.00000000000E+00  0.00000000000E+00  0.15816443645E+04  0.15816443645E+04  0.25500000920E-02 0.  1.
       -2   -1    0    0    0  501  0.00000000000E+00  0.00000000000E+00 -0.45853529002E+03  0.45853529003E+03  0.25500000920E-02 0. -1.
    10030    2    1    2    0    0  0.00000000000E+00  0.00000000000E+00  0.11231090745E+04  0.20401796545E+04  0.17032201941E+04 0.  0.
        2    1    3    3  502    0  0.48617963769E+02  0.34507724330E+03 -0.36921756707E+03  0.50770426637E+03  0.25500000920E-02 0. -1.
       -2    1    3    3    0  502 -0.48617963769E+02 -0.34507724330E+03  0.14923266415E+04  0.15324753881E+04  0.25500000920E-02 0.  1.
</event>
<event>
 5   0  0.1824538E-04  0.1575872E+04  0.7818609E-02  0.8835509E-01
       -1   -1    0    0    0  501  0.00000000000E+00  0.00000000000E+00  0.38647361952E+03  0.38647361955E+03  0.50400001928E-02 0.  1.
        1   -1    0    0  501    0  0.00000000000E+00  0.00000000000E+00 -0.16064315316E+04  0.16064315316E+04  0.50400001928E-02 0. -1.
    10030    2    1    2    0    0  0.00000000000E+00  0.00000000000E+00 -0.12199579121E+04  0.19929051511E+04  0.15758723407E+04 0.  0.
        3    1    3    3  502    0  0.75889215064E+03  0.19731958681E+02 -0.87686438706E+03  0.11598266293E+04  0.10100000352E+00 0. -1.
       -3    1    3    3    0  502 -0.75889215064E+03 -0.19731958681E+02 -0.34309352500E+03  0.83307852187E+03  0.10100000352E+00 0.  1.
</event>
<event>
 5   0  0.1930116E-04  0.1737599E+04  0.7818609E-02  0.8740206E-01
        1   -1    0    0  501    0  0.00000000000E+00  0.00000000000E+00  0.81998550746E+03  0.81998550747E+03  0.50400001928E-02 0. -1.
       -1   -1    0    0    0  501  0.00000000000E+00  0.00000000000E+00 -0.92051906664E+03  0.92051906665E+03  0.50400001928E-02 0.  1.
    10030    2    1    2    0    0  0.00000000000E+00  0.00000000000E+00 -0.10053355918E+03  0.17405045741E+04  0.17375986809E+04 0.  0.
        1    1    3    3  502    0  0.21414743627E+02  0.20996107448E+03 -0.89445141166E+03  0.91901336872E+03  0.50400001928E-02 0.  1.
       -1    1    3    3    0  502 -0.21414743627E+02 -0.20996107448E+03  0.79391785248E+03  0.82149120540E+03  0.50400001928E-02 0. -1.
</event>
<event>
 5   0  0.3516723E-04  0.1714896E+04  0.7818609E-02  0.8752914E-01
       -2   -1    0    0    0  501  0.00000000000E+00  0.00000000000E+00  0.56680943830E+03  0.56680943831E+03  0.25500000920E-02 0. -1.
        2   -1    0    0  501    0  0.00000000000E+00  0.00000000000E+00 -0.12971153975E+04  0.12971153975E+04  0.25500000920E-02 0.  1.
    10030    2    1    2    0    0  0.00000000000E+00  0.00000000000E+00 -0.73030595922E+03  0.18639248358E+04  0.17148962066E+04 0.  0.
        1    1    3    3  502    0 -0.68890742092E+03 -0.10510019462E+03  0.17783910716E+03  0.71921223124E+03  0.50400001928E-02 0. -1.
       -1    1    3    3    0  502  0.68890742092E+03  0.10510019462E+03 -0.90814506638E+03  0.11447126046E+04  0.50400001928E-02 0.  1.
</event>
<event>
 5   0  0.3573262E-04  0.1700796E+04  0.7818609E-02  0.8760910E-01
       -2   -1    0    0    0  501  0.00000000000E+00  0.00000000000E+00  0.25258660546E+03  0.25258660548E+03  0.25500000920E-02 0.  1.
        2   -1    0    0  501    0  0.00000000000E+00  0.00000000000E+00 -0.28630857680E+04  0.28630857680E+04  0.25500000920E-02 0. -1.
    10030    2    1    2    0    0  0.00000000000E+00  0.00000000000E+00 -0.26104991625E+04  0.31156723735E+04  0.17007964197E+04 0.  0.
        5    1    3    3  502    0 -0.47365162893E+03  0.59407703811E+03 -0.60556910141E+03  0.97160147148E+03  0.46999998093E+01 0.  1.
       -5    1    3    3    0  502  0.47365162893E+03 -0.59407703811E+03 -0.20049300611E+04  0.21440709020E+04  0.46999998093E+01 0. -1.
</event>
<event>
 5   0  0.1893284E-04  0.1684309E+04  0.7818609E-02  0.8770365E-01
        1   -1    0    0  501    0  0.00000000000E+00  0.00000000000E+00  0.10760932160E+04  0.10760932160E+04  0.50400001928E-02 0. -1.
       -1   -1    0    0    0  501  0.00000000000E+00  0.00000000000E+00 -0.65907286877E+03  0.65907286879E+03  0.50400001928E-02 0.  1.
    10030    2    1    2    0    0  0.00000000000E+00  0.00000000000E+00  0.41702034723E+03  0.17351660848E+04  0.16843085738E+04 0.  0.
        2    1    3    3  502    0 -0.12061336916E+03 -0.57945562174E+03  0.82568843686E+03  0.10159122980E+04  0.25500000920E-02 0. -1.
       -2    1    3    3    0  502  0.12061336916E+03  0.57945562174E+03 -0.40866808963E+03  0.71925378683E+03  0.25500000920E-02 0.  1.
</event>
<event>
 5   0  0.1893284E-04  0.1714361E+04  0.7818609E-02  0.8753216E-01
        1   -1    0    0  501    0  0.00000000000E+00  0.00000000000E+00  0.82293404033E+03  0.82293404034E+03  0.50400001928E-02 0. -1.
       -1   -1    0    0    0  501  0.00000000000E+00  0.00000000000E+00 -0.89285226922E+03  0.89285226923E+03  0.50400001928E-02 0.  1.
    10030    2    1    2    0    0  0.00000000000E+00  0.00000000000E+00 -0.69918228891E+02  0.17157863096E+04  0.17143611351E+04 0.  0.
        2    1    3    3  502    0 -0.68564898368E+03  0.46022045492E+03  0.19510396642E+03  0.84851809272E+03  0.25500000920E-02 0.  1.
       -2    1    3    3    0  502  0.68564898368E+03 -0.46022045492E+03 -0.26502219531E+03  0.86726821685E+03  0.25500000920E-02 0. -1.
</event>
<event>
 5   0  0.1824538E-04  0.1710635E+04  0.7818609E-02  0.8755322E-01
        1   -1    0    0  501    0  0.00000000000E+00  0.00000000000E+00  0.16866913517E+04  0.16866913517E+04  0.50400001928E-02 0.  1.
       -1   -1    0    0    0  501  0.00000000000E+00  0.00000000000E+00 -0.43372968795E+03  0.43372968798E+03  0.50400001928E-02 0. -1.
    10030    2    1    2    0    0  0.00000000000E+00  0.00000000000E+00  0.12529616637E+04  0.21204210396E+04  0.17106351027E+04 0.  0.
        3    1    3    3  502    0 -0.66738335522E+03 -0.40614065445E+03  0.10580466914E+04  0.13152237777E+04  0.10100000352E+00 0.  1.
       -3    1    3    3    0  502  0.66738335522E+03  0.40614065445E+03  0.19491497229E+03  0.80519726195E+03  0.10100000352E+00 0. -1.
</event>
<event>
 5   0  0.3574092E-04  0.1661409E+04  0.7818609E-02  0.8783685E-01
       -2   -1    0    0    0  501  0.00000000000E+00  0.00000000000E+00  0.11706456236E+04  0.11706456236E+04  0.25500000920E-02 0.  1.
        2   -1    0    0  501    0  0.00000000000E+00  0.00000000000E+00 -0.58947838779E+03  0.58947838780E+03  0.25500000920E-02 0. -1.
    10030    2    1    2    0    0  0.00000000000E+00  0.00000000000E+00  0.58116723583E+03  0.17601240114E+04  0.16614093955E+04 0.  0.
        3    1    3    3  502    0 -0.76371939011E+00  0.76914236686E+03 -0.41893727897E+02  0.77028284312E+03  0.10100000352E+00 0. -1.
       -3    1    3    3    0  502  0.76371939011E+00 -0.76914236686E+03  0.62306096373E+03  0.98984116831E+03  0.10100000352E+00 0.  1.
</event>
<event>
 5   0  0.1815663E-04  0.1759437E+04  0.7818609E-02  0.8728173E-01
        1   -1    0    0  501    0  0.00000000000E+00  0.00000000000E+00  0.11785645950E+04  0.11785645950E+04  0.50400001928E-02 0.  1.
       -1   -1    0    0    0  501  0.00000000000E+00  0.00000000000E+00 -0.65664995236E+03  0.65664995238E+03  0.50400001928E-02 0. -1.
    10030    2    1    2    0    0  0.00000000000E+00  0.00000000000E+00  0.52191464261E+03  0.18352145474E+04  0.17594367112E+04 0.  0.
        5    1    3    3  502    0 -0.34910881616E+03 -0.28048241829E+03 -0.52884316960E+03  0.69299678247E+03  0.46999998093E+01 0. -1.
       -5    1    3    3    0  502  0.34910881616E+03  0.28048241829E+03  0.10507578122E+04  0.11422177649E+04  0.46999998093E+01 0.  1.
</event>
<event>
 5   0  0.1893284E-04  0.1712106E+04  0.7818609E-02  0.8754490E-01
        1   -1    0    0  501    0  0.00000000000E+00  0.00000000000E+00  0.75631805998E+03  0.75631806000E+03  0.50400001928E-02 0.  1.
       -1   -1    0    0    0  501  0.00000000000E+00  0.00000000000E+00 -0.96893986069E+03  0.96893986071E+03  0.50400001928E-02 0. -1.
    10030    2    1    2    0    0  0.00000000000E+00  0.00000000000E+00 -0.21262180071E+03  0.17252579207E+04  0.17121059730E+04 0.  0.
        2    1    3    3  502    0 -0.74990799092E+03 -0.35384788409E+03  0.10805878446E+03  0.83620991433E+03  0.25500000920E-02 0.  1.
       -2    1    3    3    0  502  0.74990799092E+03  0.35384788409E+03 -0.32068058517E+03  0.88904800637E+03  0.25500000920E-02 0. -1.
</event>
<event>
 5   0  0.3574092E-04  0.1730404E+04  0.7818609E-02  0.8744211E-01
       -2   -1    0    0    0  501  0.00000000000E+00  0.00000000000E+00  0.12419741645E+04  0.12419741645E+04  0.25500000920E-02 0. -1.
        2   -1    0    0  501    0  0.00000000000E+00  0.00000000000E+00 -0.60272965107E+03  0.60272965107E+03  0.25500000920E-02 0.  1.
    10030    2    1    2    0    0  0.00000000000E+00  0.00000000000E+00  0.63924451346E+03  0.18447038156E+04  0.17304041780E+04 0.  0.
        3    1    3    3  502    0  0.85966017137E+03  0.87573155735E+02  0.27327678307E+03  0.90629182839E+03  0.10100000352E+00 0. -1.
       -3    1    3    3    0  502 -0.85966017137E+03 -0.87573155735E+02  0.36596773039E+03  0.93841198721E+03  0.10100000352E+00 0.  1.
</event>
<event>
 5   0  0.3573262E-04  0.1715483E+04  0.7818609E-02  0.8752583E-01
        2   -1    0    0  501    0  0.00000000000E+00  0.00000000000E+00  0.21610018672E+04  0.21610018672E+04  0.25500000920E-02 0.  1.
       -2   -1    0    0    0  501  0.00000000000E+00  0.00000000000E+00 -0.34045323002E+03  0.34045323003E+03  0.25500000920E-02 0. -1.
    10030    2    1    2    0    0  0.00000000000E+00  0.00000000000E+00  0.18205486372E+04  0.25014550972E+04  0.17154825161E+04 0.  0.
        5    1    3    3  502    0 -0.18684830219E+03  0.53001740675E+03 -0.34574682955E+02  0.56307036699E+03  0.46999998093E+01 0. -1.
       -5    1    3    3    0  502  0.18684830219E+03 -0.53001740675E+03  0.18551233201E+04  0.19383847302E+04  0.46999998093E+01 0.  1.
</event>
<event>
 5   0  0.3573262E-04  0.1663005E+04  0.7818609E-02  0.8782750E-01
        2   -1    0    0  501    0  0.00000000000E+00  0.00000000000E+00  0.21199113811E+04  0.21199113811E+04  0.25500000920E-02 0. -1.
       -2   -1    0    0    0  501  0.00000000000E+00  0.00000000000E+00 -0.32614404085E+03  0.32614404086E+03  0.25500000920E-02 0.  1.
    10030    2    1    2    0    0  0.00000000000E+00  0.00000000000E+00  0.17937673402E+04  0.24460554220E+04  0.16630050680E+04 0.  0.
        5    1    3    3  502    0  0.20968629107E+03 -0.46971411116E+03  0.18577700700E+04  0.19276751308E+04  0.46999998093E+01 0. -1.
       -5    1    3    3    0  502 -0.20968629107E+03  0.46971411116E+03 -0.64002729722E+02  0.51838029119E+03  0.46999998093E+01 0.  1.
</event>
<event>
 5   0  0.3573262E-04  0.1705836E+04  0.7818609E-02  0.8758043E-01
        2   -1    0    0  501    0  0.00000000000E+00  0.00000000000E+00  0.13090895754E+04  0.13090895754E+04  0.25500000920E-02 0.  1.
       -2   -1    0    0    0  501  0.00000000000E+00  0.00000000000E+00 -0.55570618325E+03  0.55570618325E+03  0.25500000920E-02 0. -1.
    10030    2    1    2    0    0  0.00000000000E+00  0.00000000000E+00  0.75338339217E+03  0.18647957587E+04  0.17058360666E+04 0.  0.
        5    1    3    3  502    0 -0.20688199814E+03 -0.62944255131E+03  0.96381388698E+03  0.11695971038E+04  0.46999998093E+01 0.  1.
       -5    1    3    3    0  502  0.20688199814E+03  0.62944255131E+03 -0.21043049481E+03  0.69519865484E+03  0.46999998093E+01 0. -1.
</event>
<event>
 5   0  0.3678896E-04  0.1696609E+04  0.7818609E-02  0.8763300E-01
       -2   -1    0    0    0  501  0.00000000000E+00  0.00000000000E+00  0.49496835894E+03  0.49496835894E+03  0.25500000920E-02 0. -1.
        2   -1    0    0  501    0  0.00000000000E+00  0.00000000000E+00 -0.14538726118E+04  0.14538726118E+04  0.25500000920E-02 0.  1.
    10030    2    1    2    0    0  0.00000000000E+00  0.00000000000E+00 -0.95890425289E+03  0.19488409708E+04  0.16966094905E+04 0.  0.
        2    1    3    3  502    0  0.27508749426E+03 -0.34670868279E+03 -0.13107425062E+04  0.13834471286E+04  0.25500000920E-02 0.  1.
       -2    1    3    3    0  502 -0.27508749426E+03  0.34670868279E+03  0.35183825330E+03  0.56539384212E+03  0.25500000920E-02 0. -1.
</event>
<event>
 5   0  0.3605571E-04  0.1698798E+04  0.7818609E-02  0.8762050E-01
        2   -1    0    0  501    0  0.00000000000E+00  0.00000000000E+00  0.59328106025E+03  0.59328106025E+03  0.25500000920E-02 0. -1.
       -2   -1    0    0    0  501  0.00000000000E+00  0.00000000000E+00 -0.12160825676E+04  0.12160825676E+04  0.25500000920E-02 0.  1.
    10030    2    1    2    0    0  0.00000000000E+00  0.00000000000E+00 -0.62280150734E+03  0.18093636278E+04  0.16987981105E+04 0.  0.
        4    1    3    3  502    0  0.71211619862E+02 -0.29811996788E+03 -0.11551269181E+04  0.11951010082E+04  0.12699999809E+01 0.  1.
       -4    1    3    3    0  502 -0.71211619862E+02  0.29811996788E+03  0.53232541075E+03  0.61426261963E+03  0.12699999809E+01 0. -1.
</event>
<event>
 5   0  0.3574092E-04  0.1707614E+04  0.7818609E-02  0.8757034E-01
       -2   -1    0    0    0  501  0.00000000000E+00  0.00000000000E+00  0.35277059719E+03  0.35277059720E+03  0.25500000920E-02 0.  1.
        2   -1    0    0  501    0  0.00000000000E+00  0.00000000000E+00 -0.20664594208E+04  0.20664594208E+04  0.25500000920E-02 0. -1.
    10030    2    1    2    0    0  0.00000000000E+00  0.00000000000E+00 -0.17136888236E+04  0.24192300180E+04  0.17076136846E+04 0.  0.
        3    1    3    3  502    0  0.82727242214E+03 -0.20262286315E+03 -0.94126102639E+03  0.12694124685E+04  0.10100000352E+00 0. -1.
       -3    1    3    3    0  502 -0.82727242214E+03  0.20262286315E+03 -0.77242779726E+03  0.11498175496E+04  0.10100000352E+00 0.  1.
</event>
<event>
 5   0  0.3573262E-04  0.1772685E+04  0.7818609E-02  0.8720962E-01
       -2   -1    0    0    0  501  0.00000000000E+00  0.00000000000E+00  0.45727177568E+03  0.45727177569E+03  0.25500000920E-02 0. -1.
        2   -1    0    0  501    0  0.00000000000E+00  0.00000000000E+00 -0.17180213361E+04  0.17180213361E+04  0.25500000920E-02 0.  1.
    10030    2    1    2    0    0  0.00000000000E+00  0.00000000000E+00 -0.12607495604E+04  0.21752931118E+04  0.17726845935E+04 0.  0.
        5    1    3    3  502    0  0.24975817848E+03  0.80495355683E+03 -0.29375236531E+03  0.89254799226E+03  0.46999998093E+01 0.  1.
       -5    1    3    3    0  502 -0.24975817848E+03 -0.80495355683E+03 -0.96699719513E+03  0.12827451196E+04  0.46999998093E+01 0. -1.
</event>
<event>
 5   0  0.3516723E-04  0.1699931E+04  0.7818609E-02  0.8761403E-01
        2   -1    0    0  501    0  0.00000000000E+00  0.00000000000E+00  0.14242121852E+04  0.14242121852E+04  0.25500000920E-02 0.  1.
       -2   -1    0    0    0  501  0.00000000000E+00  0.00000000000E+00 -0.50725705648E+03  0.50725705649E+03  0.25500000920E-02 0. -1.
    10030    2    1    2    0    0  0.00000000000E+00  0.00000000000E+00  0.91695512872E+03  0.19314692417E+04  0.16999313879E+04 0.  0.
        1    1    3    3  502    0  0.15589305746E+03 -0.82447219421E+03  0.30441968088E+03  0.89259642981E+03  0.50400001928E-02 0.  1.
       -1    1    3    3    0  502 -0.15589305746E+03  0.82447219421E+03  0.61253544784E+03  0.10388728119E+04  0.50400001928E-02 0. -1.
</event>
<event>
 5   0  0.1317625E-04  0.1712660E+04  0.7818609E-02  0.8754177E-01
        3   -1    0    0  501    0  0.00000000000E+00  0.00000000000E+00  0.80131414275E+03  0.80131414912E+03  0.10100000352E+00 0.  1.
       -3   -1    0    0    0  501  0.00000000000E+00  0.00000000000E+00 -0.91512278222E+03  0.91512278780E+03  0.10100000352E+00 0. -1.
    10030    2    1    2    0    0  0.00000000000E+00  0.00000000000E+00 -0.11380863947E+03  0.17164369369E+04  0.17126597304E+04 0.  0.
        3    1    3    3  502    0  0.13718388255E+03 -0.76375442974E+03 -0.41986404014E+03  0.88228457370E+03  0.10100000352E+00 0. -1.
       -3    1    3    3    0  502 -0.13718388255E+03  0.76375442974E+03  0.30605540067E+03  0.83415236322E+03  0.10100000352E+00 0.  1.
</event>
<event>
 5   0  0.3516723E-04  0.1660172E+04  0.7818609E-02  0.8784411E-01
       -2   -1    0    0    0  501  0.00000000000E+00  0.00000000000E+00  0.61822326571E+03  0.61822326571E+03  0.25500000920E-02 0. -1.
        2   -1    0    0  501    0  0.00000000000E+00  0.00000000000E+00 -0.11145532794E+04  0.11145532795E+04  0.25500000920E-02 0.  1.
    10030    2    1    2    0    0  0.00000000000E+00  0.00000000000E+00 -0.49633001374E+03  0.17327765452E+04  0.16601720010E+04 0.  0.
        1    1    3    3  502    0  0.47238521006E+03  0.39140320549E+03  0.33548484959E+03  0.69920979704E+03  0.50400001928E-02 0. -1.
       -1    1    3    3    0  502 -0.47238521006E+03 -0.39140320549E+03 -0.83181486333E+03  0.10335667481E+04  0.50400001928E-02 0.  1.
</event>
<event>
 5   0  0.1893284E-04  0.1713555E+04  0.7818609E-02  0.8753671E-01
        1   -1    0    0  501    0  0.00000000000E+00  0.00000000000E+00  0.73029458281E+03  0.73029458283E+03  0.50400001928E-02 0.  1.
       -1   -1    0    0    0  501  0.00000000000E+00  0.00000000000E+00 -0.10051666954E+04  0.10051666954E+04  0.50400001928E-02 0. -1.
    10030    2    1    2    0    0  0.00000000000E+00  0.00000000000E+00 -0.27487211262E+03  0.17354612783E+04  0.17135551261E+04 0.  0.
        2    1    3    3  502    0  0.46069096670E+03 -0.54763447297E+03 -0.61455098391E+03  0.94329878332E+03  0.25500000920E-02 0. -1.
       -2    1    3    3    0  502 -0.46069096670E+03  0.54763447297E+03  0.33967887129E+03  0.79216249495E+03  0.25500000920E-02 0.  1.
</event>
<event>
 5   0  0.3574092E-04  0.1709782E+04  0.7818609E-02  0.8755805E-01
        2   -1    0    0  501    0  0.00000000000E+00  0.00000000000E+00  0.16628151156E+04  0.16628151156E+04  0.25500000920E-02 0. -1.
       -2   -1    0    0    0  501  0.00000000000E+00  0.00000000000E+00 -0.43951864064E+03  0.43951864065E+03  0.25500000920E-02 0.  1.
    10030    2    1    2    0    0  0.00000000000E+00  0.00000000000E+00  0.12232964749E+04  0.21023337562E+04  0.17097815524E+04 0.  0.
        3    1    3    3  502    0  0.16480898093E+03 -0.22910315112E+03  0.16038825075E+04  0.16285236757E+04  0.10100000352E+00 0. -1.
       -3    1    3    3    0  502 -0.16480898093E+03  0.22910315112E+03 -0.38058603258E+03  0.47381008057E+03  0.10100000352E+00 0.  1.
</event>
<event>
 5   0  0.1920289E-04  0.1433507E+04  0.7818609E-02  0.8929915E-01
        1   -1    0    0  501    0  0.00000000000E+00  0.00000000000E+00  0.12146412184E+04  0.12146412184E+04  0.50400001928E-02 0. -1.
       -1   -1    0    0    0  501  0.00000000000E+00  0.00000000000E+00 -0.42295240202E+03  0.42295240205E+03  0.50400001928E-02 0.  1.
    10030    2    1    2    0    0  0.00000000000E+00  0.00000000000E+00  0.79168881634E+03  0.16375936204E+04  0.14335067784E+04 0.  0.
        4    1    3    3  502    0  0.67567878614E+03  0.20885591208E+03  0.52892521220E+03  0.88313425200E+03  0.12699999809E+01 0. -1.
       -4    1    3    3    0  502 -0.67567878614E+03 -0.20885591208E+03  0.26276360413E+03  0.75445936842E+03  0.12699999809E+01 0.  1.
</event>
<event>
 5   0  0.1930116E-04  0.1707559E+04  0.7818609E-02  0.8757065E-01
        1   -1    0    0  501    0  0.00000000000E+00  0.00000000000E+00  0.70038664946E+03  0.70038664948E+03  0.50400001928E-02 0.  1.
       -1   -1    0    0    0  501  0.00000000000E+00  0.00000000000E+00 -0.10407669741E+04  0.10407669741E+04  0.50400001928E-02 0. -1.
    10030    2    1    2    0    0  0.00000000000E+00  0.00000000000E+00 -0.34038032460E+03  0.17411536235E+04  0.17075588351E+04 0.  0.
        1    1    3    3  502    0  0.66998891957E+03  0.31236844528E+03  0.26539107549E+03  0.78542448455E+03  0.50400001928E-02 0.  1.
       -1    1    3    3    0  502 -0.66998891957E+03 -0.31236844528E+03 -0.60577140009E+03  0.95572913900E+03  0.50400001928E-02 0. -1.
</event>
<event>
 5   0  0.1815663E-04  0.1681400E+04  0.7818609E-02  0.8772044E-01
       -1   -1    0    0    0  501  0.00000000000E+00  0.00000000000E+00  0.49469119249E+03  0.49469119251E+03  0.50400001928E-02 0.  1.
        1   -1    0    0  501    0  0.00000000000E+00  0.00000000000E+00 -0.14287227576E+04  0.14287227576E+04  0.50400001928E-02 0. -1.
    10030    2    1    2    0    0  0.00000000000E+00  0.00000000000E+00 -0.93403156512E+03  0.19234139501E+04  0.16814000889E+04 0.  0.
        5    1    3    3  502    0 -0.18620604759E+03 -0.63973410785E+03  0.11943638786E+03  0.67691916921E+03  0.46999998093E+01 0. -1.
       -5    1    3    3    0  502  0.18620604759E+03  0.63973410785E+03 -0.10534679530E+04  0.12464947809E+04  0.46999998093E+01 0.  1.
</event>
<event>
 5   0  0.3605571E-04  0.1689891E+04  0.7818609E-02  0.8767151E-01
       -2   -1    0    0    0  501  0.00000000000E+00  0.00000000000E+00  0.10025145512E+04  0.10025145512E+04  0.25500000920E-02 0. -1.
        2   -1    0    0  501    0  0.00000000000E+00  0.00000000000E+00 -0.71214235504E+03  0.71214235504E+03  0.25500000920E-02 0.  1.
    10030    2    1    2    0    0  0.00000000000E+00  0.00000000000E+00  0.29037219618E+03  0.17146569063E+04  0.16898912077E+04 0.  0.
        4    1    3    3  502    0 -0.50760557967E+03 -0.39992624620E+03  0.69752308119E+03  0.95086512640E+03  0.12699999809E+01 0. -1.
       -4    1    3    3    0  502  0.50760557967E+03  0.39992624620E+03 -0.40715088501E+03  0.76379177986E+03  0.12699999809E+01 0.  1.
</event>
<event>
 5   0  0.1893284E-04  0.1704683E+04  0.7818609E-02  0.8758698E-01
       -1   -1    0    0    0  501  0.00000000000E+00  0.00000000000E+00  0.60828345803E+03  0.60828345805E+03  0.50400001928E-02 0. -1.
        1   -1    0    0  501    0  0.00000000000E+00  0.00000000000E+00 -0.11943214638E+04  0.11943214638E+04  0.50400001928E-02 0.  1.
    10030    2    1    2    0    0  0.00000000000E+00  0.00000000000E+00 -0.58603800576E+03  0.18026049219E+04  0.17046829500E+04 0.  0.
        2    1    3    3  502    0  0.50212004816E+03 -0.13006558557E+03  0.42217866291E+03  0.66878727764E+03  0.25500000920E-02 0. -1.
       -2    1    3    3    0  502 -0.50212004816E+03  0.13006558557E+03 -0.10082166687E+04  0.11338176442E+04  0.25500000920E-02 0.  1.
</event>
<event>
 5   0  0.3678896E-04  0.1696481E+04  0.7818609E-02  0.8763374E-01
        2   -1    0    0  501    0  0.00000000000E+00  0.00000000000E+00  0.16595509454E+04  0.16595509454E+04  0.25500000920E-02 0.  1.
       -2   -1    0    0    0  501  0.00000000000E+00  0.00000000000E+00 -0.43355819947E+03  0.43355819948E+03  0.25500000920E-02 0. -1.
    10030    2    1    2    0    0  0.00000000000E+00  0.00000000000E+00  0.12259927459E+04  0.20931091448E+04  0.16964809693E+04 0.  0.
        2    1    3    3  502    0  0.41323848702E+03 -0.62637867674E+03  0.12506899846E+03  0.76076182095E+03  0.25500000920E-02 0. -1.
       -2    1    3    3    0  502 -0.41323848702E+03  0.62637867674E+03  0.11009237474E+04  0.13323473239E+04  0.25500000920E-02 0.  1.
</event>
<event>
 5   0  0.3516723E-04  0.1685415E+04  0.7818609E-02  0.8769727E-01
        2   -1    0    0  501    0  0.00000000000E+00  0.00000000000E+00  0.57136943334E+03  0.57136943335E+03  0.25500000920E-02 0.  1.
       -2   -1    0    0    0  501  0.00000000000E+00  0.00000000000E+00 -0.12429017875E+04  0.12429017875E+04  0.25500000920E-02 0. -1.
    10030    2    1    2    0    0  0.00000000000E+00  0.00000000000E+00 -0.67153235419E+03  0.18142712209E+04  0.16854151893E+04 0.  0.
        1    1    3    3  502    0  0.56758708533E+03  0.57573098329E+03 -0.59171511747E+03  0.10018722697E+04  0.50400001928E-02 0. -1.
       -1    1    3    3    0  502 -0.56758708533E+03 -0.57573098329E+03 -0.79817236720E+02  0.81239895117E+03  0.50400001928E-02 0.  1.
</event>
<event>
 5   0  0.3573262E-04  0.1695408E+04  0.7818609E-02  0.8763988E-01
       -2   -1    0    0    0  501  0.00000000000E+00  0.00000000000E+00  0.76385112455E+03  0.76385112455E+03  0.25500000920E-02 0. -1.
        2   -1    0    0  501    0  0.00000000000E+00  0.00000000000E+00 -0.94076205451E+03  0.94076205452E+03  0.25500000920E-02 0.  1.
    10030    2    1    2    0    0  0.00000000000E+00  0.00000000000E+00 -0.17691092996E+03  0.17046131791E+04  0.16954080963E+04 0.  0.
        5    1    3    3  502    0  0.68982189050E+03 -0.21169852775E+03  0.35883019134E+03  0.80588566402E+03  0.46999998093E+01 0. -1.
       -5    1    3    3    0  502 -0.68982189050E+03  0.21169852775E+03 -0.53574112130E+03  0.89872751505E+03  0.46999998093E+01 0.  1.
</event>
<event>
 5   0  0.1893284E-04  0.1562358E+04  0.7818609E-02  0.8844012E-01
        1   -1    0    0  501    0  0.00000000000E+00  0.00000000000E+00  0.75527615334E+03  0.75527615336E+03  0.50400001928E-02 0.  1.
       -1   -1    0    0    0  501  0.00000000000E+00  0.00000000000E+00 -0.80797070680E+03  0.80797070681E+03  0.50400001928E-02 0. -1.
    10030    2    1    2    0    0  0.00000000000E+00  0.00000000000E+00 -0.52694553453E+02  0.15632468602E+04  0.15623584831E+04 0.  0.
        2    1    3    3  502    0 -0.20967594235E+03  0.35699453342E+03  0.63647328913E+03  0.75928080805E+03  0.25500000920E-02 0.  1.
       -2    1    3    3    0  502  0.20967594235E+03 -0.35699453342E+03 -0.68916784259E+03  0.80396605212E+03  0.25500000920E-02 0. -1.
</event>
<event>
 5   0  0.1920289E-04  0.1693693E+04  0.7818609E-02  0.8764970E-01
        1   -1    0    0  501    0  0.00000000000E+00  0.00000000000E+00  0.13679292411E+04  0.13679292411E+04  0.50400001928E-02 0.  1.
       -1   -1    0    0    0  501  0.00000000000E+00  0.00000000000E+00 -0.52425872444E+03  0.52425872446E+03  0.50400001928E-02 0. -1.
    10030    2    1    2    0    0  0.00000000000E+00  0.00000000000E+00  0.84367051666E+03  0.18921879656E+04  0.16936928164E+04 0.  0.
        4    1    3    3  502    0  0.58049748747E+03  0.58139820170E+03  0.19248040367E+03  0.84383145271E+03  0.12699999809E+01 0.  1.
       -4    1    3    3    0  502 -0.58049748747E+03 -0.58139820170E+03  0.65119011299E+03  0.10483565129E+04  0.12699999809E+01 0. -1.
</event>
<event>
 5   0  0.3605571E-04  0.1709060E+04  0.7818609E-02  0.8756214E-01
        2   -1    0    0  501    0  0.00000000000E+00  0.00000000000E+00  0.82075822954E+03  0.82075822954E+03  0.25500000920E-02 0. -1.
       -2   -1    0    0    0  501  0.00000000000E+00  0.00000000000E+00 -0.88969142554E+03  0.88969142554E+03  0.25500000920E-02 0.  1.
    10030    2    1    2    0    0  0.00000000000E+00  0.00000000000E+00 -0.68933196002E+02  0.17104496551E+04  0.17090600449E+04 0.  0.
        4    1    3    3  502    0  0.24008461647E+03  0.13104666015E+03 -0.84469639904E+03  0.88787807139E+03  0.12699999809E+01 0.  1.
       -4    1    3    3    0  502 -0.24008461647E+03 -0.13104666015E+03  0.77576320304E+03  0.82257158369E+03  0.12699999809E+01 0. -1.
</event>
<event>
 5   0  0.3574092E-04  0.1684467E+04  0.7818609E-02  0.8770273E-01
       -2   -1    0    0    0  501  0.00000000000E+00  0.00000000000E+00  0.11488270542E+04  0.11488270542E+04  0.25500000920E-02 0.  1.
        2   -1    0    0  501    0  0.00000000000E+00  0.00000000000E+00 -0.61746193934E+03  0.61746193935E+03  0.25500000920E-02 0. -1.
    10030    2    1    2    0    0  0.00000000000E+00  0.00000000000E+00  0.53136511482E+03  0.17662889935E+04  0.16844666584E+04 0.  0.
        3    1    3    3  502    0 -0.74473999380E+03  0.33623965519E+03  0.51654614509E+02  0.81875696851E+03  0.10100000352E+00 0.  1.
       -3    1    3    3    0  502  0.74473999380E+03 -0.33623965519E+03  0.47971050031E+03  0.94753202500E+03  0.10100000352E+00 0. -1.
</event>
<event>
 5   0  0.1930116E-04  0.1460097E+04  0.7818609E-02  0.8911430E-01
        1   -1    0    0  501    0  0.00000000000E+00  0.00000000000E+00  0.46463164249E+03  0.46463164252E+03  0.50400001928E-02 0.  1.
       -1   -1    0    0    0  501  0.00000000000E+00  0.00000000000E+00 -0.11470826062E+04  0.11470826063E+04  0.50400001928E-02 0. -1.
    10030    2    1    2    0    0  0.00000000000E+00  0.00000000000E+00 -0.68245096376E+03  0.16117142488E+04  0.14600970864E+04 0.  0.
        1    1    3    3  502    0  0.14610608996E+03  0.10463904571E+03  0.43983393303E+03  0.47513177970E+03  0.50400001928E-02 0.  1.
       -1    1    3    3    0  502 -0.14610608996E+03 -0.10463904571E+03 -0.11222848968E+04  0.11365824691E+04  0.50400001928E-02 0. -1.
</event>
<event>
 5   0  0.1824538E-04  0.1692998E+04  0.7818609E-02  0.8765368E-01
        1   -1    0    0  501    0  0.00000000000E+00  0.00000000000E+00  0.14834267024E+04  0.14834267025E+04  0.50400001928E-02 0.  1.
       -1   -1    0    0    0  501  0.00000000000E+00  0.00000000000E+00 -0.48304419325E+03  0.48304419328E+03  0.50400001928E-02 0. -1.
    10030    2    1    2    0    0  0.00000000000E+00  0.00000000000E+00  0.10003825092E+04  0.19664708957E+04  0.16929981155E+04 0.  0.
        3    1    3    3  502    0 -0.14888091263E+03  0.29585960504E+03 -0.40465771568E+03  0.52292093963E+03  0.10100000352E+00 0. -1.
       -3    1    3    3    0  502  0.14888091263E+03 -0.29585960504E+03  0.14050402249E+04  0.14435499561E+04  0.10100000352E+00 0.  1.
</event>
<event>
 5   0  0.1893284E-04  0.1681663E+04  0.7818609E-02  0.8771892E-01
        1   -1    0    0  501    0  0.00000000000E+00  0.00000000000E+00  0.93172251698E+03  0.93172251699E+03  0.50400001928E-02 0.  1.
       -1   -1    0    0    0  501  0.00000000000E+00  0.00000000000E+00 -0.75880687291E+03  0.75880687292E+03  0.50400001928E-02 0. -1.
    10030    2    1    2    0    0  0.00000000000E+00  0.00000000000E+00  0.17291564407E+03  0.16905293899E+04  0.16816628075E+04 0.  0.
        2    1    3    3  502    0 -0.11742803163E+03 -0.62489879702E+03 -0.46663357526E+03  0.78869179196E+03  0.25500000920E-02 0. -1.
       -2    1    3    3    0  502  0.11742803163E+03  0.62489879702E+03  0.63954921933E+03  0.90183759796E+03  0.25500000920E-02 0.  1.
</event>
<event>
 5   0  0.1893284E-04  0.1703996E+04  0.7818609E-02  0.8759089E-01
        1   -1    0    0  501    0  0.00000000000E+00  0.00000000000E+00  0.90420091332E+03  0.90420091333E+03  0.50400001928E-02 0.  1.
       -1   -1    0    0    0  501  0.00000000000E+00  0.00000000000E+00 -0.80280851835E+03  0.80280851836E+03  0.50400001928E-02 0. -1.
    10030    2    1    2    0    0  0.00000000000E+00  0.00000000000E+00  0.10139239497E+03  0.17070094317E+04  0.17039955347E+04 0.  0.
        2    1    3    3  502    0  0.20411998406E+03 -0.44831017142E+03  0.74708991682E+03  0.89486888510E+03  0.25500000920E-02 0.  1.
       -2    1    3    3    0  502 -0.20411998406E+03  0.44831017142E+03 -0.64569752185E+03  0.81214054659E+03  0.25500000920E-02 0. -1.
</event>
<event>
 5   0  0.3573262E-04  0.1678051E+04  0.7818609E-02  0.8773982E-01
       -2   -1    0    0    0  501  0.00000000000E+00  0.00000000000E+00  0.38296114005E+03  0.38296114006E+03  0.25500000920E-02 0.  1.
        2   -1    0    0  501    0  0.00000000000E+00  0.00000000000E+00 -0.18382126772E+04  0.18382126772E+04  0.25500000920E-02 0. -1.
    10030    2    1    2    0    0  0.00000000000E+00  0.00000000000E+00 -0.14552515372E+04  0.22211738173E+04  0.16780512776E+04 0.  0.
        5    1    3    3  502    0  0.43933668453E+03  0.14259034551E+03 -0.16547503189E+04  0.17180132237E+04  0.46999998093E+01 0. -1.
       -5    1    3    3    0  502 -0.43933668453E+03 -0.14259034551E+03  0.19949878172E+03  0.50316059357E+03  0.46999998093E+01 0.  1.
</event>
<event>
 5   0  0.1815663E-04  0.1707536E+04  0.7818609E-02  0.8757078E-01
       -1   -1    0    0    0  501  0.00000000000E+00  0.00000000000E+00  0.52382838178E+03  0.52382838181E+03  0.50400001928E-02 0. -1.
        1   -1    0    0  501    0  0.00000000000E+00  0.00000000000E+00 -0.13915233364E+04  0.13915233364E+04  0.50400001928E-02 0.  1.
    10030    2    1    2    0    0  0.00000000000E+00  0.00000000000E+00 -0.86769495458E+03  0.19153517182E+04  0.17075355546E+04 0.  0.
        5    1    3    3  502    0 -0.50946620096E+03 -0.30565683771E+03  0.25389183150E+03  0.64611536467E+03  0.46999998093E+01 0. -1.
       -5    1    3    3    0  502  0.50946620096E+03  0.30565683771E+03 -0.11215867861E+04  0.12692363535E+04  0.46999998093E+01 0.  1.
</event>
<event>
 5   0  0.1824538E-04  0.1692512E+04  0.7818609E-02  0.8765647E-01
       -1   -1    0    0    0  501  0.00000000000E+00  0.00000000000E+00  0.50078494231E+03  0.50078494234E+03  0.50400001928E-02 0.  1.
        1   -1    0    0  501    0  0.00000000000E+00  0.00000000000E+00 -0.14300535913E+04  0.14300535913E+04  0.50400001928E-02 0. -1.
    10030    2    1    2    0    0  0.00000000000E+00  0.00000000000E+00 -0.92926864897E+03  0.19308385336E+04  0.16925121036E+04 0.  0.
        3    1    3    3  502    0  0.20279663043E+03 -0.34941606632E+03 -0.13129348498E+04  0.13736870061E+04  0.10100000352E+00 0. -1.
       -3    1    3    3    0  502 -0.20279663043E+03  0.34941606632E+03  0.38366620085E+03  0.55715152750E+03  0.10100000352E+00 0.  1.
</event>
<event>
 5   0  0.1815663E-04  0.1703343E+04  0.7818609E-02  0.8759460E-01
       -1   -1    0    0    0  501  0.00000000000E+00  0.00000000000E+00  0.65408377687E+03  0.65408377689E+03  0.50400001928E-02 0. -1.
        1   -1    0    0  501    0  0.00000000000E+00  0.00000000000E+00 -0.11089471844E+04  0.11089471845E+04  0.50400001928E-02 0.  1.
    10030    2    1    2    0    0  0.00000000000E+00  0.00000000000E+00 -0.45486340757E+03  0.17630309613E+04  0.17033430221E+04 0.  0.
        5    1    3    3  502    0 -0.35592495712E+03  0.35987997586E+03  0.48149709924E+03  0.69861127868E+03  0.46999998093E+01 0. -1.
       -5    1    3    3    0  502  0.35592495712E+03 -0.35987997586E+03 -0.93636050681E+03  0.10644196827E+04  0.46999998093E+01 0.  1.
</event>
<event>
 5   0  0.1930116E-04  0.1692985E+04  0.7818609E-02  0.8765375E-01
        1   -1    0    0  501    0  0.00000000000E+00  0.00000000000E+00  0.15751862234E+04  0.15751862234E+04  0.50400001928E-02 0. -1.
       -1   -1    0    0    0  501  0.00000000000E+00  0.00000000000E+00 -0.45489828823E+03  0.45489828826E+03  0.50400001928E-02 0.  1.
    10030    2    1    2    0    0  0.00000000000E+00  0.00000000000E+00  0.11202879352E+04  0.20300845117E+04  0.16929849577E+04 0.  0.
        1    1    3    3  502    0  0.71845155285E+03  0.35473454416E+03  0.23276064953E+03  0.83437806216E+03  0.50400001928E-02 0.  1.
       -1    1    3    3    0  502 -0.71845155285E+03 -0.35473454416E+03  0.88752728566E+03  0.11957064495E+04  0.50400001928E-02 0. -1.
</event>
<event>
 5   0  0.3678896E-04  0.1635486E+04  0.7818609E-02  0.8799040E-01
       -2   -1    0    0    0  501  0.00000000000E+00  0.00000000000E+00  0.39606370093E+03  0.39606370094E+03  0.25500000920E-02 0. -1.
        2   -1    0    0  501    0  0.00000000000E+00  0.00000000000E+00 -0.16883729383E+04  0.16883729383E+04  0.25500000920E-02 0.  1.
    10030    2    1    2    0    0  0.00000000000E+00  0.00000000000E+00 -0.12923092374E+04  0.20844366392E+04  0.16354855359E+04 0.  0.
        2    1    3    3  502    0  0.17631375657E+03 -0.11956838284E+03 -0.16523852992E+04  0.16660613182E+04  0.25500000920E-02 0.  1.
       -2    1    3    3    0  502 -0.17631375657E+03  0.11956838284E+03  0.36007606185E+03  0.41837532104E+03  0.25500000920E-02 0. -1.
</event>
<event>
 5   0  0.3516723E-04  0.1700009E+04  0.7818609E-02  0.8761359E-01
        2   -1    0    0  501    0  0.00000000000E+00  0.00000000000E+00  0.77171440482E+03  0.77171440483E+03  0.25500000920E-02 0. -1.
       -2   -1    0    0    0  501  0.00000000000E+00  0.00000000000E+00 -0.93623673764E+03  0.93623673764E+03  0.25500000920E-02 0.  1.
    10030    2    1    2    0    0  0.00000000000E+00  0.00000000000E+00 -0.16452233282E+03  0.17079511425E+04  0.17000086785E+04 0.  0.
        1    1    3    3  502    0  0.18463029689E+03 -0.39050959283E+03  0.65322550874E+03  0.78312812101E+03  0.50400001928E-02 0. -1.
       -1    1    3    3    0  502 -0.18463029689E+03  0.39050959283E+03 -0.81774784156E+03  0.92482302146E+03  0.50400001928E-02 0.  1.
</event>
<event>
 5   0  0.1317625E-04  0.1680991E+04  0.7818609E-02  0.8772281E-01
        3   -1    0    0  501    0  0.00000000000E+00  0.00000000000E+00  0.12231547134E+04  0.12231547175E+04  0.10100000352E+00 0.  1.
       -3   -1    0    0    0  501  0.00000000000E+00  0.00000000000E+00 -0.57754974207E+03  0.57754975090E+03  0.10100000352E+00 0. -1.
    10030    2    1    2    0    0  0.00000000000E+00  0.00000000000E+00  0.64560497129E+03  0.18007044684E+04  0.16809910183E+04 0.  0.
        2    1    3    3  502    0 -0.30102533976E+03  0.78426849022E+03  0.29367445067E+03  0.88990898575E+03  0.25500000920E-02 0. -1.
       -2    1    3    3    0  502  0.30102533976E+03 -0.78426849022E+03  0.35193052062E+03  0.91079548269E+03  0.25500000920E-02 0.  1.
</event>
<event>
 5   0  0.1893284E-04  0.1704207E+04  0.7818609E-02  0.8758969E-01
       -1   -1    0    0    0  501  0.00000000000E+00  0.00000000000E+00  0.51644374568E+03  0.51644374570E+03  0.50400001928E-02 0.  1.
        1   -1    0    0  501    0  0.00000000000E+00  0.00000000000E+00 -0.14059226575E+04  0.14059226575E+04  0.50400001928E-02 0. -1.
    10030    2    1    2    0    0  0.00000000000E+00  0.00000000000E+00 -0.88947891182E+03  0.19223664032E+04  0.17042065173E+04 0.  0.
        2    1    3    3  502    0  0.77092430506E+03  0.13821103348E+03 -0.82334422268E+03  0.11363636227E+04  0.25500000920E-02 0.  1.
       -2    1    3    3    0  502 -0.77092430506E+03 -0.13821103348E+03 -0.66134689146E+02  0.78600278054E+03  0.25500000920E-02 0. -1.
</event>
<event>
 5   0  0.1824538E-04  0.1692666E+04  0.7818609E-02  0.8765558E-01
        1   -1    0    0  501    0  0.00000000000E+00  0.00000000000E+00  0.68412850207E+03  0.68412850209E+03  0.50400001928E-02 0.  1.
       -1   -1    0    0    0  501  0.00000000000E+00  0.00000000000E+00 -0.10469961774E+04  0.10469961774E+04  0.50400001928E-02 0. -1.
    10030    2    1    2    0    0  0.00000000000E+00  0.00000000000E+00 -0.36286767537E+03  0.17311246795E+04  0.16926664486E+04 0.  0.
        3    1    3    3  502    0  0.34379202138E+03 -0.59033811255E+03  0.32950475091E+03  0.75846254500E+03  0.10100000352E+00 0.  1.
       -3    1    3    3    0  502 -0.34379202138E+03  0.59033811255E+03 -0.69237242628E+03  0.97266213454E+03  0.10100000352E+00 0. -1.
</event>
<event>
 5   0  0.3678896E-04  0.1777083E+04  0.7818609E-02  0.8718582E-01
        2   -1    0    0  501    0  0.00000000000E+00  0.00000000000E+00  0.17642946384E+04  0.17642946384E+04  0.25500000920E-02 0.  1.
       -2   -1    0    0    0  501  0.00000000000E+00  0.00000000000E+00 -0.44749086574E+03  0.44749086575E+03  0.25500000920E-02 0. -1.
    10030    2    1    2    0    0  0.00000000000E+00  0.00000000000E+00  0.13168037727E+04  0.22117855042E+04  0.17770827051E+04 0.  0.
        2    1    3    3  502    0 -0.21500035263E+03  0.64715448917E+03 -0.50561400681E+02  0.68380592256E+03  0.25500000920E-02 0. -1.
       -2    1    3    3    0  502  0.21500035263E+03 -0.64715448917E+03  0.13673651734E+04  0.15279795816E+04  0.25500000920E-02 0.  1.
</event>
<event>
 5   0  0.3516723E-04  0.1708495E+04  0.7818609E-02  0.8756534E-01
       -2   -1    0    0    0  501  0.00000000000E+00  0.00000000000E+00  0.90002361468E+03  0.90002361468E+03  0.25500000920E-02 0.  1.
        2   -1    0    0  501    0  0.00000000000E+00  0.00000000000E+00 -0.81079944698E+03  0.81079944698E+03  0.25500000920E-02 0. -1.
    10030    2    1    2    0    0  0.00000000000E+00  0.00000000000E+00  0.89224167705E+02  0.17108230617E+04  0.17084948335E+04 0.  0.
        1    1    3    3  502    0 -0.22898729329E+03  0.24027986376E+03 -0.74358765277E+03  0.81430472846E+03  0.50400001928E-02 0. -1.
       -1    1    3    3    0  502  0.22898729329E+03 -0.24027986376E+03  0.83281182048E+03  0.89651833320E+03  0.50400001928E-02 0.  1.
</event>
<event>
 5   0  0.1930116E-04  0.1697849E+04  0.7818609E-02  0.8762592E-01
        1   -1    0    0  501    0  0.00000000000E+00  0.00000000000E+00  0.78092352604E+03  0.78092352605E+03  0.50400001928E-02 0. -1.
       -1   -1    0    0    0  501  0.00000000000E+00  0.00000000000E+00 -0.92284732096E+03  0.92284732098E+03  0.50400001928E-02 0.  1.
    10030    2    1    2    0    0  0.00000000000E+00  0.00000000000E+00 -0.14192379493E+03  0.17037708470E+04  0.16978494443E+04 0.  0.
        1    1    3    3  502    0  0.12740429275E+03 -0.81584030035E+03  0.12681920445E+03  0.83541029448E+03  0.50400001928E-02 0.  1.
       -1    1    3    3    0  502 -0.12740429275E+03  0.81584030035E+03 -0.26874299938E+03  0.86836055255E+03  0.50400001928E-02 0. -1.
</event>
<event>
 5   0  0.3678896E-04  0.1613813E+04  0.7818609E-02  0.8812107E-01
        2   -1    0    0  501    0  0.00000000000E+00  0.00000000000E+00  0.84199299596E+03  0.84199299596E+03  0.25500000920E-02 0. -1.
       -2   -1    0    0    0  501  0.00000000000E+00  0.00000000000E+00 -0.77328256194E+03  0.77328256195E+03  0.25500000920E-02 0.  1.
    10030    2    1    2    0    0  0.00000000000E+00  0.00000000000E+00  0.68710434019E+02  0.16152755579E+04  0.16138134974E+04 0.  0.
        2    1    3    3  502    0 -0.30236312816E+03  0.62724006512E+03  0.44245606430E+03  0.82499753296E+03  0.25500000920E-02 0. -1.
       -2    1    3    3    0  502  0.30236312816E+03 -0.62724006512E+03 -0.37374563028E+03  0.79027802495E+03  0.25500000920E-02 0.  1.
</event>
<event>
 5   0  0.1920289E-04  0.1732299E+04  0.7818609E-02  0.8743154E-01
        1   -1    0    0  501    0  0.00000000000E+00  0.00000000000E+00  0.11405419459E+04  0.11405419459E+04  0.50400001928E-02 0.  1.
       -1   -1    0    0    0  501  0.00000000000E+00  0.00000000000E+00 -0.65777065479E+03  0.65777065481E+03  0.50400001928E-02 0. -1.
    10030    2    1    2    0    0  0.00000000000E+00  0.00000000000E+00  0.48277129108E+03  0.17983126007E+04  0.17322990765E+04 0.  0.
        4    1    3    3  502    0  0.13274170096E+03  0.23405946498E+03  0.10960509004E+04  0.11285979716E+04  0.12699999809E+01 0.  1.
       -4    1    3    3    0  502 -0.13274170096E+03 -0.23405946498E+03 -0.61327960932E+03  0.66971462910E+03  0.12699999809E+01 0. -1.
</event>
<event>
 5   0  0.1824538E-04  0.1673491E+04  0.7818609E-02  0.8776630E-01
       -1   -1    0    0    0  501  0.00000000000E+00  0.00000000000E+00  0.63077114578E+03  0.63077114580E+03  0.50400001928E-02 0.  1.
        1   -1    0    0  501    0  0.00000000000E+00  0.00000000000E+00 -0.11099793937E+04  0.11099793937E+04  0.50400001928E-02 0. -1.
    10030    2    1    2    0    0  0.00000000000E+00  0.00000000000E+00 -0.47920824788E+03  0.17407505395E+04  0.16734909309E+04 0.  0.
        3    1    3    3  502    0 -0.41371221641E+01 -0.39840488229E+03 -0.10049752239E+04  0.10810729748E+04  0.10100000352E+00 0. -1.
       -3    1    3    3    0  502  0.41371221641E+01  0.39840488229E+03  0.52576697603E+03  0.65967756465E+03  0.10100000352E+00 0.  1.
</event>
<event>
 5   0  0.3573262E-04  0.1575709E+04  0.7818609E-02  0.8835612E-01
        2   -1    0    0  501    0  0.00000000000E+00  0.00000000000E+00  0.10523630847E+04  0.10523630847E+04  0.25500000920E-02 0.  1.
       -2   -1    0    0    0  501  0.00000000000E+00  0.00000000000E+00 -0.58982914358E+03  0.58982914358E+03  0.25500000920E-02 0. -1.
    10030    2    1    2    0    0  0.00000000000E+00  0.00000000000E+00  0.46253394115E+03  0.16421922283E+04  0.15757086241E+04 0.  0.
        5    1    3    3  502    0  0.12070612796E+03  0.32990283574E+03  0.96620615833E+03  0.10280964355E+04  0.46999998093E+01 0.  1.
       -5    1    3    3    0  502 -0.12070612796E+03 -0.32990283574E+03 -0.50367221718E+03  0.61409579278E+03  0.46999998093E+01 0. -1.
</event>
<event>
 5   0  0.3678896E-04  0.1714403E+04  0.7818609E-02  0.8753192E-01
       -2   -1    0    0    0  501  0.00000000000E+00  0.00000000000E+00  0.26031271702E+03  0.26031271703E+03  0.25500000920E-02 0. -1.
        2   -1    0    0  501    0  0.00000000000E+00  0.00000000000E+00 -0.28227370011E+04  0.28227370011E+04  0.25500000920E-02 0.  1.
    10030    2    1    2    0    0  0.00000000000E+00  0.00000000000E+00 -0.25624242841E+04  0.30830497182E+04  0.17144029144E+04 0.  0.
        2    1    3    3  502    0  0.35963979899E+03 -0.68575493594E+03 -0.61999227669E+03  0.99196322530E+03  0.25500000920E-02 0. -1.
       -2    1    3    3    0  502 -0.35963979899E+03  0.68575493594E+03 -0.19424320074E+04  0.20910864929E+04  0.25500000920E-02 0.  1.
</event>
<event>
 5   0  0.1317625E-04  0.1707095E+04  0.7818609E-02  0.8757328E-01
        3   -1    0    0  501    0  0.00000000000E+00  0.00000000000E+00  0.14646121318E+04  0.14646121353E+04  0.10100000352E+00 0. -1.
       -3   -1    0    0    0  501  0.00000000000E+00  0.00000000000E+00 -0.49743082097E+03  0.49743083122E+03  0.10100000352E+00 0.  1.
    10030    2    1    2    0    0  0.00000000000E+00  0.00000000000E+00  0.96718131086E+03  0.19620429665E+04  0.17070948756E+04 0.  0.
        1    1    3    3  502    0 -0.18419257914E+02  0.69045770955E+03  0.10599532247E+04  0.12651371294E+04  0.50400001928E-02 0. -1.
       -1    1    3    3    0  502  0.18419257914E+02 -0.69045770955E+03 -0.92771913835E+02  0.69690583709E+03  0.50400001928E-02 0.  1.
</event>
<event>
 5   0  0.1815663E-04  0.1682193E+04  0.7818609E-02  0.8771586E-01
       -1   -1    0    0    0  501  0.00000000000E+00  0.00000000000E+00  0.63126057357E+03  0.63126057359E+03  0.50400001928E-02 0. -1.
        1   -1    0    0  501    0  0.00000000000E+00  0.00000000000E+00 -0.11206833118E+04  0.11206833118E+04  0.50400001928E-02 0.  1.
    10030    2    1    2    0    0  0.00000000000E+00  0.00000000000E+00 -0.48942273821E+03  0.17519438854E+04  0.16821928429E+04 0.  0.
        5    1    3    3  502    0 -0.59627111680E+02  0.64686546338E+03 -0.80112122337E+03  0.10314105025E+04  0.46999998093E+01 0.  1.
       -5    1    3    3    0  502  0.59627111680E+02 -0.64686546338E+03  0.31169848516E+03  0.72053338286E+03  0.46999998093E+01 0. -1.
</event>
<event>
 5   0  0.1893284E-04  0.1618769E+04  0.7818609E-02  0.8809100E-01
       -1   -1    0    0    0  501  0.00000000000E+00  0.00000000000E+00  0.54384096614E+03  0.54384096616E+03  0.50400001928E-02 0.  1.
        1   -1    0    0  501    0  0.00000000000E+00  0.00000000000E+00 -0.12045861184E+04  0.12045861184E+04  0.50400001928E-02 0. -1.
    10030    2    1    2    0    0  0.00000000000E+00  0.00000000000E+00 -0.66074515224E+03  0.17484270846E+04  0.16187690119E+04 0.  0.
        2    1    3    3  502    0 -0.19281534825E+03  0.43890517339E+02  0.51734794635E+03  0.55385289891E+03  0.25500000920E-02 0.  1.
       -2    1    3    3    0  502  0.19281534825E+03 -0.43890517339E+02 -0.11780930986E+04  0.11945741856E+04  0.25500000920E-02 0. -1.
</event>
<event>
 5   0  0.1930116E-04  0.1731263E+04  0.7818609E-02  0.8743732E-01
       -1   -1    0    0    0  501  0.00000000000E+00  0.00000000000E+00  0.10903353222E+04  0.10903353222E+04  0.50400001928E-02 0.  1.
        1   -1    0    0  501    0  0.00000000000E+00  0.00000000000E+00 -0.68723633370E+03  0.68723633372E+03  0.50400001928E-02 0. -1.
    10030    2    1    2    0    0  0.00000000000E+00  0.00000000000E+00  0.40309898849E+03  0.17775716559E+04  0.17312631797E+04 0.  0.
        1    1    3    3  502    0 -0.59192458571E+03  0.50993648278E+03  0.58422250846E+03  0.97556438591E+03  0.50400001928E-02 0.  1.
       -1    1    3    3    0  502  0.59192458571E+03 -0.50993648278E+03 -0.18112351997E+03  0.80200727001E+03  0.50400001928E-02 0. -1.
</event>
<event>
 5   0  0.3678896E-04  0.1501572E+04  0.7818609E-02  0.8883408E-01
       -2   -1    0    0    0  501  0.00000000000E+00  0.00000000000E+00  0.77169702949E+03  0.77169702949E+03  0.25500000920E-02 0. -1.
        2   -1    0    0  501    0  0.00000000000E+00  0.00000000000E+00 -0.73044131815E+03  0.73044131816E+03  0.25500000920E-02 0.  1.
    10030    2    1    2    0    0  0.00000000000E+00  0.00000000000E+00  0.41255711337E+02  0.15021383477E+04  0.15015717038E+04 0.  0.
        2    1    3    3  502    0  0.36105455288E+03  0.65725305309E+03 -0.15956827968E+02  0.75006438812E+03  0.25500000920E-02 0. -1.
       -2    1    3    3    0  502 -0.36105455288E+03 -0.65725305309E+03  0.57212539305E+02  0.75207395954E+03  0.25500000920E-02 0.  1.
</event>
<event>
 5   0  0.1930116E-04  0.1688768E+04  0.7818609E-02  0.8767797E-01
        1   -1    0    0  501    0  0.00000000000E+00  0.00000000000E+00  0.12545684035E+04  0.12545684035E+04  0.50400001928E-02 0.  1.
       -1   -1    0    0    0  501  0.00000000000E+00  0.00000000000E+00 -0.56831012483E+03  0.56831012485E+03  0.50400001928E-02 0. -1.
    10030    2    1    2    0    0  0.00000000000E+00  0.00000000000E+00  0.68625827867E+03  0.18228785284E+04  0.16887675104E+04 0.  0.
        1    1    3    3  502    0 -0.38352157052E+02 -0.18007351640E+03 -0.54638003985E+03  0.57656613431E+03  0.50400001928E-02 0. -1.
       -1    1    3    3    0  502  0.38352157052E+02  0.18007351640E+03  0.12326383185E+04  0.12463123941E+04  0.50400001928E-02 0.  1.
</event>
<event>
 5   0  0.3573262E-04  0.1705570E+04  0.7818609E-02  0.8758194E-01
        2   -1    0    0  501    0  0.00000000000E+00  0.00000000000E+00  0.13755508121E+04  0.13755508121E+04  0.25500000920E-02 0. -1.
       -2   -1    0    0    0  501  0.00000000000E+00  0.00000000000E+00 -0.52869153617E+03  0.52869153618E+03  0.25500000920E-02 0.  1.
    10030    2    1    2    0    0  0.00000000000E+00  0.00000000000E+00  0.84685927595E+03  0.19042423483E+04  0.17055697839E+04 0.  0.
        5    1    3    3  502    0  0.18057494499E+03  0.57031882040E+03 -0.25510380355E+03  0.65036213623E+03  0.46999998093E+01 0.  1.
       -5    1    3    3    0  502 -0.18057494499E+03 -0.57031882040E+03  0.11019630795E+04  0.12538802121E+04  0.46999998093E+01 0. -1.
</event>
<event>
 5   0  0.1824538E-04  0.1573370E+04  0.7818609E-02  0.8837077E-01
        1   -1    0    0  501    0  0.00000000000E+00  0.00000000000E+00  0.10008490880E+04  0.10008490881E+04  0.50400001928E-02 0.  1.
       -1   -1    0    0    0  501  0.00000000000E+00  0.00000000000E+00 -0.61834849095E+03  0.61834849097E+03  0.50400001928E-02 0. -1.
    10030    2    1    2    0    0  0.00000000000E+00  0.00000000000E+00  0.38250059709E+03  0.16191975790E+04  0.15733702975E+04 0.  0.
        3    1    3    3  502    0 -0.70123964198E+02 -0.24539645782E+03  0.95705946615E+03  0.99050473185E+03  0.10100000352E+00 0.  1.
       -3    1    3    3    0  502  0.70123964198E+02  0.24539645782E+03 -0.57455886906E+03  0.62869284717E+03  0.10100000352E+00 0. -1.
</event>
<event>
 5   0  0.1317625E-04  0.1687938E+04  0.7818609E-02  0.8768274E-01
        3   -1    0    0  501    0  0.00000000000E+00  0.00000000000E+00  0.47583668793E+03  0.47583669865E+03  0.10100000352E+00 0. -1.
       -3   -1    0    0    0  501  0.00000000000E+00  0.00000000000E+00 -0.14969070020E+04  0.14969070054E+04  0.10100000352E+00 0.  1.
    10030    2    1    2    0    0  0.00000000000E+00  0.00000000000E+00 -0.10210703141E+04  0.19727437041E+04  0.16879375390E+04 0.  0.
        4    1    3    3  502    0 -0.44887622391E+03  0.46116047856E+03 -0.11486691860E+04  0.13166629649E+04  0.12699999809E+01 0.  1.
       -4    1    3    3    0  502  0.44887622391E+03 -0.46116047856E+03  0.12759887186E+03  0.65608073922E+03  0.12699999809E+01 0. -1.
</event>
<event>
 5   0  0.1815663E-04  0.1687069E+04  0.7818609E-02  0.8768774E-01
        1   -1    0    0  501    0  0.00000000000E+00  0.00000000000E+00  0.83019220363E+03  0.83019220365E+03  0.50400001928E-02 0. -1.
       -1   -1    0    0    0  501  0.00000000000E+00  0.00000000000E+00 -0.85709172960E+03  0.85709172961E+03  0.50400001928E-02 0.  1.
    10030    2    1    2    0    0  0.00000000000E+00  0.00000000000E+00 -0.26899525966E+02  0.16872839333E+04  0.16870694968E+04 0.  0.
        5    1    3    3  502    0 -0.26830777795E+03 -0.62804600432E+03  0.48168682952E+03  0.83574825096E+03  0.46999998093E+01 0. -1.
       -5    1    3    3    0  502  0.26830777795E+03  0.62804600432E+03 -0.50858635549E+03  0.85153568230E+03  0.46999998093E+01 0.  1.
</event>
<event>
 5   0  0.3678896E-04  0.1703267E+04  0.7818609E-02  0.8759503E-01
        2   -1    0    0  501    0  0.00000000000E+00  0.00000000000E+00  0.11185624478E+04  0.11185624478E+04  0.25500000920E-02 0.  1.
       -2   -1    0    0    0  501  0.00000000000E+00  0.00000000000E+00 -0.64840332177E+03  0.64840332178E+03  0.25500000920E-02 0. -1.
    10030    2    1    2    0    0  0.00000000000E+00  0.00000000000E+00  0.47015912600E+03  0.17669657696E+04  0.17032669864E+04 0.  0.
        2    1    3    3  502    0  0.56601099882E+03 -0.56179587058E+03  0.54508032513E+03  0.96596874268E+03  0.25500000920E-02 0. -1.
       -2    1    3    3    0  502 -0.56601099882E+03  0.56179587058E+03 -0.74921199126E+02  0.80099702688E+03  0.25500000920E-02 0.  1.
</event>
<event>
 5   0  0.1317625E-04  0.1693741E+04  0.7818609E-02  0.8764942E-01
       -3   -1    0    0    0  501  0.00000000000E+00  0.00000000000E+00  0.46536905016E+03  0.46536906112E+03  0.10100000352E+00 0.  1.
        3   -1    0    0  501    0  0.00000000000E+00  0.00000000000E+00 -0.15411194478E+04  0.15411194511E+04  0.10100000352E+00 0. -1.
    10030    2    1    2    0    0  0.00000000000E+00  0.00000000000E+00 -0.10757503977E+04  0.20064885123E+04  0.16937406034E+04 0.  0.
        1    1    3    3  502    0 -0.70207816879E+03  0.16886048243E+03 -0.13727562207E+02  0.72222992433E+03  0.50400001928E-02 0.  1.
       -1    1    3    3    0  502  0.70207816879E+03 -0.16886048243E+03 -0.10620228355E+04  0.12842585879E+04  0.50400001928E-02 0. -1.
</event>
<event>
 5   0  0.1930116E-04  0.1596509E+04  0.7818609E-02  0.8822695E-01
       -1   -1    0    0    0  501  0.00000000000E+00  0.00000000000E+00  0.73704169077E+03  0.73704169078E+03  0.50400001928E-02 0. -1.
        1   -1    0    0  501    0  0.00000000000E+00  0.00000000000E+00 -0.86455133191E+03  0.86455133193E+03  0.50400001928E-02 0.  1.
    10030    2    1    2    0    0  0.00000000000E+00  0.00000000000E+00 -0.12750964114E+03  0.16015930227E+04  0.15965091612E+04 0.  0.
        1    1    3    3  502    0 -0.30690311360E+03 -0.34394085948E+03  0.59003016330E+03  0.74874590456E+03  0.50400001928E-02 0. -1.
       -1    1    3    3    0  502  0.30690311360E+03  0.34394085948E+03 -0.71753980445E+03  0.85284711816E+03  0.50400001928E-02 0.  1.
</event>
<event>
 5   0  0.3678896E-04  0.1678458E+04  0.7818609E-02  0.8773747E-01
        2   -1    0    0  501    0  0.00000000000E+00  0.00000000000E+00  0.10937668748E+04  0.10937668748E+04  0.25500000920E-02 0.  1.
       -2   -1    0    0    0  501  0.00000000000E+00  0.00000000000E+00 -0.64392611586E+03  0.64392611586E+03  0.25500000920E-02 0. -1.
    10030    2    1    2    0    0  0.00000000000E+00  0.00000000000E+00  0.44984075894E+03  0.17376929907E+04  0.16784576913E+04 0.  0.
        2    1    3    3  502    0 -0.42453348950E+03  0.71508953882E+03  0.34169888923E+03  0.89907722869E+03  0.25500000920E-02 0. -1.
       -2    1    3    3    0  502  0.42453348950E+03 -0.71508953882E+03  0.10814186971E+03  0.83861576197E+03  0.25500000920E-02 0.  1.
</event>
<event>
 5   0  0.1893284E-04  0.1723641E+04  0.7818609E-02  0.8747995E-01
       -1   -1    0    0    0  501  0.00000000000E+00  0.00000000000E+00  0.31613801797E+03  0.31613801801E+03  0.50400001928E-02 0.  1.
        1   -1    0    0  501    0  0.00000000000E+00  0.00000000000E+00 -0.23493996370E+04  0.23493996370E+04  0.50400001928E-02 0. -1.
    10030    2    1    2    0    0  0.00000000000E+00  0.00000000000E+00 -0.20332616191E+04  0.26655376550E+04  0.17236409658E+04 0.  0.
        2    1    3    3  502    0 -0.20389133056E+03 -0.75296800832E+03 -0.15831538628E+04  0.17649103800E+04  0.25500000920E-02 0. -1.
       -2    1    3    3    0  502  0.20389133056E+03  0.75296800832E+03 -0.45010775624E+03  0.90062727499E+03  0.25500000920E-02 0.  1.
</event>
<event>
 5   0  0.1893284E-04  0.1696578E+04  0.7818609E-02  0.8763319E-01
       -1   -1    0    0    0  501  0.00000000000E+00  0.00000000000E+00  0.63713911701E+03  0.63713911703E+03  0.50400001928E-02 0. -1.
        1   -1    0    0  501    0  0.00000000000E+00  0.00000000000E+00 -0.11294139740E+04  0.11294139740E+04  0.50400001928E-02 0.  1.
    10030    2    1    2    0    0  0.00000000000E+00  0.00000000000E+00 -0.49227485700E+03  0.17665530911E+04  0.16965775222E+04 0.  0.
        2    1    3    3  502    0  0.39589855416E+03 -0.34991156366E+03 -0.93715092278E+03  0.10758371715E+04  0.25500000920E-02 0.  1.
       -2    1    3    3    0  502 -0.39589855416E+03  0.34991156366E+03  0.44487606579E+03  0.69071591953E+03  0.25500000920E-02 0. -1.
</event>
<event>
 5   0  0.1920289E-04  0.1704811E+04  0.7818609E-02  0.8758625E-01
       -1   -1    0    0    0  501  0.00000000000E+00  0.00000000000E+00  0.58425623106E+03  0.58425623109E+03  0.50400001928E-02 0. -1.
        1   -1    0    0  501    0  0.00000000000E+00  0.00000000000E+00 -0.12436242176E+04  0.12436242176E+04  0.50400001928E-02 0.  1.
    10030    2    1    2    0    0  0.00000000000E+00  0.00000000000E+00 -0.65936798650E+03  0.18278804487E+04  0.17048110725E+04 0.  0.
        4    1    3    3  502    0 -0.13704559829E+03  0.68496266524E+03  0.19408712358E+03  0.72500122291E+03  0.12699999809E+01 0. -1.
       -4    1    3    3    0  502  0.13704559829E+03 -0.68496266524E+03 -0.85345511008E+03  0.11028792258E+04  0.12699999809E+01 0.  1.
</event>
<event>
 5   0  0.1920289E-04  0.1721944E+04  0.7818609E-02  0.8748947E-01
       -1   -1    0    0    0  501  0.00000000000E+00  0.00000000000E+00  0.72686194863E+03  0.72686194865E+03  0.50400001928E-02 0.  1.
        1   -1    0    0  501    0  0.00000000000E+00  0.00000000000E+00 -0.10198257307E+04  0.10198257307E+04  0.50400001928E-02 0. -1.
    10030    2    1    2    0    0  0.00000000000E+00  0.00000000000E+00 -0.29296378206E+03  0.17466876794E+04  0.17219436900E+04 0.  0.
        4    1    3    3  502    0 -0.19407129443E+03  0.83346836398E+03 -0.50583840270E+02  0.85725930667E+03  0.12699999809E+01 0.  1.
       -4    1    3    3    0  502  0.19407129443E+03 -0.83346836398E+03 -0.24237994179E+03  0.88942837269E+03  0.12699999809E+01 0. -1.
</event>
<event>
 5   0  0.1815663E-04  0.1725621E+04  0.7818609E-02  0.8746885E-01
       -1   -1    0    0    0  501  0.00000000000E+00  0.00000000000E+00  0.48610440285E+03  0.48610440287E+03  0.50400001928E-02 0. -1.
        1   -1    0    0  501    0  0.00000000000E+00  0.00000000000E+00 -0.15314447780E+04  0.15314447780E+04  0.50400001928E-02 0.  1.
    10030    2    1    2    0    0  0.00000000000E+00  0.00000000000E+00 -0.10453403752E+04  0.20175491809E+04  0.17256211048E+04 0.  0.
        5    1    3    3  502    0  0.44551539698E+03  0.65192244460E+03 -0.92925514720E+03  0.12194359603E+04  0.46999998093E+01 0.  1.
       -5    1    3    3    0  502 -0.44551539698E+03 -0.65192244460E+03 -0.11608522797E+03  0.79811322058E+03  0.46999998093E+01 0. -1.
</event>
<event>
 5   0  0.1824538E-04  0.1667319E+04  0.7818609E-02  0.8780226E-01
        1   -1    0    0  501    0  0.00000000000E+00  0.00000000000E+00  0.13196356143E+04  0.13196356143E+04  0.50400001928E-02 0. -1.
       -1   -1    0    0    0  501  0.00000000000E+00  0.00000000000E+00 -0.52665130272E+03  0.52665130275E+03  0.50400001928E-02 0.  1.
    10030    2    1    2    0    0  0.00000000000E+00  0.00000000000E+00  0.79298431156E+03  0.18462869170E+04  0.16673185843E+04 0.  0.
        3    1    3    3  502    0  0.63251394648E+03 -0.52146216965E+02 -0.20208033973E+03  0.66605524872E+03  0.10100000352E+00 0.  1.
       -3    1    3    3    0  502 -0.63251394648E+03  0.52146216965E+02  0.99506465130E+03  0.11802316683E+04  0.10100000352E+00 0. -1.
</event>
<event>
 5   0  0.3573262E-04  0.1692437E+04  0.7818609E-02  0.8765689E-01
        2   -1    0    0  501    0  0.00000000000E+00  0.00000000000E+00  0.15748890557E+04  0.15748890557E+04  0.25500000920E-02 0.  1.
       -2   -1    0    0    0  501  0.00000000000E+00  0.00000000000E+00 -0.45468980478E+03  0.45468980479E+03  0.25500000920E-02 0. -1.
    10030    2    1    2    0    0  0.00000000000E+00  0.00000000000E+00  0.11201992509E+04  0.20295788605E+04  0.16924372925E+04 0.  0.
        5    1    3    3  502    0 -0.38039316258E+03  0.38390264289E+03  0.13409501920E+04  0.14457695891E+04  0.46999998093E+01 0.  1.
       -5    1    3    3    0  502  0.38039316258E+03 -0.38390264289E+03 -0.22075094109E+03  0.58380927138E+03  0.46999998093E+01 0. -1.
</event>
<event>
 5   0  0.1815663E-04  0.1740718E+04  0.7818609E-02  0.8738476E-01
       -1   -1    0    0    0  501  0.00000000000E+00  0.00000000000E+00  0.10126472027E+04  0.10126472027E+04  0.50400001928E-02 0.  1.
        1   -1    0    0  501    0  0.00000000000E+00  0.00000000000E+00 -0.74806363905E+03  0.74806363907E+03  0.50400001928E-02 0. -1.
    10030    2    1    2    0    0  0.00000000000E+00  0.00000000000E+00  0.26458356361E+03  0.17607108417E+04  0.17407177273E+04 0.  0.
        5    1    3    3  502    0  0.59820565109E+03  0.51432420295E+03  0.50410467533E+03  0.93622807073E+03  0.46999998093E+01 0.  1.
       -5    1    3    3    0  502 -0.59820565109E+03 -0.51432420295E+03 -0.23952111172E+03  0.82448277101E+03  0.46999998093E+01 0. -1.
</event>
<event>
 5   0  0.3516723E-04  0.1695845E+04  0.7818609E-02  0.8763738E-01
       -2   -1    0    0    0  501  0.00000000000E+00  0.00000000000E+00  0.34674947677E+03  0.34674947678E+03  0.25500000920E-02 0. -1.
        2   -1    0    0  501    0  0.00000000000E+00  0.00000000000E+00 -0.20734640218E+04  0.20734640218E+04  0.25500000920E-02 0.  1.
    10030    2    1    2    0    0  0.00000000000E+00  0.00000000000E+00 -0.17267145450E+04  0.24202134986E+04  0.16958449984E+04 0.  0.
        1    1    3    3  502    0  0.77173766235E+02 -0.15898983494E+03 -0.20468874951E+04  0.20545028536E+04  0.50400001928E-02 0.  1.
       -1    1    3    3    0  502 -0.77173766235E+02  0.15898983494E+03  0.32017295012E+03  0.36571064494E+03  0.50400001928E-02 0. -1.
</event>
<event>
 5   0  0.1824538E-04  0.1710059E+04  0.7818609E-02  0.8755648E-01
       -1   -1    0    0    0  501  0.00000000000E+00  0.00000000000E+00  0.81518785975E+03  0.81518785977E+03  0.50400001928E-02 0. -1.
        1   -1    0    0  501    0  0.00000000000E+00  0.00000000000E+00 -0.89681861740E+03  0.89681861742E+03  0.50400001928E-02 0.  1.
    10030    2    1    2    0    0  0.00000000000E+00  0.00000000000E+00 -0.81630757651E+02  0.17120064772E+04  0.17100592380E+04 0.  0.
        3    1    3    3  502    0  0.66920803010E+03  0.18638141389E+03  0.45824821499E+03  0.83220721923E+03  0.10100000352E+00 0.  1.
       -3    1    3    3    0  502 -0.66920803010E+03 -0.18638141389E+03 -0.53987897265E+03  0.87979925795E+03  0.10100000352E+00 0. -1.
</event>
<event>
 5   0  0.1893284E-04  0.1697130E+04  0.7818609E-02  0.8763003E-01
        1   -1    0    0  501    0  0.00000000000E+00  0.00000000000E+00  0.14674021432E+04  0.14674021432E+04  0.50400001928E-02 0.  1.
       -1   -1    0    0    0  501  0.00000000000E+00  0.00000000000E+00 -0.49070550089E+03  0.49070550092E+03  0.50400001928E-02 0. -1.
    10030    2    1    2    0    0  0.00000000000E+00  0.00000000000E+00  0.97669664232E+03  0.19581076441E+04  0.16971296989E+04 0.  0.
        2    1    3    3  502    0 -0.24934833278E+03  0.81109839298E+03  0.48527191727E+03  0.97751932352E+03  0.25500000920E-02 0. -1.
       -2    1    3    3    0  502  0.24934833278E+03 -0.81109839298E+03  0.49142472505E+03  0.98058832063E+03  0.25500000920E-02 0.  1.
</event>
<event>
 5   0  0.3516723E-04  0.1692646E+04  0.7818609E-02  0.8765570E-01
        2   -1    0    0  501    0  0.00000000000E+00  0.00000000000E+00  0.82252733698E+03  0.82252733698E+03  0.25500000920E-02 0.  1.
       -2   -1    0    0    0  501  0.00000000000E+00  0.00000000000E+00 -0.87080751065E+03  0.87080751066E+03  0.25500000920E-02 0. -1.
    10030    2    1    2    0    0  0.00000000000E+00  0.00000000000E+00 -0.48280173678E+02  0.16933348476E+04  0.16926464282E+04 0.  0.
        1    1    3    3  502    0 -0.45000769406E+03 -0.22393332784E+03 -0.70530608035E+03  0.86608875240E+03  0.50400001928E-02 0. -1.
       -1    1    3    3    0  502  0.45000769406E+03  0.22393332784E+03  0.65702590667E+03  0.82724609524E+03  0.50400001928E-02 0.  1.
</event>
<event>
 5   0  0.3574092E-04  0.1707014E+04  0.7818609E-02  0.8757374E-01
        2   -1    0    0  501    0  0.00000000000E+00  0.00000000000E+00  0.11533745156E+04  0.11533745156E+04  0.25500000920E-02 0.  1.
       -2   -1    0    0    0  501  0.00000000000E+00  0.00000000000E+00 -0.63160275428E+03  0.63160275428E+03  0.25500000920E-02 0. -1.
    10030    2    1    2    0    0  0.00000000000E+00  0.00000000000E+00  0.52177176129E+03  0.17849772699E+04  0.17070143769E+04 0.  0.
        3    1    3    3  502    0  0.30029481959E+03 -0.64488694995E+03  0.75403790719E+03  0.10366433005E+04  0.10100000352E+00 0. -1.
       -3    1    3    3    0  502 -0.30029481959E+03  0.64488694995E+03 -0.23226614590E+03  0.74833396931E+03  0.10100000352E+00 0.  1.
</event>
<event>
 5   0  0.3516723E-04  0.1691383E+04  0.7818609E-02  0.8766294E-01
       -2   -1    0    0    0  501  0.00000000000E+00  0.00000000000E+00  0.79942822965E+03  0.79942822965E+03  0.25500000920E-02 0.  1.
        2   -1    0    0  501    0  0.00000000000E+00  0.00000000000E+00 -0.89463245725E+03  0.89463245725E+03  0.25500000920E-02 0. -1.
    10030    2    1    2    0    0  0.00000000000E+00  0.00000000000E+00 -0.95204227600E+02  0.16940606869E+04  0.16913833882E+04 0.  0.
        1    1    3    3  502    0  0.26379329398E+03 -0.38009898659E+03 -0.75662964843E+03  0.88687686093E+03  0.50400001928E-02 0. -1.
       -1    1    3    3    0  502 -0.26379329398E+03  0.38009898659E+03  0.66142542083E+03  0.80718382596E+03  0.50400001928E-02 0.  1.
</event>
<event>
 5   0  0.3574092E-04  0.1695866E+04  0.7818609E-02  0.8763726E-01
        2   -1    0    0  501    0  0.00000000000E+00  0.00000000000E+00  0.10438528165E+04  0.10438528165E+04  0.25500000920E-02 0.  1.
       -2   -1    0    0    0  501  0.00000000000E+00  0.00000000000E+00 -0.68878501252E+03  0.68878501252E+03  0.25500000920E-02 0. -1.
    10030    2    1    2    0    0  0.00000000000E+00  0.00000000000E+00  0.35506780395E+03  0.17326378290E+04  0.16958657674E+04 0.  0.
        3    1    3    3  502    0 -0.45084110716E+03 -0.56886475024E+02  0.90894529996E+03  0.10162063489E+04  0.10100000352E+00 0.  1.
       -3    1    3    3    0  502  0.45084110716E+03  0.56886475024E+02 -0.55387749601E+03  0.71643148014E+03  0.10100000352E+00 0. -1.
</event>
<event>
 5   0  0.3678896E-04  0.1673343E+04  0.7818609E-02  0.8776716E-01
        2   -1    0    0  501    0  0.00000000000E+00  0.00000000000E+00  0.14291240648E+04  0.14291240648E+04  0.25500000920E-02 0.  1.
       -2   -1    0    0    0  501  0.00000000000E+00  0.00000000000E+00 -0.48982367276E+03  0.48982367276E+03  0.25500000920E-02 0. -1.
    10030    2    1    2    0    0  0.00000000000E+00  0.00000000000E+00  0.93930039203E+03  0.19189477376E+04  0.16733425211E+04 0.  0.
        2    1    3    3  502    0 -0.20176917708E+03 -0.52353873259E+03  0.11814043387E+04  0.13078684249E+04  0.25500000920E-02 0.  1.
       -2    1    3    3    0  502  0.20176917708E+03  0.52353873259E+03 -0.24210394668E+03  0.61107931264E+03  0.25500000920E-02 0. -1.
</event>
<event>
 5   0  0.3516723E-04  0.1710481E+04  0.7818609E-02  0.8755409E-01
       -2   -1    0    0    0  501  0.00000000000E+00  0.00000000000E+00  0.11433163283E+04  0.11433163283E+04  0.25500000920E-02 0.  1.
        2   -1    0    0  501    0  0.00000000000E+00  0.00000000000E+00 -0.63975003295E+03  0.63975003295E+03  0.25500000920E-02 0. -1.
    10030    2    1    2    0    0  0.00000000000E+00  0.00000000000E+00  0.50356629537E+03  0.17830663613E+04  0.17104814044E+04 0.  0.
        1    1    3    3  502    0 -0.50038729724E+03  0.63584825489E+03  0.54057013062E+03  0.97309121701E+03  0.50400001928E-02 0.  1.
       -1    1    3    3    0  502  0.50038729724E+03 -0.63584825489E+03 -0.37003835247E+02  0.80997514427E+03  0.50400001928E-02 0. -1.
</event>
<event>
 5   0  0.1815663E-04  0.1652679E+04  0.7818609E-02  0.8788823E-01
        1   -1    0    0  501    0  0.00000000000E+00  0.00000000000E+00  0.87812462710E+03  0.87812462712E+03  0.50400001928E-02 0.  1.
       -1   -1    0    0    0  501  0.00000000000E+00  0.00000000000E+00 -0.77760867343E+03  0.77760867344E+03  0.50400001928E-02 0. -1.
    10030    2    1    2    0    0  0.00000000000E+00  0.00000000000E+00  0.10051595367E+03  0.16557333006E+04  0.16526794322E+04 0.  0.
        5    1    3    3  502    0  0.36735876902E+03  0.66872872113E+03  0.36812120938E+03  0.84716343313E+03  0.46999998093E+01 0.  1.
       -5    1    3    3    0  502 -0.36735876902E+03 -0.66872872113E+03 -0.26760525571E+03  0.80856986743E+03  0.46999998093E+01 0. -1.
</event>
<event>
 5   0  0.1815663E-04  0.1690954E+04  0.7818609E-02  0.8766540E-01
       -1   -1    0    0    0  501  0.00000000000E+00  0.00000000000E+00  0.53851437649E+03  0.53851437651E+03  0.50400001928E-02 0.  1.
        1   -1    0    0  501    0  0.00000000000E+00  0.00000000000E+00 -0.13274144431E+04  0.13274144432E+04  0.50400001928E-02 0. -1.
    10030    2    1    2    0    0  0.00000000000E+00  0.00000000000E+00 -0.78890006666E+03  0.18659288197E+04  0.16909544775E+04 0.  0.
        5    1    3    3  502    0  0.30334189959E+03 -0.30685587909E+03 -0.11967563713E+04  0.12721732354E+04  0.46999998093E+01 0. -1.
       -5    1    3    3    0  502 -0.30334189959E+03  0.30685587909E+03  0.40785630467E+03  0.59375558426E+03  0.46999998093E+01 0.  1.
</event>
<event>
 5   0  0.3678896E-04  0.1693190E+04  0.7818609E-02  0.8765258E-01
       -2   -1    0    0    0  501  0.00000000000E+00  0.00000000000E+00  0.83533712782E+03  0.83533712782E+03  0.25500000920E-02 0. -1.
        2   -1    0    0  501    0  0.00000000000E+00  0.00000000000E+00 -0.85800433765E+03  0.85800433765E+03  0.25500000920E-02 0.  1.
    10030    2    1    2    0    0  0.00000000000E+00  0.00000000000E+00 -0.22667209834E+02  0.16933414655E+04  0.16931897461E+04 0.  0.
        2    1    3    3  502    0 -0.27190303281E+03 -0.73565418309E+03 -0.33011684195E+03  0.85093799169E+03  0.25500000920E-02 0.  1.
       -2    1    3    3    0  502  0.27190303281E+03  0.73565418309E+03  0.30744963212E+03  0.84240347379E+03  0.25500000920E-02 0. -1.
</event>
<event>
 5   0  0.1824538E-04  0.1693198E+04  0.7818609E-02  0.8765253E-01
       -1   -1    0    0    0  501  0.00000000000E+00  0.00000000000E+00  0.17222901633E+04  0.17222901633E+04  0.50400001928E-02 0.  1.
        1   -1    0    0  501    0  0.00000000000E+00  0.00000000000E+00 -0.41614924239E+03  0.41614924242E+03  0.50400001928E-02 0. -1.
    10030    2    1    2    0    0  0.00000000000E+00  0.00000000000E+00  0.13061409209E+04  0.21384394057E+04  0.16931978581E+04 0.  0.
        3    1    3    3  502    0  0.10548987331E+03 -0.80308974534E+03  0.34204265711E+03  0.87924651943E+03  0.10100000352E+00 0. -1.
       -3    1    3    3    0  502 -0.10548987331E+03  0.80308974534E+03  0.96409826383E+03  0.12591928863E+04  0.10100000352E+00 0.  1.
</event>
<event>
 5   0  0.1815663E-04  0.1721206E+04  0.7818609E-02  0.8749361E-01
       -1   -1    0    0    0  501  0.00000000000E+00  0.00000000000E+00  0.10792389718E+04  0.10792389718E+04  0.50400001928E-02 0.  1.
        1   -1    0    0  501    0  0.00000000000E+00  0.00000000000E+00 -0.68625932916E+03  0.68625932918E+03  0.50400001928E-02 0. -1.
    10030    2    1    2    0    0  0.00000000000E+00  0.00000000000E+00  0.39297964264E+03  0.17654983010E+04  0.17212063361E+04 0.  0.
        5    1    3    3  502    0 -0.43393246027E+03  0.14831621867E+03  0.94346063625E+03  0.10490162739E+04  0.46999998093E+01 0.  1.
       -5    1    3    3    0  502  0.43393246027E+03 -0.14831621867E+03 -0.55048099361E+03  0.71648202707E+03  0.46999998093E+01 0. -1.
</event>
<event>
 5   0  0.1317625E-04  0.1723987E+04  0.7818609E-02  0.8747801E-01
       -4   -1    0    0    0  501  0.00000000000E+00  0.00000000000E+00  0.11608292990E+04  0.11608299937E+04  0.12699999809E+01 0.  1.
        4   -1    0    0  501    0  0.00000000000E+00  0.00000000000E+00 -0.64008625476E+03  0.64008751467E+03  0.12699999809E+01 0. -1.
    10030    2    1    2    0    0  0.00000000000E+00  0.00000000000E+00  0.52074304423E+03  0.18009175084E+04  0.17239868195E+04 0.  0.
        2    1    3    3  502    0 -0.24826821091E+03 -0.67534829388E+03  0.75621052212E+03  0.10438327339E+04  0.25500000920E-02 0.  1.
       -2    1    3    3    0  502  0.24826821091E+03  0.67534829388E+03 -0.23546747789E+03  0.75708477448E+03  0.25500000920E-02 0. -1.
</event>
<event>
 5   0  0.3574092E-04  0.1709184E+04  0.7818609E-02  0.8756144E-01
        2   -1    0    0  501    0  0.00000000000E+00  0.00000000000E+00  0.11480748512E+04  0.11480748512E+04  0.25500000920E-02 0. -1.
       -2   -1    0    0    0  501  0.00000000000E+00  0.00000000000E+00 -0.63613193069E+03  0.63613193070E+03  0.25500000920E-02 0.  1.
    10030    2    1    2    0    0  0.00000000000E+00  0.00000000000E+00  0.51194292048E+03  0.17842067819E+04  0.17091835146E+04 0.  0.
        3    1    3    3  502    0  0.12815875467E+02  0.19742921448E+03 -0.61189617333E+03  0.64308590292E+03  0.10100000352E+00 0.  1.
       -3    1    3    3    0  502 -0.12815875467E+02 -0.19742921448E+03  0.11238390938E+04  0.11411208789E+04  0.10100000352E+00 0. -1.
</event>
<event>
 5   0  0.1815663E-04  0.1730261E+04  0.7818609E-02  0.8744291E-01
        1   -1    0    0  501    0  0.00000000000E+00  0.00000000000E+00  0.76978530061E+03  0.76978530062E+03  0.50400001928E-02 0.  1.
       -1   -1    0    0    0  501  0.00000000000E+00  0.00000000000E+00 -0.97228467365E+03  0.97228467366E+03  0.50400001928E-02 0. -1.
    10030    2    1    2    0    0  0.00000000000E+00  0.00000000000E+00 -0.20249937304E+03  0.17420699743E+04  0.17302606160E+04 0.  0.
        5    1    3    3  502    0  0.39282001647E+03  0.70000405833E+03  0.22362132444E+03  0.83327176465E+03  0.46999998093E+01 0.  1.
       -5    1    3    3    0  502 -0.39282001647E+03 -0.70000405833E+03 -0.42612069748E+03  0.90879820964E+03  0.46999998093E+01 0. -1.
</event>
<event>
 5   0  0.3678896E-04  0.1706898E+04  0.7818609E-02  0.8757440E-01
       -2   -1    0    0    0  501  0.00000000000E+00  0.00000000000E+00  0.30158893031E+03  0.30158893032E+03  0.25500000920E-02 0. -1.
        2   -1    0    0  501    0  0.00000000000E+00  0.00000000000E+00 -0.24151269829E+04  0.24151269829E+04  0.25500000920E-02 0.  1.
    10030    2    1    2    0    0  0.00000000000E+00  0.00000000000E+00 -0.21135380526E+04  0.27167159132E+04  0.17068984309E+04 0.  0.
        2    1    3    3  502    0 -0.21403362553E+03  0.36274966892E+03 -0.22381871170E+04  0.22774721262E+04  0.25500000920E-02 0.  1.
       -2    1    3    3    0  502  0.21403362553E+03 -0.36274966892E+03  0.12464906438E+03  0.43924378700E+03  0.25500000920E-02 0. -1.
</event>
<event>
 5   0  0.1930116E-04  0.1704055E+04  0.7818609E-02  0.8759055E-01
        1   -1    0    0  501    0  0.00000000000E+00  0.00000000000E+00  0.11753919717E+04  0.11753919717E+04  0.50400001928E-02 0.  1.
       -1   -1    0    0    0  501  0.00000000000E+00  0.00000000000E+00 -0.61762416865E+03  0.61762416867E+03  0.50400001928E-02 0. -1.
    10030    2    1    2    0    0  0.00000000000E+00  0.00000000000E+00  0.55776780300E+03  0.17930161403E+04  0.17040545641E+04 0.  0.
        1    1    3    3  502    0  0.51362353527E+03  0.30378574041E+03  0.91879079427E+03  0.10955690009E+04  0.50400001928E-02 0.  1.
       -1    1    3    3    0  502 -0.51362353527E+03 -0.30378574041E+03 -0.36102299126E+03  0.69744713944E+03  0.50400001928E-02 0. -1.
</event>
<event>
 5   0  0.3574092E-04  0.1714059E+04  0.7818609E-02  0.8753386E-01
       -2   -1    0    0    0  501  0.00000000000E+00  0.00000000000E+00  0.89585960521E+03  0.89585960521E+03  0.25500000920E-02 0. -1.
        2   -1    0    0  501    0  0.00000000000E+00  0.00000000000E+00 -0.81988234876E+03  0.81988234877E+03  0.25500000920E-02 0.  1.
    10030    2    1    2    0    0  0.00000000000E+00  0.00000000000E+00  0.75977256448E+02  0.17157419540E+04  0.17140588990E+04 0.  0.
        3    1    3    3  502    0 -0.47085305660E+03  0.66057886574E+03 -0.23874698901E+03  0.84561644599E+03  0.10100000352E+00 0.  1.
       -3    1    3    3    0  502  0.47085305660E+03 -0.66057886574E+03  0.31472424545E+03  0.87012550799E+03  0.10100000352E+00 0. -1.
</event>
<event>
 5   0  0.1893284E-04  0.1695876E+04  0.7818609E-02  0.8763720E-01
        1   -1    0    0  501    0  0.00000000000E+00  0.00000000000E+00  0.15653193945E+04  0.15653193945E+04  0.50400001928E-02 0. -1.
       -1   -1    0    0    0  501  0.00000000000E+00  0.00000000000E+00 -0.45933067807E+03  0.45933067810E+03  0.50400001928E-02 0.  1.
    10030    2    1    2    0    0  0.00000000000E+00  0.00000000000E+00  0.11059887164E+04  0.20246500726E+04  0.16958764329E+04 0.  0.
        2    1    3    3  502    0 -0.48541189743E+02 -0.77570816581E+03  0.95771301427E+03  0.12334073225E+04  0.25500000920E-02 0. -1.
       -2    1    3    3    0  502  0.48541189743E+02  0.77570816581E+03  0.14827570212E+03  0.79124275001E+03  0.25500000920E-02 0.  1.
</event>
<event>
 5   0  0.1824538E-04  0.1761091E+04  0.7818609E-02  0.8727269E-01
        1   -1    0    0  501    0  0.00000000000E+00  0.00000000000E+00  0.15202581845E+04  0.15202581845E+04  0.50400001928E-02 0.  1.
       -1   -1    0    0    0  501  0.00000000000E+00  0.00000000000E+00 -0.51001915101E+03  0.51001915103E+03  0.50400001928E-02 0. -1.
    10030    2    1    2    0    0  0.00000000000E+00  0.00000000000E+00  0.10102390335E+04  0.20302773356E+04  0.17610914668E+04 0.  0.
        3    1    3    3  502    0  0.80860346902E+03  0.29050216980E+03  0.28297573546E+03  0.90460287300E+03  0.10100000352E+00 0. -1.
       -3    1    3    3    0  502 -0.80860346902E+03 -0.29050216980E+03  0.72726329806E+03  0.11256744626E+04  0.10100000352E+00 0.  1.
</event>
<event>
 5   0  0.1815663E-04  0.1636440E+04  0.7818609E-02  0.8798469E-01
        1   -1    0    0  501    0  0.00000000000E+00  0.00000000000E+00  0.68752927951E+03  0.68752927953E+03  0.50400001928E-02 0.  1.
       -1   -1    0    0    0  501  0.00000000000E+00  0.00000000000E+00 -0.97375384261E+03  0.97375384262E+03  0.50400001928E-02 0. -1.
    10030    2    1    2    0    0  0.00000000000E+00  0.00000000000E+00 -0.28622456310E+03  0.16612831221E+04  0.16364403782E+04 0.  0.
        5    1    3    3  502    0 -0.37629854633E+03 -0.71912146551E+03 -0.37974082188E+02  0.81252716818E+03  0.46999998093E+01 0.  1.
       -5    1    3    3    0  502  0.37629854633E+03  0.71912146551E+03 -0.24825048091E+03  0.84875595396E+03  0.46999998093E+01 0. -1.
</event>
<event>
 5   0  0.1893284E-04  0.1689164E+04  0.7818609E-02  0.8767568E-01
       -1   -1    0    0    0  501  0.00000000000E+00  0.00000000000E+00  0.87864649143E+03  0.87864649144E+03  0.50400001928E-02 0.  1.
        1   -1    0    0  501    0  0.00000000000E+00  0.00000000000E+00 -0.81183863549E+03  0.81183863551E+03  0.50400001928E-02 0. -1.
    10030    2    1    2    0    0  0.00000000000E+00  0.00000000000E+00  0.66807855936E+02  0.16904851270E+04  0.16891644902E+04 0.  0.
        2    1    3    3  502    0 -0.18640722516E+03 -0.45219751021E+02 -0.78975156058E+03  0.81271151519E+03  0.25500000920E-02 0. -1.
       -2    1    3    3    0  502  0.18640722516E+03  0.45219751021E+02  0.85655941652E+03  0.87777361176E+03  0.25500000920E-02 0.  1.
</event>
<event>
 5   0  0.3605571E-04  0.1706656E+04  0.7818609E-02  0.8757577E-01
       -2   -1    0    0    0  501  0.00000000000E+00  0.00000000000E+00  0.70580550272E+03  0.70580550273E+03  0.25500000920E-02 0. -1.
        2   -1    0    0  501    0  0.00000000000E+00  0.00000000000E+00 -0.10316843818E+04  0.10316843818E+04  0.25500000920E-02 0.  1.
    10030    2    1    2    0    0  0.00000000000E+00  0.00000000000E+00 -0.32587887909E+03  0.17374898845E+04  0.17066558104E+04 0.  0.
        4    1    3    3  502    0  0.82803547172E+03 -0.19247132798E+03 -0.23829665900E+03  0.88287873748E+03  0.12699999809E+01 0. -1.
       -4    1    3    3    0  502 -0.82803547172E+03  0.19247132798E+03 -0.87582220097E+02  0.85461114707E+03  0.12699999809E+01 0.  1.
</event>
<event>
 5   0  0.1920289E-04  0.1689566E+04  0.7818609E-02  0.8767338E-01
       -1   -1    0    0    0  501  0.00000000000E+00  0.00000000000E+00  0.53445108548E+03  0.53445108551E+03  0.50400001928E-02 0.  1.
        1   -1    0    0  501    0  0.00000000000E+00  0.00000000000E+00 -0.13353112090E+04  0.13353112090E+04  0.50400001928E-02 0. -1.
    10030    2    1    2    0    0  0.00000000000E+00  0.00000000000E+00 -0.80086012350E+03  0.18697622945E+04  0.16895662463E+04 0.  0.
        4    1    3    3  502    0  0.77557908537E+03 -0.32984587683E+03 -0.33651486184E+03  0.90750486790E+03  0.12699999809E+01 0. -1.
       -4    1    3    3    0  502 -0.77557908537E+03  0.32984587683E+03 -0.46434526166E+03  0.96225742660E+03  0.12699999809E+01 0.  1.
</event>
<event>
 5   0  0.1815663E-04  0.1717718E+04  0.7818609E-02  0.8751323E-01
        1   -1    0    0  501    0  0.00000000000E+00  0.00000000000E+00  0.85162338414E+03  0.85162338416E+03  0.50400001928E-02 0. -1.
       -1   -1    0    0    0  501  0.00000000000E+00  0.00000000000E+00 -0.86615612391E+03  0.86615612393E+03  0.50400001928E-02 0.  1.
    10030    2    1    2    0    0  0.00000000000E+00  0.00000000000E+00 -0.14532739769E+02  0.17177795081E+04  0.17177180321E+04 0.  0.
        5    1    3    3  502    0  0.45210952191E+02 -0.81486491374E+03  0.26026490762E+03  0.85662638880E+03  0.46999998093E+01 0. -1.
       -5    1    3    3    0  502 -0.45210952191E+02  0.81486491374E+03 -0.27479764738E+03  0.86115311929E+03  0.46999998093E+01 0.  1.
</event>
<event>
 5   0  0.1317625E-04  0.1822251E+04  0.7818609E-02  0.8694555E-01
       -4   -1    0    0    0  501  0.00000000000E+00  0.00000000000E+00  0.55487068687E+03  0.55487214027E+03  0.12699999809E+01 0.  1.
        4   -1    0    0  501    0  0.00000000000E+00  0.00000000000E+00 -0.14961098948E+04  0.14961104338E+04  0.12699999809E+01 0. -1.
    10030    2    1    2    0    0  0.00000000000E+00  0.00000000000E+00 -0.94123920788E+03  0.20509825741E+04  0.18222508808E+04 0.  0.
        3    1    3    3  502    0 -0.71706306456E+03 -0.28061072694E+03 -0.10188164553E+04  0.12770703968E+04  0.10100000352E+00 0. -1.
       -3    1    3    3    0  502  0.71706306456E+03  0.28061072694E+03  0.77577247370E+02  0.77391217728E+03  0.10100000352E+00 0.  1.
</event>
<event>
 5   0  0.3516723E-04  0.1712583E+04  0.7818609E-02  0.8754220E-01
        2   -1    0    0  501    0  0.00000000000E+00  0.00000000000E+00  0.59217306298E+03  0.59217306299E+03  0.25500000920E-02 0.  1.
       -2   -1    0    0    0  501  0.00000000000E+00  0.00000000000E+00 -0.12382101690E+04  0.12382101690E+04  0.25500000920E-02 0. -1.
    10030    2    1    2    0    0  0.00000000000E+00  0.00000000000E+00 -0.64603710604E+03  0.18303832320E+04  0.17125825042E+04 0.  0.
        1    1    3    3  502    0 -0.49036159160E+03  0.37459469363E+02 -0.10722188495E+04  0.11796232295E+04  0.50400001928E-02 0. -1.
       -1    1    3    3    0  502  0.49036159160E+03 -0.37459469363E+02  0.42618174346E+03  0.65076000249E+03  0.50400001928E-02 0.  1.
</event>
<event>
 5   0  0.3574092E-04  0.1672754E+04  0.7818609E-02  0.8777058E-01
        2   -1    0    0  501    0  0.00000000000E+00  0.00000000000E+00  0.10982117346E+04  0.10982117346E+04  0.25500000920E-02 0. -1.
       -2   -1    0    0    0  501  0.00000000000E+00  0.00000000000E+00 -0.63696894376E+03  0.63696894377E+03  0.25500000920E-02 0.  1.
    10030    2    1    2    0    0  0.00000000000E+00  0.00000000000E+00  0.46124279082E+03  0.17351806784E+04  0.16727543377E+04 0.  0.
        3    1    3    3  502    0  0.49586462345E+03  0.65686992380E+03  0.38506338227E+03  0.90864384670E+03  0.10100000352E+00 0. -1.
       -3    1    3    3    0  502 -0.49586462345E+03 -0.65686992380E+03  0.76179408542E+02  0.82653683165E+03  0.10100000352E+00 0.  1.
</event>
<event>
 5   0  0.3574092E-04  0.1704005E+04  0.7818609E-02  0.8759083E-01
       -2   -1    0    0    0  501  0.00000000000E+00  0.00000000000E+00  0.57512238376E+03  0.57512238377E+03  0.25500000920E-02 0.  1.
        2   -1    0    0  501    0  0.00000000000E+00  0.00000000000E+00 -0.12621811388E+04  0.12621811388E+04  0.25500000920E-02 0. -1.
    10030    2    1    2    0    0  0.00000000000E+00  0.00000000000E+00 -0.68705875500E+03  0.18373035225E+04  0.17040054287E+04 0.  0.
        3    1    3    3  502    0 -0.15849872424E+03 -0.79072121848E+03 -0.47170628936E+02  0.80782855197E+03  0.10100000352E+00 0.  1.
       -3    1    3    3    0  502  0.15849872424E+03  0.79072121848E+03 -0.63988812606E+03  0.10294749706E+04  0.10100000352E+00 0. -1.
</event>
<event>
 5   0  0.1920289E-04  0.1518674E+04  0.7818609E-02  0.8872129E-01
        1   -1    0    0  501    0  0.00000000000E+00  0.00000000000E+00  0.10431132733E+04  0.10431132733E+04  0.50400001928E-02 0. -1.
       -1   -1    0    0    0  501  0.00000000000E+00  0.00000000000E+00 -0.55276142361E+03  0.55276142363E+03  0.50400001928E-02 0.  1.
    10030    2    1    2    0    0  0.00000000000E+00  0.00000000000E+00  0.49035184964E+03  0.15958746969E+04  0.15186741295E+04 0.  0.
        4    1    3    3  502    0  0.30518965153E+03  0.49155080326E+02  0.97399911050E+03  0.10218771088E+04  0.12699999809E+01 0. -1.
       -4    1    3    3    0  502 -0.30518965153E+03 -0.49155080326E+02 -0.48364726085E+03  0.57399758811E+03  0.12699999809E+01 0.  1.
</event>
<event>
 5   0  0.3516723E-04  0.1707023E+04  0.7818609E-02  0.8757369E-01
        2   -1    0    0  501    0  0.00000000000E+00  0.00000000000E+00  0.12238027035E+04  0.12238027035E+04  0.25500000920E-02 0. -1.
       -2   -1    0    0    0  501  0.00000000000E+00  0.00000000000E+00 -0.59526120331E+03  0.59526120332E+03  0.25500000920E-02 0.  1.
    10030    2    1    2    0    0  0.00000000000E+00  0.00000000000E+00  0.62854150017E+03  0.18190639068E+04  0.17070234561E+04 0.  0.
        1    1    3    3  502    0  0.25691925035E+03 -0.16478253647E+03  0.11636570250E+04  0.12030205557E+04  0.50400001928E-02 0. -1.
       -1    1    3    3    0  502 -0.25691925035E+03  0.16478253647E+03 -0.53511552483E+03  0.61604335113E+03  0.50400001928E-02 0.  1.
</event>
<event>
 5   0  0.1893284E-04  0.1684572E+04  0.7818609E-02  0.8770212E-01
        1   -1    0    0  501    0  0.00000000000E+00  0.00000000000E+00  0.77769137218E+03  0.77769137219E+03  0.50400001928E-02 0. -1.
       -1   -1    0    0    0  501  0.00000000000E+00  0.00000000000E+00 -0.91224630308E+03  0.91224630309E+03  0.50400001928E-02 0.  1.
    10030    2    1    2    0    0  0.00000000000E+00  0.00000000000E+00 -0.13455493090E+03  0.16899376753E+04  0.16845724434E+04 0.  0.
        2    1    3    3  502    0 -0.54176161593E+03 -0.59205453510E+03  0.18929452261E+03  0.82454025816E+03  0.25500000920E-02 0. -1.
       -2    1    3    3    0  502  0.54176161593E+03  0.59205453510E+03 -0.32384945351E+03  0.86539741713E+03  0.25500000920E-02 0.  1.
</event>
<event>
 5   0  0.1824538E-04  0.1698499E+04  0.7818609E-02  0.8762221E-01
       -1   -1    0    0    0  501  0.00000000000E+00  0.00000000000E+00  0.46975235899E+03  0.46975235901E+03  0.50400001928E-02 0.  1.
        1   -1    0    0  501    0  0.00000000000E+00  0.00000000000E+00 -0.15353291573E+04  0.15353291574E+04  0.50400001928E-02 0. -1.
    10030    2    1    2    0    0  0.00000000000E+00  0.00000000000E+00 -0.10655767984E+04  0.20050815164E+04  0.16984987413E+04 0.  0.
        3    1    3    3  502    0  0.58275861524E+03 -0.47019156594E+03 -0.10057806938E+04  0.12539069051E+04  0.10100000352E+00 0. -1.
       -3    1    3    3    0  502 -0.58275861524E+03  0.47019156594E+03 -0.59796104515E+02  0.75117461128E+03  0.10100000352E+00 0.  1.
</event>
<event>
 5   0  0.1815663E-04  0.1636028E+04  0.7818609E-02  0.8798716E-01
       -1   -1    0    0    0  501  0.00000000000E+00  0.00000000000E+00  0.16913818973E+04  0.16913818973E+04  0.50400001928E-02 0. -1.
        1   -1    0    0  501    0  0.00000000000E+00  0.00000000000E+00 -0.39562122034E+03  0.39562122037E+03  0.50400001928E-02 0.  1.
    10030    2    1    2    0    0  0.00000000000E+00  0.00000000000E+00  0.12957606770E+04  0.20870031177E+04  0.16360275918E+04 0.  0.
        5    1    3    3  502    0  0.28016425719E+03 -0.75462509094E+02 -0.32775460578E+03  0.43775766458E+03  0.46999998093E+01 0.  1.
       -5    1    3    3    0  502 -0.28016425719E+03  0.75462509094E+02  0.16235152828E+04  0.16492454531E+04  0.46999998093E+01 0. -1.
</event>
<event>
 5   0  0.3678896E-04  0.1686726E+04  0.7818609E-02  0.8768972E-01
        2   -1    0    0  501    0  0.00000000000E+00  0.00000000000E+00  0.15103993772E+04  0.15103993772E+04  0.25500000920E-02 0. -1.
       -2   -1    0    0    0  501  0.00000000000E+00  0.00000000000E+00 -0.47090909527E+03  0.47090909528E+03  0.25500000920E-02 0.  1.
    10030    2    1    2    0    0  0.00000000000E+00  0.00000000000E+00  0.10394902820E+04  0.19813084725E+04  0.16867255903E+04 0.  0.
        2    1    3    3  502    0  0.71854165450E+03  0.44036972275E+03  0.55750238945E+03  0.10104635155E+04  0.25500000920E-02 0. -1.
       -2    1    3    3    0  502 -0.71854165450E+03 -0.44036972275E+03  0.48198789252E+03  0.97084495699E+03  0.25500000920E-02 0.  1.
</event>
<event>
 5   0  0.3516723E-04  0.1694779E+04  0.7818609E-02  0.8764347E-01
       -2   -1    0    0    0  501  0.00000000000E+00  0.00000000000E+00  0.64254643910E+03  0.64254643910E+03  0.25500000920E-02 0. -1.
        2   -1    0    0  501    0  0.00000000000E+00  0.00000000000E+00 -0.11175368368E+04  0.11175368368E+04  0.25500000920E-02 0.  1.
    10030    2    1    2    0    0  0.00000000000E+00  0.00000000000E+00 -0.47499039768E+03  0.17600832759E+04  0.16947794134E+04 0.  0.
        1    1    3    3  502    0 -0.26724646757E+03  0.12759887060E+03  0.58705448464E+03  0.65752194957E+03  0.50400001928E-02 0. -1.
       -1    1    3    3    0  502  0.26724646757E+03 -0.12759887060E+03 -0.10620448823E+04  0.11025613263E+04  0.50400001928E-02 0.  1.
</event>
<event>
 5   0  0.3573262E-04  0.1700864E+04  0.7818609E-02  0.8760872E-01
       -2   -1    0    0    0  501  0.00000000000E+00  0.00000000000E+00  0.31058896254E+03  0.31058896255E+03  0.25500000920E-02 0. -1.
        2   -1    0    0  501    0  0.00000000000E+00  0.00000000000E+00 -0.23285917396E+04  0.23285917396E+04  0.25500000920E-02 0.  1.
    10030    2    1    2    0    0  0.00000000000E+00  0.00000000000E+00 -0.20180027771E+04  0.26391807022E+04  0.17008643598E+04 0.  0.
        5    1    3    3  502    0  0.61850122183E+03 -0.72348951844E+02 -0.11032481548E+03  0.63243322742E+03  0.46999998093E+01 0. -1.
       -5    1    3    3    0  502 -0.61850122183E+03  0.72348951844E+02 -0.19076779616E+04  0.20067474748E+04  0.46999998093E+01 0.  1.
</event>
<event>
 5   0  0.1317625E-04  0.1694472E+04  0.7818609E-02  0.8764524E-01
        3   -1    0    0  501    0  0.00000000000E+00  0.00000000000E+00  0.14376741441E+04  0.14376741476E+04  0.10100000352E+00 0. -1.
       -3   -1    0    0    0  501  0.00000000000E+00  0.00000000000E+00 -0.49928453957E+03  0.49928454978E+03  0.10100000352E+00 0.  1.
    10030    2    1    2    0    0  0.00000000000E+00  0.00000000000E+00  0.93838960449E+03  0.19369586974E+04  0.16944715830E+04 0.  0.
        3    1    3    3  502    0 -0.63411655160E+03  0.23076562973E+03 -0.11641849603E+03  0.68476992728E+03  0.10100000352E+00 0.  1.
       -3    1    3    3    0  502  0.63411655160E+03 -0.23076562973E+03  0.10548081005E+04  0.12521887701E+04  0.10100000352E+00 0. -1.
</event>
<event>
 5   0  0.1317625E-04  0.1710534E+04  0.7818609E-02  0.8755379E-01
       -4   -1    0    0    0  501  0.00000000000E+00  0.00000000000E+00  0.62638002521E+03  0.62638131268E+03  0.12699999809E+01 0.  1.
        4   -1    0    0  501    0  0.00000000000E+00  0.00000000000E+00 -0.11677897942E+04  0.11677904848E+04  0.12699999809E+01 0. -1.
    10030    2    1    2    0    0  0.00000000000E+00  0.00000000000E+00 -0.54140976900E+03  0.17941717975E+04  0.17105343904E+04 0.  0.
        3    1    3    3  502    0  0.61056574667E+03  0.53301773717E+03  0.15748310629E+02  0.81064570476E+03  0.10100000352E+00 0.  1.
       -3    1    3    3    0  502 -0.61056574667E+03 -0.53301773717E+03 -0.55715807963E+03  0.98352609271E+03  0.10100000352E+00 0. -1.
</event>
<event>
 5   0  0.3605571E-04  0.1700389E+04  0.7818609E-02  0.8761143E-01
       -2   -1    0    0    0  501  0.00000000000E+00  0.00000000000E+00  0.34411709939E+03  0.34411709939E+03  0.25500000920E-02 0.  1.
        2   -1    0    0  501    0  0.00000000000E+00  0.00000000000E+00 -0.21005365017E+04  0.21005365017E+04  0.25500000920E-02 0. -1.
    10030    2    1    2    0    0  0.00000000000E+00  0.00000000000E+00 -0.17564194023E+04  0.24446536011E+04  0.17003888121E+04 0.  0.
        4    1    3    3  502    0 -0.63360541361E+03  0.15895226007E+03 -0.16605462666E+04  0.17844150743E+04  0.12699999809E+01 0. -1.
       -4    1    3    3    0  502  0.63360541361E+03 -0.15895226007E+03 -0.95873135704E+02  0.66023852674E+03  0.12699999809E+01 0.  1.
</event>
<event>
 5   0  0.3516723E-04  0.1701740E+04  0.7818609E-02  0.8760373E-01
       -2   -1    0    0    0  501  0.00000000000E+00  0.00000000000E+00  0.31084176605E+03  0.31084176606E+03  0.25500000920E-02 0.  1.
        2   -1    0    0  501    0  0.00000000000E+00  0.00000000000E+00 -0.23290928822E+04  0.23290928822E+04  0.25500000920E-02 0. -1.
    10030    2    1    2    0    0  0.00000000000E+00  0.00000000000E+00 -0.20182511161E+04  0.26399346482E+04  0.17017395157E+04 0.  0.
        1    1    3    3  502    0  0.71019587606E+03  0.32212744239E+03 -0.15371087914E+04  0.17236147215E+04  0.50400001928E-02 0.  1.
       -1    1    3    3    0  502 -0.71019587606E+03 -0.32212744239E+03 -0.48114232474E+03  0.91631992676E+03  0.50400001928E-02 0. -1.
</event>
<event>
 5   0  0.1930116E-04  0.1708696E+04  0.7818609E-02  0.8756420E-01
        1   -1    0    0  501    0  0.00000000000E+00  0.00000000000E+00  0.50304258865E+03  0.50304258868E+03  0.50400001928E-02 0. -1.
       -1   -1    0    0    0  501  0.00000000000E+00  0.00000000000E+00 -0.14509906305E+04  0.14509906305E+04  0.50400001928E-02 0.  1.
    10030    2    1    2    0    0  0.00000000000E+00  0.00000000000E+00 -0.94794804188E+03  0.19540332192E+04  0.17086955059E+04 0.  0.
        1    1    3    3  502    0 -0.29412441306E+03  0.31917195297E+03  0.36757340679E+03  0.56876191444E+03  0.50400001928E-02 0. -1.
       -1    1    3    3    0  502  0.29412441306E+03 -0.31917195297E+03 -0.13155214487E+04  0.13852713048E+04  0.50400001928E-02 0.  1.
</event>
<event>
 5   0  0.1815663E-04  0.1711747E+04  0.7818609E-02  0.8754693E-01
       -1   -1    0    0    0  501  0.00000000000E+00  0.00000000000E+00  0.80942703706E+03  0.80942703708E+03  0.50400001928E-02 0. -1.
        1   -1    0    0  501    0  0.00000000000E+00  0.00000000000E+00 -0.90498501715E+03  0.90498501716E+03  0.50400001928E-02 0.  1.
    10030    2    1    2    0    0  0.00000000000E+00  0.00000000000E+00 -0.95557980087E+02  0.17144120542E+04  0.17117468750E+04 0.  0.
        5    1    3    3  502    0 -0.19890558043E+02  0.43222792435E+03 -0.78735992351E+03  0.89842882413E+03  0.46999998093E+01 0.  1.
       -5    1    3    3    0  502  0.19890558043E+02 -0.43222792435E+03  0.69180194342E+03  0.81598323010E+03  0.46999998093E+01 0. -1.
</event>
<event>
 5   0  0.3573262E-04  0.1709649E+04  0.7818609E-02  0.8755880E-01
        2   -1    0    0  501    0  0.00000000000E+00  0.00000000000E+00  0.72327329911E+03  0.72327329911E+03  0.25500000920E-02 0.  1.
       -2   -1    0    0    0  501  0.00000000000E+00  0.00000000000E+00 -0.10103028411E+04  0.10103028411E+04  0.25500000920E-02 0. -1.
    10030    2    1    2    0    0  0.00000000000E+00  0.00000000000E+00 -0.28702954198E+03  0.17335761402E+04  0.17096491675E+04 0.  0.
        5    1    3    3  502    0  0.59378825626E+03 -0.37390913312E+03  0.35148780784E+03  0.78483011038E+03  0.46999998093E+01 0.  1.
       -5    1    3    3    0  502 -0.59378825626E+03  0.37390913312E+03 -0.63851734982E+03  0.94874602983E+03  0.46999998093E+01 0. -1.
</event>
<event>
 5   0  0.3573262E-04  0.1691117E+04  0.7818609E-02  0.8766447E-01
       -2   -1    0    0    0  501  0.00000000000E+00  0.00000000000E+00  0.60185873600E+03  0.60185873600E+03  0.25500000920E-02 0.  1.
        2   -1    0    0  501    0  0.00000000000E+00  0.00000000000E+00 -0.11879345413E+04  0.11879345413E+04  0.25500000920E-02 0. -1.
    10030    2    1    2    0    0  0.00000000000E+00  0.00000000000E+00 -0.58607580526E+03  0.17897932773E+04  0.16911165323E+04 0.  0.
        5    1    3    3  502    0  0.63890310823E+03  0.55378712717E+03 -0.30185005947E+03  0.89778221876E+03  0.46999998093E+01 0. -1.
       -5    1    3    3    0  502 -0.63890310823E+03 -0.55378712717E+03 -0.28422574579E+03  0.89201105850E+03  0.46999998093E+01 0.  1.
</event>
<event>
 5   0  0.3573262E-04  0.1690640E+04  0.7818609E-02  0.8766721E-01
        2   -1    0    0  501    0  0.00000000000E+00  0.00000000000E+00  0.74808868408E+03  0.74808868408E+03  0.25500000920E-02 0.  1.
       -2   -1    0    0    0  501  0.00000000000E+00  0.00000000000E+00 -0.95518880258E+03  0.95518880258E+03  0.25500000920E-02 0. -1.
    10030    2    1    2    0    0  0.00000000000E+00  0.00000000000E+00 -0.20710011850E+03  0.17032774867E+04  0.16906400378E+04 0.  0.
        5    1    3    3  502    0 -0.28412460194E+03  0.53719834305E+03  0.48840898783E+03  0.77966292626E+03  0.46999998093E+01 0.  1.
       -5    1    3    3    0  502  0.28412460194E+03 -0.53719834305E+03 -0.69550910633E+03  0.92361456040E+03  0.46999998093E+01 0. -1.
</event>
<event>
 5   0  0.3605571E-04  0.1686964E+04  0.7818609E-02  0.8768834E-01
        2   -1    0    0  501    0  0.00000000000E+00  0.00000000000E+00  0.50378068139E+03  0.50378068139E+03  0.25500000920E-02 0.  1.
       -2   -1    0    0    0  501  0.00000000000E+00  0.00000000000E+00 -0.14122456818E+04  0.14122456818E+04  0.25500000920E-02 0. -1.
    10030    2    1    2    0    0  0.00000000000E+00  0.00000000000E+00 -0.90846500037E+03  0.19160263632E+04  0.16869642460E+04 0.  0.
        4    1    3    3  502    0 -0.29047794989E+02  0.43207824216E+03  0.36787801590E+03  0.56821758968E+03  0.12699999809E+01 0.  1.
       -4    1    3    3    0  502  0.29047794989E+02 -0.43207824216E+03 -0.12763430163E+04  0.13478087735E+04  0.12699999809E+01 0. -1.
</event>
<event>
 5   0  0.3605571E-04  0.1692960E+04  0.7818609E-02  0.8765390E-01
       -2   -1    0    0    0  501  0.00000000000E+00  0.00000000000E+00  0.38637443555E+03  0.38637443555E+03  0.25500000920E-02 0. -1.
        2   -1    0    0  501    0  0.00000000000E+00  0.00000000000E+00 -0.18544913318E+04  0.18544913318E+04  0.25500000920E-02 0.  1.
    10030    2    1    2    0    0  0.00000000000E+00  0.00000000000E+00 -0.14681168963E+04  0.22408657674E+04  0.16929595879E+04 0.  0.
        4    1    3    3  502    0  0.57949892383E+03 -0.52077133869E+03 -0.29604695199E+03  0.83346697631E+03  0.12699999809E+01 0. -1.
       -4    1    3    3    0  502 -0.57949892383E+03  0.52077133869E+03 -0.11720699443E+04  0.14073987911E+04  0.12699999809E+01 0.  1.
</event>
<event>
 5   0  0.1815663E-04  0.1701808E+04  0.7818609E-02  0.8760334E-01
        1   -1    0    0  501    0  0.00000000000E+00  0.00000000000E+00  0.13705394810E+04  0.13705394810E+04  0.50400001928E-02 0.  1.
       -1   -1    0    0    0  501  0.00000000000E+00  0.00000000000E+00 -0.52828629068E+03  0.52828629071E+03  0.50400001928E-02 0. -1.
    10030    2    1    2    0    0  0.00000000000E+00  0.00000000000E+00  0.84225319028E+03  0.18988257717E+04  0.17018075316E+04 0.  0.
        5    1    3    3  502    0  0.10147778113E+03  0.63320731176E+03 -0.20287308490E+03  0.67262829133E+03  0.46999998093E+01 0. -1.
       -5    1    3    3    0  502 -0.10147778113E+03 -0.63320731176E+03  0.10451262752E+04  0.12261974803E+04  0.46999998093E+01 0.  1.
</event>
<event>
 5   0  0.3574092E-04  0.1696266E+04  0.7818609E-02  0.8763497E-01
        2   -1    0    0  501    0  0.00000000000E+00  0.00000000000E+00  0.13507400608E+04  0.13507400608E+04  0.25500000920E-02 0.  1.
       -2   -1    0    0    0  501  0.00000000000E+00  0.00000000000E+00 -0.53254450776E+03  0.53254450776E+03  0.25500000920E-02 0. -1.
    10030    2    1    2    0    0  0.00000000000E+00  0.00000000000E+00  0.81819555308E+03  0.18832845686E+04  0.16962655462E+04 0.  0.
        3    1    3    3  502    0  0.56115404156E+03 -0.28633481070E+03  0.10395493810E+04  0.12155428449E+04  0.10100000352E+00 0.  1.
       -3    1    3    3    0  502 -0.56115404156E+03  0.28633481070E+03 -0.22135382792E+03  0.66774172365E+03  0.10100000352E+00 0. -1.
</event>
<event>
 5   0  0.3678896E-04  0.1704650E+04  0.7818609E-02  0.8758716E-01
       -2   -1    0    0    0  501  0.00000000000E+00  0.00000000000E+00  0.10618660639E+04  0.10618660639E+04  0.25500000920E-02 0. -1.
        2   -1    0    0  501    0  0.00000000000E+00  0.00000000000E+00 -0.68413363005E+03  0.68413363006E+03  0.25500000920E-02 0.  1.
    10030    2    1    2    0    0  0.00000000000E+00  0.00000000000E+00  0.37773243385E+03  0.17459996940E+04  0.17046504450E+04 0.  0.
        2    1    3    3  502    0  0.27085853840E+03  0.97554879299E+02  0.10105582547E+04  0.10507660484E+04  0.25500000920E-02 0. -1.
       -2    1    3    3    0  502 -0.27085853840E+03 -0.97554879299E+02 -0.63282582089E+03  0.69523364554E+03  0.25500000920E-02 0.  1.
</event>
<event>
 5   0  0.1824538E-04  0.1681204E+04  0.7818609E-02  0.8772158E-01
       -1   -1    0    0    0  501  0.00000000000E+00  0.00000000000E+00  0.80750086417E+03  0.80750086419E+03  0.50400001928E-02 0. -1.
        1   -1    0    0  501    0  0.00000000000E+00  0.00000000000E+00 -0.87505962308E+03  0.87505962309E+03  0.50400001928E-02 0.  1.
    10030    2    1    2    0    0  0.00000000000E+00  0.00000000000E+00 -0.67558758903E+02  0.16825604873E+04  0.16812036187E+04 0.  0.
        3    1    3    3  502    0  0.60805571571E+03 -0.94827336103E+02 -0.60685606891E+03  0.86429061990E+03  0.10100000352E+00 0.  1.
       -3    1    3    3    0  502 -0.60805571571E+03  0.94827336103E+02  0.53929731000E+03  0.81826986738E+03  0.10100000352E+00 0. -1.
</event>
<event>
 5   0  0.3573262E-04  0.1686906E+04  0.7818609E-02  0.8768868E-01
       -2   -1    0    0    0  501  0.00000000000E+00  0.00000000000E+00  0.98823795157E+03  0.98823795158E+03  0.25500000920E-02 0.  1.
        2   -1    0    0  501    0  0.00000000000E+00  0.00000000000E+00 -0.71988042296E+03  0.71988042297E+03  0.25500000920E-02 0. -1.
    10030    2    1    2    0    0  0.00000000000E+00  0.00000000000E+00  0.26835752861E+03  0.17081183745E+04  0.16869062269E+04 0.  0.
        5    1    3    3  502    0 -0.75193332834E+03  0.38208112046E+03  0.13535600933E+03  0.85424414083E+03  0.46999998093E+01 0. -1.
       -5    1    3    3    0  502  0.75193332834E+03 -0.38208112046E+03  0.13300151929E+03  0.85387423372E+03  0.46999998093E+01 0.  1.
</event>
<event>
 5   0  0.3678896E-04  0.1706960E+04  0.7818609E-02  0.8757405E-01
        2   -1    0    0  501    0  0.00000000000E+00  0.00000000000E+00  0.18651821995E+04  0.18651821995E+04  0.25500000920E-02 0.  1.
       -2   -1    0    0    0  501  0.00000000000E+00  0.00000000000E+00 -0.39054002376E+03  0.39054002377E+03  0.25500000920E-02 0. -1.
    10030    2    1    2    0    0  0.00000000000E+00  0.00000000000E+00  0.14746421758E+04  0.22557222233E+04  0.17069602228E+04 0.  0.
        2    1    3    3  502    0  0.83389592611E+03 -0.59195190177E+02  0.96445438235E+03  0.12763458551E+04  0.25500000920E-02 0. -1.
       -2    1    3    3    0  502 -0.83389592611E+03  0.59195190177E+02  0.51018779343E+03  0.97937636825E+03  0.25500000920E-02 0.  1.
</event>
<event>
 5   0  0.1930116E-04  0.1654680E+04  0.7818609E-02  0.8787642E-01
        1   -1    0    0  501    0  0.00000000000E+00  0.00000000000E+00  0.90298244800E+03  0.90298244801E+03  0.50400001928E-02 0. -1.
       -1   -1    0    0    0  501  0.00000000000E+00  0.00000000000E+00 -0.75803436448E+03  0.75803436450E+03  0.50400001928E-02 0.  1.
    10030    2    1    2    0    0  0.00000000000E+00  0.00000000000E+00  0.14494808352E+03  0.16610168125E+04  0.16546803028E+04 0.  0.
        1    1    3    3  502    0  0.79770528218E+03 -0.21358485452E+03  0.12306066010E+03  0.83492283080E+03  0.50400001928E-02 0. -1.
       -1    1    3    3    0  502 -0.79770528218E+03  0.21358485452E+03  0.21887423416E+02  0.82609398172E+03  0.50400001928E-02 0.  1.
</event>
<event>
 5   0  0.3573262E-04  0.1727061E+04  0.7818609E-02  0.8746079E-01
       -2   -1    0    0    0  501  0.00000000000E+00  0.00000000000E+00  0.49917359249E+03  0.49917359250E+03  0.25500000920E-02 0. -1.
        2   -1    0    0  501    0  0.00000000000E+00  0.00000000000E+00 -0.14938384955E+04  0.14938384955E+04  0.25500000920E-02 0.  1.
    10030    2    1    2    0    0  0.00000000000E+00  0.00000000000E+00 -0.99466490301E+03  0.19930120880E+04  0.17270607730E+04 0.  0.
        5    1    3    3  502    0 -0.75550709583E+03 -0.26483582941E+03 -0.12387129968E+03  0.81012047083E+03  0.46999998093E+01 0. -1.
       -5    1    3    3    0  502  0.75550709583E+03  0.26483582941E+03 -0.87079360333E+03  0.11828916172E+04  0.46999998093E+01 0.  1.
</event>
<event>
 5   0  0.3573262E-04  0.1711426E+04  0.7818609E-02  0.8754874E-01
        2   -1    0    0  501    0  0.00000000000E+00  0.00000000000E+00  0.12749059267E+04  0.12749059267E+04  0.25500000920E-02 0.  1.
       -2   -1    0    0    0  501  0.00000000000E+00  0.00000000000E+00 -0.57435229010E+03  0.57435229011E+03  0.25500000920E-02 0. -1.
    10030    2    1    2    0    0  0.00000000000E+00  0.00000000000E+00  0.70055363664E+03  0.18492582168E+04  0.17114264678E+04 0.  0.
        5    1    3    3  502    0 -0.11292478025E+03  0.64481315995E+03  0.94573660299E+03  0.11502068638E+04  0.46999998093E+01 0.  1.
       -5    1    3    3    0  502  0.11292478025E+03 -0.64481315995E+03 -0.24518296636E+03  0.69905135307E+03  0.46999998093E+01 0. -1.
</event>
<event>
 5   0  0.3574092E-04  0.1692634E+04  0.7818609E-02  0.8765577E-01
        2   -1    0    0  501    0  0.00000000000E+00  0.00000000000E+00  0.16128709707E+04  0.16128709707E+04  0.25500000920E-02 0. -1.
       -2   -1    0    0    0  501  0.00000000000E+00  0.00000000000E+00 -0.44408541525E+03  0.44408541526E+03  0.25500000920E-02 0.  1.
    10030    2    1    2    0    0  0.00000000000E+00  0.00000000000E+00  0.11687855555E+04  0.20569563860E+04  0.16926340122E+04 0.  0.
        3    1    3    3  502    0 -0.82005970254E+03 -0.42056353292E+02  0.83340077676E+03  0.11699673147E+04  0.10100000352E+00 0. -1.
       -3    1    3    3    0  502  0.82005970254E+03  0.42056353292E+02  0.33538477871E+03  0.88698907128E+03  0.10100000352E+00 0.  1.
</event>
<event>
 5   0  0.1893284E-04  0.1706601E+04  0.7818609E-02  0.8757609E-01
       -1   -1    0    0    0  501  0.00000000000E+00  0.00000000000E+00  0.83481143550E+03  0.83481143551E+03  0.50400001928E-02 0.  1.
        1   -1    0    0  501    0  0.00000000000E+00  0.00000000000E+00 -0.87219874031E+03  0.87219874032E+03  0.50400001928E-02 0. -1.
    10030    2    1    2    0    0  0.00000000000E+00  0.00000000000E+00 -0.37387304809E+02  0.17070101758E+04  0.17066006943E+04 0.  0.
        2    1    3    3  502    0 -0.78006009549E+03  0.14545115266E+03 -0.33257094103E+03  0.86037969595E+03  0.25500000920E-02 0. -1.
       -2    1    3    3    0  502  0.78006009549E+03 -0.14545115266E+03  0.29518363622E+03  0.84663047989E+03  0.25500000920E-02 0.  1.
</event>
<event>
 5   0  0.1815663E-04  0.1684500E+04  0.7818609E-02  0.8770254E-01
       -1   -1    0    0    0  501  0.00000000000E+00  0.00000000000E+00  0.42976805122E+03  0.42976805125E+03  0.50400001928E-02 0.  1.
        1   -1    0    0  501    0  0.00000000000E+00  0.00000000000E+00 -0.16506231935E+04  0.16506231936E+04  0.50400001928E-02 0. -1.
    10030    2    1    2    0    0  0.00000000000E+00  0.00000000000E+00 -0.12208551423E+04  0.20803912448E+04  0.16845000602E+04 0.  0.
        5    1    3    3  502    0 -0.13385206856E+03 -0.36203757620E+02 -0.16364132701E+04  0.16422842534E+04  0.46999998093E+01 0. -1.
       -5    1    3    3    0  502  0.13385206856E+03  0.36203757620E+02  0.41555812780E+03  0.43810699139E+03  0.46999998093E+01 0.  1.
</event>
<event>
 5   0  0.3678896E-04  0.1698700E+04  0.7818609E-02  0.8762106E-01
       -2   -1    0    0    0  501  0.00000000000E+00  0.00000000000E+00  0.53999249650E+03  0.53999249650E+03  0.25500000920E-02 0.  1.
        2   -1    0    0  501    0  0.00000000000E+00  0.00000000000E+00 -0.13359358064E+04  0.13359358064E+04  0.25500000920E-02 0. -1.
    10030    2    1    2    0    0  0.00000000000E+00  0.00000000000E+00 -0.79594330991E+03  0.18759283029E+04  0.16986998690E+04 0.  0.
        2    1    3    3  502    0  0.79862987766E+03 -0.87307769040E+02 -0.70234077489E+03  0.10671058486E+04  0.25500000920E-02 0. -1.
       -2    1    3    3    0  502 -0.79862987766E+03  0.87307769040E+02 -0.93602535017E+02  0.80882245431E+03  0.25500000920E-02 0.  1.
</event>
<event>
 5   0  0.3516723E-04  0.1695485E+04  0.7818609E-02  0.8763944E-01
       -2   -1    0    0    0  501  0.00000000000E+00  0.00000000000E+00  0.40509767005E+03  0.40509767006E+03  0.25500000920E-02 0.  1.
        2   -1    0    0  501    0  0.00000000000E+00  0.00000000000E+00 -0.17740597985E+04  0.17740597985E+04  0.25500000920E-02 0. -1.
    10030    2    1    2    0    0  0.00000000000E+00  0.00000000000E+00 -0.13689621284E+04  0.21791574685E+04  0.16954851706E+04 0.  0.
        1    1    3    3  502    0  0.35874652607E+02 -0.81425588095E+03 -0.98416657068E+03  0.12778432882E+04  0.50400001928E-02 0.  1.
       -1    1    3    3    0  502 -0.35874652607E+02  0.81425588095E+03 -0.38479555775E+03  0.90131418033E+03  0.50400001928E-02 0. -1.
</event>
<event>
 5   0  0.1893284E-04  0.1784236E+04  0.7818609E-02  0.8714728E-01
       -1   -1    0    0    0  501  0.00000000000E+00  0.00000000000E+00  0.58593499652E+03  0.58593499654E+03  0.50400001928E-02 0.  1.
        1   -1    0    0  501    0  0.00000000000E+00  0.00000000000E+00 -0.13582985799E+04  0.13582985799E+04  0.50400001928E-02 0. -1.
    10030    2    1    2    0    0  0.00000000000E+00  0.00000000000E+00 -0.77236358338E+03  0.19442335764E+04  0.17842361657E+04 0.  0.
        2    1    3    3  502    0 -0.87027771971E+03 -0.18969531491E+03 -0.44074221771E+03  0.99379138877E+03  0.25500000920E-02 0. -1.
       -2    1    3    3    0  502  0.87027771971E+03  0.18969531491E+03 -0.33162136568E+03  0.95044218767E+03  0.25500000920E-02 0.  1.
</event>
<event>
 5   0  0.1824538E-04  0.1686121E+04  0.7818609E-02  0.8769320E-01
        1   -1    0    0  501    0  0.00000000000E+00  0.00000000000E+00  0.21512860981E+04  0.21512860981E+04  0.50400001928E-02 0.  1.
       -1   -1    0    0    0  501  0.00000000000E+00  0.00000000000E+00 -0.33038426629E+03  0.33038426633E+03  0.50400001928E-02 0. -1.
    10030    2    1    2    0    0  0.00000000000E+00  0.00000000000E+00  0.18209018318E+04  0.24816703644E+04  0.16861210860E+04 0.  0.
        3    1    3    3  502    0 -0.27285894737E+03 -0.10612782555E+03 -0.25316012399E+03  0.38704674020E+03  0.10100000352E+00 0. -1.
       -3    1    3    3    0  502  0.27285894737E+03  0.10612782555E+03  0.20740619558E+04  0.20946236242E+04  0.10100000352E+00 0.  1.
</event>
<event>
 5   0  0.3678896E-04  0.1858188E+04  0.7818609E-02  0.8675953E-01
       -2   -1    0    0    0  501  0.00000000000E+00  0.00000000000E+00  0.98354706618E+03  0.98354706618E+03  0.25500000920E-02 0.  1.
        2   -1    0    0  501    0  0.00000000000E+00  0.00000000000E+00 -0.87765611637E+03  0.87765611638E+03  0.25500000920E-02 0. -1.
    10030    2    1    2    0    0  0.00000000000E+00  0.00000000000E+00  0.10589094981E+03  0.18612031826E+04  0.18581884709E+04 0.  0.
        2    1    3    3  502    0  0.22721282801E+03 -0.64840221221E+03 -0.57350107234E+03  0.89496065723E+03  0.25500000920E-02 0. -1.
       -2    1    3    3    0  502 -0.22721282801E+03  0.64840221221E+03  0.67939202214E+03  0.96624252533E+03  0.25500000920E-02 0.  1.
</event>
<event>
 5   0  0.1824538E-04  0.1688042E+04  0.7818609E-02  0.8768214E-01
        1   -1    0    0  501    0  0.00000000000E+00  0.00000000000E+00  0.10863504019E+04  0.10863504019E+04  0.50400001928E-02 0.  1.
       -1   -1    0    0    0  501  0.00000000000E+00  0.00000000000E+00 -0.65574734902E+03  0.65574734904E+03  0.50400001928E-02 0. -1.
    10030    2    1    2    0    0  0.00000000000E+00  0.00000000000E+00  0.43060305286E+03  0.17420977509E+04  0.16880419381E+04 0.  0.
        3    1    3    3  502    0 -0.62846653629E+03  0.29587788847E+03 -0.27948584065E+03  0.74874979629E+03  0.10100000352E+00 0. -1.
       -3    1    3    3    0  502  0.62846653629E+03 -0.29587788847E+03  0.71008889351E+03  0.99334795465E+03  0.10100000352E+00 0.  1.
</event>
<event>
 5   0  0.1930116E-04  0.1706588E+04  0.7818609E-02  0.8757616E-01
       -1   -1    0    0    0  501  0.00000000000E+00  0.00000000000E+00  0.78770823332E+03  0.78770823334E+03  0.50400001928E-02 0.  1.
        1   -1    0    0  501    0  0.00000000000E+00  0.00000000000E+00 -0.92434030236E+03  0.92434030238E+03  0.50400001928E-02 0. -1.
    10030    2    1    2    0    0  0.00000000000E+00  0.00000000000E+00 -0.13663206904E+03  0.17120485357E+04  0.17065877845E+04 0.  0.
        1    1    3    3  502    0  0.41950980651E+03  0.27957899512E+03  0.62233262605E+03  0.80090623031E+03  0.50400001928E-02 0.  1.
       -1    1    3    3    0  502 -0.41950980651E+03 -0.27957899512E+03 -0.75896469509E+03  0.91114230540E+03  0.50400001928E-02 0. -1.
</event>
<event>
 5   0  0.1893284E-04  0.1703208E+04  0.7818609E-02  0.8759537E-01
       -1   -1    0    0    0  501  0.00000000000E+00  0.00000000000E+00  0.36704384223E+03  0.36704384227E+03  0.50400001928E-02 0. -1.
        1   -1    0    0  501    0  0.00000000000E+00  0.00000000000E+00 -0.19758659846E+04  0.19758659846E+04  0.50400001928E-02 0.  1.
    10030    2    1    2    0    0  0.00000000000E+00  0.00000000000E+00 -0.16088221423E+04  0.23429098268E+04  0.17032080821E+04 0.  0.
        2    1    3    3  502    0 -0.90328033257E+02  0.81279102975E+03 -0.47760859820E+03  0.94704719245E+03  0.25500000920E-02 0.  1.
       -2    1    3    3    0  502  0.90328033257E+02 -0.81279102975E+03 -0.11312135441E+04  0.13958626344E+04  0.25500000920E-02 0. -1.
</event>
<event>
 5   0  0.3605571E-04  0.1699342E+04  0.7818609E-02  0.8761739E-01
       -2   -1    0    0    0  501  0.00000000000E+00  0.00000000000E+00  0.41654628959E+03  0.41654628960E+03  0.25500000920E-02 0.  1.
        2   -1    0    0  501    0  0.00000000000E+00  0.00000000000E+00 -0.17331595391E+04  0.17331595391E+04  0.25500000920E-02 0. -1.
    10030    2    1    2    0    0  0.00000000000E+00  0.00000000000E+00 -0.13166132495E+04  0.21497058287E+04  0.16993424320E+04 0.  0.
        4    1    3    3  502    0 -0.77901019132E+03 -0.25532704277E+03 -0.37574817254E+03  0.90179658405E+03  0.12699999809E+01 0.  1.
       -4    1    3    3    0  502  0.77901019132E+03  0.25532704277E+03 -0.94086507701E+03  0.12479092447E+04  0.12699999809E+01 0. -1.
</event>
<event>
 5   0  0.1317625E-04  0.1760466E+04  0.7818609E-02  0.8727610E-01
        4   -1    0    0  501    0  0.00000000000E+00  0.00000000000E+00  0.75142460242E+03  0.75142567564E+03  0.12699999809E+01 0.  1.
       -4   -1    0    0    0  501  0.00000000000E+00  0.00000000000E+00 -0.10311195994E+04  0.10311203815E+04  0.12699999809E+01 0. -1.
    10030    2    1    2    0    0  0.00000000000E+00  0.00000000000E+00 -0.27969499695E+03  0.17825460571E+04  0.17604661753E+04 0.  0.
        2    1    3    3  502    0 -0.63798217134E+03  0.41941073893E+03  0.30369177682E+03  0.82167835203E+03  0.25500000920E-02 0.  1.
       -2    1    3    3    0  502  0.63798217134E+03 -0.41941073893E+03 -0.58338677376E+03  0.96086770509E+03  0.25500000920E-02 0. -1.
</event>
<event>
 5   0  0.3605571E-04  0.1693536E+04  0.7818609E-02  0.8765060E-01
        2   -1    0    0  501    0  0.00000000000E+00  0.00000000000E+00  0.88543910025E+03  0.88543910025E+03  0.25500000920E-02 0.  1.
       -2   -1    0    0    0  501  0.00000000000E+00  0.00000000000E+00 -0.80978545134E+03  0.80978545134E+03  0.25500000920E-02 0. -1.
    10030    2    1    2    0    0  0.00000000000E+00  0.00000000000E+00  0.75653648912E+02  0.16952245516E+04  0.16935355933E+04 0.  0.
        4    1    3    3  502    0 -0.46181079048E+03  0.70657173367E+03 -0.29331571765E+02  0.84461516387E+03  0.12699999809E+01 0. -1.
       -4    1    3    3    0  502  0.46181079048E+03 -0.70657173367E+03  0.10498522068E+03  0.85060938773E+03  0.12699999809E+01 0.  1.
</event>
<event>
 5   0  0.3516723E-04  0.1695780E+04  0.7818609E-02  0.8763775E-01
        2   -1    0    0  501    0  0.00000000000E+00  0.00000000000E+00  0.58387198762E+03  0.58387198762E+03  0.25500000920E-02 0.  1.
       -2   -1    0    0    0  501  0.00000000000E+00  0.00000000000E+00 -0.12312926093E+04  0.12312926093E+04  0.25500000920E-02 0. -1.
    10030    2    1    2    0    0  0.00000000000E+00  0.00000000000E+00 -0.64742062172E+03  0.18151645970E+04  0.16957797772E+04 0.  0.
        1    1    3    3  502    0 -0.47473605838E+03  0.44107284748E+02 -0.10742115040E+04  0.11752659840E+04  0.50400001928E-02 0. -1.
       -1    1    3    3    0  502  0.47473605838E+03 -0.44107284748E+02  0.42679088229E+03  0.63989861300E+03  0.50400001928E-02 0.  1.
</event>
<event>
 5   0  0.3573262E-04  0.1702596E+04  0.7818609E-02  0.8759885E-01
       -2   -1    0    0    0  501  0.00000000000E+00  0.00000000000E+00  0.15217838196E+04  0.15217838196E+04  0.25500000920E-02 0. -1.
        2   -1    0    0  501    0  0.00000000000E+00  0.00000000000E+00 -0.47622262154E+03  0.47622262155E+03  0.25500000920E-02 0.  1.
    10030    2    1    2    0    0  0.00000000000E+00  0.00000000000E+00  0.10455611980E+04  0.19980064411E+04  0.17025955245E+04 0.  0.
        5    1    3    3  502    0 -0.81407514564E+03  0.12445781437E+03  0.77577313547E+03  0.11313947755E+04  0.46999998093E+01 0. -1.
       -5    1    3    3    0  502  0.81407514564E+03 -0.12445781437E+03  0.26978806257E+03  0.86661166563E+03  0.46999998093E+01 0.  1.
</event>
<event>
 5   0  0.3574092E-04  0.2003025E+04  0.7818609E-02  0.8605208E-01
        2   -1    0    0  501    0  0.00000000000E+00  0.00000000000E+00  0.11281734476E+04  0.11281734476E+04  0.25500000920E-02 0.  1.
       -2   -1    0    0    0  501  0.00000000000E+00  0.00000000000E+00 -0.88907181756E+03  0.88907181756E+03  0.25500000920E-02 0. -1.
    10030    2    1    2    0    0  0.00000000000E+00  0.00000000000E+00  0.23910163002E+03  0.20172452651E+04  0.20030249300E+04 0.  0.
        3    1    3    3  502    0  0.56747009517E+02  0.33233566116E+03  0.10693048442E+04  0.11211958236E+04  0.10100000352E+00 0.  1.
       -3    1    3    3    0  502 -0.56747009517E+02 -0.33233566116E+03 -0.83020321416E+03  0.89604944159E+03  0.10100000352E+00 0. -1.
</event>
<event>
 5   0  0.3605571E-04  0.1677594E+04  0.7818609E-02  0.8774247E-01
       -2   -1    0    0    0  501  0.00000000000E+00  0.00000000000E+00  0.34410266490E+03  0.34410266491E+03  0.25500000920E-02 0. -1.
        2   -1    0    0  501    0  0.00000000000E+00  0.00000000000E+00 -0.20446817193E+04  0.20446817193E+04  0.25500000920E-02 0.  1.
    10030    2    1    2    0    0  0.00000000000E+00  0.00000000000E+00 -0.17005790544E+04  0.23887843842E+04  0.16775940254E+04 0.  0.
        4    1    3    3  502    0  0.91897569010E+01  0.27592157020E+03 -0.19781336078E+04  0.19973060226E+04  0.12699999809E+01 0.  1.
       -4    1    3    3    0  502 -0.91897569010E+01 -0.27592157020E+03  0.27755455347E+03  0.39147836158E+03  0.12699999809E+01 0. -1.
</event>
<event>
 5   0  0.1824538E-04  0.1668917E+04  0.7818609E-02  0.8779294E-01
       -1   -1    0    0    0  501  0.00000000000E+00  0.00000000000E+00  0.42289708876E+03  0.42289708879E+03  0.50400001928E-02 0.  1.
        1   -1    0    0  501    0  0.00000000000E+00  0.00000000000E+00 -0.16465489708E+04  0.16465489708E+04  0.50400001928E-02 0. -1.
    10030    2    1    2    0    0  0.00000000000E+00  0.00000000000E+00 -0.12236518820E+04  0.20694460595E+04  0.16689167340E+04 0.  0.
        3    1    3    3  502    0 -0.56249887003E+03 -0.37171118265E+03 -0.12215026518E+04  0.13952214594E+04  0.10100000352E+00 0. -1.
       -3    1    3    3    0  502  0.56249887003E+03  0.37171118265E+03 -0.21492301768E+01  0.67422460018E+03  0.10100000352E+00 0.  1.
</event>
<event>
 5   0  0.1893284E-04  0.1709676E+04  0.7818609E-02  0.8755865E-01
        1   -1    0    0  501    0  0.00000000000E+00  0.00000000000E+00  0.10802858160E+04  0.10802858160E+04  0.50400001928E-02 0.  1.
       -1   -1    0    0    0  501  0.00000000000E+00  0.00000000000E+00 -0.67643967299E+03  0.67643967301E+03  0.50400001928E-02 0. -1.
    10030    2    1    2    0    0  0.00000000000E+00  0.00000000000E+00  0.40384614303E+03  0.17567254890E+04  0.17096762081E+04 0.  0.
        2    1    3    3  502    0  0.55691292954E+03 -0.63169596427E+03  0.35278441394E+03  0.91304361620E+03  0.25500000920E-02 0. -1.
       -2    1    3    3    0  502 -0.55691292954E+03  0.63169596427E+03  0.51061729090E+02  0.84368187283E+03  0.25500000920E-02 0.  1.
</event>
<event>
 5   0  0.1815663E-04  0.1730385E+04  0.7818609E-02  0.8744222E-01
       -1   -1    0    0    0  501  0.00000000000E+00  0.00000000000E+00  0.48015762622E+03  0.48015762625E+03  0.50400001928E-02 0. -1.
        1   -1    0    0  501    0  0.00000000000E+00  0.00000000000E+00 -0.15589846534E+04  0.15589846535E+04  0.50400001928E-02 0.  1.
    10030    2    1    2    0    0  0.00000000000E+00  0.00000000000E+00 -0.10788270272E+04  0.20391422797E+04  0.17303853566E+04 0.  0.
        5    1    3    3  502    0  0.15820672568E+03  0.67948426404E+03 -0.11423841927E+04  0.13385783380E+04  0.46999998093E+01 0.  1.
       -5    1    3    3    0  502 -0.15820672568E+03 -0.67948426404E+03  0.63557165518E+02  0.70056394170E+03  0.46999998093E+01 0. -1.
</event>
<event>
 5   0  0.3605571E-04  0.1702443E+04  0.7818609E-02  0.8759972E-01
       -2   -1    0    0    0  501  0.00000000000E+00  0.00000000000E+00  0.14705659652E+04  0.14705659652E+04  0.25500000920E-02 0. -1.
        2   -1    0    0  501    0  0.00000000000E+00  0.00000000000E+00 -0.49272067629E+03  0.49272067629E+03  0.25500000920E-02 0.  1.
    10030    2    1    2    0    0  0.00000000000E+00  0.00000000000E+00  0.97784528888E+03  0.19632866415E+04  0.17024432524E+04 0.  0.
        4    1    3    3  502    0  0.28596789676E+03  0.54267630920E+03  0.11695175525E+04  0.13206241452E+04  0.12699999809E+01 0. -1.
       -4    1    3    3    0  502 -0.28596789676E+03 -0.54267630920E+03 -0.19167226358E+03  0.64266249624E+03  0.12699999809E+01 0.  1.
</event>
<event>
 5   0  0.1930116E-04  0.1677773E+04  0.7818609E-02  0.8774144E-01
        1   -1    0    0  501    0  0.00000000000E+00  0.00000000000E+00  0.11037626239E+04  0.11037626239E+04  0.50400001928E-02 0. -1.
       -1   -1    0    0    0  501  0.00000000000E+00  0.00000000000E+00 -0.63757422321E+03  0.63757422323E+03  0.50400001928E-02 0.  1.
    10030    2    1    2    0    0  0.00000000000E+00  0.00000000000E+00  0.46618840065E+03  0.17413368471E+04  0.16777730449E+04 0.  0.
        1    1    3    3  502    0  0.18848319638E+03  0.79240828490E+03  0.24756124631E+02  0.81489242911E+03  0.50400001928E-02 0.  1.
       -1    1    3    3    0  502 -0.18848319638E+03 -0.79240828490E+03  0.44143227602E+03  0.92644441799E+03  0.50400001928E-02 0. -1.
</event>
<event>
 5   0  0.1815663E-04  0.1689485E+04  0.7818609E-02  0.8767384E-01
       -1   -1    0    0    0  501  0.00000000000E+00  0.00000000000E+00  0.49807941447E+03  0.49807941450E+03  0.50400001928E-02 0. -1.
        1   -1    0    0  501    0  0.00000000000E+00  0.00000000000E+00 -0.14326830930E+04  0.14326830930E+04  0.50400001928E-02 0.  1.
    10030    2    1    2    0    0  0.00000000000E+00  0.00000000000E+00 -0.93460367854E+03  0.19307625075E+04  0.16894850767E+04 0.  0.
        5    1    3    3  502    0 -0.61711662321E+03  0.50051716750E+03 -0.13961677844E+03  0.80676223042E+03  0.46999998093E+01 0.  1.
       -5    1    3    3    0  502  0.61711662321E+03 -0.50051716750E+03 -0.79498690010E+03  0.11240002771E+04  0.46999998093E+01 0. -1.
</event>
<event>
 5   0  0.1930116E-04  0.1643867E+04  0.7818609E-02  0.8794043E-01
       -1   -1    0    0    0  501  0.00000000000E+00  0.00000000000E+00  0.41200430970E+03  0.41200430973E+03  0.50400001928E-02 0. -1.
        1   -1    0    0  501    0  0.00000000000E+00  0.00000000000E+00 -0.16397265164E+04  0.16397265164E+04  0.50400001928E-02 0.  1.
    10030    2    1    2    0    0  0.00000000000E+00  0.00000000000E+00 -0.12277222067E+04  0.20517308261E+04  0.16438666510E+04 0.  0.
        1    1    3    3  502    0  0.72911864560E+03  0.24865101878E+03 -0.97155605288E+03  0.12399042271E+04  0.50400001928E-02 0.  1.
       -1    1    3    3    0  502 -0.72911864560E+03 -0.24865101878E+03 -0.25616615382E+03  0.81182659903E+03  0.50400001928E-02 0. -1.
</event>
<event>
 5   0  0.1893284E-04  0.1683888E+04  0.7818609E-02  0.8770607E-01
        1   -1    0    0  501    0  0.00000000000E+00  0.00000000000E+00  0.17057282967E+04  0.17057282967E+04  0.50400001928E-02 0. -1.
       -1   -1    0    0    0  501  0.00000000000E+00  0.00000000000E+00 -0.41558173798E+03  0.41558173801E+03  0.50400001928E-02 0.  1.
    10030    2    1    2    0    0  0.00000000000E+00  0.00000000000E+00  0.12901465588E+04  0.21213100348E+04  0.16838877993E+04 0.  0.
        2    1    3    3  502    0  0.64062308933E+03  0.45928719309E+03  0.27237132091E+03  0.83398369575E+03  0.25500000920E-02 0.  1.
       -2    1    3    3    0  502 -0.64062308933E+03 -0.45928719309E+03  0.10177752378E+04  0.12873263390E+04  0.25500000920E-02 0. -1.
</event>
<event>
 5   0  0.3573262E-04  0.1698919E+04  0.7818609E-02  0.8761981E-01
        2   -1    0    0  501    0  0.00000000000E+00  0.00000000000E+00  0.10877074039E+04  0.10877074039E+04  0.25500000920E-02 0.  1.
       -2   -1    0    0    0  501  0.00000000000E+00  0.00000000000E+00 -0.66339650049E+03  0.66339650050E+03  0.25500000920E-02 0. -1.
    10030    2    1    2    0    0  0.00000000000E+00  0.00000000000E+00  0.42431090339E+03  0.17511039044E+04  0.16989188154E+04 0.  0.
        5    1    3    3  502    0  0.15863269903E+03  0.25905700218E+03  0.10297966189E+04  0.10736750113E+04  0.46999998093E+01 0.  1.
       -5    1    3    3    0  502 -0.15863269903E+03 -0.25905700218E+03 -0.60548571548E+03  0.67742889312E+03  0.46999998093E+01 0. -1.
</event>
<event>
 5   0  0.3605571E-04  0.1696273E+04  0.7818609E-02  0.8763493E-01
       -2   -1    0    0    0  501  0.00000000000E+00  0.00000000000E+00  0.82722283351E+03  0.82722283352E+03  0.25500000920E-02 0. -1.
        2   -1    0    0  501    0  0.00000000000E+00  0.00000000000E+00 -0.86957842743E+03  0.86957842743E+03  0.25500000920E-02 0.  1.
    10030    2    1    2    0    0  0.00000000000E+00  0.00000000000E+00 -0.42355593917E+02  0.16968012609E+04  0.16962725379E+04 0.  0.
        4    1    3    3  502    0  0.32380806264E+03  0.65520996268E+03 -0.45163943331E+03  0.85914582420E+03  0.12699999809E+01 0.  1.
       -4    1    3    3    0  502 -0.32380806264E+03 -0.65520996268E+03  0.40928383939E+03  0.83765543675E+03  0.12699999809E+01 0. -1.
</event>
<event>
 5   0  0.1824538E-04  0.1775123E+04  0.7818609E-02  0.8719642E-01
       -1   -1    0    0    0  501  0.00000000000E+00  0.00000000000E+00  0.41800476992E+03  0.41800476995E+03  0.50400001928E-02 0.  1.
        1   -1    0    0  501    0  0.00000000000E+00  0.00000000000E+00 -0.18845843475E+04  0.18845843475E+04  0.50400001928E-02 0. -1.
    10030    2    1    2    0    0  0.00000000000E+00  0.00000000000E+00 -0.14665795776E+04  0.23025891175E+04  0.17751228089E+04 0.  0.
        3    1    3    3  502    0 -0.20293576226E+02 -0.50141034271E+03 -0.16829026001E+04  0.17561279374E+04  0.10100000352E+00 0. -1.
       -3    1    3    3    0  502  0.20293576226E+02  0.50141034271E+03  0.21632302252E+03  0.54646118003E+03  0.10100000352E+00 0.  1.
</event>
<event>
 5   0  0.1893284E-04  0.1716887E+04  0.7818609E-02  0.8751792E-01
        1   -1    0    0  501    0  0.00000000000E+00  0.00000000000E+00  0.48436754163E+03  0.48436754166E+03  0.50400001928E-02 0.  1.
       -1   -1    0    0    0  501  0.00000000000E+00  0.00000000000E+00 -0.15214166912E+04  0.15214166912E+04  0.50400001928E-02 0. -1.
    10030    2    1    2    0    0  0.00000000000E+00  0.00000000000E+00 -0.10370491496E+04  0.20057842329E+04  0.17168865572E+04 0.  0.
        2    1    3    3  502    0  0.28956330877E+03 -0.79934181660E+03 -0.37964988116E+03  0.93108983553E+03  0.25500000920E-02 0.  1.
       -2    1    3    3    0  502 -0.28956330877E+03  0.79934181660E+03 -0.65739926841E+03  0.10746943973E+04  0.25500000920E-02 0. -1.
</event>
<event>
 5   0  0.3605571E-04  0.1712155E+04  0.7818609E-02  0.8754462E-01
       -2   -1    0    0    0  501  0.00000000000E+00  0.00000000000E+00  0.89584357766E+03  0.89584357766E+03  0.25500000920E-02 0.  1.
        2   -1    0    0  501    0  0.00000000000E+00  0.00000000000E+00 -0.81807648304E+03  0.81807648304E+03  0.25500000920E-02 0. -1.
    10030    2    1    2    0    0  0.00000000000E+00  0.00000000000E+00  0.77767094618E+02  0.17139200607E+04  0.17121548567E+04 0.  0.
        4    1    3    3  502    0  0.58729888966E+03 -0.43771295007E+03 -0.40469217681E+03  0.83683330677E+03  0.12699999809E+01 0. -1.
       -4    1    3    3    0  502 -0.58729888966E+03  0.43771295007E+03  0.48245927143E+03  0.87708675394E+03  0.12699999809E+01 0.  1.
</event>
<event>
 5   0  0.1930116E-04  0.1699914E+04  0.7818609E-02  0.8761413E-01
       -1   -1    0    0    0  501  0.00000000000E+00  0.00000000000E+00  0.88574552729E+03  0.88574552731E+03  0.50400001928E-02 0. -1.
        1   -1    0    0  501    0  0.00000000000E+00  0.00000000000E+00 -0.81561465231E+03  0.81561465232E+03  0.50400001928E-02 0.  1.
    10030    2    1    2    0    0  0.00000000000E+00  0.00000000000E+00  0.70130874984E+02  0.17013601796E+04  0.16999141511E+04 0.  0.
        1    1    3    3  502    0  0.27953176912E+03 -0.33218770725E+03  0.76639923568E+03  0.88082601646E+03  0.50400001928E-02 0. -1.
       -1    1    3    3    0  502 -0.27953176912E+03  0.33218770725E+03 -0.69626836069E+03  0.82053416317E+03  0.50400001928E-02 0.  1.
</event>
<event>
 5   0  0.3516723E-04  0.1614025E+04  0.7818609E-02  0.8811978E-01
       -2   -1    0    0    0  501  0.00000000000E+00  0.00000000000E+00  0.63520170629E+03  0.63520170630E+03  0.25500000920E-02 0.  1.
        2   -1    0    0  501    0  0.00000000000E+00  0.00000000000E+00 -0.10252949442E+04  0.10252949442E+04  0.25500000920E-02 0. -1.
    10030    2    1    2    0    0  0.00000000000E+00  0.00000000000E+00 -0.39009323791E+03  0.16604966505E+04  0.16140249044E+04 0.  0.
        1    1    3    3  502    0  0.58105693975E+03  0.55764737935E+03 -0.24821967596E+03  0.84274003969E+03  0.50400001928E-02 0.  1.
       -1    1    3    3    0  502 -0.58105693975E+03 -0.55764737935E+03 -0.14187356195E+03  0.81775661082E+03  0.50400001928E-02 0. -1.
</event>
<event>
 5   0  0.1930116E-04  0.1697425E+04  0.7818609E-02  0.8762834E-01
        1   -1    0    0  501    0  0.00000000000E+00  0.00000000000E+00  0.18543910920E+04  0.18543910920E+04  0.50400001928E-02 0.  1.
       -1   -1    0    0    0  501  0.00000000000E+00  0.00000000000E+00 -0.38843639703E+03  0.38843639707E+03  0.50400001928E-02 0. -1.
    10030    2    1    2    0    0  0.00000000000E+00  0.00000000000E+00  0.14659546949E+04  0.22428274891E+04  0.16974251023E+04 0.  0.
        1    1    3    3  502    0 -0.17252650095E+03 -0.20923296664E+03 -0.32964734558E+03  0.42686203899E+03  0.50400001928E-02 0. -1.
       -1    1    3    3    0  502  0.17252650095E+03  0.20923296664E+03  0.17956020405E+04  0.18159654501E+04  0.50400001928E-02 0.  1.
</event>
<event>
 5   0  0.1930116E-04  0.1712084E+04  0.7818609E-02  0.8754502E-01
        1   -1    0    0  501    0  0.00000000000E+00  0.00000000000E+00  0.71991199969E+03  0.71991199970E+03  0.50400001928E-02 0.  1.
       -1   -1    0    0    0  501  0.00000000000E+00  0.00000000000E+00 -0.10179130880E+04  0.10179130880E+04  0.50400001928E-02 0. -1.
    10030    2    1    2    0    0  0.00000000000E+00  0.00000000000E+00 -0.29800108829E+03  0.17378250877E+04  0.17120839310E+04 0.  0.
        1    1    3    3  502    0 -0.42240334872E+03 -0.34352834237E+03 -0.81951665656E+03  0.98389220010E+03  0.50400001928E-02 0. -1.
       -1    1    3    3    0  502  0.42240334872E+03  0.34352834237E+03  0.52151556827E+03  0.75393288759E+03  0.50400001928E-02 0.  1.
</event>
<event>
 5   0  0.3574092E-04  0.1700770E+04  0.7818609E-02  0.8760925E-01
       -2   -1    0    0    0  501  0.00000000000E+00  0.00000000000E+00  0.55177305105E+03  0.55177305105E+03  0.25500000920E-02 0. -1.
        2   -1    0    0  501    0  0.00000000000E+00  0.00000000000E+00 -0.13106023558E+04  0.13106023558E+04  0.25500000920E-02 0.  1.
    10030    2    1    2    0    0  0.00000000000E+00  0.00000000000E+00 -0.75882930471E+03  0.18623754068E+04  0.17007704849E+04 0.  0.
        3    1    3    3  502    0 -0.45528011038E+03 -0.46587448115E+03  0.21918712687E+03  0.68728597969E+03  0.10100000352E+00 0. -1.
       -3    1    3    3    0  502  0.45528011038E+03  0.46587448115E+03 -0.97801643158E+03  0.11750894271E+04  0.10100000352E+00 0.  1.
</event>
<event>
 5   0  0.1815663E-04  0.1744638E+04  0.7818609E-02  0.8736307E-01
       -1   -1    0    0    0  501  0.00000000000E+00  0.00000000000E+00  0.68990259128E+03  0.68990259130E+03  0.50400001928E-02 0. -1.
        1   -1    0    0  501    0  0.00000000000E+00  0.00000000000E+00 -0.11029677326E+04  0.11029677326E+04  0.50400001928E-02 0.  1.
    10030    2    1    2    0    0  0.00000000000E+00  0.00000000000E+00 -0.41306514133E+03  0.17928703239E+04  0.17446378385E+04 0.  0.
        5    1    3    3  502    0  0.74121607384E+03  0.40381342807E+03  0.19670186948E+02  0.84431958349E+03  0.46999998093E+01 0.  1.
       -5    1    3    3    0  502 -0.74121607384E+03 -0.40381342807E+03 -0.43273532827E+03  0.94855074042E+03  0.46999998093E+01 0. -1.
</event>
<event>
 5   0  0.3574092E-04  0.1700686E+04  0.7818609E-02  0.8760973E-01
        2   -1    0    0  501    0  0.00000000000E+00  0.00000000000E+00  0.11703907923E+04  0.11703907923E+04  0.25500000920E-02 0.  1.
       -2   -1    0    0    0  501  0.00000000000E+00  0.00000000000E+00 -0.61781321234E+03  0.61781321234E+03  0.25500000920E-02 0. -1.
    10030    2    1    2    0    0  0.00000000000E+00  0.00000000000E+00  0.55257757991E+03  0.17882040046E+04  0.17006856206E+04 0.  0.
        3    1    3    3  502    0  0.73435616975E+03 -0.19626564726E+03 -0.12448698633E+03  0.77025723516E+03  0.10100000352E+00 0. -1.
       -3    1    3    3    0  502 -0.73435616975E+03  0.19626564726E+03  0.67706456624E+03  0.10179467694E+04  0.10100000352E+00 0.  1.
</event>
<event>
 5   0  0.3605571E-04  0.1700071E+04  0.7818609E-02  0.8761324E-01
       -2   -1    0    0    0  501  0.00000000000E+00  0.00000000000E+00  0.30244858097E+03  0.30244858098E+03  0.25500000920E-02 0.  1.
        2   -1    0    0  501    0  0.00000000000E+00  0.00000000000E+00 -0.23890355101E+04  0.23890355101E+04  0.25500000920E-02 0. -1.
    10030    2    1    2    0    0  0.00000000000E+00  0.00000000000E+00 -0.20865869291E+04  0.26914840911E+04  0.17000710573E+04 0.  0.
        4    1    3    3  502    0 -0.27404051011E+03  0.28983608570E+03 -0.22316714676E+04  0.22670382242E+04  0.12699999809E+01 0. -1.
       -4    1    3    3    0  502  0.27404051011E+03 -0.28983608570E+03  0.14508453844E+03  0.42444586692E+03  0.12699999809E+01 0.  1.
</event>
<event>
 5   0  0.3574092E-04  0.1819212E+04  0.7818609E-02  0.8696149E-01
       -2   -1    0    0    0  501  0.00000000000E+00  0.00000000000E+00  0.63116893112E+03  0.63116893112E+03  0.25500000920E-02 0. -1.
        2   -1    0    0  501    0  0.00000000000E+00  0.00000000000E+00 -0.13108741707E+04  0.13108741707E+04  0.25500000920E-02 0.  1.
    10030    2    1    2    0    0  0.00000000000E+00  0.00000000000E+00 -0.67970523955E+03  0.19420431018E+04  0.18192119713E+04 0.  0.
        3    1    3    3  502    0  0.86347951664E+02  0.77404538936E+03 -0.84145110447E+03  0.11465784775E+04  0.10100000352E+00 0. -1.
       -3    1    3    3    0  502 -0.86347951664E+02 -0.77404538936E+03  0.16174586493E+03  0.79546462433E+03  0.10100000352E+00 0.  1.
</event>
<event>
 5   0  0.3516723E-04  0.1723983E+04  0.7818609E-02  0.8747803E-01
        2   -1    0    0  501    0  0.00000000000E+00  0.00000000000E+00  0.53167500622E+03  0.53167500622E+03  0.25500000920E-02 0.  1.
       -2   -1    0    0    0  501  0.00000000000E+00  0.00000000000E+00 -0.13975258656E+04  0.13975258656E+04  0.25500000920E-02 0. -1.
    10030    2    1    2    0    0  0.00000000000E+00  0.00000000000E+00 -0.86585085937E+03  0.19292008718E+04  0.17239832636E+04 0.  0.
        1    1    3    3  502    0  0.75098377410E+03 -0.40300858955E+03 -0.57726392948E+03  0.10293814631E+04  0.50400001928E-02 0.  1.
       -1    1    3    3    0  502 -0.75098377410E+03  0.40300858955E+03 -0.28858692989E+03  0.89981940874E+03  0.50400001928E-02 0. -1.
</event>
<event>
 5   0  0.1893284E-04  0.1701651E+04  0.7818609E-02  0.8760423E-01
       -1   -1    0    0    0  501  0.00000000000E+00  0.00000000000E+00  0.89056354782E+03  0.89056354783E+03  0.50400001928E-02 0. -1.
        1   -1    0    0  501    0  0.00000000000E+00  0.00000000000E+00 -0.81286038936E+03  0.81286038938E+03  0.50400001928E-02 0.  1.
    10030    2    1    2    0    0  0.00000000000E+00  0.00000000000E+00  0.77703158459E+02  0.17034239372E+04  0.17016507659E+04 0.  0.
        2    1    3    3  502    0 -0.60635631250E+03  0.24384226916E+03 -0.50648833797E+03  0.82683581589E+03  0.25500000920E-02 0.  1.
       -2    1    3    3    0  502  0.60635631250E+03 -0.24384226916E+03  0.58419149643E+03  0.87658812132E+03  0.25500000920E-02 0. -1.
</event>
<event>
 5   0  0.1920289E-04  0.1768767E+04  0.7818609E-02  0.8723088E-01
       -1   -1    0    0    0  501  0.00000000000E+00  0.00000000000E+00  0.42586287998E+03  0.42586288001E+03  0.50400001928E-02 0.  1.
        1   -1    0    0  501    0  0.00000000000E+00  0.00000000000E+00 -0.18365861708E+04  0.18365861708E+04  0.50400001928E-02 0. -1.
    10030    2    1    2    0    0  0.00000000000E+00  0.00000000000E+00 -0.14107232908E+04  0.22624490508E+04  0.17687666619E+04 0.  0.
        4    1    3    3  502    0 -0.74943937843E+03 -0.10148720728E+03 -0.12917656954E+04  0.14968698207E+04  0.12699999809E+01 0. -1.
       -4    1    3    3    0  502  0.74943937843E+03  0.10148720728E+03 -0.11895759534E+03  0.76557923011E+03  0.12699999809E+01 0.  1.
</event>
<event>
 5   0  0.3573262E-04  0.1666200E+04  0.7818609E-02  0.8780880E-01
       -2   -1    0    0    0  501  0.00000000000E+00  0.00000000000E+00  0.10773766920E+04  0.10773766920E+04  0.25500000920E-02 0.  1.
        2   -1    0    0  501    0  0.00000000000E+00  0.00000000000E+00 -0.64420860729E+03  0.64420860729E+03  0.25500000920E-02 0. -1.
    10030    2    1    2    0    0  0.00000000000E+00  0.00000000000E+00  0.43316808467E+03  0.17215852993E+04  0.16661996738E+04 0.  0.
        5    1    3    3  502    0 -0.21926291297E+03 -0.54639741088E+03  0.82558884253E+03  0.10140243501E+04  0.46999998093E+01 0.  1.
       -5    1    3    3    0  502  0.21926291297E+03  0.54639741088E+03 -0.39242075786E+03  0.70756094919E+03  0.46999998093E+01 0. -1.
</event>
<event>
 5   0  0.1930116E-04  0.1700071E+04  0.7818609E-02  0.8761324E-01
        1   -1    0    0  501    0  0.00000000000E+00  0.00000000000E+00  0.17397564752E+04  0.17397564752E+04  0.50400001928E-02 0.  1.
       -1   -1    0    0    0  501  0.00000000000E+00  0.00000000000E+00 -0.41532280227E+03  0.41532280230E+03  0.50400001928E-02 0. -1.
    10030    2    1    2    0    0  0.00000000000E+00  0.00000000000E+00  0.13244336730E+04  0.21550792775E+04  0.17000712157E+04 0.  0.
        1    1    3    3  502    0  0.20898984792E+03 -0.42245017142E+03  0.15589501534E+04  0.16286394581E+04  0.50400001928E-02 0.  1.
       -1    1    3    3    0  502 -0.20898984792E+03  0.42245017142E+03 -0.23451648040E+03  0.52643981941E+03  0.50400001928E-02 0. -1.
</event>
<event>
 5   0  0.1920289E-04  0.1723955E+04  0.7818609E-02  0.8747819E-01
        1   -1    0    0  501    0  0.00000000000E+00  0.00000000000E+00  0.10462562100E+04  0.10462562100E+04  0.50400001928E-02 0.  1.
       -1   -1    0    0    0  501  0.00000000000E+00  0.00000000000E+00 -0.71015606776E+03  0.71015606778E+03  0.50400001928E-02 0. -1.
    10030    2    1    2    0    0  0.00000000000E+00  0.00000000000E+00  0.33610014222E+03  0.17564122778E+04  0.17239549831E+04 0.  0.
        4    1    3    3  502    0 -0.20203285577E+03 -0.28153489082E+03  0.97216517409E+03  0.10320784409E+04  0.12699999809E+01 0.  1.
       -4    1    3    3    0  502  0.20203285577E+03  0.28153489082E+03 -0.63606503187E+03  0.72433383687E+03  0.12699999809E+01 0. -1.
</event>
<event>
 5   0  0.1815663E-04  0.1679248E+04  0.7818609E-02  0.8773289E-01
        1   -1    0    0  501    0  0.00000000000E+00  0.00000000000E+00  0.11746092464E+04  0.11746092464E+04  0.50400001928E-02 0. -1.
       -1   -1    0    0    0  501  0.00000000000E+00  0.00000000000E+00 -0.60017304114E+03  0.60017304116E+03  0.50400001928E-02 0.  1.
    10030    2    1    2    0    0  0.00000000000E+00  0.00000000000E+00  0.57443620523E+03  0.17747822875E+04  0.16792484076E+04 0.  0.
        5    1    3    3  502    0  0.29658938846E+03 -0.35715539095E+03  0.10266048318E+04  0.11267052894E+04  0.46999998093E+01 0. -1.
       -5    1    3    3    0  502 -0.29658938846E+03  0.35715539095E+03 -0.45216862655E+03  0.64807699810E+03  0.46999998093E+01 0.  1.
</event>
<event>
 5   0  0.3605571E-04  0.1885001E+04  0.7818609E-02  0.8662359E-01
        2   -1    0    0  501    0  0.00000000000E+00  0.00000000000E+00  0.48941046756E+03  0.48941046756E+03  0.25500000920E-02 0. -1.
       -2   -1    0    0    0  501  0.00000000000E+00  0.00000000000E+00 -0.18150547302E+04  0.18150547302E+04  0.25500000920E-02 0.  1.
    10030    2    1    2    0    0  0.00000000000E+00  0.00000000000E+00 -0.13256442627E+04  0.23044651978E+04  0.18850005668E+04 0.  0.
        4    1    3    3  502    0  0.58066597135E+03 -0.27040347342E+03  0.18241594055E+03  0.66600915683E+03  0.12699999809E+01 0. -1.
       -4    1    3    3    0  502 -0.58066597135E+03  0.27040347342E+03 -0.15080602032E+04  0.16384560410E+04  0.12699999809E+01 0.  1.
</event>
<event>
 5   0  0.1930116E-04  0.1705097E+04  0.7818609E-02  0.8758462E-01
       -1   -1    0    0    0  501  0.00000000000E+00  0.00000000000E+00  0.49332281253E+03  0.49332281255E+03  0.50400001928E-02 0. -1.
        1   -1    0    0  501    0  0.00000000000E+00  0.00000000000E+00 -0.14733541700E+04  0.14733541700E+04  0.50400001928E-02 0.  1.
    10030    2    1    2    0    0  0.00000000000E+00  0.00000000000E+00 -0.98003135742E+03  0.19666769825E+04  0.17050973263E+04 0.  0.
        1    1    3    3  502    0  0.52604490998E+03 -0.55931176174E+03 -0.62652100018E+02  0.77037534995E+03  0.50400001928E-02 0. -1.
       -1    1    3    3    0  502 -0.52604490998E+03  0.55931176174E+03 -0.91737925741E+03  0.11963016326E+04  0.50400001928E-02 0.  1.
</event>
<event>
 5   0  0.3678896E-04  0.1704268E+04  0.7818609E-02  0.8758934E-01
        2   -1    0    0  501    0  0.00000000000E+00  0.00000000000E+00  0.12040427013E+04  0.12040427013E+04  0.25500000920E-02 0.  1.
       -2   -1    0    0    0  501  0.00000000000E+00  0.00000000000E+00 -0.60307891878E+03  0.60307891878E+03  0.25500000920E-02 0. -1.
    10030    2    1    2    0    0  0.00000000000E+00  0.00000000000E+00  0.60096378251E+03  0.18071216201E+04  0.17042684888E+04 0.  0.
        2    1    3    3  502    0  0.62048358389E+03 -0.33784541622E+03  0.80567329413E+03  0.10715637452E+04  0.25500000920E-02 0.  1.
       -2    1    3    3    0  502 -0.62048358389E+03  0.33784541622E+03 -0.20470951162E+03  0.73555787488E+03  0.25500000920E-02 0. -1.
</event>
<event>
 5   0  0.3573262E-04  0.1546808E+04  0.7818609E-02  0.8853909E-01
       -2   -1    0    0    0  501  0.00000000000E+00  0.00000000000E+00  0.28982295109E+03  0.28982295111E+03  0.25500000920E-02 0. -1.
        2   -1    0    0  501    0  0.00000000000E+00  0.00000000000E+00 -0.20638591486E+04  0.20638591486E+04  0.25500000920E-02 0.  1.
    10030    2    1    2    0    0  0.00000000000E+00  0.00000000000E+00 -0.17740361975E+04  0.23536820997E+04  0.15468080024E+04 0.  0.
        5    1    3    3  502    0 -0.26408151443E+03  0.62963461739E+03 -0.14397579794E+04  0.15934565971E+04  0.46999998093E+01 0. -1.
       -5    1    3    3    0  502  0.26408151443E+03 -0.62963461739E+03 -0.33427821810E+03  0.76022550258E+03  0.46999998093E+01 0.  1.
</event>
<event>
 5   0  0.1824538E-04  0.1715779E+04  0.7818609E-02  0.8752416E-01
        1   -1    0    0  501    0  0.00000000000E+00  0.00000000000E+00  0.12248763589E+04  0.12248763589E+04  0.50400001928E-02 0. -1.
       -1   -1    0    0    0  501  0.00000000000E+00  0.00000000000E+00 -0.60085593227E+03  0.60085593230E+03  0.50400001928E-02 0.  1.
    10030    2    1    2    0    0  0.00000000000E+00  0.00000000000E+00  0.62402042660E+03  0.18257322912E+04  0.17157788046E+04 0.  0.
        3    1    3    3  502    0  0.71875396050E+03 -0.83682124774E+02  0.80237188313E+03  0.10804677704E+04  0.10100000352E+00 0. -1.
       -3    1    3    3    0  502 -0.71875396050E+03  0.83682124774E+02 -0.17835145653E+03  0.74526452082E+03  0.10100000352E+00 0.  1.
</event>
<event>
 5   0  0.1815663E-04  0.1687729E+04  0.7818609E-02  0.8768394E-01
       -1   -1    0    0    0  501  0.00000000000E+00  0.00000000000E+00  0.60720359355E+03  0.60720359357E+03  0.50400001928E-02 0.  1.
        1   -1    0    0  501    0  0.00000000000E+00  0.00000000000E+00 -0.11727645895E+04  0.11727645895E+04  0.50400001928E-02 0. -1.
    10030    2    1    2    0    0  0.00000000000E+00  0.00000000000E+00 -0.56556099593E+03  0.17799681831E+04  0.16877285009E+04 0.  0.
        5    1    3    3  502    0 -0.68435605777E+03 -0.46247012623E+03 -0.10052693778E+03  0.83207546935E+03  0.46999998093E+01 0.  1.
       -5    1    3    3    0  502  0.68435605777E+03  0.46247012623E+03 -0.46503405815E+03  0.94789271371E+03  0.46999998093E+01 0. -1.
</event>
<event>
 5   0  0.3678896E-04  0.1721400E+04  0.7818609E-02  0.8749253E-01
       -2   -1    0    0    0  501  0.00000000000E+00  0.00000000000E+00  0.10585747667E+04  0.10585747667E+04  0.25500000920E-02 0.  1.
        2   -1    0    0  501    0  0.00000000000E+00  0.00000000000E+00 -0.69981279182E+03  0.69981279182E+03  0.25500000920E-02 0. -1.
    10030    2    1    2    0    0  0.00000000000E+00  0.00000000000E+00  0.35876197483E+03  0.17583875585E+04  0.17213996199E+04 0.  0.
        2    1    3    3  502    0 -0.33377785050E+03 -0.48958918423E+03  0.81705322836E+03  0.10092973798E+04  0.25500000920E-02 0.  1.
       -2    1    3    3    0  502  0.33377785050E+03  0.48958918423E+03 -0.45829125353E+03  0.74909017872E+03  0.25500000920E-02 0. -1.
</event>
<event>
 5   0  0.1920289E-04  0.1733448E+04  0.7818609E-02  0.8742515E-01
        1   -1    0    0  501    0  0.00000000000E+00  0.00000000000E+00  0.93935167509E+03  0.93935167511E+03  0.50400001928E-02 0. -1.
       -1   -1    0    0    0  501  0.00000000000E+00  0.00000000000E+00 -0.79971131530E+03  0.79971131532E+03  0.50400001928E-02 0.  1.
    10030    2    1    2    0    0  0.00000000000E+00  0.00000000000E+00  0.13964035979E+03  0.17390629904E+04  0.17334476210E+04 0.  0.
        4    1    3    3  502    0  0.81390288832E+01  0.76021926677E+03  0.48735219682E+03  0.90305777999E+03  0.12699999809E+01 0. -1.
       -4    1    3    3    0  502 -0.81390288832E+01 -0.76021926677E+03 -0.34771183703E+03  0.83600521043E+03  0.12699999809E+01 0.  1.
</event>
<event>
 5   0  0.3574092E-04  0.1698898E+04  0.7818609E-02  0.8761993E-01
       -2   -1    0    0    0  501  0.00000000000E+00  0.00000000000E+00  0.66102582514E+03  0.66102582514E+03  0.25500000920E-02 0. -1.
        2   -1    0    0  501    0  0.00000000000E+00  0.00000000000E+00 -0.10915815548E+04  0.10915815548E+04  0.25500000920E-02 0.  1.
    10030    2    1    2    0    0  0.00000000000E+00  0.00000000000E+00 -0.43055572964E+03  0.17526073799E+04  0.16988979934E+04 0.  0.
        3    1    3    3  502    0  0.43868168594E+03 -0.40659083760E+03 -0.83750962677E+03  0.10291647662E+04  0.10100000352E+00 0.  1.
       -3    1    3    3    0  502 -0.43868168594E+03  0.40659083760E+03  0.40695389713E+03  0.72344261375E+03  0.10100000352E+00 0. -1.
</event>
<event>
 5   0  0.3573262E-04  0.1712664E+04  0.7818609E-02  0.8754175E-01
        2   -1    0    0  501    0  0.00000000000E+00  0.00000000000E+00  0.16210421188E+04  0.16210421188E+04  0.25500000920E-02 0. -1.
       -2   -1    0    0    0  501  0.00000000000E+00  0.00000000000E+00 -0.45236589436E+03  0.45236589437E+03  0.25500000920E-02 0.  1.
    10030    2    1    2    0    0  0.00000000000E+00  0.00000000000E+00  0.11686762245E+04  0.20734080132E+04  0.17126636189E+04 0.  0.
        5    1    3    3  502    0 -0.13124423341E+03 -0.28772961458E+03 -0.37906204115E+03  0.49368360409E+03  0.46999998093E+01 0.  1.
       -5    1    3    3    0  502  0.13124423341E+03  0.28772961458E+03  0.15477382656E+04  0.15797244091E+04  0.46999998093E+01 0. -1.
</event>
<event>
 5   0  0.3516723E-04  0.1706095E+04  0.7818609E-02  0.8757896E-01
        2   -1    0    0  501    0  0.00000000000E+00  0.00000000000E+00  0.21423938199E+04  0.21423938199E+04  0.25500000920E-02 0. -1.
       -2   -1    0    0    0  501  0.00000000000E+00  0.00000000000E+00 -0.33966213956E+03  0.33966213957E+03  0.25500000920E-02 0.  1.
    10030    2    1    2    0    0  0.00000000000E+00  0.00000000000E+00  0.18027316804E+04  0.24820559595E+04  0.17060950368E+04 0.  0.
        1    1    3    3  502    0 -0.34717743069E+03 -0.75880595558E+03  0.11590427193E+04  0.14281801958E+04  0.50400001928E-02 0. -1.
       -1    1    3    3    0  502  0.34717743069E+03  0.75880595558E+03  0.64368896112E+03  0.10538757637E+04  0.50400001928E-02 0.  1.
</event>
<event>
 5   0  0.1920289E-04  0.1705892E+04  0.7818609E-02  0.8758011E-01
        1   -1    0    0  501    0  0.00000000000E+00  0.00000000000E+00  0.48707938170E+03  0.48707938173E+03  0.50400001928E-02 0.  1.
       -1   -1    0    0    0  501  0.00000000000E+00  0.00000000000E+00 -0.14936317891E+04  0.14936317891E+04  0.50400001928E-02 0. -1.
    10030    2    1    2    0    0  0.00000000000E+00  0.00000000000E+00 -0.10065524074E+04  0.19807111708E+04  0.17058924331E+04 0.  0.
        4    1    3    3  502    0  0.10513624749E+03 -0.77945530283E+03 -0.12009318904E+03  0.79563068480E+03  0.12699999809E+01 0.  1.
       -4    1    3    3    0  502 -0.10513624749E+03  0.77945530283E+03 -0.88645921833E+03  0.11850804860E+04  0.12699999809E+01 0. -1.
</event>
<event>
 5   0  0.3516723E-04  0.1751526E+04  0.7818609E-02  0.8732511E-01
       -2   -1    0    0    0  501  0.00000000000E+00  0.00000000000E+00  0.80028997283E+03  0.80028997283E+03  0.25500000920E-02 0.  1.
        2   -1    0    0  501    0  0.00000000000E+00  0.00000000000E+00 -0.95835381111E+03  0.95835381112E+03  0.25500000920E-02 0. -1.
    10030    2    1    2    0    0  0.00000000000E+00  0.00000000000E+00 -0.15806383829E+03  0.17586437839E+04  0.17515261294E+04 0.  0.
        1    1    3    3  502    0  0.50354878277E+03 -0.66977748025E+03  0.17655642360E+03  0.85635005718E+03  0.50400001928E-02 0.  1.
       -1    1    3    3    0  502 -0.50354878277E+03  0.66977748025E+03 -0.33462026189E+03  0.90229372677E+03  0.50400001928E-02 0. -1.
</event>
<event>
 5   0  0.1930116E-04  0.1679861E+04  0.7818609E-02  0.8772934E-01
        1   -1    0    0  501    0  0.00000000000E+00  0.00000000000E+00  0.15986704130E+04  0.15986704130E+04  0.50400001928E-02 0. -1.
       -1   -1    0    0    0  501  0.00000000000E+00  0.00000000000E+00 -0.44129396065E+03  0.44129396068E+03  0.50400001928E-02 0.  1.
    10030    2    1    2    0    0  0.00000000000E+00  0.00000000000E+00  0.11573764524E+04  0.20399643737E+04  0.16798614209E+04 0.  0.
        1    1    3    3  502    0  0.34474042276E+03 -0.16826906572E+03  0.14860739634E+04  0.15347886703E+04  0.50400001928E-02 0. -1.
       -1    1    3    3    0  502 -0.34474042276E+03  0.16826906572E+03 -0.32869751105E+03  0.50517570346E+03  0.50400001928E-02 0.  1.
</event>
<event>
 5   0  0.3605571E-04  0.1689271E+04  0.7818609E-02  0.8767507E-01
        2   -1    0    0  501    0  0.00000000000E+00  0.00000000000E+00  0.10064641338E+04  0.10064641338E+04  0.25500000920E-02 0.  1.
       -2   -1    0    0    0  501  0.00000000000E+00  0.00000000000E+00 -0.70882736705E+03  0.70882736705E+03  0.25500000920E-02 0. -1.
    10030    2    1    2    0    0  0.00000000000E+00  0.00000000000E+00  0.29763676675E+03  0.17152915009E+04  0.16892712298E+04 0.  0.
        4    1    3    3  502    0 -0.67072714735E+03  0.50561938343E+03  0.58671147960E+02  0.84200343443E+03  0.12699999809E+01 0. -1.
       -4    1    3    3    0  502  0.67072714735E+03 -0.50561938343E+03  0.23896561879E+03  0.87328806642E+03  0.12699999809E+01 0.  1.
</event>
<event>
 5   0  0.1930116E-04  0.1681654E+04  0.7818609E-02  0.8771897E-01
       -1   -1    0    0    0  501  0.00000000000E+00  0.00000000000E+00  0.78890476873E+03  0.78890476875E+03  0.50400001928E-02 0. -1.
        1   -1    0    0  501    0  0.00000000000E+00  0.00000000000E+00 -0.89616661879E+03  0.89616661880E+03  0.50400001928E-02 0.  1.
    10030    2    1    2    0    0  0.00000000000E+00  0.00000000000E+00 -0.10726185006E+03  0.16850713875E+04  0.16816540895E+04 0.  0.
        1    1    3    3  502    0 -0.13843441482E+03 -0.79039306225E+03  0.19808631914E+03  0.82651283712E+03  0.50400001928E-02 0.  1.
       -1    1    3    3    0  502  0.13843441482E+03  0.79039306225E+03 -0.30534816919E+03  0.85855855043E+03  0.50400001928E-02 0. -1.
</event>
<event>
 5   0  0.3573262E-04  0.1704399E+04  0.7818609E-02  0.8758859E-01
        2   -1    0    0  501    0  0.00000000000E+00  0.00000000000E+00  0.13840138367E+04  0.13840138367E+04  0.25500000920E-02 0. -1.
       -2   -1    0    0    0  501  0.00000000000E+00  0.00000000000E+00 -0.52473752776E+03  0.52473752777E+03  0.25500000920E-02 0.  1.
    10030    2    1    2    0    0  0.00000000000E+00  0.00000000000E+00  0.85927630892E+03  0.19087513645E+04  0.17043990132E+04 0.  0.
        5    1    3    3  502    0  0.83005984753E+02 -0.13629090798E+02 -0.52006235368E+03  0.52684218446E+03  0.46999998093E+01 0.  1.
       -5    1    3    3    0  502 -0.83005984753E+02  0.13629090798E+02  0.13793386626E+04  0.13819091800E+04  0.46999998093E+01 0. -1.
</event>
<event>
 5   0  0.3573262E-04  0.1726819E+04  0.7818609E-02  0.8746215E-01
        2   -1    0    0  501    0  0.00000000000E+00  0.00000000000E+00  0.53028436242E+03  0.53028436242E+03  0.25500000920E-02 0. -1.
       -2   -1    0    0    0  501  0.00000000000E+00  0.00000000000E+00 -0.14058040217E+04  0.14058040217E+04  0.25500000920E-02 0.  1.
    10030    2    1    2    0    0  0.00000000000E+00  0.00000000000E+00 -0.87551965933E+03  0.19360883842E+04  0.17268189128E+04 0.  0.
        5    1    3    3  502    0 -0.61881732770E+03  0.52039597143E+03 -0.98228776048E+02  0.81450465596E+03  0.46999998093E+01 0. -1.
       -5    1    3    3    0  502  0.61881732770E+03 -0.52039597143E+03 -0.77729088328E+03  0.11215837282E+04  0.46999998093E+01 0.  1.
</event>
<event>
 5   0  0.3678896E-04  0.1680943E+04  0.7818609E-02  0.8772309E-01
       -2   -1    0    0    0  501  0.00000000000E+00  0.00000000000E+00  0.85530087523E+03  0.85530087524E+03  0.25500000920E-02 0.  1.
        2   -1    0    0  501    0  0.00000000000E+00  0.00000000000E+00 -0.82589889084E+03  0.82589889084E+03  0.25500000920E-02 0. -1.
    10030    2    1    2    0    0  0.00000000000E+00  0.00000000000E+00  0.29401984395E+02  0.16811997661E+04  0.16809426453E+04 0.  0.
        2    1    3    3  502    0 -0.57301901298E+03  0.41828356963E+03  0.46541402979E+03  0.84848226440E+03  0.25500000920E-02 0.  1.
       -2    1    3    3    0  502  0.57301901298E+03 -0.41828356963E+03 -0.43601204539E+03  0.83271750168E+03  0.25500000920E-02 0. -1.
</event>
<event>
 5   0  0.3678896E-04  0.1703039E+04  0.7818609E-02  0.8759633E-01
       -2   -1    0    0    0  501  0.00000000000E+00  0.00000000000E+00  0.36030043187E+03  0.36030043188E+03  0.25500000920E-02 0.  1.
        2   -1    0    0  501    0  0.00000000000E+00  0.00000000000E+00 -0.20124467199E+04  0.20124467199E+04  0.25500000920E-02 0. -1.
    10030    2    1    2    0    0  0.00000000000E+00  0.00000000000E+00 -0.16521462880E+04  0.23727471518E+04  0.17030389571E+04 0.  0.
        2    1    3    3  502    0 -0.59707230458E+03  0.45134810319E+03 -0.13917966833E+04  0.15802874595E+04  0.25500000920E-02 0. -1.
       -2    1    3    3    0  502  0.59707230458E+03 -0.45134810319E+03 -0.26034960475E+03  0.79245969226E+03  0.25500000920E-02 0.  1.
</event>
<event>
 5   0  0.3516723E-04  0.1684251E+04  0.7818609E-02  0.8770398E-01
        2   -1    0    0  501    0  0.00000000000E+00  0.00000000000E+00  0.16775699064E+04  0.16775699064E+04  0.25500000920E-02 0.  1.
       -2   -1    0    0    0  501  0.00000000000E+00  0.00000000000E+00 -0.42273972375E+03  0.42273972375E+03  0.25500000920E-02 0. -1.
    10030    2    1    2    0    0  0.00000000000E+00  0.00000000000E+00  0.12548301827E+04  0.21003096302E+04  0.16842510963E+04 0.  0.
        1    1    3    3  502    0  0.68100792835E+03 -0.48838096525E+03  0.73090851359E+03  0.11119869698E+04  0.50400001928E-02 0.  1.
       -1    1    3    3    0  502 -0.68100792835E+03  0.48838096525E+03  0.52392166907E+03  0.98832266039E+03  0.50400001928E-02 0. -1.
</event>
<event>
 5   0  0.1815663E-04  0.1708098E+04  0.7818609E-02  0.8756759E-01
        1   -1    0    0  501    0  0.00000000000E+00  0.00000000000E+00  0.89448659192E+03  0.89448659194E+03  0.50400001928E-02 0. -1.
       -1   -1    0    0    0  501  0.00000000000E+00  0.00000000000E+00 -0.81543904843E+03  0.81543904844E+03  0.50400001928E-02 0.  1.
    10030    2    1    2    0    0  0.00000000000E+00  0.00000000000E+00  0.79047543496E+02  0.17099256404E+04  0.17080975328E+04 0.  0.
        5    1    3    3  502    0 -0.20224171994E+03  0.82792939177E+03 -0.15383944864E+02  0.85242451091E+03  0.46999998093E+01 0. -1.
       -5    1    3    3    0  502  0.20224171994E+03 -0.82792939177E+03  0.94431488360E+02  0.85750112947E+03  0.46999998093E+01 0.  1.
</event>
<event>
 5   0  0.1824538E-04  0.1678585E+04  0.7818609E-02  0.8773673E-01
        1   -1    0    0  501    0  0.00000000000E+00  0.00000000000E+00  0.20139207435E+04  0.20139207435E+04  0.50400001928E-02 0. -1.
       -1   -1    0    0    0  501  0.00000000000E+00  0.00000000000E+00 -0.34977144847E+03  0.34977144850E+03  0.50400001928E-02 0.  1.
    10030    2    1    2    0    0  0.00000000000E+00  0.00000000000E+00  0.16641492950E+04  0.23636921920E+04  0.16785850894E+04 0.  0.
        3    1    3    3  502    0 -0.41880083185E+03 -0.72732998953E+03  0.83627907760E+03  0.11848062104E+04  0.10100000352E+00 0. -1.
       -3    1    3    3    0  502  0.41880083185E+03  0.72732998953E+03  0.82787021739E+03  0.11788859815E+04  0.10100000352E+00 0.  1.
</event>
<event>
 5   0  0.3574092E-04  0.1708411E+04  0.7818609E-02  0.8756582E-01
       -2   -1    0    0    0  501  0.00000000000E+00  0.00000000000E+00  0.13877844309E+04  0.13877844309E+04  0.25500000920E-02 0. -1.
        2   -1    0    0  501    0  0.00000000000E+00  0.00000000000E+00 -0.52577847674E+03  0.52577847675E+03  0.25500000920E-02 0.  1.
    10030    2    1    2    0    0  0.00000000000E+00  0.00000000000E+00  0.86200595420E+03  0.19135629077E+04  0.17084111732E+04 0.  0.
        3    1    3    3  502    0  0.64259142153E+03  0.42909190927E+03  0.83890954851E+03  0.11405318244E+04  0.10100000352E+00 0.  1.
       -3    1    3    3    0  502 -0.64259142153E+03 -0.42909190927E+03  0.23096405689E+02  0.77303108332E+03  0.10100000352E+00 0. -1.
</event>
<event>
 5   0  0.1930116E-04  0.1682344E+04  0.7818609E-02  0.8771499E-01
        1   -1    0    0  501    0  0.00000000000E+00  0.00000000000E+00  0.60380369423E+03  0.60380369425E+03  0.50400001928E-02 0.  1.
       -1   -1    0    0    0  501  0.00000000000E+00  0.00000000000E+00 -0.11718542488E+04  0.11718542489E+04  0.50400001928E-02 0. -1.
    10030    2    1    2    0    0  0.00000000000E+00  0.00000000000E+00 -0.56805055461E+03  0.17756579431E+04  0.16823435138E+04 0.  0.
        1    1    3    3  502    0 -0.38300522037E+03 -0.56425760433E+03 -0.80377204765E+03  0.10541011088E+04  0.50400001928E-02 0. -1.
       -1    1    3    3    0  502  0.38300522037E+03  0.56425760433E+03  0.23572149304E+03  0.72155683434E+03  0.50400001928E-02 0.  1.
</event>
<event>
 5   0  0.3678896E-04  0.1734229E+04  0.7818609E-02  0.8742080E-01
       -2   -1    0    0    0  501  0.00000000000E+00  0.00000000000E+00  0.64445663860E+03  0.64445663860E+03  0.25500000920E-02 0.  1.
        2   -1    0    0  501    0  0.00000000000E+00  0.00000000000E+00 -0.11666996864E+04  0.11666996864E+04  0.25500000920E-02 0. -1.
    10030    2    1    2    0    0  0.00000000000E+00  0.00000000000E+00 -0.52224304781E+03  0.18111563250E+04  0.17342287717E+04 0.  0.
        2    1    3    3  502    0  0.44923873021E+03 -0.65343603836E+03  0.10528795127E+03  0.79992477499E+03  0.25500000920E-02 0.  1.
       -2    1    3    3    0  502 -0.44923873021E+03  0.65343603836E+03 -0.62753099909E+03  0.10112315500E+04  0.25500000920E-02 0. -1.
</event>
<event>
 5   0  0.1920289E-04  0.1752755E+04  0.7818609E-02  0.8731835E-01
       -1   -1    0    0    0  501  0.00000000000E+00  0.00000000000E+00  0.50370322626E+03  0.50370322628E+03  0.50400001928E-02 0.  1.
        1   -1    0    0  501    0  0.00000000000E+00  0.00000000000E+00 -0.15247812565E+04  0.15247812565E+04  0.50400001928E-02 0. -1.
    10030    2    1    2    0    0  0.00000000000E+00  0.00000000000E+00 -0.10210780302E+04  0.20284844828E+04  0.17527546757E+04 0.  0.
        4    1    3    3  502    0 -0.33775031965E+03 -0.51770537091E+02 -0.14445123543E+04  0.14843763073E+04  0.12699999809E+01 0. -1.
       -4    1    3    3    0  502  0.33775031965E+03  0.51770537091E+02  0.42343432408E+03  0.54410817550E+03  0.12699999809E+01 0.  1.
</event>
<event>
 5   0  0.1930116E-04  0.1701577E+04  0.7818609E-02  0.8760465E-01
       -1   -1    0    0    0  501  0.00000000000E+00  0.00000000000E+00  0.15067535535E+04  0.15067535535E+04  0.50400001928E-02 0. -1.
        1   -1    0    0  501    0  0.00000000000E+00  0.00000000000E+00 -0.48039806178E+03  0.48039806181E+03  0.50400001928E-02 0.  1.
    10030    2    1    2    0    0  0.00000000000E+00  0.00000000000E+00  0.10263554918E+04  0.19871516154E+04  0.17015774878E+04 0.  0.
        1    1    3    3  502    0  0.30335230492E+01  0.56179660356E+03 -0.23296984695E+03  0.60819369912E+03  0.50400001928E-02 0.  1.
       -1    1    3    3    0  502 -0.30335230492E+01 -0.56179660356E+03  0.12593253387E+04  0.13789579162E+04  0.50400001928E-02 0. -1.
</event>
<event>
 5   0  0.1893284E-04  0.1657579E+04  0.7818609E-02  0.8785936E-01
       -1   -1    0    0    0  501  0.00000000000E+00  0.00000000000E+00  0.53406074968E+03  0.53406074970E+03  0.50400001928E-02 0. -1.
        1   -1    0    0  501    0  0.00000000000E+00  0.00000000000E+00 -0.12861678590E+04  0.12861678590E+04  0.50400001928E-02 0.  1.
    10030    2    1    2    0    0  0.00000000000E+00  0.00000000000E+00 -0.75210710935E+03  0.18202286087E+04  0.16575786811E+04 0.  0.
        2    1    3    3  502    0 -0.51115412212E+03  0.22563154531E+03 -0.10482492696E+04  0.11878613817E+04  0.25500000920E-02 0.  1.
       -2    1    3    3    0  502  0.51115412212E+03 -0.22563154531E+03  0.29614216025E+03  0.63236722708E+03  0.25500000920E-02 0. -1.
</event>
<event>
 5   0  0.1815663E-04  0.1718319E+04  0.7818609E-02  0.8750985E-01
        1   -1    0    0  501    0  0.00000000000E+00  0.00000000000E+00  0.14903688238E+04  0.14903688238E+04  0.50400001928E-02 0. -1.
       -1   -1    0    0    0  501  0.00000000000E+00  0.00000000000E+00 -0.49528340699E+03  0.49528340701E+03  0.50400001928E-02 0.  1.
    10030    2    1    2    0    0  0.00000000000E+00  0.00000000000E+00  0.99508541684E+03  0.19856522309E+04  0.17183188863E+04 0.  0.
        5    1    3    3  502    0  0.49322457236E+03 -0.58641261271E+03  0.48525573697E+02  0.76780665042E+03  0.46999998093E+01 0.  1.
       -5    1    3    3    0  502 -0.49322457236E+03  0.58641261271E+03  0.94655984315E+03  0.12178455804E+04  0.46999998093E+01 0. -1.
</event>
<event>
 5   0  0.3605571E-04  0.1677349E+04  0.7818609E-02  0.8774390E-01
       -2   -1    0    0    0  501  0.00000000000E+00  0.00000000000E+00  0.52214973862E+03  0.52214973863E+03  0.25500000920E-02 0.  1.
        2   -1    0    0  501    0  0.00000000000E+00  0.00000000000E+00 -0.13470745844E+04  0.13470745844E+04  0.25500000920E-02 0. -1.
    10030    2    1    2    0    0  0.00000000000E+00  0.00000000000E+00 -0.82492484579E+03  0.18692243230E+04  0.16773486724E+04 0.  0.
        4    1    3    3  502    0 -0.17858425648E+03 -0.79179731292E+03 -0.17728154596E+03  0.83082229198E+03  0.12699999809E+01 0. -1.
       -4    1    3    3    0  502  0.17858425648E+03  0.79179731292E+03 -0.64764329983E+03  0.10384020311E+04  0.12699999809E+01 0.  1.
</event>
<event>
 5   0  0.3605571E-04  0.1640547E+04  0.7818609E-02  0.8796019E-01
        2   -1    0    0  501    0  0.00000000000E+00  0.00000000000E+00  0.22229557429E+04  0.22229557429E+04  0.25500000920E-02 0.  1.
       -2   -1    0    0    0  501  0.00000000000E+00  0.00000000000E+00 -0.30268183722E+03  0.30268183723E+03  0.25500000920E-02 0. -1.
    10030    2    1    2    0    0  0.00000000000E+00  0.00000000000E+00  0.19202739057E+04  0.25256375801E+04  0.16405466508E+04 0.  0.
        4    1    3    3  502    0  0.59359931666E+03 -0.13337463453E+03  0.18071440703E+04  0.19068089169E+04  0.12699999809E+01 0.  1.
       -4    1    3    3    0  502 -0.59359931666E+03  0.13337463453E+03  0.11312983538E+03  0.61882866322E+03  0.12699999809E+01 0. -1.
</event>
<event>
 5   0  0.1893284E-04  0.1698648E+04  0.7818609E-02  0.8762136E-01
       -1   -1    0    0    0  501  0.00000000000E+00  0.00000000000E+00  0.41720268757E+03  0.41720268760E+03  0.50400001928E-02 0. -1.
        1   -1    0    0  501    0  0.00000000000E+00  0.00000000000E+00 -0.17290181629E+04  0.17290181629E+04  0.50400001928E-02 0.  1.
    10030    2    1    2    0    0  0.00000000000E+00  0.00000000000E+00 -0.13118154754E+04  0.21462208505E+04  0.16986477263E+04 0.  0.
        2    1    3    3  502    0 -0.46737694013E+03  0.33491870973E+03 -0.14457031788E+04  0.15558500658E+04  0.25500000920E-02 0.  1.
       -2    1    3    3    0  502  0.46737694013E+03 -0.33491870973E+03  0.13388770340E+03  0.59037078470E+03  0.25500000920E-02 0. -1.
</event>
<event>
 5   0  0.3605571E-04  0.1696271E+04  0.7818609E-02  0.8763494E-01
        2   -1    0    0  501    0  0.00000000000E+00  0.00000000000E+00  0.50487364276E+03  0.50487364276E+03  0.25500000920E-02 0. -1.
       -2   -1    0    0    0  501  0.00000000000E+00  0.00000000000E+00 -0.14247802193E+04  0.14247802193E+04  0.25500000920E-02 0.  1.
    10030    2    1    2    0    0  0.00000000000E+00  0.00000000000E+00 -0.91990657654E+03  0.19296538621E+04  0.16962711805E+04 0.  0.
        4    1    3    3  502    0 -0.54272217853E+03  0.63911681794E+03 -0.31465060673E+03  0.89555808704E+03  0.12699999809E+01 0. -1.
       -4    1    3    3    0  502  0.54272217853E+03 -0.63911681794E+03 -0.60525596981E+03  0.10340957750E+04  0.12699999809E+01 0.  1.
</event>
<event>
 5   0  0.3516723E-04  0.1708861E+04  0.7818609E-02  0.8756327E-01
        2   -1    0    0  501    0  0.00000000000E+00  0.00000000000E+00  0.10980880035E+04  0.10980880035E+04  0.25500000920E-02 0. -1.
       -2   -1    0    0    0  501  0.00000000000E+00  0.00000000000E+00 -0.66483887663E+03  0.66483887663E+03  0.25500000920E-02 0.  1.
    10030    2    1    2    0    0  0.00000000000E+00  0.00000000000E+00  0.43324912691E+03  0.17629268802E+04  0.17088611350E+04 0.  0.
        1    1    3    3  502    0  0.25839577818E+03 -0.81371314612E+03  0.18157720154E+03  0.87285035515E+03  0.50400001928E-02 0.  1.
       -1    1    3    3    0  502 -0.25839577818E+03  0.81371314612E+03  0.25167192537E+03  0.89007652502E+03  0.50400001928E-02 0. -1.
</event>
<event>
 5   0  0.3605571E-04  0.1708810E+04  0.7818609E-02  0.8756356E-01
        2   -1    0    0  501    0  0.00000000000E+00  0.00000000000E+00  0.21729433945E+04  0.21729433945E+04  0.25500000920E-02 0.  1.
       -2   -1    0    0    0  501  0.00000000000E+00  0.00000000000E+00 -0.33595353460E+03  0.33595353461E+03  0.25500000920E-02 0. -1.
    10030    2    1    2    0    0  0.00000000000E+00  0.00000000000E+00  0.18369898599E+04  0.25088969291E+04  0.17088101286E+04 0.  0.
        4    1    3    3  502    0  0.23611679754E+03 -0.82097963348E+03  0.89538746591E+03  0.12375294048E+04  0.12699999809E+01 0.  1.
       -4    1    3    3    0  502 -0.23611679754E+03  0.82097963348E+03  0.94160239400E+03  0.12713675243E+04  0.12699999809E+01 0. -1.
</event>
<event>
 5   0  0.1815663E-04  0.1712491E+04  0.7818609E-02  0.8754272E-01
       -1   -1    0    0    0  501  0.00000000000E+00  0.00000000000E+00  0.91710739960E+03  0.91710739962E+03  0.50400001928E-02 0.  1.
        1   -1    0    0  501    0  0.00000000000E+00  0.00000000000E+00 -0.79942274510E+03  0.79942274511E+03  0.50400001928E-02 0. -1.
    10030    2    1    2    0    0  0.00000000000E+00  0.00000000000E+00  0.11768465451E+03  0.17165301447E+04  0.17124911853E+04 0.  0.
        5    1    3    3  502    0 -0.49489408440E+03 -0.60239435560E+03  0.41370458442E+03  0.88259429388E+03  0.46999998093E+01 0.  1.
       -5    1    3    3    0  502  0.49489408440E+03  0.60239435560E+03 -0.29601992991E+03  0.83393585085E+03  0.46999998093E+01 0. -1.
</event>
<event>
 5   0  0.3573262E-04  0.1712549E+04  0.7818609E-02  0.8754239E-01
        2   -1    0    0  501    0  0.00000000000E+00  0.00000000000E+00  0.86301714128E+03  0.86301714128E+03  0.25500000920E-02 0. -1.
       -2   -1    0    0    0  501  0.00000000000E+00  0.00000000000E+00 -0.84958482611E+03  0.84958482611E+03  0.25500000920E-02 0.  1.
    10030    2    1    2    0    0  0.00000000000E+00  0.00000000000E+00  0.13432315171E+02  0.17126019674E+04  0.17125492903E+04 0.  0.
        5    1    3    3  502    0  0.84971366413E+02 -0.22401769161E+03 -0.81536759275E+03  0.84985319942E+03  0.46999998093E+01 0.  1.
       -5    1    3    3    0  502 -0.84971366413E+02  0.22401769161E+03  0.82879990792E+03  0.86274876797E+03  0.46999998093E+01 0. -1.
</event>
<event>
 5   0  0.1815663E-04  0.1700951E+04  0.7818609E-02  0.8760822E-01
       -1   -1    0    0    0  501  0.00000000000E+00  0.00000000000E+00  0.56777504650E+03  0.56777504652E+03  0.50400001928E-02 0. -1.
        1   -1    0    0  501    0  0.00000000000E+00  0.00000000000E+00 -0.12739344426E+04  0.12739344426E+04  0.50400001928E-02 0.  1.
    10030    2    1    2    0    0  0.00000000000E+00  0.00000000000E+00 -0.70615939612E+03  0.18417094892E+04  0.17009505430E+04 0.  0.
        5    1    3    3  502    0  0.71579952018E+03  0.45920239026E+03 -0.34539984699E+03  0.91791008961E+03  0.46999998093E+01 0. -1.
       -5    1    3    3    0  502 -0.71579952018E+03 -0.45920239026E+03 -0.36075954913E+03  0.92379939954E+03  0.46999998093E+01 0.  1.
</event>
<event>
 5   0  0.1824538E-04  0.1693370E+04  0.7818609E-02  0.8765155E-01
       -1   -1    0    0    0  501  0.00000000000E+00  0.00000000000E+00  0.81177522525E+03  0.81177522527E+03  0.50400001928E-02 0.  1.
        1   -1    0    0  501    0  0.00000000000E+00  0.00000000000E+00 -0.88309556512E+03  0.88309556513E+03  0.50400001928E-02 0. -1.
    10030    2    1    2    0    0  0.00000000000E+00  0.00000000000E+00 -0.71320339869E+02  0.16948707904E+04  0.16933695419E+04 0.  0.
        3    1    3    3  502    0  0.36948420781E+03  0.56139832660E+03  0.47976086345E+03  0.82574642429E+03  0.10100000352E+00 0.  1.
       -3    1    3    3    0  502 -0.36948420781E+03 -0.56139832660E+03 -0.55108120332E+03  0.86912436612E+03  0.10100000352E+00 0. -1.
</event>
<event>
 5   0  0.3574092E-04  0.1692902E+04  0.7818609E-02  0.8765423E-01
        2   -1    0    0  501    0  0.00000000000E+00  0.00000000000E+00  0.72969840539E+03  0.72969840539E+03  0.25500000920E-02 0.  1.
       -2   -1    0    0    0  501  0.00000000000E+00  0.00000000000E+00 -0.98188459102E+03  0.98188459102E+03  0.25500000920E-02 0. -1.
    10030    2    1    2    0    0  0.00000000000E+00  0.00000000000E+00 -0.25218618563E+03  0.17115829964E+04  0.16929023839E+04 0.  0.
        3    1    3    3  502    0 -0.84373371040E+03  0.64122877015E+02 -0.14827356034E+03  0.85905958834E+03  0.10100000352E+00 0. -1.
       -3    1    3    3    0  502  0.84373371040E+03 -0.64122877015E+02 -0.10391262529E+03  0.85252340807E+03  0.10100000352E+00 0.  1.
</event>
<event>
 5   0  0.1930116E-04  0.1554611E+04  0.7818609E-02  0.8848928E-01
       -1   -1    0    0    0  501  0.00000000000E+00  0.00000000000E+00  0.98074516762E+03  0.98074516763E+03  0.50400001928E-02 0.  1.
        1   -1    0    0  501    0  0.00000000000E+00  0.00000000000E+00 -0.61606602865E+03  0.61606602867E+03  0.50400001928E-02 0. -1.
    10030    2    1    2    0    0  0.00000000000E+00  0.00000000000E+00  0.36467913897E+03  0.15968111963E+04  0.15546109231E+04 0.  0.
        1    1    3    3  502    0  0.20152230298E+03  0.51412720906E+03  0.74424129505E+03  0.92673250239E+03  0.50400001928E-02 0.  1.
       -1    1    3    3    0  502 -0.20152230298E+03 -0.51412720906E+03 -0.37956215608E+03  0.67007869392E+03  0.50400001928E-02 0. -1.
</event>
<event>
 5   0  0.1920289E-04  0.1707128E+04  0.7818609E-02  0.8757309E-01
        1   -1    0    0  501    0  0.00000000000E+00  0.00000000000E+00  0.10104585716E+04  0.10104585716E+04  0.50400001928E-02 0.  1.
       -1   -1    0    0    0  501  0.00000000000E+00  0.00000000000E+00 -0.72103043670E+03  0.72103043672E+03  0.50400001928E-02 0. -1.
    10030    2    1    2    0    0  0.00000000000E+00  0.00000000000E+00  0.28942813490E+03  0.17314890083E+04  0.17071278630E+04 0.  0.
        4    1    3    3  502    0 -0.36691931946E+03  0.40286709590E+03 -0.52165306559E+03  0.75435748667E+03  0.12699999809E+01 0. -1.
       -4    1    3    3    0  502  0.36691931946E+03 -0.40286709590E+03  0.81108120049E+03  0.97713152167E+03  0.12699999809E+01 0.  1.
</event>
<event>
 5   0  0.1815663E-04  0.1717233E+04  0.7818609E-02  0.8751596E-01
        1   -1    0    0  501    0  0.00000000000E+00  0.00000000000E+00  0.98787761116E+03  0.98787761117E+03  0.50400001928E-02 0.  1.
       -1   -1    0    0    0  501  0.00000000000E+00  0.00000000000E+00 -0.74626880503E+03  0.74626880504E+03  0.50400001928E-02 0. -1.
    10030    2    1    2    0    0  0.00000000000E+00  0.00000000000E+00  0.24160880613E+03  0.17341464162E+04  0.17172329422E+04 0.  0.
        5    1    3    3  502    0 -0.24680106765E+03 -0.22521621281E+03  0.91952242280E+03  0.97835406962E+03  0.46999998093E+01 0.  1.
       -5    1    3    3    0  502  0.24680106765E+03  0.22521621281E+03 -0.67791361667E+03  0.75579234660E+03  0.46999998093E+01 0. -1.
</event>
<event>
 5   0  0.1930116E-04  0.1426429E+04  0.7818609E-02  0.8934907E-01
       -1   -1    0    0    0  501  0.00000000000E+00  0.00000000000E+00  0.62302872847E+03  0.62302872849E+03  0.50400001928E-02 0.  1.
        1   -1    0    0  501    0  0.00000000000E+00  0.00000000000E+00 -0.81645449294E+03  0.81645449296E+03  0.50400001928E-02 0. -1.
    10030    2    1    2    0    0  0.00000000000E+00  0.00000000000E+00 -0.19342576447E+03  0.14394832215E+04  0.14264285536E+04 0.  0.
        1    1    3    3  502    0  0.66614768322E+02  0.25143944189E+03 -0.76688044576E+03  0.80979314545E+03  0.50400001928E-02 0. -1.
       -1    1    3    3    0  502 -0.66614768322E+02 -0.25143944189E+03  0.57345468129E+03  0.62969007600E+03  0.50400001928E-02 0.  1.
</event>
<event>
 5   0  0.1930116E-04  0.1714796E+04  0.7818609E-02  0.8752970E-01
       -1   -1    0    0    0  501  0.00000000000E+00  0.00000000000E+00  0.13548667187E+04  0.13548667187E+04  0.50400001928E-02 0.  1.
        1   -1    0    0  501    0  0.00000000000E+00  0.00000000000E+00 -0.54258560130E+03  0.54258560132E+03  0.50400001928E-02 0. -1.
    10030    2    1    2    0    0  0.00000000000E+00  0.00000000000E+00  0.81228111743E+03  0.18974523201E+04  0.17147958168E+04 0.  0.
        1    1    3    3  502    0  0.16416881214E+03  0.16825898275E+02 -0.52484595302E+03  0.55017977440E+03  0.50400001928E-02 0. -1.
       -1    1    3    3    0  502 -0.16416881214E+03 -0.16825898275E+02  0.13371270704E+04  0.13472725457E+04  0.50400001928E-02 0.  1.
</event>
<event>
 5   0  0.3605571E-04  0.1700942E+04  0.7818609E-02  0.8760827E-01
        2   -1    0    0  501    0  0.00000000000E+00  0.00000000000E+00  0.18375623058E+04  0.18375623058E+04  0.25500000920E-02 0. -1.
       -2   -1    0    0    0  501  0.00000000000E+00  0.00000000000E+00 -0.39361984038E+03  0.39361984039E+03  0.25500000920E-02 0.  1.
    10030    2    1    2    0    0  0.00000000000E+00  0.00000000000E+00  0.14439424654E+04  0.22311821462E+04  0.17009420702E+04 0.  0.
        4    1    3    3  502    0  0.15137860920E+03  0.47808260539E+03 -0.17904806798E+03  0.53248313067E+03  0.12699999809E+01 0.  1.
       -4    1    3    3    0  502 -0.15137860920E+03 -0.47808260539E+03  0.16229905334E+04  0.16986990155E+04  0.12699999809E+01 0. -1.
</event>
<event>
 5   0  0.1920289E-04  0.1695348E+04  0.7818609E-02  0.8764022E-01
       -1   -1    0    0    0  501  0.00000000000E+00  0.00000000000E+00  0.96756474445E+03  0.96756474447E+03  0.50400001928E-02 0. -1.
        1   -1    0    0  501    0  0.00000000000E+00  0.00000000000E+00 -0.74263909341E+03  0.74263909343E+03  0.50400001928E-02 0.  1.
    10030    2    1    2    0    0  0.00000000000E+00  0.00000000000E+00  0.22492565104E+03  0.17102038379E+04  0.16953482293E+04 0.  0.
        4    1    3    3  502    0 -0.47478944229E+03 -0.67078588206E+03  0.32205999084E+03  0.88266809429E+03  0.12699999809E+01 0.  1.
       -4    1    3    3    0  502  0.47478944229E+03  0.67078588206E+03 -0.97134339801E+02  0.82753574361E+03  0.12699999809E+01 0. -1.
</event>
<event>
 5   0  0.1930116E-04  0.1695125E+04  0.7818609E-02  0.8764150E-01
        1   -1    0    0  501    0  0.00000000000E+00  0.00000000000E+00  0.15325077938E+04  0.15325077938E+04  0.50400001928E-02 0.  1.
       -1   -1    0    0    0  501  0.00000000000E+00  0.00000000000E+00 -0.46874933502E+03  0.46874933505E+03  0.50400001928E-02 0. -1.
    10030    2    1    2    0    0  0.00000000000E+00  0.00000000000E+00  0.10637584587E+04  0.20012571288E+04  0.16951247851E+04 0.  0.
        1    1    3    3  502    0 -0.40669498354E+03 -0.46489664071E+02 -0.34431048092E+03  0.53489420057E+03  0.50400001928E-02 0. -1.
       -1    1    3    3    0  502  0.40669498354E+03  0.46489664071E+02  0.14080689396E+04  0.14663629282E+04  0.50400001928E-02 0.  1.
</event>
<event>
 5   0  0.1824538E-04  0.1698995E+04  0.7818609E-02  0.8761938E-01
        1   -1    0    0  501    0  0.00000000000E+00  0.00000000000E+00  0.53239978635E+03  0.53239978638E+03  0.50400001928E-02 0.  1.
       -1   -1    0    0    0  501  0.00000000000E+00  0.00000000000E+00 -0.13554592729E+04  0.13554592729E+04  0.50400001928E-02 0. -1.
    10030    2    1    2    0    0  0.00000000000E+00  0.00000000000E+00 -0.82305948654E+03  0.18878590593E+04  0.16989952647E+04 0.  0.
        3    1    3    3  502    0 -0.23292209332E+03 -0.16190511208E+03 -0.13012786606E+04  0.13318378766E+04  0.10100000352E+00 0. -1.
       -3    1    3    3    0  502  0.23292209332E+03  0.16190511208E+03  0.47821917408E+03  0.55602118263E+03  0.10100000352E+00 0.  1.
</event>
<event>
 5   0  0.1824538E-04  0.1672712E+04  0.7818609E-02  0.8777083E-01
       -1   -1    0    0    0  501  0.00000000000E+00  0.00000000000E+00  0.49394601663E+03  0.49394601666E+03  0.50400001928E-02 0.  1.
        1   -1    0    0  501    0  0.00000000000E+00  0.00000000000E+00 -0.14161292239E+04  0.14161292239E+04  0.50400001928E-02 0. -1.
    10030    2    1    2    0    0  0.00000000000E+00  0.00000000000E+00 -0.92218320729E+03  0.19100752406E+04  0.16727120365E+04 0.  0.
        3    1    3    3  502    0 -0.67227254466E+03  0.40395616045E+03 -0.12942734494E+03  0.79491031047E+03  0.10100000352E+00 0.  1.
       -3    1    3    3    0  502  0.67227254466E+03 -0.40395616045E+03 -0.79275586235E+03  0.11151649301E+04  0.10100000352E+00 0. -1.
</event>
<event>
 5   0  0.3605571E-04  0.1692605E+04  0.7818609E-02  0.8765593E-01
        2   -1    0    0  501    0  0.00000000000E+00  0.00000000000E+00  0.20287330714E+04  0.20287330714E+04  0.25500000920E-02 0. -1.
       -2   -1    0    0    0  501  0.00000000000E+00  0.00000000000E+00 -0.35304197724E+03  0.35304197725E+03  0.25500000920E-02 0.  1.
    10030    2    1    2    0    0  0.00000000000E+00  0.00000000000E+00  0.16756910941E+04  0.23817750486E+04  0.16926050157E+04 0.  0.
        4    1    3    3  502    0 -0.62729097753E+02  0.84208516560E+03  0.91724703705E+03  0.12467502178E+04  0.12699999809E+01 0. -1.
       -4    1    3    3    0  502  0.62729097753E+02 -0.84208516560E+03  0.75844405707E+03  0.11350248308E+04  0.12699999809E+01 0.  1.
</event>
<event>
 5   0  0.1893284E-04  0.1737669E+04  0.7818609E-02  0.8740167E-01
       -1   -1    0    0    0  501  0.00000000000E+00  0.00000000000E+00  0.49345390561E+03  0.49345390563E+03  0.50400001928E-02 0. -1.
        1   -1    0    0  501    0  0.00000000000E+00  0.00000000000E+00 -0.15297750749E+04  0.15297750749E+04  0.50400001928E-02 0.  1.
    10030    2    1    2    0    0  0.00000000000E+00  0.00000000000E+00 -0.10363211693E+04  0.20232289805E+04  0.17376691117E+04 0.  0.
        2    1    3    3  502    0  0.74758434814E+03 -0.50596444750E+02 -0.10302445034E+04  0.12739097670E+04  0.25500000920E-02 0.  1.
       -2    1    3    3    0  502 -0.74758434814E+03  0.50596444750E+02 -0.60766658921E+01  0.74931921348E+03  0.25500000920E-02 0. -1.
</event>
<event>
 5   0  0.1920289E-04  0.1731255E+04  0.7818609E-02  0.8743736E-01
        1   -1    0    0  501    0  0.00000000000E+00  0.00000000000E+00  0.18042569654E+04  0.18042569654E+04  0.50400001928E-02 0.  1.
       -1   -1    0    0    0  501  0.00000000000E+00  0.00000000000E+00 -0.41530192916E+03  0.41530192919E+03  0.50400001928E-02 0. -1.
    10030    2    1    2    0    0  0.00000000000E+00  0.00000000000E+00  0.13889550362E+04  0.22195588946E+04  0.17312554964E+04 0.  0.
        4    1    3    3  502    0  0.18796272037E+03 -0.83952445835E+03  0.81730371726E+03  0.11866415969E+04  0.12699999809E+01 0. -1.
       -4    1    3    3    0  502 -0.18796272037E+03  0.83952445835E+03  0.57165131896E+03  0.10329172976E+04  0.12699999809E+01 0.  1.
</event>
<event>
 5   0  0.3605571E-04  0.1696637E+04  0.7818609E-02  0.8763285E-01
       -2   -1    0    0    0  501  0.00000000000E+00  0.00000000000E+00  0.57573988198E+03  0.57573988199E+03  0.25500000920E-02 0. -1.
        2   -1    0    0  501    0  0.00000000000E+00  0.00000000000E+00 -0.12499470764E+04  0.12499470764E+04  0.25500000920E-02 0.  1.
    10030    2    1    2    0    0  0.00000000000E+00  0.00000000000E+00 -0.67420719440E+03  0.18256869584E+04  0.16966371235E+04 0.  0.
        4    1    3    3  502    0 -0.69278672821E+03 -0.25757746643E+03 -0.78511669581E+03  0.10782900542E+04  0.12699999809E+01 0.  1.
       -4    1    3    3    0  502  0.69278672821E+03  0.25757746643E+03  0.11090950141E+03  0.74739690420E+03  0.12699999809E+01 0. -1.
</event>
<event>
 5   0  0.3573262E-04  0.1687950E+04  0.7818609E-02  0.8768267E-01
       -2   -1    0    0    0  501  0.00000000000E+00  0.00000000000E+00  0.76604790624E+03  0.76604790624E+03  0.25500000920E-02 0. -1.
        2   -1    0    0  501    0  0.00000000000E+00  0.00000000000E+00 -0.92982963142E+03  0.92982963142E+03  0.25500000920E-02 0.  1.
    10030    2    1    2    0    0  0.00000000000E+00  0.00000000000E+00 -0.16378172518E+03  0.16958775377E+04  0.16879502864E+04 0.  0.
        5    1    3    3  502    0  0.64462339521E+03 -0.39834386603E+03 -0.45519309241E+03  0.88399094940E+03  0.46999998093E+01 0.  1.
       -5    1    3    3    0  502 -0.64462339521E+03  0.39834386603E+03  0.29141136723E+03  0.81188658826E+03  0.46999998093E+01 0. -1.
</event>
<event>
 5   0  0.1920289E-04  0.1701194E+04  0.7818609E-02  0.8760684E-01
       -1   -1    0    0    0  501  0.00000000000E+00  0.00000000000E+00  0.94066351204E+03  0.94066351205E+03  0.50400001928E-02 0. -1.
        1   -1    0    0  501    0  0.00000000000E+00  0.00000000000E+00 -0.76915440808E+03  0.76915440810E+03  0.50400001928E-02 0.  1.
    10030    2    1    2    0    0  0.00000000000E+00  0.00000000000E+00  0.17150910395E+03  0.17098179201E+04  0.17011942709E+04 0.  0.
        4    1    3    3  502    0 -0.29883322024E+03  0.63668458398E+03  0.56655733361E+03  0.90313751897E+03  0.12699999809E+01 0. -1.
       -4    1    3    3    0  502  0.29883322024E+03 -0.63668458398E+03 -0.39504822966E+03  0.80668040118E+03  0.12699999809E+01 0.  1.
</event>
<event>
 5   0  0.3605571E-04  0.1701728E+04  0.7818609E-02  0.8760379E-01
       -2   -1    0    0    0  501  0.00000000000E+00  0.00000000000E+00  0.95341325885E+03  0.95341325886E+03  0.25500000920E-02 0.  1.
        2   -1    0    0  501    0  0.00000000000E+00  0.00000000000E+00 -0.75934490144E+03  0.75934490145E+03  0.25500000920E-02 0. -1.
    10030    2    1    2    0    0  0.00000000000E+00  0.00000000000E+00  0.19406835741E+03  0.17127581603E+04  0.17017279419E+04 0.  0.
        4    1    3    3  502    0  0.65677195113E+03 -0.50357607177E+03 -0.10180553229E+03  0.83384904818E+03  0.12699999809E+01 0. -1.
       -4    1    3    3    0  502 -0.65677195113E+03  0.50357607177E+03  0.29587388971E+03  0.87890911212E+03  0.12699999809E+01 0.  1.
</event>
<event>
 5   0  0.3574092E-04  0.1726982E+04  0.7818609E-02  0.8746123E-01
        2   -1    0    0  501    0  0.00000000000E+00  0.00000000000E+00  0.18744690041E+04  0.18744690041E+04  0.25500000920E-02 0. -1.
       -2   -1    0    0    0  501  0.00000000000E+00  0.00000000000E+00 -0.39777503051E+03  0.39777503052E+03  0.25500000920E-02 0.  1.
    10030    2    1    2    0    0  0.00000000000E+00  0.00000000000E+00  0.14766939736E+04  0.22722440346E+04  0.17269822991E+04 0.  0.
        3    1    3    3  502    0 -0.51719307376E+03 -0.15485655054E+03 -0.14833045334E+03  0.55988495281E+03  0.10100000352E+00 0.  1.
       -3    1    3    3    0  502  0.51719307376E+03  0.15485655054E+03  0.16250244269E+04  0.17123590818E+04  0.10100000352E+00 0. -1.
</event>
<event>
 5   0  0.1815663E-04  0.1694833E+04  0.7818609E-02  0.8764317E-01
        1   -1    0    0  501    0  0.00000000000E+00  0.00000000000E+00  0.12044195526E+04  0.12044195526E+04  0.50400001928E-02 0. -1.
       -1   -1    0    0    0  501  0.00000000000E+00  0.00000000000E+00 -0.59623331552E+03  0.59623331554E+03  0.50400001928E-02 0.  1.
    10030    2    1    2    0    0  0.00000000000E+00  0.00000000000E+00  0.60818623705E+03  0.18006528681E+04  0.16948333996E+04 0.  0.
        5    1    3    3  502    0 -0.46135804405E+03  0.56732496694E+03  0.75906424308E+03  0.10539969061E+04  0.46999998093E+01 0. -1.
       -5    1    3    3    0  502  0.46135804405E+03 -0.56732496694E+03 -0.15087800603E+03  0.74665596203E+03  0.46999998093E+01 0.  1.
</event>
<event>
 5   0  0.3678896E-04  0.1719073E+04  0.7818609E-02  0.8750561E-01
        2   -1    0    0  501    0  0.00000000000E+00  0.00000000000E+00  0.22611209017E+04  0.22611209017E+04  0.25500000920E-02 0.  1.
       -2   -1    0    0    0  501  0.00000000000E+00  0.00000000000E+00 -0.32674185791E+03  0.32674185792E+03  0.25500000920E-02 0. -1.
    10030    2    1    2    0    0  0.00000000000E+00  0.00000000000E+00  0.19343790438E+04  0.25878627597E+04  0.17190728250E+04 0.  0.
        2    1    3    3  502    0  0.21129545643E+02  0.82792128166E+03  0.13134365393E+04  0.15527445537E+04  0.25500000920E-02 0. -1.
       -2    1    3    3    0  502 -0.21129545643E+02 -0.82792128166E+03  0.62094250452E+03  0.10351182059E+04  0.25500000920E-02 0.  1.
</event>
<event>
 5   0  0.1317625E-04  0.1675589E+04  0.7818609E-02  0.8775410E-01
       -3   -1    0    0    0  501  0.00000000000E+00  0.00000000000E+00  0.15570060169E+04  0.15570060202E+04  0.10100000352E+00 0. -1.
        3   -1    0    0  501    0  0.00000000000E+00  0.00000000000E+00 -0.45080108673E+03  0.45080109804E+03  0.10100000352E+00 0.  1.
    10030    2    1    2    0    0  0.00000000000E+00  0.00000000000E+00  0.11062049302E+04  0.20078071182E+04  0.16755894713E+04 0.  0.
        2    1    3    3  502    0 -0.27992838425E+03 -0.73251988658E+03  0.19975581068E+03  0.80922658660E+03  0.25500000920E-02 0.  1.
       -2    1    3    3    0  502  0.27992838425E+03  0.73251988658E+03  0.90644911949E+03  0.11985805316E+04  0.25500000920E-02 0. -1.
</event>
<event>
 5   0  0.3678896E-04  0.1717398E+04  0.7818609E-02  0.8751504E-01
        2   -1    0    0  501    0  0.00000000000E+00  0.00000000000E+00  0.10274640686E+04  0.10274640686E+04  0.25500000920E-02 0.  1.
       -2   -1    0    0    0  501  0.00000000000E+00  0.00000000000E+00 -0.71765400345E+03  0.71765400346E+03  0.25500000920E-02 0. -1.
    10030    2    1    2    0    0  0.00000000000E+00  0.00000000000E+00  0.30981006511E+03  0.17451180720E+04  0.17173976851E+04 0.  0.
        2    1    3    3  502    0  0.36817762439E+03  0.62371548560E+03  0.62364009384E+03  0.95577337101E+03  0.25500000920E-02 0. -1.
       -2    1    3    3    0  502 -0.36817762439E+03 -0.62371548560E+03 -0.31383002874E+03  0.78934470101E+03  0.25500000920E-02 0.  1.
</event>
<event>
 5   0  0.1824538E-04  0.1707168E+04  0.7818609E-02  0.8757286E-01
        1   -1    0    0  501    0  0.00000000000E+00  0.00000000000E+00  0.98274766806E+03  0.98274766808E+03  0.50400001928E-02 0. -1.
       -1   -1    0    0    0  501  0.00000000000E+00  0.00000000000E+00 -0.74139682825E+03  0.74139682827E+03  0.50400001928E-02 0.  1.
    10030    2    1    2    0    0  0.00000000000E+00  0.00000000000E+00  0.24135083981E+03  0.17241444963E+04  0.17071684206E+04 0.  0.
        3    1    3    3  502    0 -0.32711988483E+03  0.51640368518E+03  0.72235612135E+03  0.94629729016E+03  0.10100000352E+00 0. -1.
       -3    1    3    3    0  502  0.32711988483E+03 -0.51640368518E+03 -0.48100528153E+03  0.77784720619E+03  0.10100000352E+00 0.  1.
</event>
<event>
 5   0  0.3574092E-04  0.1867287E+04  0.7818609E-02  0.8671313E-01
       -2   -1    0    0    0  501  0.00000000000E+00  0.00000000000E+00  0.14207341017E+04  0.14207341017E+04  0.25500000920E-02 0.  1.
        2   -1    0    0  501    0  0.00000000000E+00  0.00000000000E+00 -0.61354887030E+03  0.61354887031E+03  0.25500000920E-02 0. -1.
    10030    2    1    2    0    0  0.00000000000E+00  0.00000000000E+00  0.80718523140E+03  0.20342829720E+04  0.18672865909E+04 0.  0.
        3    1    3    3  502    0 -0.68750548309E+03  0.57321281462E+03  0.69276069813E+03  0.11318807867E+04  0.10100000352E+00 0. -1.
       -3    1    3    3    0  502  0.68750548309E+03 -0.57321281462E+03  0.11442453328E+03  0.90240218536E+03  0.10100000352E+00 0.  1.
</event>
<event>
 5   0  0.1920289E-04  0.1690226E+04  0.7818609E-02  0.8766958E-01
        1   -1    0    0  501    0  0.00000000000E+00  0.00000000000E+00  0.52839088104E+03  0.52839088107E+03  0.50400001928E-02 0.  1.
       -1   -1    0    0    0  501  0.00000000000E+00  0.00000000000E+00 -0.13516815757E+04  0.13516815757E+04  0.50400001928E-02 0. -1.
    10030    2    1    2    0    0  0.00000000000E+00  0.00000000000E+00 -0.82329069467E+03  0.18800724568E+04  0.16902262792E+04 0.  0.
        4    1    3    3  502    0  0.15292421878E+03  0.56207991662E+03  0.26941333874E+03  0.64179810638E+03  0.12699999809E+01 0.  1.
       -4    1    3    3    0  502 -0.15292421878E+03 -0.56207991662E+03 -0.10927040334E+04  0.12382743504E+04  0.12699999809E+01 0. -1.
</event>
<event>
 5   0  0.1930116E-04  0.1698871E+04  0.7818609E-02  0.8762009E-01
        1   -1    0    0  501    0  0.00000000000E+00  0.00000000000E+00  0.10881727013E+04  0.10881727013E+04  0.50400001928E-02 0. -1.
       -1   -1    0    0    0  501  0.00000000000E+00  0.00000000000E+00 -0.66307532804E+03  0.66307532806E+03  0.50400001928E-02 0.  1.
    10030    2    1    2    0    0  0.00000000000E+00  0.00000000000E+00  0.42509737321E+03  0.17512480293E+04  0.16988707672E+04 0.  0.
        1    1    3    3  502    0 -0.36906649610E+03 -0.21043089810E+03  0.97078696905E+03  0.10596785271E+04  0.50400001928E-02 0. -1.
       -1    1    3    3    0  502  0.36906649610E+03  0.21043089810E+03 -0.54568959584E+03  0.69156950226E+03  0.50400001928E-02 0.  1.
</event>
<event>
 5   0  0.3678896E-04  0.1699630E+04  0.7818609E-02  0.8761576E-01
        2   -1    0    0  501    0  0.00000000000E+00  0.00000000000E+00  0.90352392546E+03  0.90352392546E+03  0.25500000920E-02 0. -1.
       -2   -1    0    0    0  501  0.00000000000E+00  0.00000000000E+00 -0.79929832853E+03  0.79929832854E+03  0.25500000920E-02 0.  1.
    10030    2    1    2    0    0  0.00000000000E+00  0.00000000000E+00  0.10422559692E+03  0.17028222540E+04  0.16996295637E+04 0.  0.
        2    1    3    3  502    0  0.66382808823E+03  0.43218132635E+03 -0.25625870951E+03  0.83253645913E+03  0.25500000920E-02 0.  1.
       -2    1    3    3    0  502 -0.66382808823E+03 -0.43218132635E+03  0.36048430643E+03  0.87028579487E+03  0.25500000920E-02 0. -1.
</event>
<event>
 5   0  0.1824538E-04  0.1701293E+04  0.7818609E-02  0.8760627E-01
        1   -1    0    0  501    0  0.00000000000E+00  0.00000000000E+00  0.26716436591E+04  0.26716436591E+04  0.50400001928E-02 0.  1.
       -1   -1    0    0    0  501  0.00000000000E+00  0.00000000000E+00 -0.27084439881E+03  0.27084439886E+03  0.50400001928E-02 0. -1.
    10030    2    1    2    0    0  0.00000000000E+00  0.00000000000E+00  0.24007992603E+04  0.29424880579E+04  0.17012932972E+04 0.  0.
        3    1    3    3  502    0  0.70998648850E+03 -0.30755545470E+03  0.18117164546E+04  0.19700222572E+04  0.10100000352E+00 0. -1.
       -3    1    3    3    0  502 -0.70998648850E+03  0.30755545470E+03  0.58908280562E+03  0.97246580076E+03  0.10100000352E+00 0.  1.
</event>
<event>
 5   0  0.3605571E-04  0.1693730E+04  0.7818609E-02  0.8764948E-01
       -2   -1    0    0    0  501  0.00000000000E+00  0.00000000000E+00  0.10693199428E+04  0.10693199428E+04  0.25500000920E-02 0.  1.
        2   -1    0    0  501    0  0.00000000000E+00  0.00000000000E+00 -0.67068833262E+03  0.67068833263E+03  0.25500000920E-02 0. -1.
    10030    2    1    2    0    0  0.00000000000E+00  0.00000000000E+00  0.39863161019E+03  0.17400082754E+04  0.16937300960E+04 0.  0.
        4    1    3    3  502    0 -0.25697842121E+03  0.24280135856E+03  0.98987983936E+03  0.10511204108E+04  0.12699999809E+01 0.  1.
       -4    1    3    3    0  502  0.25697842121E+03 -0.24280135856E+03 -0.59124822917E+03  0.68888786467E+03  0.12699999809E+01 0. -1.
</event>
<event>
 5   0  0.3574092E-04  0.1691262E+04  0.7818609E-02  0.8766364E-01
       -2   -1    0    0    0  501  0.00000000000E+00  0.00000000000E+00  0.76708135220E+03  0.76708135220E+03  0.25500000920E-02 0. -1.
        2   -1    0    0  501    0  0.00000000000E+00  0.00000000000E+00 -0.93222452629E+03  0.93222452629E+03  0.25500000920E-02 0.  1.
    10030    2    1    2    0    0  0.00000000000E+00  0.00000000000E+00 -0.16514317409E+03  0.16993058785E+04  0.16912623099E+04 0.  0.
        3    1    3    3  502    0  0.57106098237E+03  0.59697238071E+03 -0.26399994195E+03  0.86728464098E+03  0.10100000352E+00 0. -1.
       -3    1    3    3    0  502 -0.57106098237E+03 -0.59697238071E+03  0.98856767862E+02  0.83202123752E+03  0.10100000352E+00 0.  1.
</event>
<event>
 5   0  0.3573262E-04  0.1657712E+04  0.7818609E-02  0.8785857E-01
        2   -1    0    0  501    0  0.00000000000E+00  0.00000000000E+00  0.96209651756E+03  0.96209651757E+03  0.25500000920E-02 0. -1.
       -2   -1    0    0    0  501  0.00000000000E+00  0.00000000000E+00 -0.71406770464E+03  0.71406770465E+03  0.25500000920E-02 0.  1.
    10030    2    1    2    0    0  0.00000000000E+00  0.00000000000E+00  0.24802881292E+03  0.16761642222E+04  0.16577117385E+04 0.  0.
        5    1    3    3  502    0 -0.25737222930E+03  0.40106508202E+03 -0.56168344476E+03  0.73661662115E+03  0.46999998093E+01 0.  1.
       -5    1    3    3    0  502  0.25737222930E+03 -0.40106508202E+03  0.80971225768E+03  0.93954760107E+03  0.46999998093E+01 0. -1.
</event>
<event>
 5   0  0.1920289E-04  0.1714440E+04  0.7818609E-02  0.8753171E-01
       -1   -1    0    0    0  501  0.00000000000E+00  0.00000000000E+00  0.78606235053E+03  0.78606235054E+03  0.50400001928E-02 0.  1.
        1   -1    0    0  501    0  0.00000000000E+00  0.00000000000E+00 -0.93481932427E+03  0.93481932429E+03  0.50400001928E-02 0. -1.
    10030    2    1    2    0    0  0.00000000000E+00  0.00000000000E+00 -0.14875697375E+03  0.17208816748E+04  0.17144401715E+04 0.  0.
        4    1    3    3  502    0  0.68634410434E+03  0.50254883302E+03  0.31854423064E+02  0.85125782011E+03  0.12699999809E+01 0.  1.
       -4    1    3    3    0  502 -0.68634410434E+03 -0.50254883302E+03 -0.18061139681E+03  0.86962385472E+03  0.12699999809E+01 0. -1.
</event>
<event>
 5   0  0.1824538E-04  0.1585332E+04  0.7818609E-02  0.8829610E-01
        1   -1    0    0  501    0  0.00000000000E+00  0.00000000000E+00  0.72904175384E+03  0.72904175386E+03  0.50400001928E-02 0.  1.
       -1   -1    0    0    0  501  0.00000000000E+00  0.00000000000E+00 -0.86184259189E+03  0.86184259190E+03  0.50400001928E-02 0. -1.
    10030    2    1    2    0    0  0.00000000000E+00  0.00000000000E+00 -0.13280083804E+03  0.15908843458E+04  0.15853318072E+04 0.  0.
        3    1    3    3  502    0 -0.71101346932E+03 -0.33544394274E+03 -0.16802917125E+03  0.80392574587E+03  0.10100000352E+00 0. -1.
       -3    1    3    3    0  502  0.71101346932E+03  0.33544394274E+03  0.35228333210E+02  0.78695859989E+03  0.10100000352E+00 0.  1.
</event>
<event>
 5   0  0.1815663E-04  0.1686128E+04  0.7818609E-02  0.8769316E-01
       -1   -1    0    0    0  501  0.00000000000E+00  0.00000000000E+00  0.34649803385E+03  0.34649803388E+03  0.50400001928E-02 0.  1.
        1   -1    0    0  501    0  0.00000000000E+00  0.00000000000E+00 -0.20512581460E+04  0.20512581460E+04  0.50400001928E-02 0. -1.
    10030    2    1    2    0    0  0.00000000000E+00  0.00000000000E+00 -0.17047601121E+04  0.23977561799E+04  0.16861280077E+04 0.  0.
        5    1    3    3  502    0 -0.26713585964E+02 -0.56846820333E+03 -0.17368727685E+04  0.18277359815E+04  0.46999998093E+01 0. -1.
       -5    1    3    3    0  502  0.26713585964E+02  0.56846820333E+03  0.32112656414E+02  0.57002019839E+03  0.46999998093E+01 0.  1.
</event>
<event>
 5   0  0.3605571E-04  0.1688099E+04  0.7818609E-02  0.8768181E-01
       -2   -1    0    0    0  501  0.00000000000E+00  0.00000000000E+00  0.33804421991E+03  0.33804421992E+03  0.25500000920E-02 0.  1.
        2   -1    0    0  501    0  0.00000000000E+00  0.00000000000E+00 -0.21074739597E+04  0.21074739597E+04  0.25500000920E-02 0. -1.
    10030    2    1    2    0    0  0.00000000000E+00  0.00000000000E+00 -0.17694297398E+04  0.24455181796E+04  0.16880988013E+04 0.  0.
        4    1    3    3  502    0 -0.24000606233E+03 -0.25435967761E+03  0.22814821705E+03  0.41755835208E+03  0.12699999809E+01 0.  1.
       -4    1    3    3    0  502  0.24000606233E+03  0.25435967761E+03 -0.19975779569E+04  0.20279598276E+04  0.12699999809E+01 0. -1.
</event>
<event>
 5   0  0.3516723E-04  0.1714186E+04  0.7818609E-02  0.8753314E-01
       -2   -1    0    0    0  501  0.00000000000E+00  0.00000000000E+00  0.92363702429E+03  0.92363702429E+03  0.25500000920E-02 0.  1.
        2   -1    0    0  501    0  0.00000000000E+00  0.00000000000E+00 -0.79534351821E+03  0.79534351822E+03  0.25500000920E-02 0. -1.
    10030    2    1    2    0    0  0.00000000000E+00  0.00000000000E+00  0.12829350608E+03  0.17189805425E+04  0.17141863615E+04 0.  0.
        1    1    3    3  502    0 -0.69836242053E+03 -0.48372153236E+03 -0.49802598023E+02  0.85098583424E+03  0.50400001928E-02 0.  1.
       -1    1    3    3    0  502  0.69836242053E+03  0.48372153236E+03  0.17809610410E+03  0.86799470828E+03  0.50400001928E-02 0. -1.
</event>
<event>
 5   0  0.3573262E-04  0.1687102E+04  0.7818609E-02  0.8768755E-01
        2   -1    0    0  501    0  0.00000000000E+00  0.00000000000E+00  0.21910873075E+04  0.21910873075E+04  0.25500000920E-02 0. -1.
       -2   -1    0    0    0  501  0.00000000000E+00  0.00000000000E+00 -0.32476054267E+03  0.32476054268E+03  0.25500000920E-02 0.  1.
    10030    2    1    2    0    0  0.00000000000E+00  0.00000000000E+00  0.18663267649E+04  0.25158478502E+04  0.16871024901E+04 0.  0.
        5    1    3    3  502    0  0.70013281829E+03 -0.38898940607E+03  0.53845946343E+03  0.96512144574E+03  0.46999998093E+01 0. -1.
       -5    1    3    3    0  502 -0.70013281829E+03  0.38898940607E+03  0.13278673015E+04  0.15507264045E+04  0.46999998093E+01 0.  1.
</event>
<event>
 5   0  0.3605571E-04  0.1704164E+04  0.7818609E-02  0.8758993E-01
        2   -1    0    0  501    0  0.00000000000E+00  0.00000000000E+00  0.13655537448E+04  0.13655537448E+04  0.25500000920E-02 0. -1.
       -2   -1    0    0    0  501  0.00000000000E+00  0.00000000000E+00 -0.53168421232E+03  0.53168421233E+03  0.25500000920E-02 0.  1.
    10030    2    1    2    0    0  0.00000000000E+00  0.00000000000E+00  0.83386953247E+03  0.18972379571E+04  0.17041635687E+04 0.  0.
        4    1    3    3  502    0  0.63359553836E+03 -0.50670535068E+03  0.12694712644E+03  0.82116429808E+03  0.12699999809E+01 0.  1.
       -4    1    3    3    0  502 -0.63359553836E+03  0.50670535068E+03  0.70692240603E+03  0.10760736590E+04  0.12699999809E+01 0. -1.
</event>
<event>
 5   0  0.3678896E-04  0.1697007E+04  0.7818609E-02  0.8763073E-01
       -2   -1    0    0    0  501  0.00000000000E+00  0.00000000000E+00  0.40638824763E+03  0.40638824764E+03  0.25500000920E-02 0. -1.
        2   -1    0    0  501    0  0.00000000000E+00  0.00000000000E+00 -0.17716014790E+04  0.17716014790E+04  0.25500000920E-02 0.  1.
    10030    2    1    2    0    0  0.00000000000E+00  0.00000000000E+00 -0.13652132314E+04  0.21779897267E+04  0.16970068009E+04 0.  0.
        2    1    3    3  502    0 -0.73306580317E+02  0.27572243152E+03 -0.17081960632E+04  0.17318575300E+04  0.25500000920E-02 0.  1.
       -2    1    3    3    0  502  0.73306580317E+02 -0.27572243152E+03  0.34298283180E+03  0.44613219664E+03  0.25500000920E-02 0. -1.
</event>
<event>
 5   0  0.3573262E-04  0.1694102E+04  0.7818609E-02  0.8764736E-01
       -2   -1    0    0    0  501  0.00000000000E+00  0.00000000000E+00  0.36420600662E+03  0.36420600663E+03  0.25500000920E-02 0. -1.
        2   -1    0    0  501    0  0.00000000000E+00  0.00000000000E+00 -0.19700256276E+04  0.19700256276E+04  0.25500000920E-02 0.  1.
    10030    2    1    2    0    0  0.00000000000E+00  0.00000000000E+00 -0.16058196210E+04  0.23342316343E+04  0.16941017287E+04 0.  0.
        5    1    3    3  502    0 -0.29879273818E+03 -0.39415613398E+03 -0.17503682181E+04  0.18189137273E+04  0.46999998093E+01 0.  1.
       -5    1    3    3    0  502  0.29879273818E+03  0.39415613398E+03  0.14454859708E+03  0.51531790699E+03  0.46999998093E+01 0. -1.
</event>
<event>
 5   0  0.3573262E-04  0.1691258E+04  0.7818609E-02  0.8766366E-01
       -2   -1    0    0    0  501  0.00000000000E+00  0.00000000000E+00  0.14060684949E+04  0.14060684949E+04  0.25500000920E-02 0. -1.
        2   -1    0    0  501    0  0.00000000000E+00  0.00000000000E+00 -0.50857304753E+03  0.50857304753E+03  0.25500000920E-02 0.  1.
    10030    2    1    2    0    0  0.00000000000E+00  0.00000000000E+00  0.89749544739E+03  0.19146415424E+04  0.16912581583E+04 0.  0.
        5    1    3    3  502    0  0.66759556888E+03  0.25423170351E+03 -0.63509752342E+02  0.71719814647E+03  0.46999998093E+01 0.  1.
       -5    1    3    3    0  502 -0.66759556888E+03 -0.25423170351E+03  0.96100519973E+03  0.11974433960E+04  0.46999998093E+01 0. -1.
</event>
<event>
 5   0  0.1893284E-04  0.1679743E+04  0.7818609E-02  0.8773003E-01
        1   -1    0    0  501    0  0.00000000000E+00  0.00000000000E+00  0.66534385068E+03  0.66534385070E+03  0.50400001928E-02 0. -1.
       -1   -1    0    0    0  501  0.00000000000E+00  0.00000000000E+00 -0.10601799525E+04  0.10601799525E+04  0.50400001928E-02 0.  1.
    10030    2    1    2    0    0  0.00000000000E+00  0.00000000000E+00 -0.39483610178E+03  0.17255238032E+04  0.16797430899E+04 0.  0.
        2    1    3    3  502    0 -0.36840503894E+03  0.27561080038E+03 -0.91920650454E+03  0.10279222655E+04  0.25500000920E-02 0.  1.
       -2    1    3    3    0  502  0.36840503894E+03 -0.27561080038E+03  0.52437040276E+03  0.69760153763E+03  0.25500000920E-02 0. -1.
</event>
<event>
 5   0  0.1893284E-04  0.1768470E+04  0.7818609E-02  0.8723249E-01
        1   -1    0    0  501    0  0.00000000000E+00  0.00000000000E+00  0.12115010782E+04  0.12115010782E+04  0.50400001928E-02 0. -1.
       -1   -1    0    0    0  501  0.00000000000E+00  0.00000000000E+00 -0.64537388555E+03  0.64537388557E+03  0.50400001928E-02 0.  1.
    10030    2    1    2    0    0  0.00000000000E+00  0.00000000000E+00  0.56612719268E+03  0.18568749638E+04  0.17684695737E+04 0.  0.
        2    1    3    3  502    0 -0.15375550694E+03  0.31142700481E+03  0.11368826001E+04  0.11887512699E+04  0.25500000920E-02 0. -1.
       -2    1    3    3    0  502  0.15375550694E+03 -0.31142700481E+03 -0.57075540744E+03  0.66812369391E+03  0.25500000920E-02 0.  1.
</event>
<event>
 5   0  0.1317625E-04  0.1680680E+04  0.7818609E-02  0.8772460E-01
        4   -1    0    0  501    0  0.00000000000E+00  0.00000000000E+00  0.64361534926E+03  0.64361660225E+03  0.12699999809E+01 0. -1.
       -4   -1    0    0    0  501  0.00000000000E+00  0.00000000000E+00 -0.10971924186E+04  0.10971931536E+04  0.12699999809E+01 0.  1.
    10030    2    1    2    0    0  0.00000000000E+00  0.00000000000E+00 -0.45357706933E+03  0.17408097559E+04  0.16806803528E+04 0.  0.
        5    1    3    3  502    0 -0.15810802576E+03  0.90825125918E+02 -0.10764426267E+04  0.10917866870E+04  0.46999998093E+01 0.  1.
       -5    1    3    3    0  502  0.15810802576E+03 -0.90825125918E+02  0.62286555739E+03  0.64902306884E+03  0.46999998093E+01 0. -1.
</event>
<event>
 5   0  0.1815663E-04  0.1701734E+04  0.7818609E-02  0.8760376E-01
       -1   -1    0    0    0  501  0.00000000000E+00  0.00000000000E+00  0.74336070461E+03  0.74336070462E+03  0.50400001928E-02 0.  1.
        1   -1    0    0  501    0  0.00000000000E+00  0.00000000000E+00 -0.97392160827E+03  0.97392160829E+03  0.50400001928E-02 0. -1.
    10030    2    1    2    0    0  0.00000000000E+00  0.00000000000E+00 -0.23056090367E+03  0.17172823129E+04  0.17017344716E+04 0.  0.
        5    1    3    3  502    0  0.78522351397E+03  0.14595452048E+02  0.21506953616E+03  0.81428864016E+03  0.46999998093E+01 0. -1.
       -5    1    3    3    0  502 -0.78522351397E+03 -0.14595452048E+02 -0.44563043983E+03  0.90299367275E+03  0.46999998093E+01 0.  1.
</event>
<event>
 5   0  0.3574092E-04  0.1697326E+04  0.7818609E-02  0.8762891E-01
       -2   -1    0    0    0  501  0.00000000000E+00  0.00000000000E+00  0.53298200115E+03  0.53298200116E+03  0.25500000920E-02 0. -1.
        2   -1    0    0  501    0  0.00000000000E+00  0.00000000000E+00 -0.13513195215E+04  0.13513195215E+04  0.25500000920E-02 0.  1.
    10030    2    1    2    0    0  0.00000000000E+00  0.00000000000E+00 -0.81833752032E+03  0.18843015226E+04  0.16973261122E+04 0.  0.
        3    1    3    3  502    0  0.46328801490E+03 -0.11465104646E+03  0.36988143182E+03  0.60381531200E+03  0.10100000352E+00 0. -1.
       -3    1    3    3    0  502 -0.46328801490E+03  0.11465104646E+03 -0.11882189521E+04  0.12804862106E+04  0.10100000352E+00 0.  1.
</event>
<event>
 5   0  0.1824538E-04  0.1695601E+04  0.7818609E-02  0.8763877E-01
       -1   -1    0    0    0  501  0.00000000000E+00  0.00000000000E+00  0.76373217566E+03  0.76373217568E+03  0.50400001928E-02 0. -1.
        1   -1    0    0  501    0  0.00000000000E+00  0.00000000000E+00 -0.94112316818E+03  0.94112316819E+03  0.50400001928E-02 0.  1.
    10030    2    1    2    0    0  0.00000000000E+00  0.00000000000E+00 -0.17739099251E+03  0.17048553439E+04  0.16956014211E+04 0.  0.
        3    1    3    3  502    0 -0.57798632828E+03 -0.44126336787E+03 -0.52694640427E+03  0.89802788301E+03  0.10100000352E+00 0.  1.
       -3    1    3    3    0  502  0.57798632828E+03  0.44126336787E+03  0.34955541175E+03  0.80682746085E+03  0.10100000352E+00 0. -1.
</event>
<event>
 5   0  0.1893284E-04  0.1696580E+04  0.7818609E-02  0.8763317E-01
        1   -1    0    0  501    0  0.00000000000E+00  0.00000000000E+00  0.87170136158E+03  0.87170136160E+03  0.50400001928E-02 0. -1.
       -1   -1    0    0    0  501  0.00000000000E+00  0.00000000000E+00 -0.82550787890E+03  0.82550787892E+03  0.50400001928E-02 0.  1.
    10030    2    1    2    0    0  0.00000000000E+00  0.00000000000E+00  0.46193482681E+02  0.16972092405E+04  0.16965804927E+04 0.  0.
        2    1    3    3  502    0 -0.72733788625E+03 -0.39444894408E+03  0.21021143345E+03  0.85369738023E+03  0.25500000920E-02 0. -1.
       -2    1    3    3    0  502  0.72733788625E+03  0.39444894408E+03 -0.16401795077E+03  0.84351186028E+03  0.25500000920E-02 0.  1.
</event>
<event>
 5   0  0.1815663E-04  0.1692924E+04  0.7818609E-02  0.8765410E-01
        1   -1    0    0  501    0  0.00000000000E+00  0.00000000000E+00  0.13594591539E+04  0.13594591539E+04  0.50400001928E-02 0.  1.
       -1   -1    0    0    0  501  0.00000000000E+00  0.00000000000E+00 -0.52704639481E+03  0.52704639484E+03  0.50400001928E-02 0. -1.
    10030    2    1    2    0    0  0.00000000000E+00  0.00000000000E+00  0.83241275912E+03  0.18865055488E+04  0.16929241519E+04 0.  0.
        5    1    3    3  502    0  0.50210788253E+03  0.67686681185E+03  0.32835686174E+03  0.90448953854E+03  0.46999998093E+01 0.  1.
       -5    1    3    3    0  502 -0.50210788253E+03 -0.67686681185E+03  0.50405589739E+03  0.98201601024E+03  0.46999998093E+01 0. -1.
</event>
<event>
 5   0  0.3678896E-04  0.1685966E+04  0.7818609E-02  0.8769409E-01
        2   -1    0    0  501    0  0.00000000000E+00  0.00000000000E+00  0.61282205691E+03  0.61282205692E+03  0.25500000920E-02 0.  1.
       -2   -1    0    0    0  501  0.00000000000E+00  0.00000000000E+00 -0.11595872851E+04  0.11595872851E+04  0.25500000920E-02 0. -1.
    10030    2    1    2    0    0  0.00000000000E+00  0.00000000000E+00 -0.54676522820E+03  0.17724093420E+04  0.16859663879E+04 0.  0.
        2    1    3    3  502    0 -0.90844626292E+02  0.30982201755E+03 -0.10920112290E+04  0.11387409508E+04  0.25500000920E-02 0. -1.
       -2    1    3    3    0  502  0.90844626292E+02 -0.30982201755E+03  0.54524600081E+03  0.63366839126E+03  0.25500000920E-02 0.  1.
</event>
<event>
 5   0  0.3605571E-04  0.1698058E+04  0.7818609E-02  0.8762473E-01
       -2   -1    0    0    0  501  0.00000000000E+00  0.00000000000E+00  0.99103230845E+03  0.99103230845E+03  0.25500000920E-02 0.  1.
        2   -1    0    0  501    0  0.00000000000E+00  0.00000000000E+00 -0.72737325045E+03  0.72737325045E+03  0.25500000920E-02 0. -1.
    10030    2    1    2    0    0  0.00000000000E+00  0.00000000000E+00  0.26365905800E+03  0.17184055589E+04  0.16980581751E+04 0.  0.
        4    1    3    3  502    0  0.34668477936E+03  0.21106245122E+03 -0.62283489911E+03  0.74341281870E+03  0.12699999809E+01 0. -1.
       -4    1    3    3    0  502 -0.34668477936E+03 -0.21106245122E+03  0.88649395711E+03  0.97499274020E+03  0.12699999809E+01 0.  1.
</event>
<event>
 5   0  0.1824538E-04  0.1699857E+04  0.7818609E-02  0.8761446E-01
        1   -1    0    0  501    0  0.00000000000E+00  0.00000000000E+00  0.11871896930E+04  0.11871896930E+04  0.50400001928E-02 0.  1.
       -1   -1    0    0    0  501  0.00000000000E+00  0.00000000000E+00 -0.60847787654E+03  0.60847787656E+03  0.50400001928E-02 0. -1.
    10030    2    1    2    0    0  0.00000000000E+00  0.00000000000E+00  0.57871181649E+03  0.17956675696E+04  0.16998572452E+04 0.  0.
        3    1    3    3  502    0 -0.78164740183E+03 -0.31208047738E+03  0.41439907381E+03  0.93813297977E+03  0.10100000352E+00 0. -1.
       -3    1    3    3    0  502  0.78164740183E+03  0.31208047738E+03  0.16431274268E+03  0.85753458983E+03  0.10100000352E+00 0.  1.
</event>
<event>
 5   0  0.3678896E-04  0.1680159E+04  0.7818609E-02  0.8772762E-01
       -2   -1    0    0    0  501  0.00000000000E+00  0.00000000000E+00  0.66046416614E+03  0.66046416614E+03  0.25500000920E-02 0.  1.
        2   -1    0    0  501    0  0.00000000000E+00  0.00000000000E+00 -0.10685417779E+04  0.10685417779E+04  0.25500000920E-02 0. -1.
    10030    2    1    2    0    0  0.00000000000E+00  0.00000000000E+00 -0.40807761179E+03  0.17290059441E+04  0.16801589858E+04 0.  0.
        2    1    3    3  502    0  0.37253727388E+03 -0.17088497232E+03 -0.95867121489E+03  0.10426102783E+04  0.25500000920E-02 0. -1.
       -2    1    3    3    0  502 -0.37253727388E+03  0.17088497232E+03  0.55059360310E+03  0.68639566576E+03  0.25500000920E-02 0.  1.
</event>
<event>
 5   0  0.1815663E-04  0.1715895E+04  0.7818609E-02  0.8752351E-01
       -1   -1    0    0    0  501  0.00000000000E+00  0.00000000000E+00  0.56186544305E+03  0.56186544307E+03  0.50400001928E-02 0.  1.
        1   -1    0    0  501    0  0.00000000000E+00  0.00000000000E+00 -0.13100533611E+04  0.13100533611E+04  0.50400001928E-02 0. -1.
    10030    2    1    2    0    0  0.00000000000E+00  0.00000000000E+00 -0.74818791806E+03  0.18719188042E+04  0.17158947662E+04 0.  0.
        5    1    3    3  502    0  0.57629926759E+03 -0.57211833255E+03 -0.72138400824E+02  0.81527067354E+03  0.46999998093E+01 0.  1.
       -5    1    3    3    0  502 -0.57629926759E+03  0.57211833255E+03 -0.67604951724E+03  0.10566481307E+04  0.46999998093E+01 0. -1.
</event>
<event>
 5   0  0.1920289E-04  0.1665657E+04  0.7818609E-02  0.8781198E-01
       -1   -1    0    0    0  501  0.00000000000E+00  0.00000000000E+00  0.62864994197E+03  0.62864994199E+03  0.50400001928E-02 0. -1.
        1   -1    0    0  501    0  0.00000000000E+00  0.00000000000E+00 -0.11033214192E+04  0.11033214192E+04  0.50400001928E-02 0.  1.
    10030    2    1    2    0    0  0.00000000000E+00  0.00000000000E+00 -0.47467147725E+03  0.17319713612E+04  0.16656565627E+04 0.  0.
        4    1    3    3  502    0  0.11167905171E+03 -0.82112024022E+03 -0.15102077493E+03  0.84232983258E+03  0.12699999809E+01 0. -1.
       -4    1    3    3    0  502 -0.11167905171E+03  0.82112024022E+03 -0.32365070232E+03  0.88964152865E+03  0.12699999809E+01 0.  1.
</event>
<event>
 5   0  0.1893284E-04  0.1714086E+04  0.7818609E-02  0.8753371E-01
        1   -1    0    0  501    0  0.00000000000E+00  0.00000000000E+00  0.11318057386E+04  0.11318057386E+04  0.50400001928E-02 0.  1.
       -1   -1    0    0    0  501  0.00000000000E+00  0.00000000000E+00 -0.64898315305E+03  0.64898315307E+03  0.50400001928E-02 0. -1.
    10030    2    1    2    0    0  0.00000000000E+00  0.00000000000E+00  0.48282258552E+03  0.17807888917E+04  0.17140861786E+04 0.  0.
        2    1    3    3  502    0 -0.17193812465E+03  0.64804708562E+03 -0.31321249357E+03  0.74002014163E+03  0.25500000920E-02 0. -1.
       -2    1    3    3    0  502  0.17193812465E+03 -0.64804708562E+03  0.79603507909E+03  0.10407687500E+04  0.25500000920E-02 0.  1.
</event>
<event>
 5   0  0.1815663E-04  0.1702289E+04  0.7818609E-02  0.8760060E-01
       -1   -1    0    0    0  501  0.00000000000E+00  0.00000000000E+00  0.29827144355E+03  0.29827144360E+03  0.50400001928E-02 0.  1.
        1   -1    0    0  501    0  0.00000000000E+00  0.00000000000E+00 -0.24288190525E+04  0.24288190525E+04  0.50400001928E-02 0. -1.
    10030    2    1    2    0    0  0.00000000000E+00  0.00000000000E+00 -0.21305476089E+04  0.27270904961E+04  0.17022894760E+04 0.  0.
        5    1    3    3  502    0 -0.35842234443E+03 -0.16902426470E+03  0.14144694753E+03  0.42079105030E+03  0.46999998093E+01 0.  1.
       -5    1    3    3    0  502  0.35842234443E+03  0.16902426470E+03 -0.22719945565E+04  0.23062994458E+04  0.46999998093E+01 0. -1.
</event>
<event>
 5   0  0.1930116E-04  0.1690833E+04  0.7818609E-02  0.8766610E-01
       -1   -1    0    0    0  501  0.00000000000E+00  0.00000000000E+00  0.62735360150E+03  0.62735360152E+03  0.50400001928E-02 0.  1.
        1   -1    0    0  501    0  0.00000000000E+00  0.00000000000E+00 -0.11392762713E+04  0.11392762713E+04  0.50400001928E-02 0. -1.
    10030    2    1    2    0    0  0.00000000000E+00  0.00000000000E+00 -0.51192266981E+03  0.17666298728E+04  0.16908330159E+04 0.  0.
        1    1    3    3  502    0 -0.96758823464E+01  0.83986058160E+03 -0.15536629170E+03  0.85416515022E+03  0.50400001928E-02 0.  1.
       -1    1    3    3    0  502  0.96758823464E+01 -0.83986058160E+03 -0.35655637811E+03  0.91246472262E+03  0.50400001928E-02 0. -1.
</event>
<event>
 5   0  0.3574092E-04  0.1706541E+04  0.7818609E-02  0.8757643E-01
       -2   -1    0    0    0  501  0.00000000000E+00  0.00000000000E+00  0.52033954582E+03  0.52033954583E+03  0.25500000920E-02 0. -1.
        2   -1    0    0  501    0  0.00000000000E+00  0.00000000000E+00 -0.13992215705E+04  0.13992215705E+04  0.25500000920E-02 0.  1.
    10030    2    1    2    0    0  0.00000000000E+00  0.00000000000E+00 -0.87888202467E+03  0.19195611163E+04  0.17065407308E+04 0.  0.
        3    1    3    3  502    0  0.51005432309E+02  0.28540125411E+03  0.46323777228E+03  0.54648391910E+03  0.10100000352E+00 0. -1.
       -3    1    3    3    0  502 -0.51005432309E+02 -0.28540125411E+03 -0.13421197969E+04  0.13730771972E+04  0.10100000352E+00 0.  1.
</event>
<event>
 5   0  0.3574092E-04  0.1700019E+04  0.7818609E-02  0.8761354E-01
       -2   -1    0    0    0  501  0.00000000000E+00  0.00000000000E+00  0.13858597768E+04  0.13858597768E+04  0.25500000920E-02 0. -1.
        2   -1    0    0  501    0  0.00000000000E+00  0.00000000000E+00 -0.52134859419E+03  0.52134859419E+03  0.25500000920E-02 0.  1.
    10030    2    1    2    0    0  0.00000000000E+00  0.00000000000E+00  0.86451118262E+03  0.19072083710E+04  0.17000188780E+04 0.  0.
        3    1    3    3  502    0 -0.29754004266E+03 -0.30157306383E+02  0.13248876804E+04  0.13582219686E+04  0.10100000352E+00 0. -1.
       -3    1    3    3    0  502  0.29754004266E+03  0.30157306383E+02 -0.46037649778E+03  0.54898640240E+03  0.10100000352E+00 0.  1.
</event>
<event>
 5   0  0.1815663E-04  0.1695305E+04  0.7818609E-02  0.8764046E-01
        1   -1    0    0  501    0  0.00000000000E+00  0.00000000000E+00  0.12669805534E+04  0.12669805534E+04  0.50400001928E-02 0. -1.
       -1   -1    0    0    0  501  0.00000000000E+00  0.00000000000E+00 -0.56710812833E+03  0.56710812835E+03  0.50400001928E-02 0.  1.
    10030    2    1    2    0    0  0.00000000000E+00  0.00000000000E+00  0.69987242510E+03  0.18340886818E+04  0.16953052472E+04 0.  0.
        5    1    3    3  502    0  0.74281010337E+03 -0.38959080786E+03  0.48219388176E+03  0.96751272697E+03  0.46999998093E+01 0.  1.
       -5    1    3    3    0  502 -0.74281010337E+03  0.38959080786E+03  0.21767854334E+03  0.86657595482E+03  0.46999998093E+01 0. -1.
</event>
<event>
 5   0  0.1824538E-04  0.1709728E+04  0.7818609E-02  0.8755836E-01
        1   -1    0    0  501    0  0.00000000000E+00  0.00000000000E+00  0.13031198357E+04  0.13031198357E+04  0.50400001928E-02 0.  1.
       -1   -1    0    0    0  501  0.00000000000E+00  0.00000000000E+00 -0.56080198658E+03  0.56080198660E+03  0.50400001928E-02 0. -1.
    10030    2    1    2    0    0  0.00000000000E+00  0.00000000000E+00  0.74231784914E+03  0.18639218223E+04  0.17097276890E+04 0.  0.
        3    1    3    3  502    0  0.11699559981E+03  0.44398737558E+03 -0.41497009159E+03  0.61888039811E+03  0.10100000352E+00 0. -1.
       -3    1    3    3    0  502 -0.11699559981E+03 -0.44398737558E+03  0.11572879407E+04  0.12450414242E+04  0.10100000352E+00 0.  1.
</event>
<event>
 5   0  0.1824538E-04  0.1725956E+04  0.7818609E-02  0.8746698E-01
        1   -1    0    0  501    0  0.00000000000E+00  0.00000000000E+00  0.17461060193E+04  0.17461060193E+04  0.50400001928E-02 0. -1.
       -1   -1    0    0    0  501  0.00000000000E+00  0.00000000000E+00 -0.42650958619E+03  0.42650958622E+03  0.50400001928E-02 0.  1.
    10030    2    1    2    0    0  0.00000000000E+00  0.00000000000E+00  0.13195964331E+04  0.21726156055E+04  0.17259559157E+04 0.  0.
        3    1    3    3  502    0 -0.62814567606E+03 -0.45247080671E+03  0.17974834703E+03  0.79473662288E+03  0.10100000352E+00 0.  1.
       -3    1    3    3    0  502  0.62814567606E+03  0.45247080671E+03  0.11398480861E+04  0.13778789827E+04  0.10100000352E+00 0. -1.
</event>
<event>
 5   0  0.3678896E-04  0.1627554E+04  0.7818609E-02  0.8803797E-01
        2   -1    0    0  501    0  0.00000000000E+00  0.00000000000E+00  0.88339138878E+03  0.88339138878E+03  0.25500000920E-02 0.  1.
       -2   -1    0    0    0  501  0.00000000000E+00  0.00000000000E+00 -0.74964875099E+03  0.74964875100E+03  0.25500000920E-02 0. -1.
    10030    2    1    2    0    0  0.00000000000E+00  0.00000000000E+00  0.13374263779E+03  0.16330401398E+04  0.16275543017E+04 0.  0.
        2    1    3    3  502    0  0.70493699052E+03  0.27115482338E+03 -0.23708895785E+03  0.79162634670E+03  0.25500000920E-02 0. -1.
       -2    1    3    3    0  502 -0.70493699052E+03 -0.27115482338E+03  0.37083159564E+03  0.84141379308E+03  0.25500000920E-02 0.  1.
</event>
<event>
 5   0  0.3678896E-04  0.1701306E+04  0.7818609E-02  0.8760620E-01
        2   -1    0    0  501    0  0.00000000000E+00  0.00000000000E+00  0.68286266479E+03  0.68286266479E+03  0.25500000920E-02 0. -1.
       -2   -1    0    0    0  501  0.00000000000E+00  0.00000000000E+00 -0.10596720161E+04  0.10596720161E+04  0.25500000920E-02 0.  1.
    10030    2    1    2    0    0  0.00000000000E+00  0.00000000000E+00 -0.37680935136E+03  0.17425346809E+04  0.17013059181E+04 0.  0.
        2    1    3    3  502    0  0.28848456648E+03  0.52728650425E+03 -0.80495251279E+03  0.10045909369E+04  0.25500000920E-02 0.  1.
       -2    1    3    3    0  502 -0.28848456648E+03 -0.52728650425E+03  0.42814316144E+03  0.73794374403E+03  0.25500000920E-02 0. -1.
</event>
<event>
 5   0  0.1920289E-04  0.1711711E+04  0.7818609E-02  0.8754713E-01
        1   -1    0    0  501    0  0.00000000000E+00  0.00000000000E+00  0.13098442704E+04  0.13098442705E+04  0.50400001928E-02 0. -1.
       -1   -1    0    0    0  501  0.00000000000E+00  0.00000000000E+00 -0.55921806201E+03  0.55921806203E+03  0.50400001928E-02 0.  1.
    10030    2    1    2    0    0  0.00000000000E+00  0.00000000000E+00  0.75062620843E+03  0.18690623325E+04  0.17117109271E+04 0.  0.
        4    1    3    3  502    0  0.69668580042E+03 -0.33036410839E+03  0.78090961792E+03  0.10974210645E+04  0.12699999809E+01 0. -1.
       -4    1    3    3    0  502 -0.69668580042E+03  0.33036410839E+03 -0.30283409489E+02  0.77164126795E+03  0.12699999809E+01 0.  1.
</event>
<event>
 5   0  0.3516723E-04  0.1694384E+04  0.7818609E-02  0.8764574E-01
       -2   -1    0    0    0  501  0.00000000000E+00  0.00000000000E+00  0.73326732267E+03  0.73326732267E+03  0.25500000920E-02 0.  1.
        2   -1    0    0  501    0  0.00000000000E+00  0.00000000000E+00 -0.97881709479E+03  0.97881709479E+03  0.25500000920E-02 0. -1.
    10030    2    1    2    0    0  0.00000000000E+00  0.00000000000E+00 -0.24554977212E+03  0.17120844175E+04  0.16943843607E+04 0.  0.
        1    1    3    3  502    0  0.17108044968E+03  0.62905551598E+03  0.42394588008E+03  0.77763067822E+03  0.50400001928E-02 0.  1.
       -1    1    3    3    0  502 -0.17108044968E+03 -0.62905551598E+03 -0.66949565220E+03  0.93445373925E+03  0.50400001928E-02 0. -1.
</event>
<event>
 5   0  0.1317625E-04  0.1705951E+04  0.7818609E-02  0.8757978E-01
       -3   -1    0    0    0  501  0.00000000000E+00  0.00000000000E+00  0.13278894747E+04  0.13278894785E+04  0.10100000352E+00 0. -1.
        3   -1    0    0  501    0  0.00000000000E+00  0.00000000000E+00 -0.54791238114E+03  0.54791239045E+03  0.10100000352E+00 0.  1.
    10030    2    1    2    0    0  0.00000000000E+00  0.00000000000E+00  0.77997709352E+03  0.18758018690E+04  0.17059508742E+04 0.  0.
        5    1    3    3  502    0 -0.81135007155E+03 -0.16176728060E+03  0.16174649570E+03  0.84299561716E+03  0.46999998093E+01 0. -1.
       -5    1    3    3    0  502  0.81135007155E+03  0.16176728060E+03  0.61823059782E+03  0.10328062518E+04  0.46999998093E+01 0.  1.
</event>
<event>
 5   0  0.3573262E-04  0.1703555E+04  0.7818609E-02  0.8759339E-01
        2   -1    0    0  501    0  0.00000000000E+00  0.00000000000E+00  0.75845121046E+03  0.75845121046E+03  0.25500000920E-02 0.  1.
       -2   -1    0    0    0  501  0.00000000000E+00  0.00000000000E+00 -0.95658748893E+03  0.95658748893E+03  0.25500000920E-02 0. -1.
    10030    2    1    2    0    0  0.00000000000E+00  0.00000000000E+00 -0.19813627847E+03  0.17150386994E+04  0.17035550345E+04 0.  0.
        5    1    3    3  502    0  0.18283706955E+03 -0.25487439272E+03 -0.89631071619E+03  0.94962378868E+03  0.46999998093E+01 0. -1.
       -5    1    3    3    0  502 -0.18283706955E+03  0.25487439272E+03  0.69817443772E+03  0.76541491072E+03  0.46999998093E+01 0.  1.
</event>
<event>
 5   0  0.3573262E-04  0.1699650E+04  0.7818609E-02  0.8761564E-01
        2   -1    0    0  501    0  0.00000000000E+00  0.00000000000E+00  0.13769680978E+04  0.13769680978E+04  0.25500000920E-02 0.  1.
       -2   -1    0    0    0  501  0.00000000000E+00  0.00000000000E+00 -0.52448735039E+03  0.52448735040E+03  0.25500000920E-02 0. -1.
    10030    2    1    2    0    0  0.00000000000E+00  0.00000000000E+00  0.85248074737E+03  0.19014554482E+04  0.16996497865E+04 0.  0.
        5    1    3    3  502    0  0.36524249358E+03  0.49587775987E+03 -0.22884809916E+03  0.65703148656E+03  0.46999998093E+01 0. -1.
       -5    1    3    3    0  502 -0.36524249358E+03 -0.49587775987E+03  0.10813288465E+04  0.12444239616E+04  0.46999998093E+01 0.  1.
</event>
<event>
 5   0  0.3678896E-04  0.1680510E+04  0.7818609E-02  0.8772559E-01
       -2   -1    0    0    0  501  0.00000000000E+00  0.00000000000E+00  0.40189928661E+03  0.40189928662E+03  0.25500000920E-02 0.  1.
        2   -1    0    0  501    0  0.00000000000E+00  0.00000000000E+00 -0.17567307458E+04  0.17567307458E+04  0.25500000920E-02 0. -1.
    10030    2    1    2    0    0  0.00000000000E+00  0.00000000000E+00 -0.13548314592E+04  0.21586300324E+04  0.16805104386E+04 0.  0.
        2    1    3    3  502    0 -0.69564321825E+03 -0.21551623539E+03 -0.12157797580E+04  0.14172110480E+04  0.25500000920E-02 0.  1.
       -2    1    3    3    0  502  0.69564321825E+03  0.21551623539E+03 -0.13905170127E+03  0.74141898441E+03  0.25500000920E-02 0. -1.
</event>
<event>
 5   0  0.1815663E-04  0.1703457E+04  0.7818609E-02  0.8759395E-01
       -1   -1    0    0    0  501  0.00000000000E+00  0.00000000000E+00  0.12246172829E+04  0.12246172829E+04  0.50400001928E-02 0.  1.
        1   -1    0    0  501    0  0.00000000000E+00  0.00000000000E+00 -0.59238231421E+03  0.59238231424E+03  0.50400001928E-02 0. -1.
    10030    2    1    2    0    0  0.00000000000E+00  0.00000000000E+00  0.63223496869E+03  0.18169995971E+04  0.17034572141E+04 0.  0.
        5    1    3    3  502    0 -0.51812981040E+02  0.76499489313E+03 -0.79433977370E+02  0.77086549948E+03  0.46999998093E+01 0. -1.
       -5    1    3    3    0  502  0.51812981040E+02 -0.76499489313E+03  0.71166894605E+03  0.10461340977E+04  0.46999998093E+01 0.  1.
</event>
<event>
 5   0  0.3574092E-04  0.1701554E+04  0.7818609E-02  0.8760479E-01
        2   -1    0    0  501    0  0.00000000000E+00  0.00000000000E+00  0.88015797247E+03  0.88015797247E+03  0.25500000920E-02 0. -1.
       -2   -1    0    0    0  501  0.00000000000E+00  0.00000000000E+00 -0.82237683012E+03  0.82237683013E+03  0.25500000920E-02 0.  1.
    10030    2    1    2    0    0  0.00000000000E+00  0.00000000000E+00  0.57781142346E+02  0.17025348026E+04  0.17015540231E+04 0.  0.
        3    1    3    3  502    0  0.76189618892E+03 -0.33205048078E+03 -0.15308836278E+03  0.84509134506E+03  0.10100000352E+00 0.  1.
       -3    1    3    3    0  502 -0.76189618892E+03  0.33205048078E+03  0.21086950513E+03  0.85744345754E+03  0.10100000352E+00 0. -1.
</event>
<event>
 5   0  0.1824538E-04  0.1727058E+04  0.7818609E-02  0.8746081E-01
       -1   -1    0    0    0  501  0.00000000000E+00  0.00000000000E+00  0.98458215753E+03  0.98458215754E+03  0.50400001928E-02 0. -1.
        1   -1    0    0  501    0  0.00000000000E+00  0.00000000000E+00 -0.75735921583E+03  0.75735921584E+03  0.50400001928E-02 0.  1.
    10030    2    1    2    0    0  0.00000000000E+00  0.00000000000E+00  0.22722294170E+03  0.17419413734E+04  0.17270580428E+04 0.  0.
        3    1    3    3  502    0 -0.28224537801E+03 -0.65384529600E+03  0.60619112579E+03  0.93522393880E+03  0.10100000352E+00 0. -1.
       -3    1    3    3    0  502  0.28224537801E+03  0.65384529600E+03 -0.37896818409E+03  0.80671743459E+03  0.10100000352E+00 0.  1.
</event>
<event>
 5   0  0.3605571E-04  0.1709635E+04  0.7818609E-02  0.8755888E-01
        2   -1    0    0  501    0  0.00000000000E+00  0.00000000000E+00  0.11072257961E+04  0.11072257961E+04  0.25500000920E-02 0.  1.
       -2   -1    0    0    0  501  0.00000000000E+00  0.00000000000E+00 -0.65994948809E+03  0.65994948809E+03  0.25500000920E-02 0. -1.
    10030    2    1    2    0    0  0.00000000000E+00  0.00000000000E+00  0.44727630801E+03  0.17671752842E+04  0.17096351626E+04 0.  0.
        4    1    3    3  502    0  0.50987622845E+03  0.28945884735E+03  0.86662833026E+03  0.10463299997E+04  0.12699999809E+01 0.  1.
       -4    1    3    3    0  502 -0.50987622845E+03 -0.28945884735E+03 -0.41935202225E+03  0.72084528445E+03  0.12699999809E+01 0. -1.
</event>
<event>
 5   0  0.1893284E-04  0.1696019E+04  0.7818609E-02  0.8763638E-01
        1   -1    0    0  501    0  0.00000000000E+00  0.00000000000E+00  0.76510087566E+03  0.76510087567E+03  0.50400001928E-02 0.  1.
       -1   -1    0    0    0  501  0.00000000000E+00  0.00000000000E+00 -0.93990239006E+03  0.93990239008E+03  0.50400001928E-02 0. -1.
    10030    2    1    2    0    0  0.00000000000E+00  0.00000000000E+00 -0.17480151441E+03  0.17050032658E+04  0.16960190349E+04 0.  0.
        2    1    3    3  502    0 -0.20928363196E+02  0.59096791216E+03  0.52363398690E+03  0.78985670968E+03  0.25500000920E-02 0.  1.
       -2    1    3    3    0  502  0.20928363196E+02 -0.59096791216E+03 -0.69843550131E+03  0.91514655607E+03  0.25500000920E-02 0. -1.
</event>
<event>
 5   0  0.1930116E-04  0.1702939E+04  0.7818609E-02  0.8759690E-01
       -1   -1    0    0    0  501  0.00000000000E+00  0.00000000000E+00  0.93713298948E+03  0.93713298949E+03  0.50400001928E-02 0.  1.
        1   -1    0    0  501    0  0.00000000000E+00  0.00000000000E+00 -0.77363649817E+03  0.77363649819E+03  0.50400001928E-02 0. -1.
    10030    2    1    2    0    0  0.00000000000E+00  0.00000000000E+00  0.16349649131E+03  0.17107694877E+04  0.17029389705E+04 0.  0.
        1    1    3    3  502    0 -0.60908132476E+03  0.15784866128E+03 -0.49456553991E+03  0.80030702442E+03  0.50400001928E-02 0. -1.
       -1    1    3    3    0  502  0.60908132476E+03 -0.15784866128E+03  0.65806203122E+03  0.91046246326E+03  0.50400001928E-02 0.  1.
</event>
<event>
 5   0  0.3573262E-04  0.1691846E+04  0.7818609E-02  0.8766029E-01
        2   -1    0    0  501    0  0.00000000000E+00  0.00000000000E+00  0.74553544886E+03  0.74553544886E+03  0.25500000920E-02 0.  1.
       -2   -1    0    0    0  501  0.00000000000E+00  0.00000000000E+00 -0.95982775909E+03  0.95982775910E+03  0.25500000920E-02 0. -1.
    10030    2    1    2    0    0  0.00000000000E+00  0.00000000000E+00 -0.21429231023E+03  0.17053632080E+04  0.16918458786E+04 0.  0.
        5    1    3    3  502    0 -0.13158017837E+03  0.79113389445E+03 -0.37828853813E+03  0.88675277861E+03  0.46999998093E+01 0. -1.
       -5    1    3    3    0  502  0.13158017837E+03 -0.79113389445E+03  0.16399622790E+03  0.81861042935E+03  0.46999998093E+01 0.  1.
</event>
<event>
 5   0  0.1815663E-04  0.1672331E+04  0.7818609E-02  0.8777304E-01
       -1   -1    0    0    0  501  0.00000000000E+00  0.00000000000E+00  0.66582519822E+03  0.66582519824E+03  0.50400001928E-02 0. -1.
        1   -1    0    0  501    0  0.00000000000E+00  0.00000000000E+00 -0.10500842474E+04  0.10500842475E+04  0.50400001928E-02 0.  1.
    10030    2    1    2    0    0  0.00000000000E+00  0.00000000000E+00 -0.38425904922E+03  0.17159094457E+04  0.16723307714E+04 0.  0.
        5    1    3    3  502    0 -0.59191958467E+03 -0.24389015401E+03 -0.74401103672E+03  0.98154251803E+03  0.46999998093E+01 0.  1.
       -5    1    3    3    0  502  0.59191958467E+03  0.24389015401E+03  0.35975198750E+03  0.73436692766E+03  0.46999998093E+01 0. -1.
</event>
<event>
 5   0  0.3574092E-04  0.1697722E+04  0.7818609E-02  0.8762664E-01
       -2   -1    0    0    0  501  0.00000000000E+00  0.00000000000E+00  0.82772252464E+03  0.82772252464E+03  0.25500000920E-02 0.  1.
        2   -1    0    0  501    0  0.00000000000E+00  0.00000000000E+00 -0.87053969683E+03  0.87053969683E+03  0.25500000920E-02 0. -1.
    10030    2    1    2    0    0  0.00000000000E+00  0.00000000000E+00 -0.42817172191E+02  0.16982622215E+04  0.16977223750E+04 0.  0.
        3    1    3    3  502    0  0.50018980387E+02  0.28339592008E+03  0.77743796434E+03  0.82899031630E+03  0.10100000352E+00 0.  1.
       -3    1    3    3    0  502 -0.50018980387E+02 -0.28339592008E+03 -0.82025513653E+03  0.86927190518E+03  0.10100000352E+00 0. -1.
</event>
<event>
 5   0  0.3516723E-04  0.1693695E+04  0.7818609E-02  0.8764969E-01
       -2   -1    0    0    0  501  0.00000000000E+00  0.00000000000E+00  0.50364277075E+03  0.50364277075E+03  0.25500000920E-02 0. -1.
        2   -1    0    0  501    0  0.00000000000E+00  0.00000000000E+00 -0.14239268316E+04  0.14239268316E+04  0.25500000920E-02 0.  1.
    10030    2    1    2    0    0  0.00000000000E+00  0.00000000000E+00 -0.92028406088E+03  0.19275696024E+04  0.16936947244E+04 0.  0.
        1    1    3    3  502    0  0.53902317902E+03  0.58620087178E+03 -0.13231606853E+03  0.80727008592E+03  0.50400001928E-02 0.  1.
       -1    1    3    3    0  502 -0.53902317902E+03 -0.58620087178E+03 -0.78796799234E+03  0.11202995165E+04  0.50400001928E-02 0. -1.
</event>
<event>
 5   0  0.1893284E-04  0.1710984E+04  0.7818609E-02  0.8755124E-01
        1   -1    0    0  501    0  0.00000000000E+00  0.00000000000E+00  0.84415513107E+03  0.84415513109E+03  0.50400001928E-02 0.  1.
       -1   -1    0    0    0  501  0.00000000000E+00  0.00000000000E+00 -0.86698112405E+03  0.86698112407E+03  0.50400001928E-02 0. -1.
    10030    2    1    2    0    0  0.00000000000E+00  0.00000000000E+00 -0.22825992980E+02  0.17111362552E+04  0.17109840028E+04 0.  0.
        2    1    3    3  502    0  0.21584855615E+03 -0.81702397527E+03 -0.14464567939E+03  0.85734540760E+03  0.25500000920E-02 0. -1.
       -2    1    3    3    0  502 -0.21584855615E+03  0.81702397527E+03  0.12181968641E+03  0.85379084755E+03  0.25500000920E-02 0.  1.
</event>
<event>
 5   0  0.1893284E-04  0.1693197E+04  0.7818609E-02  0.8765254E-01
        1   -1    0    0  501    0  0.00000000000E+00  0.00000000000E+00  0.18920549668E+04  0.18920549669E+04  0.50400001928E-02 0.  1.
       -1   -1    0    0    0  501  0.00000000000E+00  0.00000000000E+00 -0.37880973511E+03  0.37880973515E+03  0.50400001928E-02 0. -1.
    10030    2    1    2    0    0  0.00000000000E+00  0.00000000000E+00  0.15132452317E+04  0.22708647020E+04  0.16931967882E+04 0.  0.
        2    1    3    3  502    0  0.50530619911E+02  0.56148156218E+02  0.18875262831E+04  0.18890371697E+04  0.25500000920E-02 0.  1.
       -2    1    3    3    0  502 -0.50530619911E+02 -0.56148156218E+02 -0.37428105139E+03  0.38182753231E+03  0.25500000920E-02 0. -1.
</event>
<event>
 5   0  0.3574092E-04  0.1715526E+04  0.7818609E-02  0.8752559E-01
        2   -1    0    0  501    0  0.00000000000E+00  0.00000000000E+00  0.10236097509E+04  0.10236097509E+04  0.25500000920E-02 0. -1.
       -2   -1    0    0    0  501  0.00000000000E+00  0.00000000000E+00 -0.71878677190E+03  0.71878677191E+03  0.25500000920E-02 0.  1.
    10030    2    1    2    0    0  0.00000000000E+00  0.00000000000E+00  0.30482297901E+03  0.17423965228E+04  0.17155257486E+04 0.  0.
        3    1    3    3  502    0 -0.44850587158E+03 -0.48585880066E+03 -0.40253567336E+03  0.77411321495E+03  0.10100000352E+00 0.  1.
       -3    1    3    3    0  502  0.44850587158E+03  0.48585880066E+03  0.70735865237E+03  0.96828330787E+03  0.10100000352E+00 0. -1.
</event>
<event>
 5   0  0.3574092E-04  0.1693056E+04  0.7818609E-02  0.8765335E-01
        2   -1    0    0  501    0  0.00000000000E+00  0.00000000000E+00  0.72387325450E+03  0.72387325451E+03  0.25500000920E-02 0. -1.
       -2   -1    0    0    0  501  0.00000000000E+00  0.00000000000E+00 -0.98996576560E+03  0.98996576560E+03  0.25500000920E-02 0.  1.
    10030    2    1    2    0    0  0.00000000000E+00  0.00000000000E+00 -0.26609251110E+03  0.17138390201E+04  0.16930561014E+04 0.  0.
        3    1    3    3  502    0  0.62294144255E+03  0.14378576105E+03 -0.69472624760E+03  0.94412655679E+03  0.10100000352E+00 0.  1.
       -3    1    3    3    0  502 -0.62294144255E+03 -0.14378576105E+03  0.42863373650E+03  0.76971246332E+03  0.10100000352E+00 0. -1.
</event>
<event>
 5   0  0.1920289E-04  0.1713157E+04  0.7818609E-02  0.8753896E-01
       -1   -1    0    0    0  501  0.00000000000E+00  0.00000000000E+00  0.10318337497E+04  0.10318337497E+04  0.50400001928E-02 0.  1.
        1   -1    0    0  501    0  0.00000000000E+00  0.00000000000E+00 -0.71109012891E+03  0.71109012893E+03  0.50400001928E-02 0. -1.
    10030    2    1    2    0    0  0.00000000000E+00  0.00000000000E+00  0.32074362079E+03  0.17429238786E+04  0.17131570788E+04 0.  0.
        4    1    3    3  502    0  0.21732943087E+03  0.82464083917E+03  0.24214617780E+03  0.88651056366E+03  0.12699999809E+01 0.  1.
       -4    1    3    3    0  502 -0.21732943087E+03 -0.82464083917E+03  0.78597442989E+02  0.85641331499E+03  0.12699999809E+01 0. -1.
</event>
<event>
 5   0  0.1920289E-04  0.1665889E+04  0.7818609E-02  0.8781062E-01
        1   -1    0    0  501    0  0.00000000000E+00  0.00000000000E+00  0.57997004994E+03  0.57997004996E+03  0.50400001928E-02 0. -1.
       -1   -1    0    0    0  501  0.00000000000E+00  0.00000000000E+00 -0.11962624142E+04  0.11962624142E+04  0.50400001928E-02 0.  1.
    10030    2    1    2    0    0  0.00000000000E+00  0.00000000000E+00 -0.61629236423E+03  0.17762324641E+04  0.16658887984E+04 0.  0.
        4    1    3    3  502    0  0.53956573041E+03 -0.36301566918E+03 -0.86308465616E+03  0.10806610431E+04  0.12699999809E+01 0. -1.
       -4    1    3    3    0  502 -0.53956573041E+03  0.36301566918E+03  0.24679229193E+03  0.69557142103E+03  0.12699999809E+01 0.  1.
</event>
<event>
 5   0  0.1930116E-04  0.1702211E+04  0.7818609E-02  0.8760104E-01
        1   -1    0    0  501    0  0.00000000000E+00  0.00000000000E+00  0.17310255365E+04  0.17310255365E+04  0.50400001928E-02 0.  1.
       -1   -1    0    0    0  501  0.00000000000E+00  0.00000000000E+00 -0.41846903052E+03  0.41846903055E+03  0.50400001928E-02 0. -1.
    10030    2    1    2    0    0  0.00000000000E+00  0.00000000000E+00  0.13125565060E+04  0.21494945671E+04  0.17022110070E+04 0.  0.
        1    1    3    3  502    0  0.28452814975E+03 -0.77421415901E+03  0.92120873179E+03  0.12365230930E+04  0.50400001928E-02 0. -1.
       -1    1    3    3    0  502 -0.28452814975E+03  0.77421415901E+03  0.39134777419E+03  0.91297147404E+03  0.50400001928E-02 0.  1.
</event>
<event>
 5   0  0.1930116E-04  0.1713489E+04  0.7818609E-02  0.8753708E-01
        1   -1    0    0  501    0  0.00000000000E+00  0.00000000000E+00  0.68261853223E+03  0.68261853225E+03  0.50400001928E-02 0. -1.
       -1   -1    0    0    0  501  0.00000000000E+00  0.00000000000E+00 -0.10752877549E+04  0.10752877549E+04  0.50400001928E-02 0.  1.
    10030    2    1    2    0    0  0.00000000000E+00  0.00000000000E+00 -0.39266922263E+03  0.17579062871E+04  0.17134892459E+04 0.  0.
        1    1    3    3  502    0  0.35489074125E+00 -0.85588866362E+03 -0.15705615278E+03  0.87017938703E+03  0.50400001928E-02 0.  1.
       -1    1    3    3    0  502 -0.35489074125E+00  0.85588866362E+03 -0.23561306985E+03  0.88772690010E+03  0.50400001928E-02 0. -1.
</event>
<event>
 5   0  0.1893284E-04  0.1689386E+04  0.7818609E-02  0.8767441E-01
        1   -1    0    0  501    0  0.00000000000E+00  0.00000000000E+00  0.18384999120E+04  0.18384999120E+04  0.50400001928E-02 0.  1.
       -1   -1    0    0    0  501  0.00000000000E+00  0.00000000000E+00 -0.38809144719E+03  0.38809144722E+03  0.50400001928E-02 0. -1.
    10030    2    1    2    0    0  0.00000000000E+00  0.00000000000E+00  0.14504084648E+04  0.22265913593E+04  0.16893857956E+04 0.  0.
        2    1    3    3  502    0 -0.26986184543E+03  0.74880571718E+03  0.35248907154E+03  0.87050787662E+03  0.25500000920E-02 0. -1.
       -2    1    3    3    0  502  0.26986184543E+03 -0.74880571718E+03  0.10979193933E+04  0.13560834826E+04  0.25500000920E-02 0.  1.
</event>
<event>
 5   0  0.1815663E-04  0.1702246E+04  0.7818609E-02  0.8760085E-01
       -1   -1    0    0    0  501  0.00000000000E+00  0.00000000000E+00  0.19445106090E+04  0.19445106090E+04  0.50400001928E-02 0.  1.
        1   -1    0    0  501    0  0.00000000000E+00  0.00000000000E+00 -0.37254107404E+03  0.37254107407E+03  0.50400001928E-02 0. -1.
    10030    2    1    2    0    0  0.00000000000E+00  0.00000000000E+00  0.15719695349E+04  0.23170516831E+04  0.17022456589E+04 0.  0.
        5    1    3    3  502    0 -0.36691446143E+03 -0.62283765008E+03  0.13975062908E+04  0.15734035983E+04  0.46999998093E+01 0.  1.
       -5    1    3    3    0  502  0.36691446143E+03  0.62283765008E+03  0.17446324412E+03  0.74364808472E+03  0.46999998093E+01 0. -1.
</event>
<event>
 5   0  0.1893284E-04  0.1669536E+04  0.7818609E-02  0.8778932E-01
       -1   -1    0    0    0  501  0.00000000000E+00  0.00000000000E+00  0.86317582097E+03  0.86317582099E+03  0.50400001928E-02 0.  1.
        1   -1    0    0  501    0  0.00000000000E+00  0.00000000000E+00 -0.80729503217E+03  0.80729503218E+03  0.50400001928E-02 0. -1.
    10030    2    1    2    0    0  0.00000000000E+00  0.00000000000E+00  0.55880788803E+02  0.16704708532E+04  0.16695359262E+04 0.  0.
        2    1    3    3  502    0 -0.39303721892E+03 -0.18980288639E+03  0.73991048235E+03  0.85905233428E+03  0.25500000920E-02 0.  1.
       -2    1    3    3    0  502  0.39303721892E+03  0.18980288639E+03 -0.68402969355E+03  0.81141851889E+03  0.25500000920E-02 0. -1.
</event>
<event>
 5   0  0.3516723E-04  0.1678140E+04  0.7818609E-02  0.8773931E-01
        2   -1    0    0  501    0  0.00000000000E+00  0.00000000000E+00  0.16015104810E+04  0.16015104810E+04  0.25500000920E-02 0.  1.
       -2   -1    0    0    0  501  0.00000000000E+00  0.00000000000E+00 -0.43960881335E+03  0.43960881335E+03  0.25500000920E-02 0. -1.
    10030    2    1    2    0    0  0.00000000000E+00  0.00000000000E+00  0.11619016676E+04  0.20411192943E+04  0.16781395915E+04 0.  0.
        1    1    3    3  502    0 -0.11425268045E+03 -0.79213309748E+03  0.27442999643E+03  0.84607348503E+03  0.50400001928E-02 0.  1.
       -1    1    3    3    0  502  0.11425268045E+03  0.79213309748E+03  0.88747167119E+03  0.11950458093E+04  0.50400001928E-02 0. -1.
</event>
<event>
 5   0  0.3516723E-04  0.1812588E+04  0.7818609E-02  0.8699634E-01
        2   -1    0    0  501    0  0.00000000000E+00  0.00000000000E+00  0.98208436465E+03  0.98208436465E+03  0.25500000920E-02 0.  1.
       -2   -1    0    0    0  501  0.00000000000E+00  0.00000000000E+00 -0.83635270645E+03  0.83635270645E+03  0.25500000920E-02 0. -1.
    10030    2    1    2    0    0  0.00000000000E+00  0.00000000000E+00  0.14573165820E+03  0.18184370711E+04  0.18125881124E+04 0.  0.
        1    1    3    3  502    0 -0.63527692670E+03 -0.64125664213E+03  0.15425752953E+03  0.91574136093E+03  0.50400001928E-02 0. -1.
       -1    1    3    3    0  502  0.63527692670E+03  0.64125664213E+03 -0.85258713309E+01  0.90269571018E+03  0.50400001928E-02 0.  1.
</event>
<event>
 5   0  0.3678896E-04  0.1691397E+04  0.7818609E-02  0.8766286E-01
        2   -1    0    0  501    0  0.00000000000E+00  0.00000000000E+00  0.74043005650E+03  0.74043005650E+03  0.25500000920E-02 0.  1.
       -2   -1    0    0    0  501  0.00000000000E+00  0.00000000000E+00 -0.96593305379E+03  0.96593305380E+03  0.25500000920E-02 0. -1.
    10030    2    1    2    0    0  0.00000000000E+00  0.00000000000E+00 -0.22550299730E+03  0.17063631103E+04  0.16913968968E+04 0.  0.
        2    1    3    3  502    0 -0.61347149292E+03 -0.78035710044E+02 -0.69471717146E+03  0.93009074449E+03  0.25500000920E-02 0. -1.
       -2    1    3    3    0  502  0.61347149292E+03  0.78035710044E+02  0.46921417416E+03  0.77627236580E+03  0.25500000920E-02 0.  1.
</event>
<event>
 5   0  0.1920289E-04  0.1706696E+04  0.7818609E-02  0.8757554E-01
       -1   -1    0    0    0  501  0.00000000000E+00  0.00000000000E+00  0.45001267778E+03  0.45001267781E+03  0.50400001928E-02 0. -1.
        1   -1    0    0  501    0  0.00000000000E+00  0.00000000000E+00 -0.16181834106E+04  0.16181834106E+04  0.50400001928E-02 0.  1.
    10030    2    1    2    0    0  0.00000000000E+00  0.00000000000E+00 -0.11681707328E+04  0.20681960884E+04  0.17066962820E+04 0.  0.
        4    1    3    3  502    0 -0.98315253733E+02  0.81842584571E+02 -0.16064971648E+04  0.16115827162E+04  0.12699999809E+01 0.  1.
       -4    1    3    3    0  502  0.98315253733E+02 -0.81842584571E+02  0.43832643201E+03  0.45661337219E+03  0.12699999809E+01 0. -1.
</event>
<event>
 5   0  0.1920289E-04  0.1719859E+04  0.7818609E-02  0.8750118E-01
       -1   -1    0    0    0  501  0.00000000000E+00  0.00000000000E+00  0.44389128211E+03  0.44389128214E+03  0.50400001928E-02 0. -1.
        1   -1    0    0  501    0  0.00000000000E+00  0.00000000000E+00 -0.16659014715E+04  0.16659014715E+04  0.50400001928E-02 0.  1.
    10030    2    1    2    0    0  0.00000000000E+00  0.00000000000E+00 -0.12220101894E+04  0.21097927536E+04  0.17198594595E+04 0.  0.
        4    1    3    3  502    0  0.27581906971E+03 -0.29450137632E+03 -0.15425646653E+04  0.15944637278E+04  0.12699999809E+01 0.  1.
       -4    1    3    3    0  502 -0.27581906971E+03  0.29450137632E+03  0.32055447593E+03  0.51532902578E+03  0.12699999809E+01 0. -1.
</event>
<event>
 5   0  0.1930116E-04  0.1592190E+04  0.7818609E-02  0.8825360E-01
        1   -1    0    0  501    0  0.00000000000E+00  0.00000000000E+00  0.17365260731E+04  0.17365260731E+04  0.50400001928E-02 0. -1.
       -1   -1    0    0    0  501  0.00000000000E+00  0.00000000000E+00 -0.36496265160E+03  0.36496265163E+03  0.50400001928E-02 0.  1.
    10030    2    1    2    0    0  0.00000000000E+00  0.00000000000E+00  0.13715634215E+04  0.21014887247E+04  0.15921898885E+04 0.  0.
        1    1    3    3  502    0 -0.15914425137E+02 -0.48633763568E+03 -0.14583223761E+03  0.50798091141E+03  0.50400001928E-02 0.  1.
       -1    1    3    3    0  502  0.15914425137E+02  0.48633763568E+03  0.15173956591E+04  0.15935078133E+04  0.50400001928E-02 0. -1.
</event>
<event>
 5   0  0.1893284E-04  0.1723735E+04  0.7818609E-02  0.8747942E-01
        1   -1    0    0  501    0  0.00000000000E+00  0.00000000000E+00  0.49789739380E+03  0.49789739383E+03  0.50400001928E-02 0. -1.
       -1   -1    0    0    0  501  0.00000000000E+00  0.00000000000E+00 -0.14919045330E+04  0.14919045330E+04  0.50400001928E-02 0.  1.
    10030    2    1    2    0    0  0.00000000000E+00  0.00000000000E+00 -0.99400713917E+03  0.19898019268E+04  0.17237347578E+04 0.  0.
        2    1    3    3  502    0 -0.31140693788E+03  0.62048650646E+03  0.92551665604E+02  0.70038817557E+03  0.25500000920E-02 0. -1.
       -2    1    3    3    0  502  0.31140693788E+03 -0.62048650646E+03 -0.10865588048E+04  0.12894137512E+04  0.25500000920E-02 0.  1.
</event>
<event>
 5   0  0.1893284E-04  0.1700260E+04  0.7818609E-02  0.8761216E-01
       -1   -1    0    0    0  501  0.00000000000E+00  0.00000000000E+00  0.75543667492E+03  0.75543667494E+03  0.50400001928E-02 0. -1.
        1   -1    0    0  501    0  0.00000000000E+00  0.00000000000E+00 -0.95669309077E+03  0.95669309078E+03  0.50400001928E-02 0.  1.
    10030    2    1    2    0    0  0.00000000000E+00  0.00000000000E+00 -0.20125641585E+03  0.17121297657E+04  0.17002600359E+04 0.  0.
        2    1    3    3  502    0 -0.29643147783E+03  0.78466236504E+03  0.38737395184E+02  0.83968281747E+03  0.25500000920E-02 0. -1.
       -2    1    3    3    0  502  0.29643147783E+03 -0.78466236504E+03 -0.23999381103E+03  0.87244694825E+03  0.25500000920E-02 0.  1.
</event>
<event>
 5   0  0.3574092E-04  0.1685794E+04  0.7818609E-02  0.8769508E-01
        2   -1    0    0  501    0  0.00000000000E+00  0.00000000000E+00  0.13562042991E+04  0.13562042991E+04  0.25500000920E-02 0. -1.
       -2   -1    0    0    0  501  0.00000000000E+00  0.00000000000E+00 -0.52387057678E+03  0.52387057678E+03  0.25500000920E-02 0.  1.
    10030    2    1    2    0    0  0.00000000000E+00  0.00000000000E+00  0.83233372235E+03  0.18800748759E+04  0.16857942086E+04 0.  0.
        3    1    3    3  502    0  0.12438236769E+03  0.81163216048E+03  0.62852611881E+03  0.10340516571E+04  0.10100000352E+00 0. -1.
       -3    1    3    3    0  502 -0.12438236769E+03 -0.81163216048E+03  0.20380760355E+03  0.84602321882E+03  0.10100000352E+00 0.  1.
</event>
<event>
 5   0  0.3516723E-04  0.1666964E+04  0.7818609E-02  0.8780433E-01
       -2   -1    0    0    0  501  0.00000000000E+00  0.00000000000E+00  0.64386166748E+03  0.64386166749E+03  0.25500000920E-02 0.  1.
        2   -1    0    0  501    0  0.00000000000E+00  0.00000000000E+00 -0.10789466506E+04  0.10789466506E+04  0.25500000920E-02 0. -1.
    10030    2    1    2    0    0  0.00000000000E+00  0.00000000000E+00 -0.43508498314E+03  0.17228083181E+04  0.16669641743E+04 0.  0.
        1    1    3    3  502    0  0.71986529822E+03  0.72447090222E+02  0.21012916038E+03  0.75339822971E+03  0.50400001928E-02 0.  1.
       -1    1    3    3    0  502 -0.71986529822E+03 -0.72447090222E+02 -0.64521414353E+03  0.96941008840E+03  0.50400001928E-02 0. -1.
</event>
<event>
 5   0  0.3574092E-04  0.1710322E+04  0.7818609E-02  0.8755499E-01
       -2   -1    0    0    0  501  0.00000000000E+00  0.00000000000E+00  0.10277724779E+04  0.10277724779E+04  0.25500000920E-02 0. -1.
        2   -1    0    0  501    0  0.00000000000E+00  0.00000000000E+00 -0.71153891898E+03  0.71153891898E+03  0.25500000920E-02 0.  1.
    10030    2    1    2    0    0  0.00000000000E+00  0.00000000000E+00  0.31623355892E+03  0.17393113969E+04  0.17103217450E+04 0.  0.
        3    1    3    3  502    0 -0.15597927155E+03 -0.35059369344E+02 -0.69620667051E+03  0.71432655753E+03  0.10100000352E+00 0.  1.
       -3    1    3    3    0  502  0.15597927155E+03  0.35059369344E+02  0.10124402294E+04  0.10249848393E+04  0.10100000352E+00 0. -1.
</event>
<event>
 5   0  0.1930116E-04  0.1687849E+04  0.7818609E-02  0.8768325E-01
       -1   -1    0    0    0  501  0.00000000000E+00  0.00000000000E+00  0.74984957706E+03  0.74984957708E+03  0.50400001928E-02 0. -1.
        1   -1    0    0  501    0  0.00000000000E+00  0.00000000000E+00 -0.94980140234E+03  0.94980140235E+03  0.50400001928E-02 0.  1.
    10030    2    1    2    0    0  0.00000000000E+00  0.00000000000E+00 -0.19995182528E+03  0.16996509794E+04  0.16878485475E+04 0.  0.
        1    1    3    3  502    0  0.70072858327E+02  0.21229629731E+03 -0.91944038266E+03  0.94622964475E+03  0.50400001928E-02 0.  1.
       -1    1    3    3    0  502 -0.70072858327E+02 -0.21229629731E+03  0.71948855738E+03  0.75342133468E+03  0.50400001928E-02 0. -1.
</event>
<event>
 5   0  0.3678896E-04  0.1680201E+04  0.7818609E-02  0.8772737E-01
       -2   -1    0    0    0  501  0.00000000000E+00  0.00000000000E+00  0.98240082691E+03  0.98240082691E+03  0.25500000920E-02 0. -1.
        2   -1    0    0  501    0  0.00000000000E+00  0.00000000000E+00 -0.71841269132E+03  0.71841269133E+03  0.25500000920E-02 0.  1.
    10030    2    1    2    0    0  0.00000000000E+00  0.00000000000E+00  0.26398813558E+03  0.17008135182E+04  0.16802014427E+04 0.  0.
        2    1    3    3  502    0  0.10986395033E+03 -0.55850583933E+03  0.75744961769E+03  0.94748550569E+03  0.25500000920E-02 0. -1.
       -2    1    3    3    0  502 -0.10986395033E+03  0.55850583933E+03 -0.49346148211E+03  0.75332801254E+03  0.25500000920E-02 0.  1.
</event>
<event>
 5   0  0.3678896E-04  0.1688107E+04  0.7818609E-02  0.8768177E-01
       -2   -1    0    0    0  501  0.00000000000E+00  0.00000000000E+00  0.48653589353E+03  0.48653589354E+03  0.25500000920E-02 0. -1.
        2   -1    0    0  501    0  0.00000000000E+00  0.00000000000E+00 -0.14642829876E+04  0.14642829876E+04  0.25500000920E-02 0.  1.
    10030    2    1    2    0    0  0.00000000000E+00  0.00000000000E+00 -0.97774709406E+03  0.19508188811E+04  0.16881069063E+04 0.  0.
        2    1    3    3  502    0 -0.29401713685E+03 -0.75152421296E+03 -0.20300748631E+03  0.83213385878E+03  0.25500000920E-02 0.  1.
       -2    1    3    3    0  502  0.29401713685E+03  0.75152421296E+03 -0.77473960775E+03  0.11186850224E+04  0.25500000920E-02 0. -1.
</event>
<event>
 5   0  0.1930116E-04  0.1685369E+04  0.7818609E-02  0.8769753E-01
        1   -1    0    0  501    0  0.00000000000E+00  0.00000000000E+00  0.73414035408E+03  0.73414035410E+03  0.50400001928E-02 0.  1.
       -1   -1    0    0    0  501  0.00000000000E+00  0.00000000000E+00 -0.96727703622E+03  0.96727703623E+03  0.50400001928E-02 0. -1.
    10030    2    1    2    0    0  0.00000000000E+00  0.00000000000E+00 -0.23313668214E+03  0.17014173903E+04  0.16853689280E+04 0.  0.
        1    1    3    3  502    0 -0.65575083786E+03 -0.17986051143E+03 -0.61906115040E+03  0.91956276180E+03  0.50400001928E-02 0. -1.
       -1    1    3    3    0  502  0.65575083786E+03  0.17986051143E+03  0.38592446826E+03  0.78185462853E+03  0.50400001928E-02 0.  1.
</event>
<event>
 5   0  0.1920289E-04  0.1698094E+04  0.7818609E-02  0.8762452E-01
        1   -1    0    0  501    0  0.00000000000E+00  0.00000000000E+00  0.20248029652E+04  0.20248029652E+04  0.50400001928E-02 0. -1.
       -1   -1    0    0    0  501  0.00000000000E+00  0.00000000000E+00 -0.35602507943E+03  0.35602507946E+03  0.50400001928E-02 0.  1.
    10030    2    1    2    0    0  0.00000000000E+00  0.00000000000E+00  0.16687778858E+04  0.23808280447E+04  0.16980937978E+04 0.  0.
        4    1    3    3  502    0 -0.66626993853E+03 -0.41266606476E+02  0.15699830974E+04  0.17060091157E+04  0.12699999809E+01 0.  1.
       -4    1    3    3    0  502  0.66626993853E+03  0.41266606476E+02  0.98794788370E+02  0.67481892898E+03  0.12699999809E+01 0. -1.
</event>
<event>
 5   0  0.1815663E-04  0.1684464E+04  0.7818609E-02  0.8770275E-01
        1   -1    0    0  501    0  0.00000000000E+00  0.00000000000E+00  0.10036937981E+04  0.10036937981E+04  0.50400001928E-02 0. -1.
       -1   -1    0    0    0  501  0.00000000000E+00  0.00000000000E+00 -0.70674423463E+03  0.70674423465E+03  0.50400001928E-02 0.  1.
    10030    2    1    2    0    0  0.00000000000E+00  0.00000000000E+00  0.29694956350E+03  0.17104380328E+04  0.16844640752E+04 0.  0.
        5    1    3    3  502    0 -0.63893813380E+03 -0.51795035272E+03 -0.35476588165E+02  0.82328317426E+03  0.46999998093E+01 0.  1.
       -5    1    3    3    0  502  0.63893813380E+03  0.51795035272E+03  0.33242615166E+03  0.88715485853E+03  0.46999998093E+01 0. -1.
</event>
<event>
 5   0  0.3605571E-04  0.1696366E+04  0.7818609E-02  0.8763440E-01
       -2   -1    0    0    0  501  0.00000000000E+00  0.00000000000E+00  0.42016886578E+03  0.42016886579E+03  0.25500000920E-02 0.  1.
        2   -1    0    0  501    0  0.00000000000E+00  0.00000000000E+00 -0.17122029900E+04  0.17122029900E+04  0.25500000920E-02 0. -1.
    10030    2    1    2    0    0  0.00000000000E+00  0.00000000000E+00 -0.12920341242E+04  0.21323718558E+04  0.16963659844E+04 0.  0.
        4    1    3    3  502    0  0.24725922102E+03 -0.38862423611E+01  0.37384702870E+03  0.44823591894E+03  0.12699999809E+01 0.  1.
       -4    1    3    3    0  502 -0.24725922102E+03  0.38862423611E+01 -0.16658811529E+04  0.16841359368E+04  0.12699999809E+01 0. -1.
</event>
<event>
 5   0  0.1815663E-04  0.1666945E+04  0.7818609E-02  0.8780445E-01
       -1   -1    0    0    0  501  0.00000000000E+00  0.00000000000E+00  0.10097899254E+04  0.10097899255E+04  0.50400001928E-02 0. -1.
        1   -1    0    0  501    0  0.00000000000E+00  0.00000000000E+00 -0.68794122819E+03  0.68794122821E+03  0.50400001928E-02 0.  1.
    10030    2    1    2    0    0  0.00000000000E+00  0.00000000000E+00  0.32184869725E+03  0.16977311537E+04  0.16669446560E+04 0.  0.
        5    1    3    3  502    0 -0.78803464705E+03  0.27017434269E+03  0.18711407491E+03  0.85383051446E+03  0.46999998093E+01 0. -1.
       -5    1    3    3    0  502  0.78803464705E+03 -0.27017434269E+03  0.13473462234E+03  0.84390063920E+03  0.46999998093E+01 0.  1.
</event>
<event>
 5   0  0.3516723E-04  0.1693716E+04  0.7818609E-02  0.8764956E-01
       -2   -1    0    0    0  501  0.00000000000E+00  0.00000000000E+00  0.62369473382E+03  0.62369473383E+03  0.25500000920E-02 0. -1.
        2   -1    0    0  501    0  0.00000000000E+00  0.00000000000E+00 -0.11498709935E+04  0.11498709935E+04  0.25500000920E-02 0.  1.
    10030    2    1    2    0    0  0.00000000000E+00  0.00000000000E+00 -0.52617625968E+03  0.17735657273E+04  0.16937160131E+04 0.  0.
        1    1    3    3  502    0 -0.37926061636E+03 -0.29779252410E+03 -0.99207645002E+03  0.11030569728E+04  0.50400001928E-02 0.  1.
       -1    1    3    3    0  502  0.37926061636E+03  0.29779252410E+03  0.46590019034E+03  0.67050875454E+03  0.50400001928E-02 0. -1.
</event>
<event>
 5   0  0.1815663E-04  0.1704009E+04  0.7818609E-02  0.8759081E-01
       -1   -1    0    0    0  501  0.00000000000E+00  0.00000000000E+00  0.84774571520E+03  0.84774571521E+03  0.50400001928E-02 0.  1.
        1   -1    0    0  501    0  0.00000000000E+00  0.00000000000E+00 -0.85628420938E+03  0.85628420940E+03  0.50400001928E-02 0. -1.
    10030    2    1    2    0    0  0.00000000000E+00  0.00000000000E+00 -0.85384941847E+01  0.17040299246E+04  0.17040085323E+04 0.  0.
        5    1    3    3  502    0 -0.12248633707E+03 -0.70740470948E+03 -0.46303949264E+03  0.85431375238E+03  0.46999998093E+01 0. -1.
       -5    1    3    3    0  502  0.12248633707E+03  0.70740470948E+03  0.45450099846E+03  0.84971617223E+03  0.46999998093E+01 0.  1.
</event>
<event>
 5   0  0.1824538E-04  0.1709072E+04  0.7818609E-02  0.8756207E-01
       -1   -1    0    0    0  501  0.00000000000E+00  0.00000000000E+00  0.86344468449E+03  0.86344468451E+03  0.50400001928E-02 0. -1.
        1   -1    0    0  501    0  0.00000000000E+00  0.00000000000E+00 -0.84571910688E+03  0.84571910690E+03  0.50400001928E-02 0.  1.
    10030    2    1    2    0    0  0.00000000000E+00  0.00000000000E+00  0.17725577612E+02  0.17091637914E+04  0.17090718738E+04 0.  0.
        3    1    3    3  502    0  0.42798111976E+03 -0.62441827211E+03  0.40532532891E+03  0.85869357158E+03  0.10100000352E+00 0. -1.
       -3    1    3    3    0  502 -0.42798111976E+03  0.62441827211E+03 -0.38759975130E+03  0.85047021983E+03  0.10100000352E+00 0.  1.
</event>
<event>
 5   0  0.1824538E-04  0.1697909E+04  0.7818609E-02  0.8762558E-01
       -1   -1    0    0    0  501  0.00000000000E+00  0.00000000000E+00  0.10043435001E+04  0.10043435001E+04  0.50400001928E-02 0.  1.
        1   -1    0    0  501    0  0.00000000000E+00  0.00000000000E+00 -0.71760718637E+03  0.71760718639E+03  0.50400001928E-02 0. -1.
    10030    2    1    2    0    0  0.00000000000E+00  0.00000000000E+00  0.28673631370E+03  0.17219506865E+04  0.16979094361E+04 0.  0.
        3    1    3    3  502    0 -0.61804439692E+03  0.56390743504E+03 -0.27328589593E+01  0.83664684938E+03  0.10100000352E+00 0. -1.
       -3    1    3    3    0  502  0.61804439692E+03 -0.56390743504E+03  0.28946917266E+03  0.88530383710E+03  0.10100000352E+00 0.  1.
</event>
<event>
 5   0  0.1815663E-04  0.1713017E+04  0.7818609E-02  0.8753975E-01
        1   -1    0    0  501    0  0.00000000000E+00  0.00000000000E+00  0.50230115053E+03  0.50230115056E+03  0.50400001928E-02 0. -1.
       -1   -1    0    0    0  501  0.00000000000E+00  0.00000000000E+00 -0.14604914138E+04  0.14604914138E+04  0.50400001928E-02 0.  1.
    10030    2    1    2    0    0  0.00000000000E+00  0.00000000000E+00 -0.95819026329E+03  0.19627925644E+04  0.17130166579E+04 0.  0.
        5    1    3    3  502    0 -0.54484639573E+03  0.44744987790E+03 -0.10363354940E+04  0.12534282326E+04  0.46999998093E+01 0.  1.
       -5    1    3    3    0  502  0.54484639573E+03 -0.44744987790E+03  0.78145230683E+02  0.70936433181E+03  0.46999998093E+01 0. -1.
</event>
<event>
 5   0  0.3605571E-04  0.1728674E+04  0.7818609E-02  0.8745177E-01
       -2   -1    0    0    0  501  0.00000000000E+00  0.00000000000E+00  0.63546488898E+03  0.63546488899E+03  0.25500000920E-02 0.  1.
        2   -1    0    0  501    0  0.00000000000E+00  0.00000000000E+00 -0.11756407397E+04  0.11756407397E+04  0.25500000920E-02 0. -1.
    10030    2    1    2    0    0  0.00000000000E+00  0.00000000000E+00 -0.54017585068E+03  0.18111056287E+04  0.17286739567E+04 0.  0.
        4    1    3    3  502    0  0.28937236468E+03 -0.63951761315E+03  0.25830026012E+03  0.74795707112E+03  0.12699999809E+01 0.  1.
       -4    1    3    3    0  502 -0.28937236468E+03  0.63951761315E+03 -0.79847611080E+03  0.10631485575E+04  0.12699999809E+01 0. -1.
</event>
<event>
 5   0  0.3574092E-04  0.1706424E+04  0.7818609E-02  0.8757709E-01
       -2   -1    0    0    0  501  0.00000000000E+00  0.00000000000E+00  0.76562441733E+03  0.76562441734E+03  0.25500000920E-02 0. -1.
        2   -1    0    0  501    0  0.00000000000E+00  0.00000000000E+00 -0.95081957938E+03  0.95081957938E+03  0.25500000920E-02 0.  1.
    10030    2    1    2    0    0  0.00000000000E+00  0.00000000000E+00 -0.18519516204E+03  0.17164439967E+04  0.17064239643E+04 0.  0.
        3    1    3    3  502    0 -0.13040431730E+03 -0.21990964449E+03  0.72618783079E+03  0.76987941491E+03  0.10100000352E+00 0. -1.
       -3    1    3    3    0  502  0.13040431730E+03  0.21990964449E+03 -0.91138299284E+03  0.94656458181E+03  0.10100000352E+00 0.  1.
</event>
<event>
 5   0  0.3678896E-04  0.1564933E+04  0.7818609E-02  0.8842385E-01
       -2   -1    0    0    0  501  0.00000000000E+00  0.00000000000E+00  0.46971443872E+03  0.46971443872E+03  0.25500000920E-02 0.  1.
        2   -1    0    0  501    0  0.00000000000E+00  0.00000000000E+00 -0.13034602764E+04  0.13034602764E+04  0.25500000920E-02 0. -1.
    10030    2    1    2    0    0  0.00000000000E+00  0.00000000000E+00 -0.83374583766E+03  0.17731747151E+04  0.15649333687E+04 0.  0.
        2    1    3    3  502    0 -0.72792606192E+02 -0.15340320698E+03  0.44858783595E+03  0.47964815646E+03  0.25500000920E-02 0.  1.
       -2    1    3    3    0  502  0.72792606192E+02  0.15340320698E+03 -0.12823336736E+04  0.12935265586E+04  0.25500000920E-02 0. -1.
</event>
<event>
 5   0  0.3516723E-04  0.1709273E+04  0.7818609E-02  0.8756093E-01
        2   -1    0    0  501    0  0.00000000000E+00  0.00000000000E+00  0.18001617685E+04  0.18001617685E+04  0.25500000920E-02 0. -1.
       -2   -1    0    0    0  501  0.00000000000E+00  0.00000000000E+00 -0.40574318615E+03  0.40574318616E+03  0.25500000920E-02 0.  1.
    10030    2    1    2    0    0  0.00000000000E+00  0.00000000000E+00  0.13944185824E+04  0.22059049547E+04  0.17092727946E+04 0.  0.
        1    1    3    3  502    0  0.12354086067E+03 -0.84523394035E+03  0.73185317469E+03  0.11248519136E+04  0.50400001928E-02 0. -1.
       -1    1    3    3    0  502 -0.12354086067E+03  0.84523394035E+03  0.66256540768E+03  0.10810530411E+04  0.50400001928E-02 0.  1.
</event>
<event>
 5   0  0.3573262E-04  0.1683743E+04  0.7818609E-02  0.8770691E-01
        2   -1    0    0  501    0  0.00000000000E+00  0.00000000000E+00  0.14759144418E+04  0.14759144418E+04  0.25500000920E-02 0. -1.
       -2   -1    0    0    0  501  0.00000000000E+00  0.00000000000E+00 -0.48020904613E+03  0.48020904614E+03  0.25500000920E-02 0.  1.
    10030    2    1    2    0    0  0.00000000000E+00  0.00000000000E+00  0.99570539568E+03  0.19561234880E+04  0.16837428144E+04 0.  0.
        5    1    3    3  502    0 -0.72040438972E+03 -0.42302422096E+03  0.37715481581E+03  0.91662414399E+03  0.46999998093E+01 0.  1.
       -5    1    3    3    0  502  0.72040438972E+03  0.42302422096E+03  0.61855057987E+03  0.10394993440E+04  0.46999998093E+01 0. -1.
</event>
<event>
 5   0  0.3574092E-04  0.1693588E+04  0.7818609E-02  0.8765030E-01
       -2   -1    0    0    0  501  0.00000000000E+00  0.00000000000E+00  0.67869330438E+03  0.67869330438E+03  0.25500000920E-02 0. -1.
        2   -1    0    0  501    0  0.00000000000E+00  0.00000000000E+00 -0.10565300851E+04  0.10565300851E+04  0.25500000920E-02 0.  1.
    10030    2    1    2    0    0  0.00000000000E+00  0.00000000000E+00 -0.37783678076E+03  0.17352233895E+04  0.16935877830E+04 0.  0.
        3    1    3    3  502    0 -0.38323662175E+03  0.56656028734E+03  0.32255240789E+03  0.75624131961E+03  0.10100000352E+00 0. -1.
       -3    1    3    3    0  502  0.38323662175E+03 -0.56656028734E+03 -0.70038918865E+03  0.97898206992E+03  0.10100000352E+00 0.  1.
</event>
<event>
 5   0  0.1824538E-04  0.1755461E+04  0.7818609E-02  0.8730350E-01
        1   -1    0    0  501    0  0.00000000000E+00  0.00000000000E+00  0.14138124049E+04  0.14138124049E+04  0.50400001928E-02 0. -1.
       -1   -1    0    0    0  501  0.00000000000E+00  0.00000000000E+00 -0.54491752712E+03  0.54491752715E+03  0.50400001928E-02 0.  1.
    10030    2    1    2    0    0  0.00000000000E+00  0.00000000000E+00  0.86889487779E+03  0.19587299321E+04  0.17554613747E+04 0.  0.
        3    1    3    3  502    0  0.55247993749E+02 -0.32385531955E+03  0.13426203292E+04  0.13822315173E+04  0.10100000352E+00 0. -1.
       -3    1    3    3    0  502 -0.55247993749E+02  0.32385531955E+03 -0.47372545137E+03  0.57649841482E+03  0.10100000352E+00 0.  1.
</event>
<event>
 5   0  0.1824538E-04  0.1802210E+04  0.7818609E-02  0.8705125E-01
        1   -1    0    0  501    0  0.00000000000E+00  0.00000000000E+00  0.84820769102E+03  0.84820769104E+03  0.50400001928E-02 0. -1.
       -1   -1    0    0    0  501  0.00000000000E+00  0.00000000000E+00 -0.95730064911E+03  0.95730064912E+03  0.50400001928E-02 0.  1.
    10030    2    1    2    0    0  0.00000000000E+00  0.00000000000E+00 -0.10909295809E+03  0.18055083402E+04  0.18022095030E+04 0.  0.
        3    1    3    3  502    0  0.49825897557E+02 -0.69492991102E+03 -0.62706392400E+03  0.93734698820E+03  0.10100000352E+00 0.  1.
       -3    1    3    3    0  502 -0.49825897557E+02  0.69492991102E+03  0.51797096592E+03  0.86816135196E+03  0.10100000352E+00 0. -1.
</event>
<event>
 5   0  0.1815663E-04  0.1792935E+04  0.7818609E-02  0.8710066E-01
       -1   -1    0    0    0  501  0.00000000000E+00  0.00000000000E+00  0.58965256282E+03  0.58965256284E+03  0.50400001928E-02 0. -1.
        1   -1    0    0  501    0  0.00000000000E+00  0.00000000000E+00 -0.13629272583E+04  0.13629272584E+04  0.50400001928E-02 0.  1.
    10030    2    1    2    0    0  0.00000000000E+00  0.00000000000E+00 -0.77327469553E+03  0.19525798212E+04  0.17929345229E+04 0.  0.
        5    1    3    3  502    0  0.19823894353E+03  0.63462869967E+03  0.26821906440E+03  0.71694896728E+03  0.46999998093E+01 0. -1.
       -5    1    3    3    0  502 -0.19823894353E+03 -0.63462869967E+03 -0.10414937599E+04  0.12356308539E+04  0.46999998093E+01 0.  1.
</event>
<event>
 5   0  0.1824538E-04  0.1595604E+04  0.7818609E-02  0.8823253E-01
       -1   -1    0    0    0  501  0.00000000000E+00  0.00000000000E+00  0.51810014099E+03  0.51810014101E+03  0.50400001928E-02 0.  1.
        1   -1    0    0  501    0  0.00000000000E+00  0.00000000000E+00 -0.12285040671E+04  0.12285040671E+04  0.50400001928E-02 0. -1.
    10030    2    1    2    0    0  0.00000000000E+00  0.00000000000E+00 -0.71040392614E+03  0.17466042082E+04  0.15956041244E+04 0.  0.
        3    1    3    3  502    0 -0.61680142368E+03 -0.49575219505E+03 -0.24424956241E+03  0.82817395159E+03  0.10100000352E+00 0.  1.
       -3    1    3    3    0  502  0.61680142368E+03  0.49575219505E+03 -0.46615436373E+03  0.91843025656E+03  0.10100000352E+00 0. -1.
</event>
<event>
 5   0  0.3678896E-04  0.1730245E+04  0.7818609E-02  0.8744300E-01
        2   -1    0    0  501    0  0.00000000000E+00  0.00000000000E+00  0.14008475432E+04  0.14008475432E+04  0.25500000920E-02 0. -1.
       -2   -1    0    0    0  501  0.00000000000E+00  0.00000000000E+00 -0.53427434473E+03  0.53427434474E+03  0.25500000920E-02 0.  1.
    10030    2    1    2    0    0  0.00000000000E+00  0.00000000000E+00  0.86657319847E+03  0.19351218879E+04  0.17302449575E+04 0.  0.
        2    1    3    3  502    0 -0.18291335246E+03 -0.16352946391E+03  0.13611199296E+04  0.13830569919E+04  0.25500000920E-02 0. -1.
       -2    1    3    3    0  502  0.18291335246E+03  0.16352946391E+03 -0.49454673118E+03  0.55206489600E+03  0.25500000920E-02 0.  1.
</event>
<event>
 5   0  0.3574092E-04  0.1712449E+04  0.7818609E-02  0.8754296E-01
       -2   -1    0    0    0  501  0.00000000000E+00  0.00000000000E+00  0.36843298930E+03  0.36843298931E+03  0.25500000920E-02 0.  1.
        2   -1    0    0  501    0  0.00000000000E+00  0.00000000000E+00 -0.19898339984E+04  0.19898339984E+04  0.25500000920E-02 0. -1.
    10030    2    1    2    0    0  0.00000000000E+00  0.00000000000E+00 -0.16214010091E+04  0.23582669877E+04  0.17124491096E+04 0.  0.
        3    1    3    3  502    0 -0.73173705762E+03 -0.18821655554E+02 -0.14224430223E+04  0.15997304580E+04  0.10100000352E+00 0. -1.
       -3    1    3    3    0  502  0.73173705762E+03  0.18821655554E+02 -0.19895798677E+03  0.75853652972E+03  0.10100000352E+00 0.  1.
</event>
<event>
 5   0  0.1824538E-04  0.1709648E+04  0.7818609E-02  0.8755881E-01
       -1   -1    0    0    0  501  0.00000000000E+00  0.00000000000E+00  0.58921233002E+03  0.58921233004E+03  0.50400001928E-02 0. -1.
        1   -1    0    0  501    0  0.00000000000E+00  0.00000000000E+00 -0.12401714059E+04  0.12401714059E+04  0.50400001928E-02 0.  1.
    10030    2    1    2    0    0  0.00000000000E+00  0.00000000000E+00 -0.65095907589E+03  0.18293837360E+04  0.17096482489E+04 0.  0.
        3    1    3    3  502    0 -0.61543363594E+03 -0.58977448661E+03 -0.25669892793E+03  0.89021730780E+03  0.10100000352E+00 0. -1.
       -3    1    3    3    0  502  0.61543363594E+03  0.58977448661E+03 -0.39426014796E+03  0.93916642816E+03  0.10100000352E+00 0.  1.
</event>
<event>
 5   0  0.1893284E-04  0.1701764E+04  0.7818609E-02  0.8760359E-01
        1   -1    0    0  501    0  0.00000000000E+00  0.00000000000E+00  0.79873293625E+03  0.79873293627E+03  0.50400001928E-02 0. -1.
       -1   -1    0    0    0  501  0.00000000000E+00  0.00000000000E+00 -0.90643533414E+03  0.90643533415E+03  0.50400001928E-02 0.  1.
    10030    2    1    2    0    0  0.00000000000E+00  0.00000000000E+00 -0.10770239789E+03  0.17051682704E+04  0.17017635041E+04 0.  0.
        2    1    3    3  502    0 -0.36832675745E+03  0.16928500951E+03  0.69576170633E+03  0.80523683889E+03  0.25500000920E-02 0. -1.
       -2    1    3    3    0  502  0.36832675745E+03 -0.16928500951E+03 -0.80346410422E+03  0.89993143154E+03  0.25500000920E-02 0.  1.
</event>
<event>
 5   0  0.3678896E-04  0.1667657E+04  0.7818609E-02  0.8780029E-01
       -2   -1    0    0    0  501  0.00000000000E+00  0.00000000000E+00  0.57950002757E+03  0.57950002757E+03  0.25500000920E-02 0.  1.
        2   -1    0    0  501    0  0.00000000000E+00  0.00000000000E+00 -0.11997751900E+04  0.11997751900E+04  0.25500000920E-02 0. -1.
    10030    2    1    2    0    0  0.00000000000E+00  0.00000000000E+00 -0.62027516242E+03  0.17792752176E+04  0.16676567461E+04 0.  0.
        2    1    3    3  502    0  0.45992337727E+03 -0.58745381583E+02 -0.10495519503E+04  0.11474056951E+04  0.25500000920E-02 0. -1.
       -2    1    3    3    0  502 -0.45992337727E+03  0.58745381583E+02  0.42927678786E+03  0.63186952246E+03  0.25500000920E-02 0.  1.
</event>
<event>
 5   0  0.1920289E-04  0.1704942E+04  0.7818609E-02  0.8758551E-01
        1   -1    0    0  501    0  0.00000000000E+00  0.00000000000E+00  0.67062112866E+03  0.67062112868E+03  0.50400001928E-02 0.  1.
       -1   -1    0    0    0  501  0.00000000000E+00  0.00000000000E+00 -0.10836326905E+04  0.10836326905E+04  0.50400001928E-02 0. -1.
    10030    2    1    2    0    0  0.00000000000E+00  0.00000000000E+00 -0.41301156186E+03  0.17542538192E+04  0.17049422020E+04 0.  0.
        4    1    3    3  502    0 -0.22765829353E+03 -0.46423464425E+03  0.49086042723E+03  0.71294296789E+03  0.12699999809E+01 0.  1.
       -4    1    3    3    0  502  0.22765829353E+03  0.46423464425E+03 -0.90387198910E+03  0.10413108513E+04  0.12699999809E+01 0. -1.
</event>
<event>
 5   0  0.3516723E-04  0.1663738E+04  0.7818609E-02  0.8782320E-01
       -2   -1    0    0    0  501  0.00000000000E+00  0.00000000000E+00  0.12756614199E+04  0.12756614199E+04  0.25500000920E-02 0.  1.
        2   -1    0    0  501    0  0.00000000000E+00  0.00000000000E+00 -0.54246847537E+03  0.54246847537E+03  0.25500000920E-02 0. -1.
    10030    2    1    2    0    0  0.00000000000E+00  0.00000000000E+00  0.73319294455E+03  0.18181298953E+04  0.16637380870E+04 0.  0.
        1    1    3    3  502    0  0.57850288354E+03  0.28427622321E+03 -0.20806112231E+03  0.67732413805E+03  0.50400001928E-02 0. -1.
       -1    1    3    3    0  502 -0.57850288354E+03 -0.28427622321E+03  0.94125406686E+03  0.11408057572E+04  0.50400001928E-02 0.  1.
</event>
<event>
 5   0  0.1920289E-04  0.1736860E+04  0.7818609E-02  0.8740616E-01
        1   -1    0    0  501    0  0.00000000000E+00  0.00000000000E+00  0.75360238837E+03  0.75360238839E+03  0.50400001928E-02 0. -1.
       -1   -1    0    0    0  501  0.00000000000E+00  0.00000000000E+00 -0.10007543119E+04  0.10007543119E+04  0.50400001928E-02 0.  1.
    10030    2    1    2    0    0  0.00000000000E+00  0.00000000000E+00 -0.24715192353E+03  0.17543567003E+04  0.17368602012E+04 0.  0.
        4    1    3    3  502    0 -0.74014059960E+03 -0.16453783755E+03  0.30411409696E+03  0.81692582530E+03  0.12699999809E+01 0. -1.
       -4    1    3    3    0  502  0.74014059960E+03  0.16453783755E+03 -0.55126602049E+03  0.93743087501E+03  0.12699999809E+01 0.  1.
</event>
<event>
 5   0  0.1824538E-04  0.1653192E+04  0.7818609E-02  0.8788520E-01
        1   -1    0    0  501    0  0.00000000000E+00  0.00000000000E+00  0.11645118312E+04  0.11645118312E+04  0.50400001928E-02 0.  1.
       -1   -1    0    0    0  501  0.00000000000E+00  0.00000000000E+00 -0.58673617706E+03  0.58673617708E+03  0.50400001928E-02 0. -1.
    10030    2    1    2    0    0  0.00000000000E+00  0.00000000000E+00  0.57777565416E+03  0.17512480083E+04  0.16531923300E+04 0.  0.
        3    1    3    3  502    0  0.11415572328E+03 -0.29376087104E+03  0.10983680456E+04  0.11426895258E+04  0.10100000352E+00 0.  1.
       -3    1    3    3    0  502 -0.11415572328E+03  0.29376087104E+03 -0.52059239141E+03  0.60855848257E+03  0.10100000352E+00 0. -1.
</event>
<event>
 5   0  0.1893284E-04  0.1702901E+04  0.7818609E-02  0.8759712E-01
       -1   -1    0    0    0  501  0.00000000000E+00  0.00000000000E+00  0.48401263064E+03  0.48401263067E+03  0.50400001928E-02 0. -1.
        1   -1    0    0  501    0  0.00000000000E+00  0.00000000000E+00 -0.14978280606E+04  0.14978280607E+04  0.50400001928E-02 0.  1.
    10030    2    1    2    0    0  0.00000000000E+00  0.00000000000E+00 -0.10138154300E+04  0.19818406913E+04  0.17029007016E+04 0.  0.
        2    1    3    3  502    0  0.17634792778E+03  0.57691395980E+03 -0.12061967377E+04  0.13486433475E+04  0.25500000920E-02 0.  1.
       -2    1    3    3    0  502 -0.17634792778E+03 -0.57691395980E+03  0.19238130773E+03  0.63319734382E+03  0.25500000920E-02 0. -1.
</event>
<event>
 5   0  0.3516723E-04  0.1702938E+04  0.7818609E-02  0.8759691E-01
        2   -1    0    0  501    0  0.00000000000E+00  0.00000000000E+00  0.14606402493E+04  0.14606402493E+04  0.25500000920E-02 0. -1.
       -2   -1    0    0    0  501  0.00000000000E+00  0.00000000000E+00 -0.49635712394E+03  0.49635712394E+03  0.25500000920E-02 0.  1.
    10030    2    1    2    0    0  0.00000000000E+00  0.00000000000E+00  0.96428312540E+03  0.19569973733E+04  0.17029376891E+04 0.  0.
        1    1    3    3  502    0  0.57047795059E+03 -0.45288667059E+02 -0.24239734394E+03  0.62149225888E+03  0.50400001928E-02 0.  1.
       -1    1    3    3    0  502 -0.57047795059E+03  0.45288667059E+02  0.12066804693E+04  0.13355051144E+04  0.50400001928E-02 0. -1.
</event>
<event>
 5   0  0.3573262E-04  0.1692910E+04  0.7818609E-02  0.8765419E-01
       -2   -1    0    0    0  501  0.00000000000E+00  0.00000000000E+00  0.69751387019E+03  0.69751387019E+03  0.25500000920E-02 0. -1.
        2   -1    0    0  501    0  0.00000000000E+00  0.00000000000E+00 -0.10271993535E+04  0.10271993535E+04  0.25500000920E-02 0.  1.
    10030    2    1    2    0    0  0.00000000000E+00  0.00000000000E+00 -0.32968548331E+03  0.17247132237E+04  0.16929096804E+04 0.  0.
        5    1    3    3  502    0  0.30639279638E+03 -0.36833405992E+03  0.54606076158E+03  0.72646470713E+03  0.46999998093E+01 0. -1.
       -5    1    3    3    0  502 -0.30639279638E+03  0.36833405992E+03 -0.87574624489E+03  0.99824851655E+03  0.46999998093E+01 0.  1.
</event>
<event>
 5   0  0.1815663E-04  0.1698774E+04  0.7818609E-02  0.8762064E-01
        1   -1    0    0  501    0  0.00000000000E+00  0.00000000000E+00  0.17650090262E+04  0.17650090262E+04  0.50400001928E-02 0. -1.
       -1   -1    0    0    0  501  0.00000000000E+00  0.00000000000E+00 -0.40875603100E+03  0.40875603103E+03  0.50400001928E-02 0.  1.
    10030    2    1    2    0    0  0.00000000000E+00  0.00000000000E+00  0.13562529952E+04  0.21737650572E+04  0.16987737745E+04 0.  0.
        5    1    3    3  502    0  0.62808820586E+03  0.42826939537E+03  0.19334823218E+03  0.78442023063E+03  0.46999998093E+01 0.  1.
       -5    1    3    3    0  502 -0.62808820586E+03 -0.42826939537E+03  0.11629047630E+04  0.13893448266E+04  0.46999998093E+01 0. -1.
</event>
<event>
 5   0  0.3605571E-04  0.1698921E+04  0.7818609E-02  0.8761980E-01
       -2   -1    0    0    0  501  0.00000000000E+00  0.00000000000E+00  0.47326419295E+03  0.47326419296E+03  0.25500000920E-02 0. -1.
        2   -1    0    0  501    0  0.00000000000E+00  0.00000000000E+00 -0.15246948999E+04  0.15246948999E+04  0.25500000920E-02 0.  1.
    10030    2    1    2    0    0  0.00000000000E+00  0.00000000000E+00 -0.10514307070E+04  0.19979590929E+04  0.16989214241E+04 0.  0.
        4    1    3    3  502    0 -0.57889804862E+03  0.30055329064E+03 -0.11656742062E+04  0.13357594091E+04  0.12699999809E+01 0.  1.
       -4    1    3    3    0  502  0.57889804862E+03 -0.30055329064E+03  0.11424349916E+03  0.66219968379E+03  0.12699999809E+01 0. -1.
</event>
<event>
 5   0  0.1930116E-04  0.1741923E+04  0.7818609E-02  0.8737809E-01
        1   -1    0    0  501    0  0.00000000000E+00  0.00000000000E+00  0.93794711643E+03  0.93794711645E+03  0.50400001928E-02 0. -1.
       -1   -1    0    0    0  501  0.00000000000E+00  0.00000000000E+00 -0.80875960263E+03  0.80875960265E+03  0.50400001928E-02 0.  1.
    10030    2    1    2    0    0  0.00000000000E+00  0.00000000000E+00  0.12918751380E+03  0.17467067191E+04  0.17419227735E+04 0.  0.
        1    1    3    3  502    0  0.29496213772E+03  0.20345509463E+03  0.86061086563E+03  0.93222727931E+03  0.50400001928E-02 0. -1.
       -1    1    3    3    0  502 -0.29496213772E+03 -0.20345509463E+03 -0.73142335183E+03  0.81447943979E+03  0.50400001928E-02 0.  1.
</event>
<event>
 5   0  0.1815663E-04  0.1699967E+04  0.7818609E-02  0.8761383E-01
        1   -1    0    0  501    0  0.00000000000E+00  0.00000000000E+00  0.76815343815E+03  0.76815343817E+03  0.50400001928E-02 0. -1.
       -1   -1    0    0    0  501  0.00000000000E+00  0.00000000000E+00 -0.94053098190E+03  0.94053098191E+03  0.50400001928E-02 0.  1.
    10030    2    1    2    0    0  0.00000000000E+00  0.00000000000E+00 -0.17237754375E+03  0.17086844201E+04  0.16999671849E+04 0.  0.
        5    1    3    3  502    0  0.43507021954E+03  0.14797688348E+02  0.64758552857E+03  0.78031671411E+03  0.46999998093E+01 0. -1.
       -5    1    3    3    0  502 -0.43507021954E+03 -0.14797688348E+02 -0.81996307232E+03  0.92836770597E+03  0.46999998093E+01 0.  1.
</event>
<event>
 5   0  0.1893284E-04  0.1652206E+04  0.7818609E-02  0.8789103E-01
       -1   -1    0    0    0  501  0.00000000000E+00  0.00000000000E+00  0.11917417252E+04  0.11917417252E+04  0.50400001928E-02 0.  1.
        1   -1    0    0  501    0  0.00000000000E+00  0.00000000000E+00 -0.57264593579E+03  0.57264593581E+03  0.50400001928E-02 0. -1.
    10030    2    1    2    0    0  0.00000000000E+00  0.00000000000E+00  0.61909578941E+03  0.17643876610E+04  0.16522058655E+04 0.  0.
        2    1    3    3  502    0  0.11412417523E+03  0.62261603060E+03 -0.25731496584E+03  0.68329059746E+03  0.25500000920E-02 0. -1.
       -2    1    3    3    0  502 -0.11412417523E+03 -0.62261603060E+03  0.87641075524E+03  0.10810970636E+04  0.25500000920E-02 0.  1.
</event>
<event>
 5   0  0.1893284E-04  0.1710066E+04  0.7818609E-02  0.8755644E-01
       -1   -1    0    0    0  501  0.00000000000E+00  0.00000000000E+00  0.13231880040E+04  0.13231880040E+04  0.50400001928E-02 0. -1.
        1   -1    0    0  501    0  0.00000000000E+00  0.00000000000E+00 -0.55251544095E+03  0.55251544097E+03  0.50400001928E-02 0.  1.
    10030    2    1    2    0    0  0.00000000000E+00  0.00000000000E+00  0.77067256304E+03  0.18757034450E+04  0.17100664356E+04 0.  0.
        2    1    3    3  502    0  0.34123679188E+03  0.75703237001E+03  0.60889466118E+03  0.10297054267E+04  0.25500000920E-02 0. -1.
       -2    1    3    3    0  502 -0.34123679188E+03 -0.75703237001E+03  0.16177790186E+03  0.84599801826E+03  0.25500000920E-02 0.  1.
</event>
<event>
 5   0  0.1815663E-04  0.1695935E+04  0.7818609E-02  0.8763686E-01
       -1   -1    0    0    0  501  0.00000000000E+00  0.00000000000E+00  0.11396043778E+04  0.11396043778E+04  0.50400001928E-02 0. -1.
        1   -1    0    0  501    0  0.00000000000E+00  0.00000000000E+00 -0.63096326097E+03  0.63096326099E+03  0.50400001928E-02 0.  1.
    10030    2    1    2    0    0  0.00000000000E+00  0.00000000000E+00  0.50864111679E+03  0.17705676388E+04  0.16959345441E+04 0.  0.
        5    1    3    3  502    0  0.57472902783E+03  0.59865300691E+03  0.72508815492E+02  0.83305371761E+03  0.46999998093E+01 0. -1.
       -5    1    3    3    0  502 -0.57472902783E+03 -0.59865300691E+03  0.43613230130E+03  0.93751392115E+03  0.46999998093E+01 0.  1.
</event>
<event>
 5   0  0.1815663E-04  0.1709846E+04  0.7818609E-02  0.8755768E-01
        1   -1    0    0  501    0  0.00000000000E+00  0.00000000000E+00  0.12049547549E+04  0.12049547549E+04  0.50400001928E-02 0. -1.
       -1   -1    0    0    0  501  0.00000000000E+00  0.00000000000E+00 -0.60657349634E+03  0.60657349636E+03  0.50400001928E-02 0.  1.
    10030    2    1    2    0    0  0.00000000000E+00  0.00000000000E+00  0.59838125852E+03  0.18115282512E+04  0.17098463306E+04 0.  0.
        5    1    3    3  502    0  0.36784225507E+03 -0.68963897894E+03  0.66614266820E+03  0.10269751654E+04  0.46999998093E+01 0. -1.
       -5    1    3    3    0  502 -0.36784225507E+03  0.68963897894E+03 -0.67761409677E+02  0.78455308586E+03  0.46999998093E+01 0.  1.
</event>
<event>
 5   0  0.1893284E-04  0.1789398E+04  0.7818609E-02  0.8711958E-01
       -1   -1    0    0    0  501  0.00000000000E+00  0.00000000000E+00  0.97593869674E+03  0.97593869675E+03  0.50400001928E-02 0.  1.
        1   -1    0    0  501    0  0.00000000000E+00  0.00000000000E+00 -0.82022210016E+03  0.82022210017E+03  0.50400001928E-02 0. -1.
    10030    2    1    2    0    0  0.00000000000E+00  0.00000000000E+00  0.15571659658E+03  0.17961607969E+04  0.17893982089E+04 0.  0.
        2    1    3    3  502    0  0.33569271357E+03  0.74475624299E+03  0.44411398962E+03  0.92983261676E+03  0.25500000920E-02 0.  1.
       -2    1    3    3    0  502 -0.33569271357E+03 -0.74475624299E+03 -0.28839739304E+03  0.86632818016E+03  0.25500000920E-02 0. -1.
</event>
<event>
 5   0  0.1893284E-04  0.1675081E+04  0.7818609E-02  0.8775705E-01
       -1   -1    0    0    0  501  0.00000000000E+00  0.00000000000E+00  0.56559955034E+03  0.56559955036E+03  0.50400001928E-02 0. -1.
        1   -1    0    0  501    0  0.00000000000E+00  0.00000000000E+00 -0.12402314394E+04  0.12402314394E+04  0.50400001928E-02 0.  1.
    10030    2    1    2    0    0  0.00000000000E+00  0.00000000000E+00 -0.67463188902E+03  0.18058309897E+04  0.16750813048E+04 0.  0.
        2    1    3    3  502    0 -0.27203181073E+03  0.12655681640E+03 -0.11803089309E+04  0.12178452718E+04  0.25500000920E-02 0.  1.
       -2    1    3    3    0  502  0.27203181073E+03 -0.12655681640E+03  0.50567704184E+03  0.58798571792E+03  0.25500000920E-02 0. -1.
</event>
<event>
 5   0  0.1317625E-04  0.1687219E+04  0.7818609E-02  0.8768687E-01
       -4   -1    0    0    0  501  0.00000000000E+00  0.00000000000E+00  0.62280651837E+03  0.62280781323E+03  0.12699999809E+01 0. -1.
        4   -1    0    0  501    0  0.00000000000E+00  0.00000000000E+00 -0.11426909926E+04  0.11426916984E+04  0.12699999809E+01 0.  1.
    10030    2    1    2    0    0  0.00000000000E+00  0.00000000000E+00 -0.51988447425E+03  0.17654995116E+04  0.16872192089E+04 0.  0.
        3    1    3    3  502    0 -0.20175669421E+03  0.18477554574E+03 -0.10949829286E+04  0.11286431633E+04  0.10100000352E+00 0.  1.
       -3    1    3    3    0  502  0.20175669421E+03 -0.18477554574E+03  0.57509845434E+03  0.63685634829E+03  0.10100000352E+00 0. -1.
</event>
<event>
 5   0  0.3516723E-04  0.1690966E+04  0.7818609E-02  0.8766534E-01
        2   -1    0    0  501    0  0.00000000000E+00  0.00000000000E+00  0.84170961238E+03  0.84170961239E+03  0.25500000920E-02 0.  1.
       -2   -1    0    0    0  501  0.00000000000E+00  0.00000000000E+00 -0.84927281590E+03  0.84927281590E+03  0.25500000920E-02 0. -1.
    10030    2    1    2    0    0  0.00000000000E+00  0.00000000000E+00 -0.75632035148E+01  0.16909824283E+04  0.16909655144E+04 0.  0.
        1    1    3    3  502    0 -0.42399470612E+03 -0.65446309302E+03 -0.33050744588E+03  0.84695255047E+03  0.50400001928E-02 0. -1.
       -1    1    3    3    0  502  0.42399470612E+03  0.65446309302E+03  0.32294424237E+03  0.84402987782E+03  0.50400001928E-02 0.  1.
</event>
<event>
 5   0  0.1815663E-04  0.1695043E+04  0.7818609E-02  0.8764196E-01
        1   -1    0    0  501    0  0.00000000000E+00  0.00000000000E+00  0.10070379170E+04  0.10070379170E+04  0.50400001928E-02 0. -1.
       -1   -1    0    0    0  501  0.00000000000E+00  0.00000000000E+00 -0.71327300197E+03  0.71327300198E+03  0.50400001928E-02 0.  1.
    10030    2    1    2    0    0  0.00000000000E+00  0.00000000000E+00  0.29376491506E+03  0.17203109190E+04  0.16950433130E+04 0.  0.
        5    1    3    3  502    0 -0.17081080682E+03  0.66320671240E+03 -0.35981058730E+03  0.77363119368E+03  0.46999998093E+01 0.  1.
       -5    1    3    3    0  502  0.17081080682E+03 -0.66320671240E+03  0.65357550236E+03  0.94667972535E+03  0.46999998093E+01 0. -1.
</event>
<event>
 5   0  0.1893284E-04  0.1720425E+04  0.7818609E-02  0.8749800E-01
       -1   -1    0    0    0  501  0.00000000000E+00  0.00000000000E+00  0.79512261185E+03  0.79512261186E+03  0.50400001928E-02 0. -1.
        1   -1    0    0  501    0  0.00000000000E+00  0.00000000000E+00 -0.93063105956E+03  0.93063105957E+03  0.50400001928E-02 0.  1.
    10030    2    1    2    0    0  0.00000000000E+00  0.00000000000E+00 -0.13550844771E+03  0.17257536714E+04  0.17204252948E+04 0.  0.
        2    1    3    3  502    0 -0.78207771944E+03  0.33223776134E+03 -0.20210300873E+03  0.87342607898E+03  0.25500000920E-02 0.  1.
       -2    1    3    3    0  502  0.78207771944E+03 -0.33223776134E+03  0.66594561021E+02  0.85232759246E+03  0.25500000920E-02 0. -1.
</event>
<event>
 5   0  0.1930116E-04  0.1689324E+04  0.7818609E-02  0.8767477E-01
       -1   -1    0    0    0  501  0.00000000000E+00  0.00000000000E+00  0.47854624837E+03  0.47854624840E+03  0.50400001928E-02 0. -1.
        1   -1    0    0  501    0  0.00000000000E+00  0.00000000000E+00 -0.14908780618E+04  0.14908780618E+04  0.50400001928E-02 0.  1.
    10030    2    1    2    0    0  0.00000000000E+00  0.00000000000E+00 -0.10123318134E+04  0.19694243102E+04  0.16893242475E+04 0.  0.
        1    1    3    3  502    0 -0.75580023855E+03 -0.37555699111E+03 -0.46616926141E+03  0.96415291032E+03  0.50400001928E-02 0. -1.
       -1    1    3    3    0  502  0.75580023855E+03  0.37555699111E+03 -0.54616255198E+03  0.10052713999E+04  0.50400001928E-02 0.  1.
</event>
<event>
 5   0  0.3573262E-04  0.1705583E+04  0.7818609E-02  0.8758186E-01
        2   -1    0    0  501    0  0.00000000000E+00  0.00000000000E+00  0.13003496077E+04  0.13003496078E+04  0.25500000920E-02 0. -1.
       -2   -1    0    0    0  501  0.00000000000E+00  0.00000000000E+00 -0.55927556934E+03  0.55927556935E+03  0.25500000920E-02 0.  1.
    10030    2    1    2    0    0  0.00000000000E+00  0.00000000000E+00  0.74107403841E+03  0.18596251771E+04  0.17055834981E+04 0.  0.
        5    1    3    3  502    0  0.51576002255E+03  0.54471366928E+03  0.81276780468E+03  0.11060447444E+04  0.46999998093E+01 0. -1.
       -5    1    3    3    0  502 -0.51576002255E+03 -0.54471366928E+03 -0.71693766274E+02  0.75358043266E+03  0.46999998093E+01 0.  1.
</event>
<event>
 5   0  0.3573262E-04  0.1710853E+04  0.7818609E-02  0.8755198E-01
       -2   -1    0    0    0  501  0.00000000000E+00  0.00000000000E+00  0.46534940260E+03  0.46534940261E+03  0.25500000920E-02 0.  1.
        2   -1    0    0  501    0  0.00000000000E+00  0.00000000000E+00 -0.15724846667E+04  0.15724846667E+04  0.25500000920E-02 0. -1.
    10030    2    1    2    0    0  0.00000000000E+00  0.00000000000E+00 -0.11071352641E+04  0.20378340693E+04  0.17108533546E+04 0.  0.
        5    1    3    3  502    0  0.84703364317E+03 -0.11420616976E+03 -0.51190104766E+03  0.99627998799E+03  0.46999998093E+01 0. -1.
       -5    1    3    3    0  502 -0.84703364317E+03  0.11420616976E+03 -0.59523421644E+03  0.10415540813E+04  0.46999998093E+01 0.  1.
</event>
<event>
 5   0  0.3605571E-04  0.1706128E+04  0.7818609E-02  0.8757877E-01
        2   -1    0    0  501    0  0.00000000000E+00  0.00000000000E+00  0.86044610787E+03  0.86044610787E+03  0.25500000920E-02 0. -1.
       -2   -1    0    0    0  501  0.00000000000E+00  0.00000000000E+00 -0.84574514942E+03  0.84574514942E+03  0.25500000920E-02 0.  1.
    10030    2    1    2    0    0  0.00000000000E+00  0.00000000000E+00  0.14700958453E+02  0.17061912573E+04  0.17061279226E+04 0.  0.
        4    1    3    3  502    0 -0.75192082955E+03 -0.16681580220E+03 -0.35941109139E+03  0.84993552184E+03  0.12699999809E+01 0.  1.
       -4    1    3    3    0  502  0.75192082955E+03  0.16681580220E+03  0.37411204984E+03  0.85625573546E+03  0.12699999809E+01 0. -1.
</event>
<event>
 5   0  0.1815663E-04  0.1702355E+04  0.7818609E-02  0.8760022E-01
        1   -1    0    0  501    0  0.00000000000E+00  0.00000000000E+00  0.20450682420E+04  0.20450682420E+04  0.50400001928E-02 0. -1.
       -1   -1    0    0    0  501  0.00000000000E+00  0.00000000000E+00 -0.35426835244E+03  0.35426835247E+03  0.50400001928E-02 0.  1.
    10030    2    1    2    0    0  0.00000000000E+00  0.00000000000E+00  0.16907998896E+04  0.23993365945E+04  0.17023547889E+04 0.  0.
        5    1    3    3  502    0  0.59459121372E+03  0.33724606677E+03  0.15601969111E+04  0.17033819631E+04  0.46999998093E+01 0. -1.
       -5    1    3    3    0  502 -0.59459121372E+03 -0.33724606677E+03  0.13060297854E+03  0.69595463141E+03  0.46999998093E+01 0.  1.
</event>
<event>
 5   0  0.3678896E-04  0.1697183E+04  0.7818609E-02  0.8762972E-01
       -2   -1    0    0    0  501  0.00000000000E+00  0.00000000000E+00  0.10559205870E+04  0.10559205870E+04  0.25500000920E-02 0.  1.
        2   -1    0    0  501    0  0.00000000000E+00  0.00000000000E+00 -0.68197158938E+03  0.68197158939E+03  0.25500000920E-02 0. -1.
    10030    2    1    2    0    0  0.00000000000E+00  0.00000000000E+00  0.37394899765E+03  0.17378921764E+04  0.16971833619E+04 0.  0.
        2    1    3    3  502    0  0.30077898416E+03 -0.64291431467E+03 -0.28926274266E+03  0.76647227452E+03  0.25500000920E-02 0. -1.
       -2    1    3    3    0  502 -0.30077898416E+03  0.64291431467E+03  0.66321174031E+03  0.97141990190E+03  0.25500000920E-02 0.  1.
</event>
<event>
 5   0  0.1893284E-04  0.1686760E+04  0.7818609E-02  0.8768952E-01
        1   -1    0    0  501    0  0.00000000000E+00  0.00000000000E+00  0.76297630254E+03  0.76297630255E+03  0.50400001928E-02 0.  1.
       -1   -1    0    0    0  501  0.00000000000E+00  0.00000000000E+00 -0.93225721059E+03  0.93225721060E+03  0.50400001928E-02 0. -1.
    10030    2    1    2    0    0  0.00000000000E+00  0.00000000000E+00 -0.16928090805E+03  0.16952335132E+04  0.16867603974E+04 0.  0.
        2    1    3    3  502    0  0.66761501750E+03 -0.50136634565E+03  0.35173058923E+02  0.83565254037E+03  0.25500000920E-02 0.  1.
       -2    1    3    3    0  502 -0.66761501750E+03  0.50136634565E+03 -0.20445396697E+03  0.85958097278E+03  0.25500000920E-02 0. -1.
</event>
<event>
 5   0  0.3678896E-04  0.1704342E+04  0.7818609E-02  0.8758892E-01
        2   -1    0    0  501    0  0.00000000000E+00  0.00000000000E+00  0.96934265668E+03  0.96934265669E+03  0.25500000920E-02 0.  1.
       -2   -1    0    0    0  501  0.00000000000E+00  0.00000000000E+00 -0.74916285954E+03  0.74916285954E+03  0.25500000920E-02 0. -1.
    10030    2    1    2    0    0  0.00000000000E+00  0.00000000000E+00  0.22017979715E+03  0.17185055162E+04  0.17043421212E+04 0.  0.
        2    1    3    3  502    0 -0.39164041521E+03 -0.31082101236E+03  0.80589961708E+03  0.94840187124E+03  0.25500000920E-02 0.  1.
       -2    1    3    3    0  502  0.39164041521E+03  0.31082101236E+03 -0.58571981993E+03  0.77010364499E+03  0.25500000920E-02 0. -1.
</event>
<event>
 5   0  0.1815663E-04  0.1698177E+04  0.7818609E-02  0.8762405E-01
        1   -1    0    0  501    0  0.00000000000E+00  0.00000000000E+00  0.52932602755E+03  0.52932602757E+03  0.50400001928E-02 0.  1.
       -1   -1    0    0    0  501  0.00000000000E+00  0.00000000000E+00 -0.13620168239E+04  0.13620168239E+04  0.50400001928E-02 0. -1.
    10030    2    1    2    0    0  0.00000000000E+00  0.00000000000E+00 -0.83269079638E+03  0.18913428515E+04  0.16981766161E+04 0.  0.
        5    1    3    3  502    0 -0.13333196225E+03 -0.64837575762E+03  0.17589311439E+03  0.68492993286E+03  0.46999998093E+01 0.  1.
       -5    1    3    3    0  502  0.13333196225E+03  0.64837575762E+03 -0.10085839108E+04  0.12064129187E+04  0.46999998093E+01 0. -1.
</event>
<event>
 5   0  0.3605571E-04  0.1688113E+04  0.7818609E-02  0.8768173E-01
       -2   -1    0    0    0  501  0.00000000000E+00  0.00000000000E+00  0.99995920638E+03  0.99995920638E+03  0.25500000920E-02 0.  1.
        2   -1    0    0  501    0  0.00000000000E+00  0.00000000000E+00 -0.71246002226E+03  0.71246002227E+03  0.25500000920E-02 0. -1.
    10030    2    1    2    0    0  0.00000000000E+00  0.00000000000E+00  0.28749918412E+03  0.17124192286E+04  0.16881125063E+04 0.  0.
        4    1    3    3  502    0 -0.51701051067E+03  0.19975115861E+03  0.78949145420E+03  0.96462363784E+03  0.12699999809E+01 0. -1.
       -4    1    3    3    0  502  0.51701051067E+03 -0.19975115861E+03 -0.50199227009E+03  0.74779559081E+03  0.12699999809E+01 0.  1.
</event>
<event>
 5   0  0.1930116E-04  0.1692485E+04  0.7818609E-02  0.8765662E-01
        1   -1    0    0  501    0  0.00000000000E+00  0.00000000000E+00  0.21612031942E+03  0.21612031948E+03  0.50400001928E-02 0. -1.
       -1   -1    0    0    0  501  0.00000000000E+00  0.00000000000E+00 -0.33135551989E+04  0.33135551989E+04  0.50400001928E-02 0.  1.
    10030    2    1    2    0    0  0.00000000000E+00  0.00000000000E+00 -0.30974348795E+04  0.35296755184E+04  0.16924852828E+04 0.  0.
        1    1    3    3  502    0 -0.77191427586E+03  0.21047834144E+03 -0.21235506916E+04  0.22692774889E+04  0.50400001928E-02 0. -1.
       -1    1    3    3    0  502  0.77191427586E+03 -0.21047834144E+03 -0.97388418787E+03  0.12603980295E+04  0.50400001928E-02 0.  1.
</event>
<event>
 5   0  0.1815663E-04  0.1711927E+04  0.7818609E-02  0.8754591E-01
       -1   -1    0    0    0  501  0.00000000000E+00  0.00000000000E+00  0.92750153276E+03  0.92750153278E+03  0.50400001928E-02 0. -1.
        1   -1    0    0  501    0  0.00000000000E+00  0.00000000000E+00 -0.78994287457E+03  0.78994287459E+03  0.50400001928E-02 0.  1.
    10030    2    1    2    0    0  0.00000000000E+00  0.00000000000E+00  0.13755865820E+03  0.17174444074E+04  0.17119266655E+04 0.  0.
        5    1    3    3  502    0  0.31052846743E+03 -0.42649741720E+02 -0.73028281952E+03  0.79472134490E+03  0.46999998093E+01 0.  1.
       -5    1    3    3    0  502 -0.31052846743E+03  0.42649741720E+02  0.86784147772E+03  0.92272306246E+03  0.46999998093E+01 0. -1.
</event>
<event>
 5   0  0.1930116E-04  0.1691369E+04  0.7818609E-02  0.8766302E-01
       -1   -1    0    0    0  501  0.00000000000E+00  0.00000000000E+00  0.32051779800E+03  0.32051779803E+03  0.50400001928E-02 0.  1.
        1   -1    0    0  501    0  0.00000000000E+00  0.00000000000E+00 -0.22313340615E+04  0.22313340615E+04  0.50400001928E-02 0. -1.
    10030    2    1    2    0    0  0.00000000000E+00  0.00000000000E+00 -0.19108162635E+04  0.25518518595E+04  0.16913690077E+04 0.  0.
        1    1    3    3  502    0  0.77675381622E+03  0.82991622192E+01 -0.45100971070E+03  0.89823444950E+03  0.50400001928E-02 0. -1.
       -1    1    3    3    0  502 -0.77675381622E+03 -0.82991622192E+01 -0.14598065528E+04  0.16536174100E+04  0.50400001928E-02 0.  1.
</event>
<event>
 5   0  0.3678896E-04  0.1684997E+04  0.7818609E-02  0.8769967E-01
        2   -1    0    0  501    0  0.00000000000E+00  0.00000000000E+00  0.48466109239E+03  0.48466109240E+03  0.25500000920E-02 0. -1.
       -2   -1    0    0    0  501  0.00000000000E+00  0.00000000000E+00 -0.14645367327E+04  0.14645367327E+04  0.25500000920E-02 0.  1.
    10030    2    1    2    0    0  0.00000000000E+00  0.00000000000E+00 -0.97987564036E+03  0.19491978251E+04  0.16849972970E+04 0.  0.
        2    1    3    3  502    0 -0.72612926024E+03  0.32238613337E+03 -0.81426889919E+03  0.11376424578E+04  0.25500000920E-02 0.  1.
       -2    1    3    3    0  502  0.72612926024E+03 -0.32238613337E+03 -0.16560674117E+03  0.81155536736E+03  0.25500000920E-02 0. -1.
</event>
<event>
 5   0  0.3574092E-04  0.1657284E+04  0.7818609E-02  0.8786109E-01
        2   -1    0    0  501    0  0.00000000000E+00  0.00000000000E+00  0.70173863124E+03  0.70173863124E+03  0.25500000920E-02 0.  1.
       -2   -1    0    0    0  501  0.00000000000E+00  0.00000000000E+00 -0.97849508710E+03  0.97849508711E+03  0.25500000920E-02 0. -1.
    10030    2    1    2    0    0  0.00000000000E+00  0.00000000000E+00 -0.27675645587E+03  0.16802337184E+04  0.16572842884E+04 0.  0.
        3    1    3    3  502    0 -0.27416870052E+03  0.65178602507E+03 -0.57639594306E+03  0.91226410222E+03  0.10100000352E+00 0. -1.
       -3    1    3    3    0  502  0.27416870052E+03 -0.65178602507E+03  0.29963948720E+03  0.76796961613E+03  0.10100000352E+00 0.  1.
</event>
<event>
 5   0  0.1815663E-04  0.1708940E+04  0.7818609E-02  0.8756282E-01
        1   -1    0    0  501    0  0.00000000000E+00  0.00000000000E+00  0.12484571745E+04  0.12484571745E+04  0.50400001928E-02 0. -1.
       -1   -1    0    0    0  501  0.00000000000E+00  0.00000000000E+00 -0.58481698597E+03  0.58481698599E+03  0.50400001928E-02 0.  1.
    10030    2    1    2    0    0  0.00000000000E+00  0.00000000000E+00  0.66364018850E+03  0.18332741605E+04  0.17089399778E+04 0.  0.
        5    1    3    3  502    0  0.51649191262E+03  0.39282075038E+03  0.92816470490E+03  0.11325121841E+04  0.46999998093E+01 0. -1.
       -5    1    3    3    0  502 -0.51649191262E+03 -0.39282075038E+03 -0.26452451640E+03  0.70076197636E+03  0.46999998093E+01 0.  1.
</event>
<event>
 5   0  0.3573262E-04  0.1699057E+04  0.7818609E-02  0.8761902E-01
        2   -1    0    0  501    0  0.00000000000E+00  0.00000000000E+00  0.82365377476E+03  0.82365377477E+03  0.25500000920E-02 0. -1.
       -2   -1    0    0    0  501  0.00000000000E+00  0.00000000000E+00 -0.87621603463E+03  0.87621603464E+03  0.25500000920E-02 0.  1.
    10030    2    1    2    0    0  0.00000000000E+00  0.00000000000E+00 -0.52562259872E+02  0.16998698094E+04  0.16990569672E+04 0.  0.
        5    1    3    3  502    0  0.42172927182E+03  0.66351435616E+03  0.29569526003E+03  0.83997896185E+03  0.46999998093E+01 0.  1.
       -5    1    3    3    0  502 -0.42172927182E+03 -0.66351435616E+03 -0.34825751990E+03  0.85989084756E+03  0.46999998093E+01 0. -1.
</event>
<event>
 5   0  0.3573262E-04  0.1703890E+04  0.7818609E-02  0.8759149E-01
        2   -1    0    0  501    0  0.00000000000E+00  0.00000000000E+00  0.24774002141E+03  0.24774002142E+03  0.25500000920E-02 0. -1.
       -2   -1    0    0    0  501  0.00000000000E+00  0.00000000000E+00 -0.29297245447E+04  0.29297245447E+04  0.25500000920E-02 0.  1.
    10030    2    1    2    0    0  0.00000000000E+00  0.00000000000E+00 -0.26819845233E+04  0.31774645661E+04  0.17038896930E+04 0.  0.
        5    1    3    3  502    0 -0.62838656710E+03 -0.31287297918E+03 -0.44078192466E+03  0.82889684154E+03  0.46999998093E+01 0. -1.
       -5    1    3    3    0  502  0.62838656710E+03  0.31287297918E+03 -0.22412025986E+04  0.23485677246E+04  0.46999998093E+01 0.  1.
</event>
<event>
 5   0  0.3573262E-04  0.1712783E+04  0.7818609E-02  0.8754107E-01
       -2   -1    0    0    0  501  0.00000000000E+00  0.00000000000E+00  0.78370072478E+03  0.78370072479E+03  0.25500000920E-02 0. -1.
        2   -1    0    0  501    0  0.00000000000E+00  0.00000000000E+00 -0.93582451833E+03  0.93582451833E+03  0.25500000920E-02 0.  1.
    10030    2    1    2    0    0  0.00000000000E+00  0.00000000000E+00 -0.15212379354E+03  0.17195252431E+04  0.17127829440E+04 0.  0.
        5    1    3    3  502    0  0.80009539196E+03  0.22874929543E+03 -0.27910885065E+03  0.87772587799E+03  0.46999998093E+01 0.  1.
       -5    1    3    3    0  502 -0.80009539196E+03 -0.22874929543E+03  0.12698505711E+03  0.84179936512E+03  0.46999998093E+01 0. -1.
</event>
<event>
 5   0  0.1930116E-04  0.1715293E+04  0.7818609E-02  0.8752690E-01
        1   -1    0    0  501    0  0.00000000000E+00  0.00000000000E+00  0.15078540330E+04  0.15078540331E+04  0.50400001928E-02 0. -1.
       -1   -1    0    0    0  501  0.00000000000E+00  0.00000000000E+00 -0.48781767101E+03  0.48781767104E+03  0.50400001928E-02 0.  1.
    10030    2    1    2    0    0  0.00000000000E+00  0.00000000000E+00  0.10200363620E+04  0.19956717041E+04  0.17152933774E+04 0.  0.
        1    1    3    3  502    0 -0.11839454378E+03  0.79937745217E+03  0.17576689174E+03  0.82699188586E+03  0.50400001928E-02 0. -1.
       -1    1    3    3    0  502  0.11839454378E+03 -0.79937745217E+03  0.84426947030E+03  0.11686798182E+04  0.50400001928E-02 0.  1.
</event>
<event>
 5   0  0.3605571E-04  0.1681870E+04  0.7818609E-02  0.8771773E-01
       -2   -1    0    0    0  501  0.00000000000E+00  0.00000000000E+00  0.61748283844E+03  0.61748283845E+03  0.25500000920E-02 0. -1.
        2   -1    0    0  501    0  0.00000000000E+00  0.00000000000E+00 -0.11452493246E+04  0.11452493246E+04  0.25500000920E-02 0.  1.
    10030    2    1    2    0    0  0.00000000000E+00  0.00000000000E+00 -0.52776648618E+03  0.17627321631E+04  0.16818701540E+04 0.  0.
        4    1    3    3  502    0 -0.38239516824E+03 -0.85781396548E+01 -0.10488028545E+04  0.11163730065E+04  0.12699999809E+01 0.  1.
       -4    1    3    3    0  502  0.38239516824E+03  0.85781396548E+01  0.52103636835E+03  0.64635915652E+03  0.12699999809E+01 0. -1.
</event>
<event>
 5   0  0.1930116E-04  0.1687239E+04  0.7818609E-02  0.8768676E-01
        1   -1    0    0  501    0  0.00000000000E+00  0.00000000000E+00  0.47787629815E+03  0.47787629817E+03  0.50400001928E-02 0. -1.
       -1   -1    0    0    0  501  0.00000000000E+00  0.00000000000E+00 -0.14892841474E+04  0.14892841474E+04  0.50400001928E-02 0.  1.
    10030    2    1    2    0    0  0.00000000000E+00  0.00000000000E+00 -0.10114078493E+04  0.19671604456E+04  0.16872386853E+04 0.  0.
        1    1    3    3  502    0 -0.82936058137E+03 -0.15390266529E+03 -0.49056550993E+03  0.97579686609E+03  0.50400001928E-02 0.  1.
       -1    1    3    3    0  502  0.82936058137E+03  0.15390266529E+03 -0.52084233936E+03  0.99136357953E+03  0.50400001928E-02 0. -1.
</event>
<event>
 5   0  0.1824538E-04  0.1717434E+04  0.7818609E-02  0.8751483E-01
       -1   -1    0    0    0  501  0.00000000000E+00  0.00000000000E+00  0.47300854069E+03  0.47300854071E+03  0.50400001928E-02 0. -1.
        1   -1    0    0  501    0  0.00000000000E+00  0.00000000000E+00 -0.15589464755E+04  0.15589464756E+04  0.50400001928E-02 0.  1.
    10030    2    1    2    0    0  0.00000000000E+00  0.00000000000E+00 -0.10859379349E+04  0.20319550163E+04  0.17174341297E+04 0.  0.
        3    1    3    3  502    0 -0.44474426466E+03  0.51030865105E+03  0.82172314849E+02  0.68188318634E+03  0.10100000352E+00 0. -1.
       -3    1    3    3    0  502  0.44474426466E+03 -0.51030865105E+03 -0.11681102497E+04  0.13500718299E+04  0.10100000352E+00 0.  1.
</event>
<event>
 5   0  0.1893284E-04  0.1772166E+04  0.7818609E-02  0.8721243E-01
        1   -1    0    0  501    0  0.00000000000E+00  0.00000000000E+00  0.18118948221E+04  0.18118948221E+04  0.50400001928E-02 0.  1.
       -1   -1    0    0    0  501  0.00000000000E+00  0.00000000000E+00 -0.43332700562E+03  0.43332700565E+03  0.50400001928E-02 0. -1.
    10030    2    1    2    0    0  0.00000000000E+00  0.00000000000E+00  0.13785678165E+04  0.22452218278E+04  0.17721658588E+04 0.  0.
        2    1    3    3  502    0  0.46603949537E+03 -0.47421114449E+03  0.14313605360E+04  0.15782464968E+04  0.25500000920E-02 0.  1.
       -2    1    3    3    0  502 -0.46603949537E+03  0.47421114449E+03 -0.52792719509E+02  0.66697533091E+03  0.25500000920E-02 0. -1.
</event>
<event>
 5   0  0.3605571E-04  0.1698860E+04  0.7818609E-02  0.8762015E-01
        2   -1    0    0  501    0  0.00000000000E+00  0.00000000000E+00  0.98566143373E+03  0.98566143374E+03  0.25500000920E-02 0.  1.
       -2   -1    0    0    0  501  0.00000000000E+00  0.00000000000E+00 -0.73202764431E+03  0.73202764431E+03  0.25500000920E-02 0. -1.
    10030    2    1    2    0    0  0.00000000000E+00  0.00000000000E+00  0.25363378943E+03  0.17176890780E+04  0.16988601089E+04 0.  0.
        4    1    3    3  502    0  0.67490404093E+03 -0.19723848273E+03  0.60868196806E+03  0.92999668530E+03  0.12699999809E+01 0.  1.
       -4    1    3    3    0  502 -0.67490404093E+03  0.19723848273E+03 -0.35504817863E+03  0.78769239274E+03  0.12699999809E+01 0. -1.
</event>
<event>
 5   0  0.1920289E-04  0.1725342E+04  0.7818609E-02  0.8747041E-01
       -1   -1    0    0    0  501  0.00000000000E+00  0.00000000000E+00  0.59682055503E+03  0.59682055505E+03  0.50400001928E-02 0. -1.
        1   -1    0    0  501    0  0.00000000000E+00  0.00000000000E+00 -0.12469432728E+04  0.12469432729E+04  0.50400001928E-02 0.  1.
    10030    2    1    2    0    0  0.00000000000E+00  0.00000000000E+00 -0.65012271782E+03  0.18437638279E+04  0.17253421414E+04 0.  0.
        4    1    3    3  502    0  0.20497132202E+03  0.44691791991E+03 -0.10825513029E+04  0.11889776307E+04  0.12699999809E+01 0.  1.
       -4    1    3    3    0  502 -0.20497132202E+03 -0.44691791991E+03  0.43242858507E+03  0.65478619722E+03  0.12699999809E+01 0. -1.
</event>
<event>
 5   0  0.1824538E-04  0.1658378E+04  0.7818609E-02  0.8785466E-01
       -1   -1    0    0    0  501  0.00000000000E+00  0.00000000000E+00  0.15270110525E+04  0.15270110525E+04  0.50400001928E-02 0. -1.
        1   -1    0    0  501    0  0.00000000000E+00  0.00000000000E+00 -0.45026144577E+03  0.45026144580E+03  0.50400001928E-02 0.  1.
    10030    2    1    2    0    0  0.00000000000E+00  0.00000000000E+00  0.10767496067E+04  0.19772724983E+04  0.16583777667E+04 0.  0.
        3    1    3    3  502    0 -0.41689892157E+03  0.34249570070E+03  0.12890899475E+04  0.13974480022E+04  0.10100000352E+00 0. -1.
       -3    1    3    3    0  502  0.41689892157E+03 -0.34249570070E+03 -0.21234034077E+03  0.57982449614E+03  0.10100000352E+00 0.  1.
</event>
<event>
 5   0  0.3516723E-04  0.1767232E+04  0.7818609E-02  0.8723922E-01
       -2   -1    0    0    0  501  0.00000000000E+00  0.00000000000E+00  0.57607529529E+03  0.57607529530E+03  0.25500000920E-02 0. -1.
        2   -1    0    0  501    0  0.00000000000E+00  0.00000000000E+00 -0.13553381124E+04  0.13553381124E+04  0.25500000920E-02 0.  1.
    10030    2    1    2    0    0  0.00000000000E+00  0.00000000000E+00 -0.77926281707E+03  0.19314134077E+04  0.17672315109E+04 0.  0.
        1    1    3    3  502    0 -0.47447513530E+03  0.73695652274E+03 -0.51204260947E+03  0.10150956627E+04  0.50400001928E-02 0. -1.
       -1    1    3    3    0  502  0.47447513530E+03 -0.73695652274E+03 -0.26722020760E+03  0.91631774500E+03  0.50400001928E-02 0.  1.
</event>
<event>
 5   0  0.3573262E-04  0.1700062E+04  0.7818609E-02  0.8761329E-01
       -2   -1    0    0    0  501  0.00000000000E+00  0.00000000000E+00  0.54573149690E+03  0.54573149690E+03  0.25500000920E-02 0. -1.
        2   -1    0    0  501    0  0.00000000000E+00  0.00000000000E+00 -0.13240078476E+04  0.13240078476E+04  0.25500000920E-02 0.  1.
    10030    2    1    2    0    0  0.00000000000E+00  0.00000000000E+00 -0.77827635073E+03  0.18697393445E+04  0.17000620984E+04 0.  0.
        5    1    3    3  502    0  0.35267041807E+03  0.68625135305E+03 -0.78140594716E+03  0.10981505760E+04  0.46999998093E+01 0.  1.
       -5    1    3    3    0  502 -0.35267041807E+03 -0.68625135305E+03  0.31295964293E+01  0.77158876852E+03  0.46999998093E+01 0. -1.
</event>
<event>
 5   0  0.1920289E-04  0.1688388E+04  0.7818609E-02  0.8768015E-01
        1   -1    0    0  501    0  0.00000000000E+00  0.00000000000E+00  0.10653419970E+04  0.10653419970E+04  0.50400001928E-02 0. -1.
       -1   -1    0    0    0  501  0.00000000000E+00  0.00000000000E+00 -0.66895241281E+03  0.66895241283E+03  0.50400001928E-02 0.  1.
    10030    2    1    2    0    0  0.00000000000E+00  0.00000000000E+00  0.39638958418E+03  0.17342944098E+04  0.16883875140E+04 0.  0.
        4    1    3    3  502    0 -0.69590739863E+03  0.36732173248E+03  0.51220105441E+03  0.93891634113E+03  0.12699999809E+01 0. -1.
       -4    1    3    3    0  502  0.69590739863E+03 -0.36732173248E+03 -0.11581147023E+03  0.79537806869E+03  0.12699999809E+01 0.  1.
</event>
<event>
 5   0  0.3605571E-04  0.1724222E+04  0.7818609E-02  0.8747669E-01
       -2   -1    0    0    0  501  0.00000000000E+00  0.00000000000E+00  0.12418077076E+04  0.12418077076E+04  0.25500000920E-02 0.  1.
        2   -1    0    0  501    0  0.00000000000E+00  0.00000000000E+00 -0.59851077325E+03  0.59851077326E+03  0.25500000920E-02 0. -1.
    10030    2    1    2    0    0  0.00000000000E+00  0.00000000000E+00  0.64329693433E+03  0.18403184808E+04  0.17242219014E+04 0.  0.
        4    1    3    3  502    0  0.31842500513E+03  0.82261256659E+02  0.11722211067E+04  0.12174831966E+04  0.12699999809E+01 0.  1.
       -4    1    3    3    0  502 -0.31842500513E+03 -0.82261256659E+02 -0.52892417236E+03  0.62283528420E+03  0.12699999809E+01 0. -1.
</event>
<event>
 5   0  0.3678896E-04  0.1699426E+04  0.7818609E-02  0.8761692E-01
        2   -1    0    0  501    0  0.00000000000E+00  0.00000000000E+00  0.14195084031E+04  0.14195084031E+04  0.25500000920E-02 0. -1.
       -2   -1    0    0    0  501  0.00000000000E+00  0.00000000000E+00 -0.50863549463E+03  0.50863549463E+03  0.25500000920E-02 0.  1.
    10030    2    1    2    0    0  0.00000000000E+00  0.00000000000E+00  0.91087290846E+03  0.19281438977E+04  0.16994262076E+04 0.  0.
        2    1    3    3  502    0  0.33773831487E+03  0.36229067561E+03  0.12387857373E+04  0.13341333538E+04  0.25500000920E-02 0. -1.
       -2    1    3    3    0  502 -0.33773831487E+03 -0.36229067561E+03 -0.32791282880E+03  0.59401054389E+03  0.25500000920E-02 0.  1.
</event>
<event>
 5   0  0.1930116E-04  0.1699226E+04  0.7818609E-02  0.8761806E-01
        1   -1    0    0  501    0  0.00000000000E+00  0.00000000000E+00  0.12211508728E+04  0.12211508729E+04  0.50400001928E-02 0.  1.
       -1   -1    0    0    0  501  0.00000000000E+00  0.00000000000E+00 -0.59111645389E+03  0.59111645391E+03  0.50400001928E-02 0. -1.
    10030    2    1    2    0    0  0.00000000000E+00  0.00000000000E+00  0.63003441896E+03  0.18122673268E+04  0.16992261458E+04 0.  0.
        1    1    3    3  502    0 -0.16297702625E+02 -0.72486363803E+02 -0.58764522850E+03  0.59232322481E+03  0.50400001928E-02 0. -1.
       -1    1    3    3    0  502  0.16297702625E+02  0.72486363803E+02  0.12176796475E+04  0.12199441020E+04  0.50400001928E-02 0.  1.
</event>
<event>
 5   0  0.3678896E-04  0.1706162E+04  0.7818609E-02  0.8757858E-01
        2   -1    0    0  501    0  0.00000000000E+00  0.00000000000E+00  0.78033641486E+03  0.78033641486E+03  0.25500000920E-02 0. -1.
       -2   -1    0    0    0  501  0.00000000000E+00  0.00000000000E+00 -0.93260692313E+03  0.93260692314E+03  0.25500000920E-02 0.  1.
    10030    2    1    2    0    0  0.00000000000E+00  0.00000000000E+00 -0.15227050828E+03  0.17129433380E+04  0.17061619418E+04 0.  0.
        2    1    3    3  502    0  0.63676001704E+03  0.19580499322E+03  0.45884686860E+03  0.80891492971E+03  0.25500000920E-02 0. -1.
       -2    1    3    3    0  502 -0.63676001704E+03 -0.19580499322E+03 -0.61111737688E+03  0.90402840829E+03  0.25500000920E-02 0.  1.
</event>
<event>
 5   0  0.1893284E-04  0.1712231E+04  0.7818609E-02  0.8754419E-01
       -1   -1    0    0    0  501  0.00000000000E+00  0.00000000000E+00  0.65364133832E+03  0.65364133834E+03  0.50400001928E-02 0. -1.
        1   -1    0    0  501    0  0.00000000000E+00  0.00000000000E+00 -0.11213084624E+04  0.11213084625E+04  0.50400001928E-02 0.  1.
    10030    2    1    2    0    0  0.00000000000E+00  0.00000000000E+00 -0.46766712412E+03  0.17749498008E+04  0.17122307836E+04 0.  0.
        2    1    3    3  502    0 -0.68085331494E+03 -0.48784512810E+03 -0.41746477260E+03  0.93585839839E+03  0.25500000920E-02 0.  1.
       -2    1    3    3    0  502  0.68085331494E+03  0.48784512810E+03 -0.50202351520E+02  0.83909140240E+03  0.25500000920E-02 0. -1.
</event>
<event>
 5   0  0.1920289E-04  0.1695191E+04  0.7818609E-02  0.8764112E-01
       -1   -1    0    0    0  501  0.00000000000E+00  0.00000000000E+00  0.11102422922E+04  0.11102422923E+04  0.50400001928E-02 0.  1.
        1   -1    0    0  501    0  0.00000000000E+00  0.00000000000E+00 -0.64708214360E+03  0.64708214362E+03  0.50400001928E-02 0. -1.
    10030    2    1    2    0    0  0.00000000000E+00  0.00000000000E+00  0.46316014864E+03  0.17573244359E+04  0.16951908004E+04 0.  0.
        4    1    3    3  502    0 -0.73391753674E+03  0.42294209261E+03  0.26270358247E+03  0.88686512480E+03  0.12699999809E+01 0.  1.
       -4    1    3    3    0  502  0.73391753674E+03 -0.42294209261E+03  0.20045656617E+03  0.87045931109E+03  0.12699999809E+01 0. -1.
</event>
<event>
 5   0  0.3516723E-04  0.1731077E+04  0.7818609E-02  0.8743836E-01
        2   -1    0    0  501    0  0.00000000000E+00  0.00000000000E+00  0.20076004573E+04  0.20076004573E+04  0.25500000920E-02 0. -1.
       -2   -1    0    0    0  501  0.00000000000E+00  0.00000000000E+00 -0.37316038524E+03  0.37316038525E+03  0.25500000920E-02 0.  1.
    10030    2    1    2    0    0  0.00000000000E+00  0.00000000000E+00  0.16344400720E+04  0.23807608425E+04  0.17310770752E+04 0.  0.
        1    1    3    3  502    0  0.29853803535E+02  0.83692948010E+03  0.51648755528E+03  0.98392154110E+03  0.50400001928E-02 0.  1.
       -1    1    3    3    0  502 -0.29853803535E+02 -0.83692948010E+03  0.11179525167E+04  0.13968393014E+04  0.50400001928E-02 0. -1.
</event>
<event>
 5   0  0.3678896E-04  0.1696169E+04  0.7818609E-02  0.8763552E-01
        2   -1    0    0  501    0  0.00000000000E+00  0.00000000000E+00  0.10421733038E+04  0.10421733039E+04  0.25500000920E-02 0.  1.
       -2   -1    0    0    0  501  0.00000000000E+00  0.00000000000E+00 -0.69014172708E+03  0.69014172708E+03  0.25500000920E-02 0. -1.
    10030    2    1    2    0    0  0.00000000000E+00  0.00000000000E+00  0.35203157677E+03  0.17323150309E+04  0.16961689584E+04 0.  0.
        2    1    3    3  502    0 -0.38889452836E+02  0.73164266459E+03 -0.26020920094E+03  0.77751026131E+03  0.25500000920E-02 0. -1.
       -2    1    3    3    0  502  0.38889452836E+02 -0.73164266459E+03  0.61224077771E+03  0.95480476962E+03  0.25500000920E-02 0.  1.
</event>
<event>
 5   0  0.1930116E-04  0.1693838E+04  0.7818609E-02  0.8764887E-01
       -1   -1    0    0    0  501  0.00000000000E+00  0.00000000000E+00  0.81915448955E+03  0.81915448957E+03  0.50400001928E-02 0. -1.
        1   -1    0    0  501    0  0.00000000000E+00  0.00000000000E+00 -0.87562411950E+03  0.87562411951E+03  0.50400001928E-02 0.  1.
    10030    2    1    2    0    0  0.00000000000E+00  0.00000000000E+00 -0.56469629945E+02  0.16947786091E+04  0.16938375703E+04 0.  0.
        1    1    3    3  502    0 -0.93399363543E+02 -0.44825016530E+03 -0.74110504595E+03  0.87114197520E+03  0.50400001928E-02 0.  1.
       -1    1    3    3    0  502  0.93399363543E+02  0.44825016530E+03  0.68463541600E+03  0.82363663388E+03  0.50400001928E-02 0. -1.
</event>
<event>
 5   0  0.1893284E-04  0.1669053E+04  0.7818609E-02  0.8779214E-01
       -1   -1    0    0    0  501  0.00000000000E+00  0.00000000000E+00  0.51373065518E+03  0.51373065520E+03  0.50400001928E-02 0.  1.
        1   -1    0    0  501    0  0.00000000000E+00  0.00000000000E+00 -0.13556414615E+04  0.13556414615E+04  0.50400001928E-02 0. -1.
    10030    2    1    2    0    0  0.00000000000E+00  0.00000000000E+00 -0.84191080633E+03  0.18693721167E+04  0.16690531163E+04 0.  0.
        2    1    3    3  502    0  0.84508175186E+02  0.75850771173E+03 -0.42861295389E+02  0.76440347401E+03  0.25500000920E-02 0.  1.
       -2    1    3    3    0  502 -0.84508175186E+02 -0.75850771173E+03 -0.79904951095E+03  0.11049686427E+04  0.25500000920E-02 0. -1.
</event>
<event>
 5   0  0.3516723E-04  0.1685918E+04  0.7818609E-02  0.8769437E-01
       -2   -1    0    0    0  501  0.00000000000E+00  0.00000000000E+00  0.66066745467E+03  0.66066745467E+03  0.25500000920E-02 0.  1.
        2   -1    0    0  501    0  0.00000000000E+00  0.00000000000E+00 -0.10755480151E+04  0.10755480152E+04  0.25500000920E-02 0. -1.
    10030    2    1    2    0    0  0.00000000000E+00  0.00000000000E+00 -0.41488056048E+03  0.17362154698E+04  0.16859176368E+04 0.  0.
        1    1    3    3  502    0 -0.64466830183E+03  0.54147269983E+03 -0.16387372738E+03  0.85769720916E+03  0.50400001928E-02 0.  1.
       -1    1    3    3    0  502  0.64466830183E+03 -0.54147269983E+03 -0.25100683309E+03  0.87851826067E+03  0.50400001928E-02 0. -1.
</event>
<event>
 5   0  0.1893284E-04  0.1735625E+04  0.7818609E-02  0.8741303E-01
       -1   -1    0    0    0  501  0.00000000000E+00  0.00000000000E+00  0.77923339366E+03  0.77923339368E+03  0.50400001928E-02 0.  1.
        1   -1    0    0  501    0  0.00000000000E+00  0.00000000000E+00 -0.96646069199E+03  0.96646069201E+03  0.50400001928E-02 0. -1.
    10030    2    1    2    0    0  0.00000000000E+00  0.00000000000E+00 -0.18722729833E+03  0.17456940857E+04  0.17356248960E+04 0.  0.
        2    1    3    3  502    0  0.42474963477E+03  0.67003127091E+03  0.26020021867E+03  0.83490017968E+03  0.25500000920E-02 0.  1.
       -2    1    3    3    0  502 -0.42474963477E+03 -0.67003127091E+03 -0.44742751700E+03  0.91079390600E+03  0.25500000920E-02 0. -1.
</event>
<event>
 5   0  0.1824538E-04  0.1716573E+04  0.7818609E-02  0.8751968E-01
        1   -1    0    0  501    0  0.00000000000E+00  0.00000000000E+00  0.15438010661E+04  0.15438010661E+04  0.50400001928E-02 0. -1.
       -1   -1    0    0    0  501  0.00000000000E+00  0.00000000000E+00 -0.47716988044E+03  0.47716988047E+03  0.50400001928E-02 0.  1.
    10030    2    1    2    0    0  0.00000000000E+00  0.00000000000E+00  0.10666311857E+04  0.20209709466E+04  0.17165725970E+04 0.  0.
        3    1    3    3  502    0  0.12775825308E+03  0.84870358735E+03  0.52630978590E+03  0.10067879376E+04  0.10100000352E+00 0.  1.
       -3    1    3    3    0  502 -0.12775825308E+03 -0.84870358735E+03  0.54032139976E+03  0.10141830090E+04  0.10100000352E+00 0. -1.
</event>
<event>
 5   0  0.3516723E-04  0.1722673E+04  0.7818609E-02  0.8748538E-01
        2   -1    0    0  501    0  0.00000000000E+00  0.00000000000E+00  0.20320482030E+04  0.20320482030E+04  0.25500000920E-02 0. -1.
       -2   -1    0    0    0  501  0.00000000000E+00  0.00000000000E+00 -0.36509981058E+03  0.36509981059E+03  0.25500000920E-02 0.  1.
    10030    2    1    2    0    0  0.00000000000E+00  0.00000000000E+00  0.16669483924E+04  0.23971480136E+04  0.17226728233E+04 0.  0.
        1    1    3    3  502    0  0.74739433447E+03 -0.21579255800E+03  0.31891777872E+03  0.84075755655E+03  0.50400001928E-02 0.  1.
       -1    1    3    3    0  502 -0.74739433447E+03  0.21579255800E+03  0.13480306137E+04  0.15563904570E+04  0.50400001928E-02 0. -1.
</event>
<event>
 5   0  0.3605571E-04  0.1656411E+04  0.7818609E-02  0.8786623E-01
        2   -1    0    0  501    0  0.00000000000E+00  0.00000000000E+00  0.14246768531E+04  0.14246768531E+04  0.25500000920E-02 0.  1.
       -2   -1    0    0    0  501  0.00000000000E+00  0.00000000000E+00 -0.48145979292E+03  0.48145979292E+03  0.25500000920E-02 0. -1.
    10030    2    1    2    0    0  0.00000000000E+00  0.00000000000E+00  0.94321706016E+03  0.19061366460E+04  0.16564113289E+04 0.  0.
        4    1    3    3  502    0 -0.29486168656E+03  0.80455418449E+02 -0.41418480045E+03  0.51474959969E+03  0.12699999809E+01 0. -1.
       -4    1    3    3    0  502  0.29486168656E+03 -0.80455418449E+02  0.13574018606E+04  0.13913870463E+04  0.12699999809E+01 0.  1.
</event>
<event>
 5   0  0.3605571E-04  0.1699716E+04  0.7818609E-02  0.8761526E-01
        2   -1    0    0  501    0  0.00000000000E+00  0.00000000000E+00  0.19808369860E+04  0.19808369860E+04  0.25500000920E-02 0.  1.
       -2   -1    0    0    0  501  0.00000000000E+00  0.00000000000E+00 -0.36462291884E+03  0.36462291885E+03  0.25500000920E-02 0. -1.
    10030    2    1    2    0    0  0.00000000000E+00  0.00000000000E+00  0.16162140671E+04  0.23454599048E+04  0.16997159334E+04 0.  0.
        4    1    3    3  502    0 -0.42576563276E+03  0.11405812236E+03  0.18107742932E+04  0.18636498553E+04  0.12699999809E+01 0.  1.
       -4    1    3    3    0  502  0.42576563276E+03 -0.11405812236E+03 -0.19456022610E+03  0.48181004950E+03  0.12699999809E+01 0. -1.
</event>
<event>
 5   0  0.3574092E-04  0.1694848E+04  0.7818609E-02  0.8764308E-01
       -2   -1    0    0    0  501  0.00000000000E+00  0.00000000000E+00  0.12308652397E+04  0.12308652397E+04  0.25500000920E-02 0.  1.
        2   -1    0    0  501    0  0.00000000000E+00  0.00000000000E+00 -0.58343303668E+03  0.58343303668E+03  0.25500000920E-02 0. -1.
    10030    2    1    2    0    0  0.00000000000E+00  0.00000000000E+00  0.64743220301E+03  0.18142982764E+04  0.16948480103E+04 0.  0.
        3    1    3    3  502    0 -0.68183285064E+03 -0.37660196120E+03 -0.33577408484E+02  0.77964897611E+03  0.10100000352E+00 0. -1.
       -3    1    3    3    0  502  0.68183285064E+03  0.37660196120E+03  0.68100961149E+03  0.10346493003E+04  0.10100000352E+00 0.  1.
</event>
<event>
 5   0  0.1930116E-04  0.1773850E+04  0.7818609E-02  0.8720331E-01
        1   -1    0    0  501    0  0.00000000000E+00  0.00000000000E+00  0.10440944575E+04  0.10440944575E+04  0.50400001928E-02 0.  1.
       -1   -1    0    0    0  501  0.00000000000E+00  0.00000000000E+00 -0.75341477829E+03  0.75341477831E+03  0.50400001928E-02 0. -1.
    10030    2    1    2    0    0  0.00000000000E+00  0.00000000000E+00  0.29067967916E+03  0.17975092358E+04  0.17738502690E+04 0.  0.
        1    1    3    3  502    0  0.81648895029E+03  0.34541858554E+03  0.17153004022E+03  0.90298990022E+03  0.50400001928E-02 0.  1.
       -1    1    3    3    0  502 -0.81648895029E+03 -0.34541858554E+03  0.11914963894E+03  0.89451933555E+03  0.50400001928E-02 0. -1.
</event>
<event>
 5   0  0.3678896E-04  0.1710873E+04  0.7818609E-02  0.8755187E-01
       -2   -1    0    0    0  501  0.00000000000E+00  0.00000000000E+00  0.13502588645E+04  0.13502588645E+04  0.25500000920E-02 0.  1.
        2   -1    0    0  501    0  0.00000000000E+00  0.00000000000E+00 -0.54194913227E+03  0.54194913228E+03  0.25500000920E-02 0. -1.
    10030    2    1    2    0    0  0.00000000000E+00  0.00000000000E+00  0.80830973223E+03  0.18922079968E+04  0.17108730169E+04 0.  0.
        2    1    3    3  502    0  0.36910367263E+02  0.69509756498E+03  0.95409831728E+03  0.11810277724E+04  0.25500000920E-02 0.  1.
       -2    1    3    3    0  502 -0.36910367263E+02 -0.69509756498E+03 -0.14578858506E+03  0.71118022441E+03  0.25500000920E-02 0. -1.
</event>
<event>
 5   0  0.3516723E-04  0.1691751E+04  0.7818609E-02  0.8766083E-01
        2   -1    0    0  501    0  0.00000000000E+00  0.00000000000E+00  0.17116258273E+04  0.17116258273E+04  0.25500000920E-02 0.  1.
       -2   -1    0    0    0  501  0.00000000000E+00  0.00000000000E+00 -0.41802669347E+03  0.41802669347E+03  0.25500000920E-02 0. -1.
    10030    2    1    2    0    0  0.00000000000E+00  0.00000000000E+00  0.12935991339E+04  0.21296525208E+04  0.16917509096E+04 0.  0.
        1    1    3    3  502    0 -0.40730395267E+02  0.48470492431E+03  0.15179599745E+04  0.15939888058E+04  0.50400001928E-02 0.  1.
       -1    1    3    3    0  502  0.40730395267E+02 -0.48470492431E+03 -0.22436084064E+03  0.53566371502E+03  0.50400001928E-02 0. -1.
</event>
<event>
 5   0  0.1893284E-04  0.1692783E+04  0.7818609E-02  0.8765491E-01
        1   -1    0    0  501    0  0.00000000000E+00  0.00000000000E+00  0.12855900446E+04  0.12855900446E+04  0.50400001928E-02 0.  1.
       -1   -1    0    0    0  501  0.00000000000E+00  0.00000000000E+00 -0.55723694984E+03  0.55723694986E+03  0.50400001928E-02 0. -1.
    10030    2    1    2    0    0  0.00000000000E+00  0.00000000000E+00  0.72835309477E+03  0.18428269945E+04  0.16927826502E+04 0.  0.
        2    1    3    3  502    0 -0.77766375455E+03  0.21502325422E+03  0.64254092856E+03  0.10314333521E+04  0.25500000920E-02 0.  1.
       -2    1    3    3    0  502  0.77766375455E+03 -0.21502325422E+03  0.85812166217E+02  0.81139364237E+03  0.25500000920E-02 0. -1.
</event>
<event>
 5   0  0.1893284E-04  0.1714559E+04  0.7818609E-02  0.8753104E-01
        1   -1    0    0  501    0  0.00000000000E+00  0.00000000000E+00  0.13204332908E+04  0.13204332908E+04  0.50400001928E-02 0. -1.
       -1   -1    0    0    0  501  0.00000000000E+00  0.00000000000E+00 -0.55658098147E+03  0.55658098149E+03  0.50400001928E-02 0.  1.
    10030    2    1    2    0    0  0.00000000000E+00  0.00000000000E+00  0.76385230936E+03  0.18770142723E+04  0.17145589019E+04 0.  0.
        2    1    3    3  502    0 -0.24813528912E+03 -0.66929705851E+03  0.90167144576E+03  0.11500178565E+04  0.25500000920E-02 0. -1.
       -2    1    3    3    0  502  0.24813528912E+03  0.66929705851E+03 -0.13781913640E+03  0.72699641581E+03  0.25500000920E-02 0.  1.
</event>
<event>
 5   0  0.3516723E-04  0.1664763E+04  0.7818609E-02  0.8781720E-01
        2   -1    0    0  501    0  0.00000000000E+00  0.00000000000E+00  0.13704349148E+04  0.13704349148E+04  0.25500000920E-02 0.  1.
       -2   -1    0    0    0  501  0.00000000000E+00  0.00000000000E+00 -0.50557600485E+03  0.50557600485E+03  0.25500000920E-02 0. -1.
    10030    2    1    2    0    0  0.00000000000E+00  0.00000000000E+00  0.86485890996E+03  0.18760109197E+04  0.16647630572E+04 0.  0.
        1    1    3    3  502    0  0.43203448035E+03 -0.26952994390E+03 -0.30957574360E+03  0.59593399292E+03  0.50400001928E-02 0. -1.
       -1    1    3    3    0  502 -0.43203448035E+03  0.26952994390E+03  0.11744346536E+04  0.12800769267E+04  0.50400001928E-02 0.  1.
</event>
<event>
 5   0  0.3605571E-04  0.1710786E+04  0.7818609E-02  0.8755236E-01
        2   -1    0    0  501    0  0.00000000000E+00  0.00000000000E+00  0.11674151654E+04  0.11674151654E+04  0.25500000920E-02 0. -1.
       -2   -1    0    0    0  501  0.00000000000E+00  0.00000000000E+00 -0.62676693118E+03  0.62676693119E+03  0.25500000920E-02 0.  1.
    10030    2    1    2    0    0  0.00000000000E+00  0.00000000000E+00  0.54064823426E+03  0.17941820966E+04  0.17107860423E+04 0.  0.
        4    1    3    3  502    0 -0.82043226151E+03  0.20356244709E+03  0.13298690663E+03  0.85570666459E+03  0.12699999809E+01 0.  1.
       -4    1    3    3    0  502  0.82043226151E+03 -0.20356244709E+03  0.40766132764E+03  0.93847543204E+03  0.12699999809E+01 0. -1.
</event>
<event>
 5   0  0.3605571E-04  0.1688042E+04  0.7818609E-02  0.8768214E-01
        2   -1    0    0  501    0  0.00000000000E+00  0.00000000000E+00  0.53624881821E+03  0.53624881821E+03  0.25500000920E-02 0.  1.
       -2   -1    0    0    0  501  0.00000000000E+00  0.00000000000E+00 -0.13284345890E+04  0.13284345890E+04  0.25500000920E-02 0. -1.
    10030    2    1    2    0    0  0.00000000000E+00  0.00000000000E+00 -0.79218577076E+03  0.18646834072E+04  0.16880420355E+04 0.  0.
        4    1    3    3  502    0  0.82462823508E+03  0.10178255588E+02 -0.19770402053E+03  0.84805885150E+03  0.12699999809E+01 0.  1.
       -4    1    3    3    0  502 -0.82462823508E+03 -0.10178255588E+02 -0.59448175023E+03  0.10166245557E+04  0.12699999809E+01 0. -1.
</event>
<event>
 5   0  0.1824538E-04  0.1706520E+04  0.7818609E-02  0.8757655E-01
        1   -1    0    0  501    0  0.00000000000E+00  0.00000000000E+00  0.15518277581E+04  0.15518277581E+04  0.50400001928E-02 0. -1.
       -1   -1    0    0    0  501  0.00000000000E+00  0.00000000000E+00 -0.46915803642E+03  0.46915803645E+03  0.50400001928E-02 0.  1.
    10030    2    1    2    0    0  0.00000000000E+00  0.00000000000E+00  0.10826697216E+04  0.20209857945E+04  0.17065198081E+04 0.  0.
        3    1    3    3  502    0 -0.50418978709E+03 -0.79337105731E+02 -0.26844374701E+03  0.57668342551E+03  0.10100000352E+00 0.  1.
       -3    1    3    3    0  502  0.50418978709E+03  0.79337105731E+02  0.13511134686E+04  0.14443023690E+04  0.10100000352E+00 0. -1.
</event>
<event>
 5   0  0.1815663E-04  0.1671793E+04  0.7818609E-02  0.8777618E-01
        1   -1    0    0  501    0  0.00000000000E+00  0.00000000000E+00  0.66981140306E+03  0.66981140308E+03  0.50400001928E-02 0.  1.
       -1   -1    0    0    0  501  0.00000000000E+00  0.00000000000E+00 -0.10431633944E+04  0.10431633944E+04  0.50400001928E-02 0. -1.
    10030    2    1    2    0    0  0.00000000000E+00  0.00000000000E+00 -0.37335199136E+03  0.17129747975E+04  0.16717927346E+04 0.  0.
        5    1    3    3  502    0  0.25129761088E+03 -0.79646578786E+03 -0.22205785816E+03  0.86419906436E+03  0.46999998093E+01 0. -1.
       -5    1    3    3    0  502 -0.25129761088E+03  0.79646578786E+03 -0.15129413319E+03  0.84877573316E+03  0.46999998093E+01 0.  1.
</event>
<event>
 5   0  0.3678896E-04  0.1699693E+04  0.7818609E-02  0.8761539E-01
        2   -1    0    0  501    0  0.00000000000E+00  0.00000000000E+00  0.12791728724E+04  0.12791728724E+04  0.25500000920E-02 0.  1.
       -2   -1    0    0    0  501  0.00000000000E+00  0.00000000000E+00 -0.56461431952E+03  0.56461431953E+03  0.25500000920E-02 0. -1.
    10030    2    1    2    0    0  0.00000000000E+00  0.00000000000E+00  0.71455855285E+03  0.18437871919E+04  0.16996932910E+04 0.  0.
        2    1    3    3  502    0  0.25011899725E+02 -0.32475627526E+03 -0.49421637335E+03  0.59189699877E+03  0.25500000920E-02 0. -1.
       -2    1    3    3    0  502 -0.25011899725E+02  0.32475627526E+03  0.12087749262E+04  0.12518901931E+04  0.25500000920E-02 0.  1.
</event>
<event>
 5   0  0.1893284E-04  0.1700283E+04  0.7818609E-02  0.8761203E-01
       -1   -1    0    0    0  501  0.00000000000E+00  0.00000000000E+00  0.76969389015E+03  0.76969389017E+03  0.50400001928E-02 0. -1.
        1   -1    0    0  501    0  0.00000000000E+00  0.00000000000E+00 -0.93899716870E+03  0.93899716871E+03  0.50400001928E-02 0.  1.
    10030    2    1    2    0    0  0.00000000000E+00  0.00000000000E+00 -0.16930327854E+03  0.17086910589E+04  0.17002827808E+04 0.  0.
        2    1    3    3  502    0  0.24084295421E+03 -0.26313079637E+03 -0.86015246827E+03  0.93118495116E+03  0.25500000920E-02 0.  1.
       -2    1    3    3    0  502 -0.24084295421E+03  0.26313079637E+03  0.69084918972E+03  0.77750610772E+03  0.25500000920E-02 0. -1.
</event>
<event>
 5   0  0.1893284E-04  0.1743573E+04  0.7818609E-02  0.8736896E-01
       -1   -1    0    0    0  501  0.00000000000E+00  0.00000000000E+00  0.72497984291E+03  0.72497984293E+03  0.50400001928E-02 0.  1.
        1   -1    0    0  501    0  0.00000000000E+00  0.00000000000E+00 -0.10483216133E+04  0.10483216133E+04  0.50400001928E-02 0. -1.
    10030    2    1    2    0    0  0.00000000000E+00  0.00000000000E+00 -0.32334177037E+03  0.17733014562E+04  0.17435733865E+04 0.  0.
        2    1    3    3  502    0  0.15367129944E+03 -0.32629379634E+03 -0.96888421088E+03  0.10338370877E+04  0.25500000920E-02 0. -1.
       -2    1    3    3    0  502 -0.15367129944E+03  0.32629379634E+03  0.64554244051E+03  0.73946436852E+03  0.25500000920E-02 0.  1.
</event>
<event>
 5   0  0.1930116E-04  0.1690973E+04  0.7818609E-02  0.8766529E-01
        1   -1    0    0  501    0  0.00000000000E+00  0.00000000000E+00  0.10137469701E+04  0.10137469701E+04  0.50400001928E-02 0.  1.
       -1   -1    0    0    0  501  0.00000000000E+00  0.00000000000E+00 -0.70515386994E+03  0.70515386995E+03  0.50400001928E-02 0. -1.
    10030    2    1    2    0    0  0.00000000000E+00  0.00000000000E+00  0.30859310020E+03  0.17189008401E+04  0.16909732099E+04 0.  0.
        1    1    3    3  502    0  0.36344885115E+03 -0.68951062989E+03  0.48731619413E+03  0.91923721053E+03  0.50400001928E-02 0.  1.
       -1    1    3    3    0  502 -0.36344885115E+03  0.68951062989E+03 -0.17872309393E+03  0.79966362957E+03  0.50400001928E-02 0. -1.
</event>
<event>
 5   0  0.3678896E-04  0.1710981E+04  0.7818609E-02  0.8755126E-01
       -2   -1    0    0    0  501  0.00000000000E+00  0.00000000000E+00  0.86200248015E+03  0.86200248015E+03  0.25500000920E-02 0.  1.
        2   -1    0    0  501    0  0.00000000000E+00  0.00000000000E+00 -0.84902820068E+03  0.84902820068E+03  0.25500000920E-02 0. -1.
    10030    2    1    2    0    0  0.00000000000E+00  0.00000000000E+00  0.12974279469E+02  0.17110306808E+04  0.17109814899E+04 0.  0.
        2    1    3    3  502    0 -0.47691066404E+03  0.18207877739E+03  0.69299646266E+03  0.86072095357E+03  0.25500000920E-02 0.  1.
       -2    1    3    3    0  502  0.47691066404E+03 -0.18207877739E+03 -0.68002218319E+03  0.85030972727E+03  0.25500000920E-02 0. -1.
</event>
<event>
 5   0  0.3605571E-04  0.1708492E+04  0.7818609E-02  0.8756536E-01
       -2   -1    0    0    0  501  0.00000000000E+00  0.00000000000E+00  0.26942323342E+03  0.26942323344E+03  0.25500000920E-02 0. -1.
        2   -1    0    0  501    0  0.00000000000E+00  0.00000000000E+00 -0.27085114755E+04  0.27085114755E+04  0.25500000920E-02 0.  1.
    10030    2    1    2    0    0  0.00000000000E+00  0.00000000000E+00 -0.24390882421E+04  0.29779347089E+04  0.17084916383E+04 0.  0.
        4    1    3    3  502    0  0.18107570173E+03  0.18168832933E+03  0.20070711805E+03  0.32570541738E+03  0.12699999809E+01 0. -1.
       -4    1    3    3    0  502 -0.18107570173E+03 -0.18168832933E+03 -0.26397953601E+04  0.26522292915E+04  0.12699999809E+01 0.  1.
</event>
<event>
 5   0  0.1824538E-04  0.1701986E+04  0.7818609E-02  0.8760232E-01
       -1   -1    0    0    0  501  0.00000000000E+00  0.00000000000E+00  0.73430238883E+03  0.73430238885E+03  0.50400001928E-02 0.  1.
        1   -1    0    0  501    0  0.00000000000E+00  0.00000000000E+00 -0.98622743974E+03  0.98622743976E+03  0.50400001928E-02 0. -1.
    10030    2    1    2    0    0  0.00000000000E+00  0.00000000000E+00 -0.25192505091E+03  0.17205298286E+04  0.17019860927E+04 0.  0.
        3    1    3    3  502    0 -0.35856990451E+01  0.23234213920E+02 -0.98589910300E+03  0.98617936372E+03  0.10100000352E+00 0. -1.
       -3    1    3    3    0  502  0.35856990451E+01 -0.23234213920E+02  0.73397405209E+03  0.73435046488E+03  0.10100000352E+00 0.  1.
</event>
<event>
 5   0  0.3516723E-04  0.1699989E+04  0.7818609E-02  0.8761370E-01
       -2   -1    0    0    0  501  0.00000000000E+00  0.00000000000E+00  0.72787482781E+03  0.72787482782E+03  0.25500000920E-02 0.  1.
        2   -1    0    0  501    0  0.00000000000E+00  0.00000000000E+00 -0.99260333132E+03  0.99260333133E+03  0.25500000920E-02 0. -1.
    10030    2    1    2    0    0  0.00000000000E+00  0.00000000000E+00 -0.26472850351E+03  0.17204781591E+04  0.16999893869E+04 0.  0.
        1    1    3    3  502    0  0.20841835009E+03  0.53441385554E+03  0.50245526180E+03  0.76255994373E+03  0.50400001928E-02 0.  1.
       -1    1    3    3    0  502 -0.20841835009E+03 -0.53441385554E+03 -0.76718376531E+03  0.95791821542E+03  0.50400001928E-02 0. -1.
</event>
<event>
 5   0  0.1893284E-04  0.1734782E+04  0.7818609E-02  0.8741772E-01
       -1   -1    0    0    0  501  0.00000000000E+00  0.00000000000E+00  0.55169619849E+03  0.55169619851E+03  0.50400001928E-02 0. -1.
        1   -1    0    0  501    0  0.00000000000E+00  0.00000000000E+00 -0.13637350039E+04  0.13637350039E+04  0.50400001928E-02 0.  1.
    10030    2    1    2    0    0  0.00000000000E+00  0.00000000000E+00 -0.81203880539E+03  0.19154312024E+04  0.17347823119E+04 0.  0.
        2    1    3    3  502    0  0.45644732156E+03 -0.29212504563E+03  0.34177019230E+03  0.64069342434E+03  0.25500000920E-02 0. -1.
       -2    1    3    3    0  502 -0.45644732156E+03  0.29212504563E+03 -0.11538089977E+04  0.12747377781E+04  0.25500000920E-02 0.  1.
</event>
<event>
 5   0  0.1930116E-04  0.1694801E+04  0.7818609E-02  0.8764335E-01
        1   -1    0    0  501    0  0.00000000000E+00  0.00000000000E+00  0.15576280130E+04  0.15576280130E+04  0.50400001928E-02 0. -1.
       -1   -1    0    0    0  501  0.00000000000E+00  0.00000000000E+00 -0.46101359739E+03  0.46101359741E+03  0.50400001928E-02 0.  1.
    10030    2    1    2    0    0  0.00000000000E+00  0.00000000000E+00  0.10966144156E+04  0.20186416105E+04  0.16948011019E+04 0.  0.
        1    1    3    3  502    0  0.35608446479E+03  0.19987663018E+03  0.14327109696E+04  0.14897676113E+04  0.50400001928E-02 0. -1.
       -1    1    3    3    0  502 -0.35608446479E+03 -0.19987663018E+03 -0.33609655394E+03  0.52887399913E+03  0.50400001928E-02 0.  1.
</event>
<event>
 5   0  0.1824538E-04  0.1668263E+04  0.7818609E-02  0.8779675E-01
        1   -1    0    0  501    0  0.00000000000E+00  0.00000000000E+00  0.15335311820E+04  0.15335311820E+04  0.50400001928E-02 0. -1.
       -1   -1    0    0    0  501  0.00000000000E+00  0.00000000000E+00 -0.45370778083E+03  0.45370778086E+03  0.50400001928E-02 0.  1.
    10030    2    1    2    0    0  0.00000000000E+00  0.00000000000E+00  0.10798234012E+04  0.19872389629E+04  0.16682626046E+04 0.  0.
        3    1    3    3  502    0 -0.26786771965E+02  0.76310397509E+03  0.93986111829E+03  0.12109434916E+04  0.10100000352E+00 0.  1.
       -3    1    3    3    0  502  0.26786771965E+02 -0.76310397509E+03  0.13996228292E+03  0.77629547132E+03  0.10100000352E+00 0. -1.
</event>
<event>
 5   0  0.1930116E-04  0.1682659E+04  0.7818609E-02  0.8771317E-01
        1   -1    0    0  501    0  0.00000000000E+00  0.00000000000E+00  0.13863335864E+04  0.13863335864E+04  0.50400001928E-02 0. -1.
       -1   -1    0    0    0  501  0.00000000000E+00  0.00000000000E+00 -0.51058076850E+03  0.51058076853E+03  0.50400001928E-02 0.  1.
    10030    2    1    2    0    0  0.00000000000E+00  0.00000000000E+00  0.87575281785E+03  0.18969143549E+04  0.16826589291E+04 0.  0.
        1    1    3    3  502    0 -0.64112617956E+03 -0.26738232422E+03  0.97297207876E+03  0.11954960274E+04  0.50400001928E-02 0. -1.
       -1    1    3    3    0  502  0.64112617956E+03  0.26738232422E+03 -0.97219260912E+02  0.70141832750E+03  0.50400001928E-02 0.  1.
</event>
<event>
 5   0  0.1930116E-04  0.1760128E+04  0.7818609E-02  0.8727795E-01
       -1   -1    0    0    0  501  0.00000000000E+00  0.00000000000E+00  0.62741055755E+03  0.62741055757E+03  0.50400001928E-02 0.  1.
        1   -1    0    0  501    0  0.00000000000E+00  0.00000000000E+00 -0.12344595594E+04  0.12344595595E+04  0.50400001928E-02 0. -1.
    10030    2    1    2    0    0  0.00000000000E+00  0.00000000000E+00 -0.60704900189E+03  0.18618701170E+04  0.17601283595E+04 0.  0.
        1    1    3    3  502    0 -0.12641437877E+03  0.67047491227E+03  0.28448087855E+03  0.73922024690E+03  0.50400001928E-02 0.  1.
       -1    1    3    3    0  502  0.12641437877E+03 -0.67047491227E+03 -0.89152988045E+03  0.11226498701E+04  0.50400001928E-02 0. -1.
</event>
<event>
 5   0  0.1893284E-04  0.1695452E+04  0.7818609E-02  0.8763962E-01
       -1   -1    0    0    0  501  0.00000000000E+00  0.00000000000E+00  0.99295942916E+03  0.99295942917E+03  0.50400001928E-02 0. -1.
        1   -1    0    0  501    0  0.00000000000E+00  0.00000000000E+00 -0.72373504922E+03  0.72373504923E+03  0.50400001928E-02 0.  1.
    10030    2    1    2    0    0  0.00000000000E+00  0.00000000000E+00  0.26922437994E+03  0.17166944784E+04  0.16954522009E+04 0.  0.
        2    1    3    3  502    0 -0.26927399516E+03  0.70703961395E+03 -0.25257396649E+03  0.79762592029E+03  0.25500000920E-02 0.  1.
       -2    1    3    3    0  502  0.26927399516E+03 -0.70703961395E+03  0.52179834643E+03  0.91906855811E+03  0.25500000920E-02 0. -1.
</event>
<event>
 5   0  0.1930116E-04  0.1801502E+04  0.7818609E-02  0.8705501E-01
       -1   -1    0    0    0  501  0.00000000000E+00  0.00000000000E+00  0.93112557967E+03  0.93112557968E+03  0.50400001928E-02 0.  1.
        1   -1    0    0  501    0  0.00000000000E+00  0.00000000000E+00 -0.87136733325E+03  0.87136733326E+03  0.50400001928E-02 0. -1.
    10030    2    1    2    0    0  0.00000000000E+00  0.00000000000E+00  0.59758246424E+02  0.18024929129E+04  0.18015020547E+04 0.  0.
        1    1    3    3  502    0  0.57587291505E+03 -0.41738741110E+03 -0.52315497424E+03  0.88291165602E+03  0.50400001928E-02 0. -1.
       -1    1    3    3    0  502 -0.57587291505E+03  0.41738741110E+03  0.58291322066E+03  0.91958125692E+03  0.50400001928E-02 0.  1.
</event>
<event>
 5   0  0.3678896E-04  0.1657671E+04  0.7818609E-02  0.8785881E-01
       -2   -1    0    0    0  501  0.00000000000E+00  0.00000000000E+00  0.73569313503E+03  0.73569313503E+03  0.25500000920E-02 0. -1.
        2   -1    0    0  501    0  0.00000000000E+00  0.00000000000E+00 -0.93377037447E+03  0.93377037448E+03  0.25500000920E-02 0.  1.
    10030    2    1    2    0    0  0.00000000000E+00  0.00000000000E+00 -0.19807723945E+03  0.16694635095E+04  0.16576712029E+04 0.  0.
        2    1    3    3  502    0  0.34099185486E+03  0.31465657097E+03 -0.79071703960E+03  0.91679749097E+03  0.25500000920E-02 0.  1.
       -2    1    3    3    0  502 -0.34099185486E+03 -0.31465657097E+03  0.59263980015E+03  0.75266601854E+03  0.25500000920E-02 0. -1.
</event>
<event>
 5   0  0.1893284E-04  0.1697923E+04  0.7818609E-02  0.8762550E-01
        1   -1    0    0  501    0  0.00000000000E+00  0.00000000000E+00  0.13399094958E+04  0.13399094958E+04  0.50400001928E-02 0.  1.
       -1   -1    0    0    0  501  0.00000000000E+00  0.00000000000E+00 -0.53789901628E+03  0.53789901630E+03  0.50400001928E-02 0. -1.
    10030    2    1    2    0    0  0.00000000000E+00  0.00000000000E+00  0.80201047948E+03  0.18778085121E+04  0.16979234373E+04 0.  0.
        2    1    3    3  502    0 -0.21700999419E+03  0.62635705702E+03  0.98759316386E+03  0.11894354786E+04  0.25500000920E-02 0.  1.
       -2    1    3    3    0  502  0.21700999419E+03 -0.62635705702E+03 -0.18558268438E+03  0.68837303347E+03  0.25500000920E-02 0. -1.
</event>
<event>
 5   0  0.1815663E-04  0.1699207E+04  0.7818609E-02  0.8761817E-01
       -1   -1    0    0    0  501  0.00000000000E+00  0.00000000000E+00  0.51673040392E+03  0.51673040394E+03  0.50400001928E-02 0.  1.
        1   -1    0    0  501    0  0.00000000000E+00  0.00000000000E+00 -0.13969100739E+04  0.13969100739E+04  0.50400001928E-02 0. -1.
    10030    2    1    2    0    0  0.00000000000E+00  0.00000000000E+00 -0.88017966993E+03  0.19136404778E+04  0.16992067640E+04 0.  0.
        5    1    3    3  502    0  0.83945922530E+02  0.65920781464E+03  0.15605213966E+03  0.68262450959E+03  0.46999998093E+01 0.  1.
       -5    1    3    3    0  502 -0.83945922530E+02 -0.65920781464E+03 -0.10362318096E+04  0.12310159682E+04  0.46999998093E+01 0. -1.
</event>
<event>
 5   0  0.3516723E-04  0.1707283E+04  0.7818609E-02  0.8757222E-01
        2   -1    0    0  501    0  0.00000000000E+00  0.00000000000E+00  0.24624185543E+04  0.24624185543E+04  0.25500000920E-02 0.  1.
       -2   -1    0    0    0  501  0.00000000000E+00  0.00000000000E+00 -0.29592996463E+03  0.29592996464E+03  0.25500000920E-02 0. -1.
    10030    2    1    2    0    0  0.00000000000E+00  0.00000000000E+00  0.21664885897E+04  0.27583485189E+04  0.17072825609E+04 0.  0.
        1    1    3    3  502    0  0.59565975886E+03 -0.59910705560E+03  0.12808785027E+04  0.15344020174E+04  0.50400001928E-02 0. -1.
       -1    1    3    3    0  502 -0.59565975886E+03  0.59910705560E+03  0.88561008701E+03  0.12239465015E+04  0.50400001928E-02 0.  1.
</event>
<event>
 5   0  0.3516723E-04  0.1695157E+04  0.7818609E-02  0.8764131E-01
       -2   -1    0    0    0  501  0.00000000000E+00  0.00000000000E+00  0.92541234348E+03  0.92541234348E+03  0.25500000920E-02 0. -1.
        2   -1    0    0  501    0  0.00000000000E+00  0.00000000000E+00 -0.77629113018E+03  0.77629113018E+03  0.25500000920E-02 0.  1.
    10030    2    1    2    0    0  0.00000000000E+00  0.00000000000E+00  0.14912121330E+03  0.17017034737E+04  0.16951570948E+04 0.  0.
        1    1    3    3  502    0 -0.15909167454E+03  0.55477244168E+03  0.69768858897E+03  0.90545678536E+03  0.50400001928E-02 0. -1.
       -1    1    3    3    0  502  0.15909167454E+03 -0.55477244168E+03 -0.54856737566E+03  0.79624668830E+03  0.50400001928E-02 0.  1.
</event>
<event>
 5   0  0.3678896E-04  0.1676196E+04  0.7818609E-02  0.8775058E-01
        2   -1    0    0  501    0  0.00000000000E+00  0.00000000000E+00  0.91605360284E+03  0.91605360284E+03  0.25500000920E-02 0. -1.
       -2   -1    0    0    0  501  0.00000000000E+00  0.00000000000E+00 -0.76677649411E+03  0.76677649411E+03  0.25500000920E-02 0.  1.
    10030    2    1    2    0    0  0.00000000000E+00  0.00000000000E+00  0.14927710873E+03  0.16828300970E+04  0.16761961341E+04 0.  0.
        2    1    3    3  502    0  0.53068788875E+03  0.11401508628E+03  0.71574186744E+03  0.89828475216E+03  0.25500000920E-02 0. -1.
       -2    1    3    3    0  502 -0.53068788875E+03 -0.11401508628E+03 -0.56646475871E+03  0.78454534479E+03  0.25500000920E-02 0.  1.
</event>
<event>
 5   0  0.3573262E-04  0.1700294E+04  0.7818609E-02  0.8761197E-01
       -2   -1    0    0    0  501  0.00000000000E+00  0.00000000000E+00  0.68305723725E+03  0.68305723725E+03  0.25500000920E-02 0. -1.
        2   -1    0    0  501    0  0.00000000000E+00  0.00000000000E+00 -0.10581098932E+04  0.10581098932E+04  0.25500000920E-02 0.  1.
    10030    2    1    2    0    0  0.00000000000E+00  0.00000000000E+00 -0.37505265592E+03  0.17411671304E+04  0.17002936456E+04 0.  0.
        5    1    3    3  502    0 -0.76627792561E+03  0.37709608936E+01 -0.56452218018E+03  0.95178960981E+03  0.46999998093E+01 0.  1.
       -5    1    3    3    0  502  0.76627792561E+03 -0.37709608936E+01  0.18946952426E+03  0.78937752061E+03  0.46999998093E+01 0. -1.
</event>
<event>
 5   0  0.1920289E-04  0.1711964E+04  0.7818609E-02  0.8754570E-01
       -1   -1    0    0    0  501  0.00000000000E+00  0.00000000000E+00  0.51302233910E+03  0.51302233912E+03  0.50400001928E-02 0.  1.
        1   -1    0    0  501    0  0.00000000000E+00  0.00000000000E+00 -0.14282126163E+04  0.14282126163E+04  0.50400001928E-02 0. -1.
    10030    2    1    2    0    0  0.00000000000E+00  0.00000000000E+00 -0.91519027722E+03  0.19412349554E+04  0.17119637580E+04 0.  0.
        4    1    3    3  502    0 -0.54180104373E+03  0.64610593348E+03 -0.29054971703E+03  0.89186433903E+03  0.12699999809E+01 0.  1.
       -4    1    3    3    0  502  0.54180104373E+03 -0.64610593348E+03 -0.62464056019E+03  0.10493706164E+04  0.12699999809E+01 0. -1.
</event>
<event>
 5   0  0.3516723E-04  0.1701056E+04  0.7818609E-02  0.8760762E-01
       -2   -1    0    0    0  501  0.00000000000E+00  0.00000000000E+00  0.62444648376E+03  0.62444648377E+03  0.25500000920E-02 0. -1.
        2   -1    0    0  501    0  0.00000000000E+00  0.00000000000E+00 -0.11584632067E+04  0.11584632067E+04  0.25500000920E-02 0.  1.
    10030    2    1    2    0    0  0.00000000000E+00  0.00000000000E+00 -0.53401672294E+03  0.17829096905E+04  0.17010564670E+04 0.  0.
        1    1    3    3  502    0  0.32283147188E+02 -0.82802436848E+03 -0.46788583851E+03  0.95162162349E+03  0.50400001928E-02 0. -1.
       -1    1    3    3    0  502 -0.32283147188E+02  0.82802436848E+03 -0.66130884430E+02  0.83128806698E+03  0.50400001928E-02 0.  1.
</event>
<event>
 5   0  0.1930116E-04  0.1596091E+04  0.7818609E-02  0.8822953E-01
       -1   -1    0    0    0  501  0.00000000000E+00  0.00000000000E+00  0.65433441112E+03  0.65433441114E+03  0.50400001928E-02 0.  1.
        1   -1    0    0  501    0  0.00000000000E+00  0.00000000000E+00 -0.97331969272E+03  0.97331969273E+03  0.50400001928E-02 0. -1.
    10030    2    1    2    0    0  0.00000000000E+00  0.00000000000E+00 -0.31898528159E+03  0.16276541039E+04  0.15960909347E+04 0.  0.
        1    1    3    3  502    0  0.56640868951E+02  0.29295045112E+03  0.59531222404E+03  0.66590149344E+03  0.50400001928E-02 0.  1.
       -1    1    3    3    0  502 -0.56640868951E+02 -0.29295045112E+03 -0.91429750564E+03  0.96175261044E+03  0.50400001928E-02 0. -1.
</event>
<event>
 5   0  0.1893284E-04  0.1706057E+04  0.7818609E-02  0.8757918E-01
       -1   -1    0    0    0  501  0.00000000000E+00  0.00000000000E+00  0.47006661978E+03  0.47006661981E+03  0.50400001928E-02 0. -1.
        1   -1    0    0  501    0  0.00000000000E+00  0.00000000000E+00 -0.15479877253E+04  0.15479877253E+04  0.50400001928E-02 0.  1.
    10030    2    1    2    0    0  0.00000000000E+00  0.00000000000E+00 -0.10779211055E+04  0.20180543451E+04  0.17060566902E+04 0.  0.
        2    1    3    3  502    0 -0.95471006221E+02  0.58830554559E+03  0.18292293674E+03  0.62344119915E+03  0.25500000920E-02 0. -1.
       -2    1    3    3    0  502  0.95471006221E+02 -0.58830554559E+03 -0.12608440422E+04  0.13946131460E+04  0.25500000920E-02 0.  1.
</event>
<event>
 5   0  0.1930116E-04  0.1706614E+04  0.7818609E-02  0.8757601E-01
        1   -1    0    0  501    0  0.00000000000E+00  0.00000000000E+00  0.11276558703E+04  0.11276558703E+04  0.50400001928E-02 0. -1.
       -1   -1    0    0    0  501  0.00000000000E+00  0.00000000000E+00 -0.64570461793E+03  0.64570461795E+03  0.50400001928E-02 0.  1.
    10030    2    1    2    0    0  0.00000000000E+00  0.00000000000E+00  0.48195125240E+03  0.17733604883E+04  0.17066137266E+04 0.  0.
        1    1    3    3  502    0 -0.24810735684E+03 -0.67384017143E+02 -0.60450212201E+03  0.65690233812E+03  0.50400001928E-02 0.  1.
       -1    1    3    3    0  502  0.24810735684E+03  0.67384017143E+02  0.10864533744E+04  0.11164581502E+04  0.50400001928E-02 0. -1.
</event>
<event>
 5   0  0.1815663E-04  0.1716503E+04  0.7818609E-02  0.8752008E-01
       -1   -1    0    0    0  501  0.00000000000E+00  0.00000000000E+00  0.76020301576E+03  0.76020301577E+03  0.50400001928E-02 0. -1.
        1   -1    0    0  501    0  0.00000000000E+00  0.00000000000E+00 -0.96894548608E+03  0.96894548609E+03  0.50400001928E-02 0.  1.
    10030    2    1    2    0    0  0.00000000000E+00  0.00000000000E+00 -0.20874247032E+03  0.17291485019E+04  0.17165025845E+04 0.  0.
        5    1    3    3  502    0 -0.49656597002E+03  0.55422642788E+03  0.32636337845E+03  0.81257605228E+03  0.46999998093E+01 0. -1.
       -5    1    3    3    0  502  0.49656597002E+03 -0.55422642788E+03 -0.53510584877E+03  0.91657244958E+03  0.46999998093E+01 0.  1.
</event>
<event>
 5   0  0.1893284E-04  0.1700659E+04  0.7818609E-02  0.8760989E-01
        1   -1    0    0  501    0  0.00000000000E+00  0.00000000000E+00  0.12399323087E+04  0.12399323087E+04  0.50400001928E-02 0. -1.
       -1   -1    0    0    0  501  0.00000000000E+00  0.00000000000E+00 -0.58314496868E+03  0.58314496870E+03  0.50400001928E-02 0.  1.
    10030    2    1    2    0    0  0.00000000000E+00  0.00000000000E+00  0.65678734004E+03  0.18230772774E+04  0.17006590339E+04 0.  0.
        2    1    3    3  502    0  0.30846123012E+03  0.76191368247E+03  0.56177961364E+03  0.99561896543E+03  0.25500000920E-02 0.  1.
       -2    1    3    3    0  502 -0.30846123012E+03 -0.76191368247E+03  0.95007726405E+02  0.82745831201E+03  0.25500000920E-02 0. -1.
</event>
<event>
 5   0  0.3516723E-04  0.1712183E+04  0.7818609E-02  0.8754446E-01
       -2   -1    0    0    0  501  0.00000000000E+00  0.00000000000E+00  0.10835435516E+04  0.10835435516E+04  0.25500000920E-02 0. -1.
        2   -1    0    0  501    0  0.00000000000E+00  0.00000000000E+00 -0.67638488173E+03  0.67638488174E+03  0.25500000920E-02 0.  1.
    10030    2    1    2    0    0  0.00000000000E+00  0.00000000000E+00  0.40715866984E+03  0.17599284333E+04  0.17121827905E+04 0.  0.
        1    1    3    3  502    0 -0.30218810322E+03 -0.23485657512E+03 -0.58355387534E+03  0.69786129428E+03  0.50400001928E-02 0.  1.
       -1    1    3    3    0  502  0.30218810322E+03  0.23485657512E+03  0.99071254518E+03  0.10620671390E+04  0.50400001928E-02 0. -1.
</event>
<event>
 5   0  0.3574092E-04  0.1708776E+04  0.7818609E-02  0.8756375E-01
        2   -1    0    0  501    0  0.00000000000E+00  0.00000000000E+00  0.66571797987E+03  0.66571797987E+03  0.25500000920E-02 0. -1.
       -2   -1    0    0    0  501  0.00000000000E+00  0.00000000000E+00 -0.10965292608E+04  0.10965292608E+04  0.25500000920E-02 0.  1.
    10030    2    1    2    0    0  0.00000000000E+00  0.00000000000E+00 -0.43081128095E+03  0.17622472407E+04  0.17087764563E+04 0.  0.
        3    1    3    3  502    0 -0.15059360416E+03 -0.36162265810E+03  0.56764975796E+03  0.68969242303E+03  0.10100000352E+00 0. -1.
       -3    1    3    3    0  502  0.15059360416E+03  0.36162265810E+03 -0.99846103891E+03  0.10725548177E+04  0.10100000352E+00 0.  1.
</event>
<event>
 5   0  0.1930116E-04  0.1643781E+04  0.7818609E-02  0.8794094E-01
       -1   -1    0    0    0  501  0.00000000000E+00  0.00000000000E+00  0.53312474905E+03  0.53312474907E+03  0.50400001928E-02 0.  1.
        1   -1    0    0  501    0  0.00000000000E+00  0.00000000000E+00 -0.12670658713E+04  0.12670658713E+04  0.50400001928E-02 0. -1.
    10030    2    1    2    0    0  0.00000000000E+00  0.00000000000E+00 -0.73394112226E+03  0.18001906204E+04  0.16437812199E+04 0.  0.
        1    1    3    3  502    0 -0.26604015712E+03 -0.60370733751E+03  0.16983754686E+03  0.68123762882E+03  0.50400001928E-02 0.  1.
       -1    1    3    3    0  502  0.26604015712E+03  0.60370733751E+03 -0.90377866912E+03  0.11189529916E+04  0.50400001928E-02 0. -1.
</event>
<event>
 5   0  0.1893284E-04  0.1709876E+04  0.7818609E-02  0.8755752E-01
       -1   -1    0    0    0  501  0.00000000000E+00  0.00000000000E+00  0.92712896663E+03  0.92712896664E+03  0.50400001928E-02 0. -1.
        1   -1    0    0  501    0  0.00000000000E+00  0.00000000000E+00 -0.78836843860E+03  0.78836843862E+03  0.50400001928E-02 0.  1.
    10030    2    1    2    0    0  0.00000000000E+00  0.00000000000E+00  0.13876052803E+03  0.17154974053E+04  0.17098762714E+04 0.  0.
        2    1    3    3  502    0  0.19468878894E+03 -0.56272907906E+03  0.68487195043E+03  0.90753365197E+03  0.25500000920E-02 0. -1.
       -2    1    3    3    0  502 -0.19468878894E+03  0.56272907906E+03 -0.54611142240E+03  0.80796375330E+03  0.25500000920E-02 0.  1.
</event>
<event>
 5   0  0.1930116E-04  0.1700364E+04  0.7818609E-02  0.8761157E-01
       -1   -1    0    0    0  501  0.00000000000E+00  0.00000000000E+00  0.53654333894E+03  0.53654333896E+03  0.50400001928E-02 0. -1.
        1   -1    0    0  501    0  0.00000000000E+00  0.00000000000E+00 -0.13471591648E+04  0.13471591648E+04  0.50400001928E-02 0.  1.
    10030    2    1    2    0    0  0.00000000000E+00  0.00000000000E+00 -0.81061582590E+03  0.18837025038E+04  0.17003638157E+04 0.  0.
        1    1    3    3  502    0 -0.73624008555E+03  0.43442429775E+02  0.63227403259E+02  0.74022592012E+03  0.50400001928E-02 0. -1.
       -1    1    3    3    0  502  0.73624008555E+03 -0.43442429775E+02 -0.87384322916E+03  0.11434765837E+04  0.50400001928E-02 0.  1.
</event>
<event>
 5   0  0.1893284E-04  0.1644870E+04  0.7818609E-02  0.8793447E-01
       -1   -1    0    0    0  501  0.00000000000E+00  0.00000000000E+00  0.89131237324E+03  0.89131237326E+03  0.50400001928E-02 0. -1.
        1   -1    0    0  501    0  0.00000000000E+00  0.00000000000E+00 -0.75887998188E+03  0.75887998189E+03  0.50400001928E-02 0.  1.
    10030    2    1    2    0    0  0.00000000000E+00  0.00000000000E+00  0.13243239137E+03  0.16501923551E+04  0.16448697428E+04 0.  0.
        2    1    3    3  502    0 -0.56845887302E+03  0.23736926890E+03  0.61287339840E+03  0.86896689385E+03  0.25500000920E-02 0.  1.
       -2    1    3    3    0  502  0.56845887302E+03 -0.23736926890E+03 -0.48044100704E+03  0.78122546130E+03  0.25500000920E-02 0. -1.
</event>
<event>
 5   0  0.1824538E-04  0.1703823E+04  0.7818609E-02  0.8759187E-01
        1   -1    0    0  501    0  0.00000000000E+00  0.00000000000E+00  0.83274405789E+03  0.83274405790E+03  0.50400001928E-02 0. -1.
       -1   -1    0    0    0  501  0.00000000000E+00  0.00000000000E+00 -0.87152034372E+03  0.87152034374E+03  0.50400001928E-02 0.  1.
    10030    2    1    2    0    0  0.00000000000E+00  0.00000000000E+00 -0.38776285838E+02  0.17042644016E+04  0.17038232157E+04 0.  0.
        3    1    3    3  502    0 -0.23229506112E+03  0.36957220443E+03 -0.75115721592E+03  0.86878178096E+03  0.10100000352E+00 0.  1.
       -3    1    3    3    0  502  0.23229506112E+03 -0.36957220443E+03  0.71238093008E+03  0.83548262067E+03  0.10100000352E+00 0. -1.
</event>
<event>
 5   0  0.3516723E-04  0.1698242E+04  0.7818609E-02  0.8762368E-01
        2   -1    0    0  501    0  0.00000000000E+00  0.00000000000E+00  0.80987161135E+03  0.80987161136E+03  0.25500000920E-02 0. -1.
       -2   -1    0    0    0  501  0.00000000000E+00  0.00000000000E+00 -0.89027229433E+03  0.89027229433E+03  0.25500000920E-02 0.  1.
    10030    2    1    2    0    0  0.00000000000E+00  0.00000000000E+00 -0.80400682976E+02  0.17001439057E+04  0.16982417467E+04 0.  0.
        1    1    3    3  502    0  0.77169126538E+03  0.34282858652E+03  0.49159979259E+02  0.84584605715E+03  0.50400001928E-02 0. -1.
       -1    1    3    3    0  502 -0.77169126538E+03 -0.34282858652E+03 -0.12956066224E+03  0.85429784855E+03  0.50400001928E-02 0.  1.
</event>
<event>
 5   0  0.1815663E-04  0.1701133E+04  0.7818609E-02  0.8760718E-01
       -1   -1    0    0    0  501  0.00000000000E+00  0.00000000000E+00  0.56140271820E+03  0.56140271822E+03  0.50400001928E-02 0. -1.
        1   -1    0    0  501    0  0.00000000000E+00  0.00000000000E+00 -0.12886709367E+04  0.12886709367E+04  0.50400001928E-02 0.  1.
    10030    2    1    2    0    0  0.00000000000E+00  0.00000000000E+00 -0.72726821848E+03  0.18500736549E+04  0.17011329951E+04 0.  0.
        5    1    3    3  502    0 -0.44536366771E+03  0.70260873543E+03 -0.55645173990E+03  0.10008338825E+04  0.46999998093E+01 0. -1.
       -5    1    3    3    0  502  0.44536366771E+03 -0.70260873543E+03 -0.17081647859E+03  0.84923977237E+03  0.46999998093E+01 0.  1.
</event>
<event>
 5   0  0.3678896E-04  0.1692739E+04  0.7818609E-02  0.8765517E-01
       -2   -1    0    0    0  501  0.00000000000E+00  0.00000000000E+00  0.17445603164E+04  0.17445603164E+04  0.25500000920E-02 0. -1.
        2   -1    0    0  501    0  0.00000000000E+00  0.00000000000E+00 -0.41061413629E+03  0.41061413629E+03  0.25500000920E-02 0.  1.
    10030    2    1    2    0    0  0.00000000000E+00  0.00000000000E+00  0.13339461801E+04  0.21551744527E+04  0.16927387601E+04 0.  0.
        2    1    3    3  502    0 -0.30681312546E+03  0.39855717634E+03  0.15336381698E+04  0.16140099605E+04  0.25500000920E-02 0. -1.
       -2    1    3    3    0  502  0.30681312546E+03 -0.39855717634E+03 -0.19969198974E+03  0.54116449213E+03  0.25500000920E-02 0.  1.
</event>
<event>
 5   0  0.1893284E-04  0.1689837E+04  0.7818609E-02  0.8767182E-01
        1   -1    0    0  501    0  0.00000000000E+00  0.00000000000E+00  0.16514627887E+04  0.16514627887E+04  0.50400001928E-02 0.  1.
       -1   -1    0    0    0  501  0.00000000000E+00  0.00000000000E+00 -0.43227556423E+03  0.43227556426E+03  0.50400001928E-02 0. -1.
    10030    2    1    2    0    0  0.00000000000E+00  0.00000000000E+00  0.12191872245E+04  0.20837383530E+04  0.16898366890E+04 0.  0.
        2    1    3    3  502    0  0.59367200203E+03 -0.20472927789E+03  0.13066242722E+04  0.14496991109E+04  0.25500000920E-02 0.  1.
       -2    1    3    3    0  502 -0.59367200203E+03  0.20472927789E+03 -0.87437047757E+02  0.63403924212E+03  0.25500000920E-02 0. -1.
</event>
<event>
 5   0  0.3574092E-04  0.1697455E+04  0.7818609E-02  0.8762817E-01
       -2   -1    0    0    0  501  0.00000000000E+00  0.00000000000E+00  0.99966951753E+03  0.99966951753E+03  0.25500000920E-02 0.  1.
        2   -1    0    0  501    0  0.00000000000E+00  0.00000000000E+00 -0.72057682392E+03  0.72057682393E+03  0.25500000920E-02 0. -1.
    10030    2    1    2    0    0  0.00000000000E+00  0.00000000000E+00  0.27909269360E+03  0.17202463415E+04  0.16974553731E+04 0.  0.
        3    1    3    3  502    0  0.74127561616E+03 -0.33900282162E+03 -0.10011611976E+03  0.82124034230E+03  0.10100000352E+00 0. -1.
       -3    1    3    3    0  502 -0.74127561616E+03  0.33900282162E+03  0.37920881336E+03  0.89900599915E+03  0.10100000352E+00 0.  1.
</event>
<event>
 5   0  0.1930116E-04  0.1460689E+04  0.7818609E-02  0.8911023E-01
       -1   -1    0    0    0  501  0.00000000000E+00  0.00000000000E+00  0.98075167119E+03  0.98075167121E+03  0.50400001928E-02 0. -1.
        1   -1    0    0  501    0  0.00000000000E+00  0.00000000000E+00 -0.54387175903E+03  0.54387175905E+03  0.50400001928E-02 0.  1.
    10030    2    1    2    0    0  0.00000000000E+00  0.00000000000E+00  0.43687991216E+03  0.15246234303E+04  0.14606890656E+04 0.  0.
        1    1    3    3  502    0 -0.26655407882E+03 -0.20702675151E+03  0.89447100771E+03  0.95602799982E+03  0.50400001928E-02 0. -1.
       -1    1    3    3    0  502  0.26655407882E+03  0.20702675151E+03 -0.45759109554E+03  0.56859543045E+03  0.50400001928E-02 0.  1.
</event>
<event>
 5   0  0.3574092E-04  0.1695655E+04  0.7818609E-02  0.8763846E-01
        2   -1    0    0  501    0  0.00000000000E+00  0.00000000000E+00  0.12272503051E+04  0.12272503051E+04  0.25500000920E-02 0.  1.
       -2   -1    0    0    0  501  0.00000000000E+00  0.00000000000E+00 -0.58570891519E+03  0.58570891520E+03  0.25500000920E-02 0. -1.
    10030    2    1    2    0    0  0.00000000000E+00  0.00000000000E+00  0.64154138988E+03  0.18129592203E+04  0.16956549706E+04 0.  0.
        3    1    3    3  502    0  0.30857754481E+03  0.59622379657E+03 -0.23284176244E+03  0.71057597293E+03  0.10100000352E+00 0. -1.
       -3    1    3    3    0  502 -0.30857754481E+03 -0.59622379657E+03  0.87438315232E+03  0.11023832473E+04  0.10100000352E+00 0.  1.
</event>
<event>
 5   0  0.1824538E-04  0.1682051E+04  0.7818609E-02  0.8771668E-01
        1   -1    0    0  501    0  0.00000000000E+00  0.00000000000E+00  0.18255354368E+04  0.18255354368E+04  0.50400001928E-02 0. -1.
       -1   -1    0    0    0  501  0.00000000000E+00  0.00000000000E+00 -0.38746090741E+03  0.38746090744E+03  0.50400001928E-02 0.  1.
    10030    2    1    2    0    0  0.00000000000E+00  0.00000000000E+00  0.14380745294E+04  0.22129963443E+04  0.16820506733E+04 0.  0.
        3    1    3    3  502    0 -0.80111928665E+03 -0.57831817534E+02  0.10471260164E+04  0.13197005475E+04  0.10100000352E+00 0. -1.
       -3    1    3    3    0  502  0.80111928665E+03  0.57831817534E+02  0.39094851302E+03  0.89329579681E+03  0.10100000352E+00 0.  1.
</event>
<event>
 5   0  0.1815663E-04  0.1696363E+04  0.7818609E-02  0.8763442E-01
        1   -1    0    0  501    0  0.00000000000E+00  0.00000000000E+00  0.40235233315E+03  0.40235233318E+03  0.50400001928E-02 0.  1.
       -1   -1    0    0    0  501  0.00000000000E+00  0.00000000000E+00 -0.17880140778E+04  0.17880140778E+04  0.50400001928E-02 0. -1.
    10030    2    1    2    0    0  0.00000000000E+00  0.00000000000E+00 -0.13856617446E+04  0.21903664110E+04  0.16963627394E+04 0.  0.
        5    1    3    3  502    0  0.54849347515E+03  0.59352208543E+03 -0.36041928748E+03  0.88489418066E+03  0.46999998093E+01 0.  1.
       -5    1    3    3    0  502 -0.54849347515E+03 -0.59352208543E+03 -0.10252424571E+04  0.13054722303E+04  0.46999998093E+01 0. -1.
</event>
<event>
 5   0  0.1824538E-04  0.1690458E+04  0.7818609E-02  0.8766825E-01
        1   -1    0    0  501    0  0.00000000000E+00  0.00000000000E+00  0.12590454631E+04  0.12590454631E+04  0.50400001928E-02 0. -1.
       -1   -1    0    0    0  501  0.00000000000E+00  0.00000000000E+00 -0.56742345622E+03  0.56742345624E+03  0.50400001928E-02 0.  1.
    10030    2    1    2    0    0  0.00000000000E+00  0.00000000000E+00  0.69162200690E+03  0.18264689194E+04  0.16904578412E+04 0.  0.
        3    1    3    3  502    0 -0.39272635186E+03 -0.63899376993E+03  0.76686387711E+03  0.10726729425E+04  0.10100000352E+00 0. -1.
       -3    1    3    3    0  502  0.39272635186E+03  0.63899376993E+03 -0.75241870205E+02  0.75379597683E+03  0.10100000352E+00 0.  1.
</event>
<event>
 5   0  0.3573262E-04  0.1708025E+04  0.7818609E-02  0.8756801E-01
        2   -1    0    0  501    0  0.00000000000E+00  0.00000000000E+00  0.78066252017E+03  0.78066252017E+03  0.25500000920E-02 0. -1.
       -2   -1    0    0    0  501  0.00000000000E+00  0.00000000000E+00 -0.93425422252E+03  0.93425422253E+03  0.25500000920E-02 0.  1.
    10030    2    1    2    0    0  0.00000000000E+00  0.00000000000E+00 -0.15359170236E+03  0.17149167427E+04  0.17080248896E+04 0.  0.
        5    1    3    3  502    0 -0.48236553619E+03 -0.27491345375E+03 -0.72830644545E+03  0.91580908820E+03  0.46999998093E+01 0.  1.
       -5    1    3    3    0  502  0.48236553619E+03  0.27491345375E+03  0.57471474309E+03  0.79910765450E+03  0.46999998093E+01 0. -1.
</event>
<event>
 5   0  0.3516723E-04  0.1685597E+04  0.7818609E-02  0.8769622E-01
        2   -1    0    0  501    0  0.00000000000E+00  0.00000000000E+00  0.51779874275E+03  0.51779874276E+03  0.25500000920E-02 0.  1.
       -2   -1    0    0    0  501  0.00000000000E+00  0.00000000000E+00 -0.13717872708E+04  0.13717872708E+04  0.25500000920E-02 0. -1.
    10030    2    1    2    0    0  0.00000000000E+00  0.00000000000E+00 -0.85398852805E+03  0.18895860136E+04  0.16855974895E+04 0.  0.
        1    1    3    3  502    0 -0.52749021573E+03  0.42640983319E+03  0.13378224295E+03  0.69135299383E+03  0.50400001928E-02 0.  1.
       -1    1    3    3    0  502  0.52749021573E+03 -0.42640983319E+03 -0.98777077100E+03  0.11982330197E+04  0.50400001928E-02 0. -1.
</event>
<event>
 5   0  0.3516723E-04  0.1690384E+04  0.7818609E-02  0.8766868E-01
       -2   -1    0    0    0  501  0.00000000000E+00  0.00000000000E+00  0.52137569046E+03  0.52137569047E+03  0.25500000920E-02 0.  1.
        2   -1    0    0  501    0  0.00000000000E+00  0.00000000000E+00 -0.13701250108E+04  0.13701250108E+04  0.25500000920E-02 0. -1.
    10030    2    1    2    0    0  0.00000000000E+00  0.00000000000E+00 -0.84874932032E+03  0.18915007012E+04  0.16903844220E+04 0.  0.
        1    1    3    3  502    0  0.77015406435E+03  0.49246775887E+02 -0.38713312962E+02  0.77269738475E+03  0.50400001928E-02 0.  1.
       -1    1    3    3    0  502 -0.77015406435E+03 -0.49246775887E+02 -0.81003600736E+03  0.11188033165E+04  0.50400001928E-02 0. -1.
</event>
<event>
 5   0  0.1893284E-04  0.1701039E+04  0.7818609E-02  0.8760772E-01
        1   -1    0    0  501    0  0.00000000000E+00  0.00000000000E+00  0.90933492141E+03  0.90933492142E+03  0.50400001928E-02 0. -1.
       -1   -1    0    0    0  501  0.00000000000E+00  0.00000000000E+00 -0.79550855324E+03  0.79550855325E+03  0.50400001928E-02 0.  1.
    10030    2    1    2    0    0  0.00000000000E+00  0.00000000000E+00  0.11382636817E+03  0.17048434747E+04  0.17010393385E+04 0.  0.
        2    1    3    3  502    0  0.19811121768E+02  0.46788137856E+03 -0.65465927506E+03  0.80491256132E+03  0.25500000920E-02 0.  1.
       -2    1    3    3    0  502 -0.19811121768E+02 -0.46788137856E+03  0.76848564323E+03  0.89993091335E+03  0.25500000920E-02 0. -1.
</event>
<event>
 5   0  0.1317625E-04  0.1750759E+04  0.7818609E-02  0.8732933E-01
        4   -1    0    0  501    0  0.00000000000E+00  0.00000000000E+00  0.68778358802E+03  0.68778476055E+03  0.12699999809E+01 0. -1.
       -4   -1    0    0    0  501  0.00000000000E+00  0.00000000000E+00 -0.11141400733E+04  0.11141407971E+04  0.12699999809E+01 0.  1.
    10030    2    1    2    0    0  0.00000000000E+00  0.00000000000E+00 -0.42635648524E+03  0.18019255576E+04  0.17507586535E+04 0.  0.
        4    1    3    3  502    0 -0.87416015253E+03  0.31211788463E+02 -0.24819014217E+03  0.90924700031E+03  0.12699999809E+01 0. -1.
       -4    1    3    3    0  502  0.87416015253E+03 -0.31211788463E+02 -0.17816634307E+03  0.89267855732E+03  0.12699999809E+01 0.  1.
</event>
<event>
 5   0  0.3678896E-04  0.1684111E+04  0.7818609E-02  0.8770479E-01
       -2   -1    0    0    0  501  0.00000000000E+00  0.00000000000E+00  0.10033382402E+04  0.10033382402E+04  0.25500000920E-02 0.  1.
        2   -1    0    0  501    0  0.00000000000E+00  0.00000000000E+00 -0.70669850512E+03  0.70669850512E+03  0.25500000920E-02 0. -1.
    10030    2    1    2    0    0  0.00000000000E+00  0.00000000000E+00  0.29663973509E+03  0.17100367453E+04  0.16841112012E+04 0.  0.
        2    1    3    3  502    0  0.20303145574E+03 -0.86399368533E+02 -0.67682210428E+03  0.71188115845E+03  0.25500000920E-02 0. -1.
       -2    1    3    3    0  502 -0.20303145574E+03  0.86399368533E+02  0.97346183937E+03  0.99815558688E+03  0.25500000920E-02 0.  1.
</event>
<event>
 5   0  0.1815663E-04  0.1691624E+04  0.7818609E-02  0.8766156E-01
       -1   -1    0    0    0  501  0.00000000000E+00  0.00000000000E+00  0.69582325593E+03  0.69582325595E+03  0.50400001928E-02 0. -1.
        1   -1    0    0  501    0  0.00000000000E+00  0.00000000000E+00 -0.10281315094E+04  0.10281315094E+04  0.50400001928E-02 0.  1.
    10030    2    1    2    0    0  0.00000000000E+00  0.00000000000E+00 -0.33230825342E+03  0.17239547653E+04  0.16916238523E+04 0.  0.
        5    1    3    3  502    0  0.16843188697E+03 -0.55302226800E+03 -0.79534586928E+03  0.98325992048E+03  0.46999998093E+01 0.  1.
       -5    1    3    3    0  502 -0.16843188697E+03  0.55302226800E+03  0.46303761585E+03  0.74069484482E+03  0.46999998093E+01 0. -1.
</event>
<event>
 5   0  0.1920289E-04  0.1662040E+04  0.7818609E-02  0.8783316E-01
        1   -1    0    0  501    0  0.00000000000E+00  0.00000000000E+00  0.81992027878E+03  0.81992027880E+03  0.50400001928E-02 0. -1.
       -1   -1    0    0    0  501  0.00000000000E+00  0.00000000000E+00 -0.84226979244E+03  0.84226979245E+03  0.50400001928E-02 0.  1.
    10030    2    1    2    0    0  0.00000000000E+00  0.00000000000E+00 -0.22349513658E+02  0.16621900713E+04  0.16620398107E+04 0.  0.
        4    1    3    3  502    0 -0.34780364231E+03  0.75415006077E+03 -0.40889097056E+02  0.83149456939E+03  0.12699999809E+01 0. -1.
       -4    1    3    3    0  502  0.34780364231E+03 -0.75415006077E+03  0.18539583398E+02  0.83069550186E+03  0.12699999809E+01 0.  1.
</event>
<event>
 5   0  0.1824538E-04  0.1716046E+04  0.7818609E-02  0.8752265E-01
       -1   -1    0    0    0  501  0.00000000000E+00  0.00000000000E+00  0.65519080718E+03  0.65519080719E+03  0.50400001928E-02 0.  1.
        1   -1    0    0  501    0  0.00000000000E+00  0.00000000000E+00 -0.11236475268E+04  0.11236475268E+04  0.50400001928E-02 0. -1.
    10030    2    1    2    0    0  0.00000000000E+00  0.00000000000E+00 -0.46845671961E+03  0.17788383340E+04  0.17160460717E+04 0.  0.
        3    1    3    3  502    0  0.90677670358E+02  0.79918782709E+03 -0.54395914735E+03  0.97098670797E+03  0.10100000352E+00 0. -1.
       -3    1    3    3    0  502 -0.90677670358E+02 -0.79918782709E+03  0.75502427740E+02  0.80785162602E+03  0.10100000352E+00 0.  1.
</event>
<event>
 5   0  0.1815663E-04  0.1696145E+04  0.7818609E-02  0.8763566E-01
       -1   -1    0    0    0  501  0.00000000000E+00  0.00000000000E+00  0.68932083296E+03  0.68932083298E+03  0.50400001928E-02 0.  1.
        1   -1    0    0  501    0  0.00000000000E+00  0.00000000000E+00 -0.10433846589E+04  0.10433846589E+04  0.50400001928E-02 0. -1.
    10030    2    1    2    0    0  0.00000000000E+00  0.00000000000E+00 -0.35406382595E+03  0.17327054919E+04  0.16961447842E+04 0.  0.
        5    1    3    3  502    0  0.20824810453E+03 -0.30373116879E+03  0.60336189570E+03  0.70688582042E+03  0.46999998093E+01 0.  1.
       -5    1    3    3    0  502 -0.20824810453E+03  0.30373116879E+03 -0.95742572164E+03  0.10258196715E+04  0.46999998093E+01 0. -1.
</event>
<event>
 5   0  0.3678896E-04  0.1699845E+04  0.7818609E-02  0.8761453E-01
        2   -1    0    0  501    0  0.00000000000E+00  0.00000000000E+00  0.96236828004E+03  0.96236828004E+03  0.25500000920E-02 0. -1.
       -2   -1    0    0    0  501  0.00000000000E+00  0.00000000000E+00 -0.75061522473E+03  0.75061522473E+03  0.25500000920E-02 0.  1.
    10030    2    1    2    0    0  0.00000000000E+00  0.00000000000E+00  0.21175305531E+03  0.17129835048E+04  0.16998450315E+04 0.  0.
        2    1    3    3  502    0 -0.59671168442E+03  0.55607288809E+03  0.34665083763E+03  0.88625543408E+03  0.25500000920E-02 0. -1.
       -2    1    3    3    0  502  0.59671168442E+03 -0.55607288809E+03 -0.13489778232E+03  0.82672807069E+03  0.25500000920E-02 0.  1.
</event>
<event>
 5   0  0.3678896E-04  0.1786395E+04  0.7818609E-02  0.8713568E-01
        2   -1    0    0  501    0  0.00000000000E+00  0.00000000000E+00  0.16958742853E+04  0.16958742853E+04  0.25500000920E-02 0.  1.
       -2   -1    0    0    0  501  0.00000000000E+00  0.00000000000E+00 -0.47043704014E+03  0.47043704015E+03  0.25500000920E-02 0. -1.
    10030    2    1    2    0    0  0.00000000000E+00  0.00000000000E+00  0.12254372451E+04  0.21663113254E+04  0.17863953417E+04 0.  0.
        2    1    3    3  502    0 -0.36620551456E+03  0.29374056292E+03  0.15341992856E+04  0.16044181017E+04  0.25500000920E-02 0. -1.
       -2    1    3    3    0  502  0.36620551456E+03 -0.29374056292E+03 -0.30876204047E+03  0.56189322370E+03  0.25500000920E-02 0.  1.
</event>
<event>
 5   0  0.1920289E-04  0.1702594E+04  0.7818609E-02  0.8759887E-01
       -1   -1    0    0    0  501  0.00000000000E+00  0.00000000000E+00  0.10570199990E+04  0.10570199990E+04  0.50400001928E-02 0. -1.
        1   -1    0    0  501    0  0.00000000000E+00  0.00000000000E+00 -0.68561261356E+03  0.68561261358E+03  0.50400001928E-02 0.  1.
    10030    2    1    2    0    0  0.00000000000E+00  0.00000000000E+00  0.37140738545E+03  0.17426326126E+04  0.17025936029E+04 0.  0.
        4    1    3    3  502    0 -0.37583881035E+03 -0.75973441851E+03  0.26664199630E+03  0.88856669143E+03  0.12699999809E+01 0.  1.
       -4    1    3    3    0  502  0.37583881035E+03  0.75973441851E+03  0.10476538915E+03  0.85406592117E+03  0.12699999809E+01 0. -1.
</event>
<event>
 5   0  0.1930116E-04  0.1695291E+04  0.7818609E-02  0.8764055E-01
       -1   -1    0    0    0  501  0.00000000000E+00  0.00000000000E+00  0.13279796346E+04  0.13279796346E+04  0.50400001928E-02 0.  1.
        1   -1    0    0  501    0  0.00000000000E+00  0.00000000000E+00 -0.54104937155E+03  0.54104937157E+03  0.50400001928E-02 0. -1.
    10030    2    1    2    0    0  0.00000000000E+00  0.00000000000E+00  0.78693026302E+03  0.18690290062E+04  0.16952905907E+04 0.  0.
        1    1    3    3  502    0 -0.19032867738E+03 -0.53334098579E+03  0.10888382368E+04  0.12272922710E+04  0.50400001928E-02 0.  1.
       -1    1    3    3    0  502  0.19032867738E+03  0.53334098579E+03 -0.30190797379E+03  0.64173673513E+03  0.50400001928E-02 0. -1.
</event>
<event>
 5   0  0.1930116E-04  0.1705647E+04  0.7818609E-02  0.8758150E-01
        1   -1    0    0  501    0  0.00000000000E+00  0.00000000000E+00  0.23024641727E+04  0.23024641727E+04  0.50400001928E-02 0.  1.
       -1   -1    0    0    0  501  0.00000000000E+00  0.00000000000E+00 -0.31588253069E+03  0.31588253073E+03  0.50400001928E-02 0. -1.
    10030    2    1    2    0    0  0.00000000000E+00  0.00000000000E+00  0.19865816420E+04  0.26183467035E+04  0.17056473372E+04 0.  0.
        1    1    3    3  502    0 -0.64177354053E+03 -0.38708948069E+02  0.18534104367E+04  0.19617599004E+04  0.50400001928E-02 0.  1.
       -1    1    3    3    0  502  0.64177354053E+03  0.38708948069E+02  0.13317120535E+03  0.65658680306E+03  0.50400001928E-02 0. -1.
</event>
<event>
 5   0  0.1815663E-04  0.1412199E+04  0.7818609E-02  0.8945035E-01
        1   -1    0    0  501    0  0.00000000000E+00  0.00000000000E+00  0.28384792637E+04  0.28384792637E+04  0.50400001928E-02 0. -1.
       -1   -1    0    0    0  501  0.00000000000E+00  0.00000000000E+00 -0.17564922802E+03  0.17564922809E+03  0.50400001928E-02 0.  1.
    10030    2    1    2    0    0  0.00000000000E+00  0.00000000000E+00  0.26628300356E+04  0.30141284918E+04  0.14121992657E+04 0.  0.
        5    1    3    3  502    0  0.13998927961E+03 -0.42518436572E+03  0.16594254633E+03  0.47742827937E+03  0.46999998093E+01 0.  1.
       -5    1    3    3    0  502 -0.13998927961E+03  0.42518436572E+03  0.24968874893E+04  0.25367002124E+04  0.46999998093E+01 0. -1.
</event>
<event>
 5   0  0.3516723E-04  0.1699416E+04  0.7818609E-02  0.8761697E-01
       -2   -1    0    0    0  501  0.00000000000E+00  0.00000000000E+00  0.91110287454E+03  0.91110287455E+03  0.25500000920E-02 0.  1.
        2   -1    0    0  501    0  0.00000000000E+00  0.00000000000E+00 -0.79245040924E+03  0.79245040924E+03  0.25500000920E-02 0. -1.
    10030    2    1    2    0    0  0.00000000000E+00  0.00000000000E+00  0.11865246530E+03  0.17035532838E+04  0.16994161889E+04 0.  0.
        1    1    3    3  502    0  0.32715187046E+03 -0.48118294104E+03 -0.56140531208E+03  0.80854269742E+03  0.50400001928E-02 0. -1.
       -1    1    3    3    0  502 -0.32715187046E+03  0.48118294104E+03  0.68005777739E+03  0.89501058636E+03  0.50400001928E-02 0.  1.
</event>
<event>
 5   0  0.3574092E-04  0.1694706E+04  0.7818609E-02  0.8764390E-01
        2   -1    0    0  501    0  0.00000000000E+00  0.00000000000E+00  0.18929883967E+04  0.18929883967E+04  0.25500000920E-02 0.  1.
       -2   -1    0    0    0  501  0.00000000000E+00  0.00000000000E+00 -0.37929813898E+03  0.37929813899E+03  0.25500000920E-02 0. -1.
    10030    2    1    2    0    0  0.00000000000E+00  0.00000000000E+00  0.15136902577E+04  0.22722865357E+04  0.16947058458E+04 0.  0.
        3    1    3    3  502    0  0.39122686318E+03 -0.24809402559E+03  0.17081603615E+04  0.17698646657E+04  0.10100000352E+00 0.  1.
       -3    1    3    3    0  502 -0.39122686318E+03  0.24809402559E+03 -0.19447010378E+03  0.50242187001E+03  0.10100000352E+00 0. -1.
</event>
<event>
 5   0  0.3516723E-04  0.1715947E+04  0.7818609E-02  0.8752321E-01
        2   -1    0    0  501    0  0.00000000000E+00  0.00000000000E+00  0.40796502813E+03  0.40796502814E+03  0.25500000920E-02 0. -1.
       -2   -1    0    0    0  501  0.00000000000E+00  0.00000000000E+00 -0.18043659028E+04  0.18043659028E+04  0.25500000920E-02 0.  1.
    10030    2    1    2    0    0  0.00000000000E+00  0.00000000000E+00 -0.13964008747E+04  0.22123309310E+04  0.17159466033E+04 0.  0.
        1    1    3    3  502    0 -0.57055661884E+03  0.35360653275E+03 -0.92560395265E+01  0.67131073997E+03  0.50400001928E-02 0. -1.
       -1    1    3    3    0  502  0.57055661884E+03 -0.35360653275E+03 -0.13871448352E+04  0.15410201910E+04  0.50400001928E-02 0.  1.
</event>
<event>
 5   0  0.3574092E-04  0.1705868E+04  0.7818609E-02  0.8758025E-01
        2   -1    0    0  501    0  0.00000000000E+00  0.00000000000E+00  0.17371087330E+04  0.17371087330E+04  0.25500000920E-02 0. -1.
       -2   -1    0    0    0  501  0.00000000000E+00  0.00000000000E+00 -0.41879711916E+03  0.41879711917E+03  0.25500000920E-02 0.  1.
    10030    2    1    2    0    0  0.00000000000E+00  0.00000000000E+00  0.13183116138E+04  0.21559058522E+04  0.17058676772E+04 0.  0.
        3    1    3    3  502    0 -0.19282787818E+03 -0.82399815328E+03  0.79374246247E+03  0.11602511168E+04  0.10100000352E+00 0.  1.
       -3    1    3    3    0  502  0.19282787818E+03  0.82399815328E+03  0.52456915138E+03  0.99565473533E+03  0.10100000352E+00 0. -1.
</event>
<event>
 5   0  0.3573262E-04  0.1614102E+04  0.7818609E-02  0.8811931E-01
       -2   -1    0    0    0  501  0.00000000000E+00  0.00000000000E+00  0.89718359444E+03  0.89718359444E+03  0.25500000920E-02 0.  1.
        2   -1    0    0  501    0  0.00000000000E+00  0.00000000000E+00 -0.72597333588E+03  0.72597333588E+03  0.25500000920E-02 0. -1.
    10030    2    1    2    0    0  0.00000000000E+00  0.00000000000E+00  0.17121025856E+03  0.16231569303E+04  0.16141020624E+04 0.  0.
        5    1    3    3  502    0  0.10278497124E+02 -0.56072970139E+03  0.66919322474E+03  0.87313521722E+03  0.46999998093E+01 0. -1.
       -5    1    3    3    0  502 -0.10278497124E+02  0.56072970139E+03 -0.49798296618E+03  0.75002171310E+03  0.46999998093E+01 0.  1.
</event>
<event>
 5   0  0.1317625E-04  0.1652887E+04  0.7818609E-02  0.8788700E-01
        4   -1    0    0  501    0  0.00000000000E+00  0.00000000000E+00  0.10529587955E+04  0.10529595614E+04  0.12699999809E+01 0. -1.
       -4   -1    0    0    0  501  0.00000000000E+00  0.00000000000E+00 -0.64865524960E+03  0.64865649286E+03  0.12699999809E+01 0.  1.
    10030    2    1    2    0    0  0.00000000000E+00  0.00000000000E+00  0.40430354590E+03  0.17016160543E+04  0.16528871222E+04 0.  0.
        4    1    3    3  502    0 -0.46948422761E+03  0.51295834081E+03  0.66193426916E+03  0.96005223242E+03  0.12699999809E+01 0. -1.
       -4    1    3    3    0  502  0.46948422761E+03 -0.51295834081E+03 -0.25763072325E+03  0.74156382183E+03  0.12699999809E+01 0.  1.
</event>
<event>
 5   0  0.1824538E-04  0.1725835E+04  0.7818609E-02  0.8746765E-01
       -1   -1    0    0    0  501  0.00000000000E+00  0.00000000000E+00  0.81569618877E+03  0.81569618878E+03  0.50400001928E-02 0. -1.
        1   -1    0    0  501    0  0.00000000000E+00  0.00000000000E+00 -0.91287251226E+03  0.91287251227E+03  0.50400001928E-02 0.  1.
    10030    2    1    2    0    0  0.00000000000E+00  0.00000000000E+00 -0.97176323488E+02  0.17285687011E+04  0.17258350200E+04 0.  0.
        3    1    3    3  502    0  0.26979504443E+03 -0.61534157311E+03  0.49374158576E+03  0.83379576714E+03  0.10100000352E+00 0. -1.
       -3    1    3    3    0  502 -0.26979504443E+03  0.61534157311E+03 -0.59091790925E+03  0.89477293391E+03  0.10100000352E+00 0.  1.
</event>
<event>
 5   0  0.3516723E-04  0.1691433E+04  0.7818609E-02  0.8766265E-01
       -2   -1    0    0    0  501  0.00000000000E+00  0.00000000000E+00  0.15033789414E+04  0.15033789414E+04  0.25500000920E-02 0. -1.
        2   -1    0    0  501    0  0.00000000000E+00  0.00000000000E+00 -0.47575283877E+03  0.47575283878E+03  0.25500000920E-02 0.  1.
    10030    2    1    2    0    0  0.00000000000E+00  0.00000000000E+00  0.10276261026E+04  0.19791317802E+04  0.16914334739E+04 0.  0.
        1    1    3    3  502    0  0.61291756918E+03  0.43107441965E+03  0.97260781420E+03  0.12277862445E+04  0.50400001928E-02 0. -1.
       -1    1    3    3    0  502 -0.61291756918E+03 -0.43107441965E+03  0.55018288406E+02  0.75134553567E+03  0.50400001928E-02 0.  1.
</event>
<event>
 5   0  0.1824538E-04  0.1697499E+04  0.7818609E-02  0.8762792E-01
        1   -1    0    0  501    0  0.00000000000E+00  0.00000000000E+00  0.91630022415E+03  0.91630022416E+03  0.50400001928E-02 0.  1.
       -1   -1    0    0    0  501  0.00000000000E+00  0.00000000000E+00 -0.78617874752E+03  0.78617874754E+03  0.50400001928E-02 0. -1.
    10030    2    1    2    0    0  0.00000000000E+00  0.00000000000E+00  0.13012147663E+03  0.17024789717E+04  0.16974990576E+04 0.  0.
        3    1    3    3  502    0  0.62543330516E+03 -0.23768951287E+03 -0.45869023052E+03  0.81120888895E+03  0.10100000352E+00 0. -1.
       -3    1    3    3    0  502 -0.62543330516E+03  0.23768951287E+03  0.58881170714E+03  0.89127008275E+03  0.10100000352E+00 0.  1.
</event>
<event>
 5   0  0.1893284E-04  0.1708481E+04  0.7818609E-02  0.8756542E-01
       -1   -1    0    0    0  501  0.00000000000E+00  0.00000000000E+00  0.61777640329E+03  0.61777640331E+03  0.50400001928E-02 0. -1.
        1   -1    0    0  501    0  0.00000000000E+00  0.00000000000E+00 -0.11812154148E+04  0.11812154148E+04  0.50400001928E-02 0.  1.
    10030    2    1    2    0    0  0.00000000000E+00  0.00000000000E+00 -0.56343901148E+03  0.17989918181E+04  0.17084812091E+04 0.  0.
        2    1    3    3  502    0  0.60171068984E+03  0.15594640076E+03 -0.89872461080E+03  0.10927401156E+04  0.25500000920E-02 0.  1.
       -2    1    3    3    0  502 -0.60171068984E+03 -0.15594640076E+03  0.33528559931E+03  0.70625170250E+03  0.25500000920E-02 0. -1.
</event>
<event>
 5   0  0.1920289E-04  0.1711722E+04  0.7818609E-02  0.8754707E-01
       -1   -1    0    0    0  501  0.00000000000E+00  0.00000000000E+00  0.57495138322E+03  0.57495138325E+03  0.50400001928E-02 0. -1.
        1   -1    0    0  501    0  0.00000000000E+00  0.00000000000E+00 -0.12740178322E+04  0.12740178322E+04  0.50400001928E-02 0.  1.
    10030    2    1    2    0    0  0.00000000000E+00  0.00000000000E+00 -0.69906644901E+03  0.18489692155E+04  0.17117223080E+04 0.  0.
        4    1    3    3  502    0 -0.39162594264E+03  0.76046249133E+03 -0.31855213943E+03  0.91277114224E+03  0.12699999809E+01 0. -1.
       -4    1    3    3    0  502  0.39162594264E+03 -0.76046249133E+03 -0.38051430957E+03  0.93619807325E+03  0.12699999809E+01 0.  1.
</event>
<event>
 5   0  0.3605571E-04  0.1695387E+04  0.7818609E-02  0.8764000E-01
        2   -1    0    0  501    0  0.00000000000E+00  0.00000000000E+00  0.72954282346E+03  0.72954282346E+03  0.25500000920E-02 0.  1.
       -2   -1    0    0    0  501  0.00000000000E+00  0.00000000000E+00 -0.98497849413E+03  0.98497849413E+03  0.25500000920E-02 0. -1.
    10030    2    1    2    0    0  0.00000000000E+00  0.00000000000E+00 -0.25543567067E+03  0.17145213176E+04  0.16953866717E+04 0.  0.
        4    1    3    3  502    0 -0.36131520436E+03  0.16265453451E+03  0.63012449529E+03  0.74435453042E+03  0.12699999809E+01 0.  1.
       -4    1    3    3    0  502  0.36131520436E+03 -0.16265453451E+03 -0.88556016596E+03  0.97016678717E+03  0.12699999809E+01 0. -1.
</event>
<event>
 5   0  0.1815663E-04  0.1704045E+04  0.7818609E-02  0.8759061E-01
       -1   -1    0    0    0  501  0.00000000000E+00  0.00000000000E+00  0.14736032301E+04  0.14736032301E+04  0.50400001928E-02 0.  1.
        1   -1    0    0  501    0  0.00000000000E+00  0.00000000000E+00 -0.49263057658E+03  0.49263057660E+03  0.50400001928E-02 0. -1.
    10030    2    1    2    0    0  0.00000000000E+00  0.00000000000E+00  0.98097265350E+03  0.19662338067E+04  0.17040446108E+04 0.  0.
        5    1    3    3  502    0  0.35433606271E+03  0.68476031988E+03  0.72110896093E+02  0.77438544172E+03  0.46999998093E+01 0. -1.
       -5    1    3    3    0  502 -0.35433606271E+03 -0.68476031988E+03  0.90886175740E+03  0.11918483650E+04  0.46999998093E+01 0.  1.
</event>
<event>
 5   0  0.1815663E-04  0.1700126E+04  0.7818609E-02  0.8761293E-01
       -1   -1    0    0    0  501  0.00000000000E+00  0.00000000000E+00  0.59601463603E+03  0.59601463605E+03  0.50400001928E-02 0.  1.
        1   -1    0    0  501    0  0.00000000000E+00  0.00000000000E+00 -0.12123979643E+04  0.12123979643E+04  0.50400001928E-02 0. -1.
    10030    2    1    2    0    0  0.00000000000E+00  0.00000000000E+00 -0.61638332829E+03  0.18084126004E+04  0.17001257970E+04 0.  0.
        5    1    3    3  502    0  0.67279091937E+03 -0.49070195988E+03 -0.12658705857E+03  0.84230778698E+03  0.46999998093E+01 0.  1.
       -5    1    3    3    0  502 -0.67279091937E+03  0.49070195988E+03 -0.48979626972E+03  0.96610481339E+03  0.46999998093E+01 0. -1.
</event>
<event>
 5   0  0.1815663E-04  0.1693016E+04  0.7818609E-02  0.8765357E-01
        1   -1    0    0  501    0  0.00000000000E+00  0.00000000000E+00  0.16256575831E+04  0.16256575831E+04  0.50400001928E-02 0.  1.
       -1   -1    0    0    0  501  0.00000000000E+00  0.00000000000E+00 -0.44079159899E+03  0.44079159901E+03  0.50400001928E-02 0. -1.
    10030    2    1    2    0    0  0.00000000000E+00  0.00000000000E+00  0.11848659841E+04  0.20664491821E+04  0.16930164860E+04 0.  0.
        5    1    3    3  502    0  0.55436747220E+03  0.12138804407E+03 -0.17419507397E+03  0.59365340501E+03  0.46999998093E+01 0. -1.
       -5    1    3    3    0  502 -0.55436747220E+03 -0.12138804407E+03  0.13590610580E+04  0.14727957771E+04  0.46999998093E+01 0.  1.
</event>
<event>
 5   0  0.3573262E-04  0.1687234E+04  0.7818609E-02  0.8768679E-01
        2   -1    0    0  501    0  0.00000000000E+00  0.00000000000E+00  0.10368615557E+04  0.10368615557E+04  0.25500000920E-02 0. -1.
       -2   -1    0    0    0  501  0.00000000000E+00  0.00000000000E+00 -0.68638852541E+03  0.68638852542E+03  0.25500000920E-02 0.  1.
    10030    2    1    2    0    0  0.00000000000E+00  0.00000000000E+00  0.35047303026E+03  0.17232500811E+04  0.16872342745E+04 0.  0.
        5    1    3    3  502    0 -0.34557327450E+03  0.22081370628E+03  0.92818970845E+03  0.10147599745E+04  0.46999998093E+01 0. -1.
       -5    1    3    3    0  502  0.34557327450E+03 -0.22081370628E+03 -0.57771667819E+03  0.70849010662E+03  0.46999998093E+01 0.  1.
</event>
<event>
 5   0  0.3516723E-04  0.1597284E+04  0.7818609E-02  0.8822218E-01
        2   -1    0    0  501    0  0.00000000000E+00  0.00000000000E+00  0.55851858956E+03  0.55851858957E+03  0.25500000920E-02 0. -1.
       -2   -1    0    0    0  501  0.00000000000E+00  0.00000000000E+00 -0.11420021499E+04  0.11420021499E+04  0.25500000920E-02 0.  1.
    10030    2    1    2    0    0  0.00000000000E+00  0.00000000000E+00 -0.58348356034E+03  0.17005207395E+04  0.15972844832E+04 0.  0.
        1    1    3    3  502    0 -0.16715783624E+03 -0.44725089285E+03  0.38983442829E+03  0.61639758669E+03  0.50400001928E-02 0. -1.
       -1    1    3    3    0  502  0.16715783624E+03  0.44725089285E+03 -0.97331798863E+03  0.10841231528E+04  0.50400001928E-02 0.  1.
</event>
<event>
 5   0  0.1893284E-04  0.1701514E+04  0.7818609E-02  0.8760501E-01
       -1   -1    0    0    0  501  0.00000000000E+00  0.00000000000E+00  0.92748184367E+03  0.92748184368E+03  0.50400001928E-02 0.  1.
        1   -1    0    0  501    0  0.00000000000E+00  0.00000000000E+00 -0.78037935647E+03  0.78037935648E+03  0.50400001928E-02 0. -1.
    10030    2    1    2    0    0  0.00000000000E+00  0.00000000000E+00  0.14710248720E+03  0.17078612002E+04  0.17015142483E+04 0.  0.
        2    1    3    3  502    0  0.61736805062E+02  0.12736043995E+03  0.91558190190E+03  0.92645687102E+03  0.25500000920E-02 0.  1.
       -2    1    3    3    0  502 -0.61736805062E+02 -0.12736043995E+03 -0.76847941471E+03  0.78140432914E+03  0.25500000920E-02 0. -1.
</event>
<event>
 5   0  0.1317625E-04  0.1697075E+04  0.7818609E-02  0.8763034E-01
        4   -1    0    0  501    0  0.00000000000E+00  0.00000000000E+00  0.10888833625E+04  0.10888841031E+04  0.12699999809E+01 0.  1.
       -4   -1    0    0    0  501  0.00000000000E+00  0.00000000000E+00 -0.66124123820E+03  0.66124245780E+03  0.12699999809E+01 0. -1.
    10030    2    1    2    0    0  0.00000000000E+00  0.00000000000E+00  0.42764212431E+03  0.17501265609E+04  0.16970754824E+04 0.  0.
        2    1    3    3  502    0  0.17279774230E+03  0.17911107717E+03 -0.62275700595E+03  0.67064605134E+03  0.25500000920E-02 0. -1.
       -2    1    3    3    0  502 -0.17279774230E+03 -0.17911107717E+03  0.10503991303E+04  0.10794805096E+04  0.25500000920E-02 0.  1.
</event>
<event>
 5   0  0.3516723E-04  0.1697214E+04  0.7818609E-02  0.8762955E-01
        2   -1    0    0  501    0  0.00000000000E+00  0.00000000000E+00  0.23490211171E+04  0.23490211171E+04  0.25500000920E-02 0. -1.
       -2   -1    0    0    0  501  0.00000000000E+00  0.00000000000E+00 -0.30656772544E+03  0.30656772545E+03  0.25500000920E-02 0.  1.
    10030    2    1    2    0    0  0.00000000000E+00  0.00000000000E+00  0.20424533916E+04  0.26555888425E+04  0.16972142598E+04 0.  0.
        1    1    3    3  502    0  0.54852433521E+03 -0.32298272254E+02  0.20330912324E+04  0.21060346826E+04  0.50400001928E-02 0. -1.
       -1    1    3    3    0  502 -0.54852433521E+03  0.32298272254E+02  0.93621592121E+01  0.54955415999E+03  0.50400001928E-02 0.  1.
</event>
<event>
 5   0  0.3516723E-04  0.1693094E+04  0.7818609E-02  0.8765313E-01
        2   -1    0    0  501    0  0.00000000000E+00  0.00000000000E+00  0.79680116807E+03  0.79680116808E+03  0.25500000920E-02 0. -1.
       -2   -1    0    0    0  501  0.00000000000E+00  0.00000000000E+00 -0.89939871136E+03  0.89939871136E+03  0.25500000920E-02 0.  1.
    10030    2    1    2    0    0  0.00000000000E+00  0.00000000000E+00 -0.10259754328E+03  0.16961998794E+04  0.16930941424E+04 0.  0.
        1    1    3    3  502    0  0.13772509969E+03  0.83299960214E+02  0.78133037057E+03  0.79773694565E+03  0.50400001928E-02 0. -1.
       -1    1    3    3    0  502 -0.13772509969E+03 -0.83299960214E+02 -0.88392791386E+03  0.89846293378E+03  0.50400001928E-02 0.  1.
</event>
<event>
 5   0  0.3574092E-04  0.1629022E+04  0.7818609E-02  0.8802914E-01
       -2   -1    0    0    0  501  0.00000000000E+00  0.00000000000E+00  0.52086107507E+03  0.52086107508E+03  0.25500000920E-02 0. -1.
        2   -1    0    0  501    0  0.00000000000E+00  0.00000000000E+00 -0.12737144243E+04  0.12737144243E+04  0.25500000920E-02 0.  1.
    10030    2    1    2    0    0  0.00000000000E+00  0.00000000000E+00 -0.75285334924E+03  0.17945754994E+04  0.16290221170E+04 0.  0.
        3    1    3    3  502    0 -0.40973027458E+02 -0.65372183311E+03  0.15692171873E+03  0.67353950150E+03  0.10100000352E+00 0. -1.
       -3    1    3    3    0  502  0.40973027458E+02  0.65372183311E+03 -0.90977506797E+03  0.11210359979E+04  0.10100000352E+00 0.  1.
</event>
<event>
 5   0  0.1920289E-04  0.1721573E+04  0.7818609E-02  0.8749155E-01
       -1   -1    0    0    0  501  0.00000000000E+00  0.00000000000E+00  0.45033729355E+03  0.45033729358E+03  0.50400001928E-02 0. -1.
        1   -1    0    0  501    0  0.00000000000E+00  0.00000000000E+00 -0.16453306367E+04  0.16453306368E+04  0.50400001928E-02 0.  1.
    10030    2    1    2    0    0  0.00000000000E+00  0.00000000000E+00 -0.11949933432E+04  0.20956679303E+04  0.17215734036E+04 0.  0.
        4    1    3    3  502    0 -0.50053362961E+03 -0.69907793872E+03 -0.54718448577E+03  0.10191449127E+04  0.12699999809E+01 0.  1.
       -4    1    3    3    0  502  0.50053362961E+03  0.69907793872E+03 -0.64780885742E+03  0.10765230176E+04  0.12699999809E+01 0. -1.
</event>
<event>
 5   0  0.1920289E-04  0.1690627E+04  0.7818609E-02  0.8766728E-01
        1   -1    0    0  501    0  0.00000000000E+00  0.00000000000E+00  0.12009084165E+04  0.12009084165E+04  0.50400001928E-02 0. -1.
       -1   -1    0    0    0  501  0.00000000000E+00  0.00000000000E+00 -0.59501221479E+03  0.59501221482E+03  0.50400001928E-02 0.  1.
    10030    2    1    2    0    0  0.00000000000E+00  0.00000000000E+00  0.60589620170E+03  0.17959206313E+04  0.16906273116E+04 0.  0.
        4    1    3    3  502    0  0.30790242242E+03  0.69330145380E+03  0.69911291751E+03  0.10316158645E+04  0.12699999809E+01 0. -1.
       -4    1    3    3    0  502 -0.30790242242E+03 -0.69330145380E+03 -0.93216715804E+02  0.76430476682E+03  0.12699999809E+01 0.  1.
</event>
<event>
 5   0  0.1930116E-04  0.1708125E+04  0.7818609E-02  0.8756744E-01
        1   -1    0    0  501    0  0.00000000000E+00  0.00000000000E+00  0.35289340415E+03  0.35289340419E+03  0.50400001928E-02 0. -1.
       -1   -1    0    0    0  501  0.00000000000E+00  0.00000000000E+00 -0.20669775469E+04  0.20669775469E+04  0.50400001928E-02 0.  1.
    10030    2    1    2    0    0  0.00000000000E+00  0.00000000000E+00 -0.17140841428E+04  0.24198709511E+04  0.17081249871E+04 0.  0.
        1    1    3    3  502    0  0.92507621496E+02  0.48644047322E+03  0.12879064474E+03  0.51163368167E+03  0.50400001928E-02 0. -1.
       -1    1    3    3    0  502 -0.92507621496E+02 -0.48644047322E+03 -0.18428747875E+04  0.19082372694E+04  0.50400001928E-02 0.  1.
</event>
<event>
 5   0  0.3573262E-04  0.1704549E+04  0.7818609E-02  0.8758774E-01
        2   -1    0    0  501    0  0.00000000000E+00  0.00000000000E+00  0.35305951539E+03  0.35305951540E+03  0.25500000920E-02 0.  1.
       -2   -1    0    0    0  501  0.00000000000E+00  0.00000000000E+00 -0.20573634049E+04  0.20573634049E+04  0.25500000920E-02 0. -1.
    10030    2    1    2    0    0  0.00000000000E+00  0.00000000000E+00 -0.17043038895E+04  0.24104229203E+04  0.17045488866E+04 0.  0.
        5    1    3    3  502    0 -0.82689449054E+03  0.20638448242E+03 -0.85323228279E+03  0.12059753196E+04  0.46999998093E+01 0. -1.
       -5    1    3    3    0  502  0.82689449054E+03 -0.20638448242E+03 -0.85107160672E+03  0.12044476007E+04  0.46999998093E+01 0.  1.
</event>
<event>
 5   0  0.1824538E-04  0.1732555E+04  0.7818609E-02  0.8743012E-01
       -1   -1    0    0    0  501  0.00000000000E+00  0.00000000000E+00  0.63939297374E+03  0.63939297376E+03  0.50400001928E-02 0. -1.
        1   -1    0    0  501    0  0.00000000000E+00  0.00000000000E+00 -0.11736704549E+04  0.11736704549E+04  0.50400001928E-02 0.  1.
    10030    2    1    2    0    0  0.00000000000E+00  0.00000000000E+00 -0.53427748120E+03  0.18130634287E+04  0.17325549254E+04 0.  0.
        3    1    3    3  502    0  0.17226635727E+03  0.40283191535E+03 -0.10491854072E+04  0.11369869299E+04  0.10100000352E+00 0.  1.
       -3    1    3    3    0  502 -0.17226635727E+03 -0.40283191535E+03  0.51490792596E+03  0.67607649884E+03  0.10100000352E+00 0. -1.
</event>
<event>
 5   0  0.3573262E-04  0.1701223E+04  0.7818609E-02  0.8760667E-01
       -2   -1    0    0    0  501  0.00000000000E+00  0.00000000000E+00  0.79920996307E+03  0.79920996307E+03  0.25500000920E-02 0. -1.
        2   -1    0    0  501    0  0.00000000000E+00  0.00000000000E+00 -0.90531849237E+03  0.90531849237E+03  0.25500000920E-02 0.  1.
    10030    2    1    2    0    0  0.00000000000E+00  0.00000000000E+00 -0.10610852930E+03  0.17045284554E+04  0.17012225708E+04 0.  0.
        5    1    3    3  502    0 -0.90333272456E+02 -0.77860914199E+03  0.27792866202E+03  0.83166022345E+03  0.46999998093E+01 0. -1.
       -5    1    3    3    0  502  0.90333272456E+02  0.77860914199E+03 -0.38403719133E+03  0.87286823199E+03  0.46999998093E+01 0.  1.
</event>
<event>
 5   0  0.3516723E-04  0.1709043E+04  0.7818609E-02  0.8756223E-01
       -2   -1    0    0    0  501  0.00000000000E+00  0.00000000000E+00  0.65053972518E+03  0.65053972519E+03  0.25500000920E-02 0.  1.
        2   -1    0    0  501    0  0.00000000000E+00  0.00000000000E+00 -0.11224639449E+04  0.11224639449E+04  0.25500000920E-02 0. -1.
    10030    2    1    2    0    0  0.00000000000E+00  0.00000000000E+00 -0.47192421969E+03  0.17730036701E+04  0.17090434591E+04 0.  0.
        1    1    3    3  502    0  0.63040751386E+03  0.19658086473E+03 -0.79861524744E+03  0.10362644370E+04  0.50400001928E-02 0. -1.
       -1    1    3    3    0  502 -0.63040751386E+03 -0.19658086473E+03  0.32669102775E+03  0.73673923307E+03  0.50400001928E-02 0.  1.
</event>
<event>
 5   0  0.3605571E-04  0.1705958E+04  0.7818609E-02  0.8757973E-01
        2   -1    0    0  501    0  0.00000000000E+00  0.00000000000E+00  0.88003476136E+03  0.88003476136E+03  0.25500000920E-02 0. -1.
       -2   -1    0    0    0  501  0.00000000000E+00  0.00000000000E+00 -0.82675527539E+03  0.82675527539E+03  0.25500000920E-02 0.  1.
    10030    2    1    2    0    0  0.00000000000E+00  0.00000000000E+00  0.53279485967E+02  0.17067900368E+04  0.17059582427E+04 0.  0.
        4    1    3    3  502    0 -0.84688557883E+03 -0.14070846265E+02  0.12747874808E+03  0.85654282815E+03  0.12699999809E+01 0.  1.
       -4    1    3    3    0  502  0.84688557883E+03  0.14070846265E+02 -0.74199262110E+02  0.85024720861E+03  0.12699999809E+01 0. -1.
</event>
<event>
 5   0  0.3573262E-04  0.1630725E+04  0.7818609E-02  0.8801892E-01
       -2   -1    0    0    0  501  0.00000000000E+00  0.00000000000E+00  0.29655796028E+03  0.29655796029E+03  0.25500000920E-02 0.  1.
        2   -1    0    0  501    0  0.00000000000E+00  0.00000000000E+00 -0.22417730053E+04  0.22417730053E+04  0.25500000920E-02 0. -1.
    10030    2    1    2    0    0  0.00000000000E+00  0.00000000000E+00 -0.19452150451E+04  0.25383309656E+04  0.16307245382E+04 0.  0.
        5    1    3    3  502    0  0.44603720001E+02 -0.61137605112E+03 -0.18094315154E+04  0.19104540472E+04  0.46999998093E+01 0. -1.
       -5    1    3    3    0  502 -0.44603720001E+02  0.61137605112E+03 -0.13578352966E+03  0.62787691839E+03  0.46999998093E+01 0.  1.
</event>
<event>
 5   0  0.1920289E-04  0.1684582E+04  0.7818609E-02  0.8770207E-01
       -1   -1    0    0    0  501  0.00000000000E+00  0.00000000000E+00  0.49413846342E+03  0.49413846344E+03  0.50400001928E-02 0.  1.
        1   -1    0    0  501    0  0.00000000000E+00  0.00000000000E+00 -0.14357392252E+04  0.14357392252E+04  0.50400001928E-02 0. -1.
    10030    2    1    2    0    0  0.00000000000E+00  0.00000000000E+00 -0.94160076179E+03  0.19298776887E+04  0.16845818171E+04 0.  0.
        4    1    3    3  502    0 -0.74043372592E+03  0.38071392821E+03 -0.32468578520E+03  0.89364851571E+03  0.12699999809E+01 0.  1.
       -4    1    3    3    0  502  0.74043372592E+03 -0.38071392821E+03 -0.61691497660E+03  0.10362291730E+04  0.12699999809E+01 0. -1.
</event>
<event>
 5   0  0.3516723E-04  0.1364151E+04  0.7818609E-02  0.8980185E-01
        2   -1    0    0  501    0  0.00000000000E+00  0.00000000000E+00  0.51866539240E+03  0.51866539241E+03  0.25500000920E-02 0. -1.
       -2   -1    0    0    0  501  0.00000000000E+00  0.00000000000E+00 -0.89696900408E+03  0.89696900408E+03  0.25500000920E-02 0.  1.
    10030    2    1    2    0    0  0.00000000000E+00  0.00000000000E+00 -0.37830361168E+03  0.14156343965E+04  0.13641506962E+04 0.  0.
        1    1    3    3  502    0 -0.35958296062E+03  0.43671663205E+03  0.20628785791E+03  0.60214284237E+03  0.50400001928E-02 0. -1.
       -1    1    3    3    0  502  0.35958296062E+03 -0.43671663205E+03 -0.58459146959E+03  0.81349155412E+03  0.50400001928E-02 0.  1.
</event>
<event>
 5   0  0.1920289E-04  0.1694943E+04  0.7818609E-02  0.8764254E-01
        1   -1    0    0  501    0  0.00000000000E+00  0.00000000000E+00  0.48591276528E+03  0.48591276531E+03  0.50400001928E-02 0.  1.
       -1   -1    0    0    0  501  0.00000000000E+00  0.00000000000E+00 -0.14780591581E+04  0.14780591581E+04  0.50400001928E-02 0. -1.
    10030    2    1    2    0    0  0.00000000000E+00  0.00000000000E+00 -0.99214639285E+03  0.19639719235E+04  0.16949428460E+04 0.  0.
        4    1    3    3  502    0 -0.62378090233E+03 -0.29829024317E+03  0.71733195406E+02  0.69514527079E+03  0.12699999809E+01 0.  1.
       -4    1    3    3    0  502  0.62378090233E+03  0.29829024317E+03 -0.10638795883E+04  0.12688266527E+04  0.12699999809E+01 0. -1.
</event>
<event>
 5   0  0.1893284E-04  0.1703172E+04  0.7818609E-02  0.8759557E-01
        1   -1    0    0  501    0  0.00000000000E+00  0.00000000000E+00  0.12069901790E+04  0.12069901790E+04  0.50400001928E-02 0.  1.
       -1   -1    0    0    0  501  0.00000000000E+00  0.00000000000E+00 -0.60083245011E+03  0.60083245013E+03  0.50400001928E-02 0. -1.
    10030    2    1    2    0    0  0.00000000000E+00  0.00000000000E+00  0.60615772885E+03  0.18078226291E+04  0.17031721775E+04 0.  0.
        2    1    3    3  502    0  0.73890957300E+03  0.41728687953E+03  0.37875597895E+03  0.92928563343E+03  0.25500000920E-02 0. -1.
       -2    1    3    3    0  502 -0.73890957300E+03 -0.41728687953E+03  0.22740174990E+03  0.87853699567E+03  0.25500000920E-02 0.  1.
</event>
<event>
 5   0  0.1893284E-04  0.1704811E+04  0.7818609E-02  0.8758625E-01
        1   -1    0    0  501    0  0.00000000000E+00  0.00000000000E+00  0.76924290488E+03  0.76924290490E+03  0.50400001928E-02 0.  1.
       -1   -1    0    0    0  501  0.00000000000E+00  0.00000000000E+00 -0.94455844745E+03  0.94455844746E+03  0.50400001928E-02 0. -1.
    10030    2    1    2    0    0  0.00000000000E+00  0.00000000000E+00 -0.17531554257E+03  0.17138013524E+04  0.17048107038E+04 0.  0.
        2    1    3    3  502    0  0.49956797119E+02  0.84004504481E+03  0.48791330958E+02  0.84294243746E+03  0.25500000920E-02 0.  1.
       -2    1    3    3    0  502 -0.49956797119E+02 -0.84004504481E+03 -0.22410687353E+03  0.87085891490E+03  0.25500000920E-02 0. -1.
</event>
<event>
 5   0  0.1930116E-04  0.1706171E+04  0.7818609E-02  0.8757852E-01
       -1   -1    0    0    0  501  0.00000000000E+00  0.00000000000E+00  0.56883037365E+03  0.56883037367E+03  0.50400001928E-02 0.  1.
        1   -1    0    0  501    0  0.00000000000E+00  0.00000000000E+00 -0.12793887612E+04  0.12793887612E+04  0.50400001928E-02 0. -1.
    10030    2    1    2    0    0  0.00000000000E+00  0.00000000000E+00 -0.71055838751E+03  0.18482191348E+04  0.17061713713E+04 0.  0.
        1    1    3    3  502    0  0.21433508602E+03  0.80688646047E+03 -0.54523503403E+03  0.99713917361E+03  0.50400001928E-02 0. -1.
       -1    1    3    3    0  502 -0.21433508602E+03 -0.80688646047E+03 -0.16532335348E+03  0.85107996124E+03  0.50400001928E-02 0.  1.
</event>
<event>
 5   0  0.1920289E-04  0.1698136E+04  0.7818609E-02  0.8762428E-01
        1   -1    0    0  501    0  0.00000000000E+00  0.00000000000E+00  0.18438270401E+04  0.18438270401E+04  0.50400001928E-02 0.  1.
       -1   -1    0    0    0  501  0.00000000000E+00  0.00000000000E+00 -0.39098913437E+03  0.39098913440E+03  0.50400001928E-02 0. -1.
    10030    2    1    2    0    0  0.00000000000E+00  0.00000000000E+00  0.14528379058E+04  0.22348161745E+04  0.16981358466E+04 0.  0.
        4    1    3    3  502    0  0.42927332693E+03  0.33389038243E+03  0.15845304297E+04  0.16752601805E+04  0.12699999809E+01 0.  1.
       -4    1    3    3    0  502 -0.42927332693E+03 -0.33389038243E+03 -0.13169252398E+03  0.55955599404E+03  0.12699999809E+01 0. -1.
</event>
<event>
 5   0  0.3605571E-04  0.1680657E+04  0.7818609E-02  0.8772474E-01
        2   -1    0    0  501    0  0.00000000000E+00  0.00000000000E+00  0.12569211108E+04  0.12569211108E+04  0.25500000920E-02 0.  1.
       -2   -1    0    0    0  501  0.00000000000E+00  0.00000000000E+00 -0.56181110024E+03  0.56181110024E+03  0.25500000920E-02 0. -1.
    10030    2    1    2    0    0  0.00000000000E+00  0.00000000000E+00  0.69511001054E+03  0.18187322110E+04  0.16806572907E+04 0.  0.
        4    1    3    3  502    0  0.13761895302E+01  0.12704160521E+03  0.12464666812E+04  0.12529254821E+04  0.12699999809E+01 0.  1.
       -4    1    3    3    0  502 -0.13761895302E+01 -0.12704160521E+03 -0.55135667066E+03  0.56580672896E+03  0.12699999809E+01 0. -1.
</event>
<event>
 5   0  0.3605571E-04  0.1685483E+04  0.7818609E-02  0.8769687E-01
       -2   -1    0    0    0  501  0.00000000000E+00  0.00000000000E+00  0.72369347926E+03  0.72369347926E+03  0.25500000920E-02 0.  1.
        2   -1    0    0  501    0  0.00000000000E+00  0.00000000000E+00 -0.98137351390E+03  0.98137351391E+03  0.25500000920E-02 0. -1.
    10030    2    1    2    0    0  0.00000000000E+00  0.00000000000E+00 -0.25768003465E+03  0.17050669932E+04  0.16854834472E+04 0.  0.
        4    1    3    3  502    0  0.40928349336E+03  0.64034205483E+03  0.23961859423E+03  0.79684980312E+03  0.12699999809E+01 0.  1.
       -4    1    3    3    0  502 -0.40928349336E+03 -0.64034205483E+03 -0.49729862888E+03  0.90821719005E+03  0.12699999809E+01 0. -1.
</event>
<event>
 5   0  0.1815663E-04  0.1698875E+04  0.7818609E-02  0.8762006E-01
        1   -1    0    0  501    0  0.00000000000E+00  0.00000000000E+00  0.21337764094E+04  0.21337764094E+04  0.50400001928E-02 0. -1.
       -1   -1    0    0    0  501  0.00000000000E+00  0.00000000000E+00 -0.33815371083E+03  0.33815371087E+03  0.50400001928E-02 0.  1.
    10030    2    1    2    0    0  0.00000000000E+00  0.00000000000E+00  0.17956226985E+04  0.24719301202E+04  0.16988754056E+04 0.  0.
        5    1    3    3  502    0 -0.14205130198E+03  0.64249630935E+03  0.11622069008E+03  0.66821360262E+03  0.46999998093E+01 0.  1.
       -5    1    3    3    0  502  0.14205130198E+03 -0.64249630935E+03  0.16794020085E+04  0.18037165176E+04  0.46999998093E+01 0. -1.
</event>
<event>
 5   0  0.3678896E-04  0.1716302E+04  0.7818609E-02  0.8752121E-01
        2   -1    0    0  501    0  0.00000000000E+00  0.00000000000E+00  0.21081213057E+04  0.21081213057E+04  0.25500000920E-02 0.  1.
       -2   -1    0    0    0  501  0.00000000000E+00  0.00000000000E+00 -0.34932656162E+03  0.34932656163E+03  0.25500000920E-02 0. -1.
    10030    2    1    2    0    0  0.00000000000E+00  0.00000000000E+00  0.17587947441E+04  0.24574478673E+04  0.17163015670E+04 0.  0.
        2    1    3    3  502    0  0.39631106697E+02 -0.18697963967E+03  0.20772567670E+04  0.20860315641E+04  0.25500000920E-02 0.  1.
       -2    1    3    3    0  502 -0.39631106697E+02  0.18697963967E+03 -0.31846202293E+03  0.37141630325E+03  0.25500000920E-02 0. -1.
</event>
<event>
 5   0  0.1815663E-04  0.1697204E+04  0.7818609E-02  0.8762960E-01
        1   -1    0    0  501    0  0.00000000000E+00  0.00000000000E+00  0.47594278706E+03  0.47594278709E+03  0.50400001928E-02 0. -1.
       -1   -1    0    0    0  501  0.00000000000E+00  0.00000000000E+00 -0.15130509114E+04  0.15130509114E+04  0.50400001928E-02 0.  1.
    10030    2    1    2    0    0  0.00000000000E+00  0.00000000000E+00 -0.10371081244E+04  0.19889936985E+04  0.16972043693E+04 0.  0.
        5    1    3    3  502    0 -0.51233055720E+03 -0.31794975785E+03  0.18120197427E+03  0.62962758345E+03  0.46999998093E+01 0. -1.
       -5    1    3    3    0  502  0.51233055720E+03  0.31794975785E+03 -0.12183100986E+04  0.13593661151E+04  0.46999998093E+01 0.  1.
</event>
<event>
 5   0  0.3516723E-04  0.1701906E+04  0.7818609E-02  0.8760278E-01
        2   -1    0    0  501    0  0.00000000000E+00  0.00000000000E+00  0.16983423550E+04  0.16983423550E+04  0.25500000920E-02 0.  1.
       -2   -1    0    0    0  501  0.00000000000E+00  0.00000000000E+00 -0.42636950511E+03  0.42636950512E+03  0.25500000920E-02 0. -1.
    10030    2    1    2    0    0  0.00000000000E+00  0.00000000000E+00  0.12719728499E+04  0.21247118601E+04  0.17019064480E+04 0.  0.
        1    1    3    3  502    0  0.43278191329E+03 -0.46057743465E+03 -0.75388525972E+02  0.63648659660E+03  0.50400001928E-02 0. -1.
       -1    1    3    3    0  502 -0.43278191329E+03  0.46057743465E+03  0.13473613759E+04  0.14882252635E+04  0.50400001928E-02 0.  1.
</event>
<event>
 5   0  0.3605571E-04  0.1700650E+04  0.7818609E-02  0.8760994E-01
       -2   -1    0    0    0  501  0.00000000000E+00  0.00000000000E+00  0.59374073512E+03  0.59374073513E+03  0.25500000920E-02 0.  1.
        2   -1    0    0  501    0  0.00000000000E+00  0.00000000000E+00 -0.12177915576E+04  0.12177915576E+04  0.25500000920E-02 0. -1.
    10030    2    1    2    0    0  0.00000000000E+00  0.00000000000E+00 -0.62405082250E+03  0.18115322928E+04  0.17006498225E+04 0.  0.
        4    1    3    3  502    0 -0.63317437563E+03 -0.24041921762E+03 -0.85968707172E+03  0.10944289216E+04  0.12699999809E+01 0. -1.
       -4    1    3    3    0  502  0.63317437563E+03  0.24041921762E+03  0.23563624922E+03  0.71710337121E+03  0.12699999809E+01 0.  1.
</event>
<event>
 5   0  0.1815663E-04  0.1704157E+04  0.7818609E-02  0.8758997E-01
        1   -1    0    0  501    0  0.00000000000E+00  0.00000000000E+00  0.91683503878E+03  0.91683503879E+03  0.50400001928E-02 0. -1.
       -1   -1    0    0    0  501  0.00000000000E+00  0.00000000000E+00 -0.79189565652E+03  0.79189565654E+03  0.50400001928E-02 0.  1.
    10030    2    1    2    0    0  0.00000000000E+00  0.00000000000E+00  0.12493938226E+03  0.17087306953E+04  0.17041569000E+04 0.  0.
        5    1    3    3  502    0 -0.32283618573E+02  0.61432260714E+03  0.65361210238E+03  0.89758864077E+03  0.46999998093E+01 0. -1.
       -5    1    3    3    0  502  0.32283618573E+02 -0.61432260714E+03 -0.52867272012E+03  0.81114205455E+03  0.46999998093E+01 0.  1.
</event>
<event>
 5   0  0.3605571E-04  0.1554276E+04  0.7818609E-02  0.8849141E-01
        2   -1    0    0  501    0  0.00000000000E+00  0.00000000000E+00  0.16835359944E+04  0.16835359944E+04  0.25500000920E-02 0.  1.
       -2   -1    0    0    0  501  0.00000000000E+00  0.00000000000E+00 -0.35873531315E+03  0.35873531316E+03  0.25500000920E-02 0. -1.
    10030    2    1    2    0    0  0.00000000000E+00  0.00000000000E+00  0.13248006813E+04  0.20422713076E+04  0.15542764389E+04 0.  0.
        4    1    3    3  502    0  0.47065080170E+03 -0.93551858425E+02 -0.14081867019E+03  0.50009562899E+03  0.12699999809E+01 0. -1.
       -4    1    3    3    0  502 -0.47065080170E+03  0.93551858425E+02  0.14656193514E+04  0.15421756786E+04  0.12699999809E+01 0.  1.
</event>
<event>
 5   0  0.3573262E-04  0.1695744E+04  0.7818609E-02  0.8763795E-01
        2   -1    0    0  501    0  0.00000000000E+00  0.00000000000E+00  0.12418990067E+04  0.12418990067E+04  0.25500000920E-02 0. -1.
       -2   -1    0    0    0  501  0.00000000000E+00  0.00000000000E+00 -0.57886112375E+03  0.57886112376E+03  0.25500000920E-02 0.  1.
    10030    2    1    2    0    0  0.00000000000E+00  0.00000000000E+00  0.66303788297E+03  0.18207601305E+04  0.16957441489E+04 0.  0.
        5    1    3    3  502    0  0.43178743760E+03 -0.72559316016E+03  0.41426630460E+03  0.94051288479E+03  0.46999998093E+01 0.  1.
       -5    1    3    3    0  502 -0.43178743760E+03  0.72559316016E+03  0.24877157838E+03  0.88024724569E+03  0.46999998093E+01 0. -1.
</event>
<event>
 5   0  0.3516723E-04  0.1701272E+04  0.7818609E-02  0.8760639E-01
        2   -1    0    0  501    0  0.00000000000E+00  0.00000000000E+00  0.20909575536E+04  0.20909575536E+04  0.25500000920E-02 0. -1.
       -2   -1    0    0    0  501  0.00000000000E+00  0.00000000000E+00 -0.34605289960E+03  0.34605289961E+03  0.25500000920E-02 0.  1.
    10030    2    1    2    0    0  0.00000000000E+00  0.00000000000E+00  0.17449046540E+04  0.24370104532E+04  0.17012723761E+04 0.  0.
        1    1    3    3  502    0  0.43407847797E+03 -0.30298182201E+03  0.18262619622E+04  0.19014349487E+04  0.50400001928E-02 0. -1.
       -1    1    3    3    0  502 -0.43407847797E+03  0.30298182201E+03 -0.81357308133E+02  0.53557550459E+03  0.50400001928E-02 0.  1.
</event>
<event>
 5   0  0.1920289E-04  0.1758654E+04  0.7818609E-02  0.8728601E-01
       -1   -1    0    0    0  501  0.00000000000E+00  0.00000000000E+00  0.65980660286E+03  0.65980660288E+03  0.50400001928E-02 0.  1.
        1   -1    0    0  501    0  0.00000000000E+00  0.00000000000E+00 -0.11718824518E+04  0.11718824518E+04  0.50400001928E-02 0. -1.
    10030    2    1    2    0    0  0.00000000000E+00  0.00000000000E+00 -0.51207584894E+03  0.18316890547E+04  0.17586537800E+04 0.  0.
        4    1    3    3  502    0 -0.33429337345E+03 -0.39523941417E+03  0.48428920480E+03  0.70887509536E+03  0.12699999809E+01 0.  1.
       -4    1    3    3    0  502  0.33429337345E+03  0.39523941417E+03 -0.99636505374E+03  0.11228139593E+04  0.12699999809E+01 0. -1.
</event>
<event>
 5   0  0.3516723E-04  0.1672921E+04  0.7818609E-02  0.8776961E-01
       -2   -1    0    0    0  501  0.00000000000E+00  0.00000000000E+00  0.63993134902E+03  0.63993134902E+03  0.25500000920E-02 0. -1.
        2   -1    0    0  501    0  0.00000000000E+00  0.00000000000E+00 -0.10933456745E+04  0.10933456745E+04  0.25500000920E-02 0.  1.
    10030    2    1    2    0    0  0.00000000000E+00  0.00000000000E+00 -0.45341432551E+03  0.17332770235E+04  0.16729210052E+04 0.  0.
        1    1    3    3  502    0  0.38226629212E+00  0.83632478751E+03 -0.24231299390E+03  0.87072089867E+03  0.50400001928E-02 0. -1.
       -1    1    3    3    0  502 -0.38226629212E+00 -0.83632478751E+03 -0.21110133160E+03  0.86255612488E+03  0.50400001928E-02 0.  1.
</event>
<event>
 5   0  0.1893284E-04  0.1586494E+04  0.7818609E-02  0.8828888E-01
        1   -1    0    0  501    0  0.00000000000E+00  0.00000000000E+00  0.93883205972E+03  0.93883205973E+03  0.50400001928E-02 0. -1.
       -1   -1    0    0    0  501  0.00000000000E+00  0.00000000000E+00 -0.67023805407E+03  0.67023805409E+03  0.50400001928E-02 0.  1.
    10030    2    1    2    0    0  0.00000000000E+00  0.00000000000E+00  0.26859400565E+03  0.16090701138E+04  0.15864942141E+04 0.  0.
        2    1    3    3  502    0 -0.27337191294E+03  0.68928746535E+03 -0.15147760945E+03  0.75683213386E+03  0.25500000920E-02 0.  1.
       -2    1    3    3    0  502  0.27337191294E+03 -0.68928746535E+03  0.42007161510E+03  0.85223797996E+03  0.25500000920E-02 0. -1.
</event>
<event>
 5   0  0.3574092E-04  0.1705266E+04  0.7818609E-02  0.8758367E-01
        2   -1    0    0  501    0  0.00000000000E+00  0.00000000000E+00  0.15200440529E+04  0.15200440529E+04  0.25500000920E-02 0.  1.
       -2   -1    0    0    0  501  0.00000000000E+00  0.00000000000E+00 -0.47826446884E+03  0.47826446884E+03  0.25500000920E-02 0. -1.
    10030    2    1    2    0    0  0.00000000000E+00  0.00000000000E+00  0.10417795840E+04  0.19983085217E+04  0.17052660339E+04 0.  0.
        3    1    3    3  502    0  0.26670627197E+03  0.75760516384E+03  0.85622039473E+03  0.11739723993E+04  0.10100000352E+00 0.  1.
       -3    1    3    3    0  502 -0.26670627197E+03 -0.75760516384E+03  0.18555918932E+03  0.82433612242E+03  0.10100000352E+00 0. -1.
</event>
<event>
 5   0  0.1920289E-04  0.1726842E+04  0.7818609E-02  0.8746202E-01
       -1   -1    0    0    0  501  0.00000000000E+00  0.00000000000E+00  0.92559249628E+03  0.92559249629E+03  0.50400001928E-02 0.  1.
        1   -1    0    0  501    0  0.00000000000E+00  0.00000000000E+00 -0.80542559319E+03  0.80542559320E+03  0.50400001928E-02 0. -1.
    10030    2    1    2    0    0  0.00000000000E+00  0.00000000000E+00  0.12016690309E+03  0.17310180895E+04  0.17268420720E+04 0.  0.
        4    1    3    3  502    0 -0.96376456980E+02 -0.50978256952E+03  0.75191737085E+03  0.91353600648E+03  0.12699999809E+01 0.  1.
       -4    1    3    3    0  502  0.96376456980E+02  0.50978256952E+03 -0.63175046776E+03  0.81748208302E+03  0.12699999809E+01 0. -1.
</event>
<event>
 5   0  0.1930116E-04  0.1698602E+04  0.7818609E-02  0.8762162E-01
        1   -1    0    0  501    0  0.00000000000E+00  0.00000000000E+00  0.14621369233E+04  0.14621369233E+04  0.50400001928E-02 0. -1.
       -1   -1    0    0    0  501  0.00000000000E+00  0.00000000000E+00 -0.49332715763E+03  0.49332715766E+03  0.50400001928E-02 0.  1.
    10030    2    1    2    0    0  0.00000000000E+00  0.00000000000E+00  0.96880976568E+03  0.19554640810E+04  0.16986016042E+04 0.  0.
        1    1    3    3  502    0 -0.29996483640E+03 -0.21424487204E+03  0.13652439596E+04  0.14141325389E+04  0.50400001928E-02 0. -1.
       -1    1    3    3    0  502  0.29996483640E+03  0.21424487204E+03 -0.39643419395E+03  0.54133154206E+03  0.50400001928E-02 0.  1.
</event>
<event>
 5   0  0.3516723E-04  0.1713797E+04  0.7818609E-02  0.8753534E-01
        2   -1    0    0  501    0  0.00000000000E+00  0.00000000000E+00  0.15531893333E+04  0.15531893333E+04  0.25500000920E-02 0. -1.
       -2   -1    0    0    0  501  0.00000000000E+00  0.00000000000E+00 -0.47275311508E+03  0.47275311508E+03  0.25500000920E-02 0.  1.
    10030    2    1    2    0    0  0.00000000000E+00  0.00000000000E+00  0.10804362183E+04  0.20259424484E+04  0.17137970658E+04 0.  0.
        1    1    3    3  502    0  0.69326043428E+03 -0.52072557026E+02  0.11324125830E+04  0.13287888617E+04  0.50400001928E-02 0. -1.
       -1    1    3    3    0  502 -0.69326043428E+03  0.52072557026E+02 -0.51976364709E+02  0.69715358670E+03  0.50400001928E-02 0.  1.
</event>
<event>
 5   0  0.3605571E-04  0.1699597E+04  0.7818609E-02  0.8761594E-01
       -2   -1    0    0    0  501  0.00000000000E+00  0.00000000000E+00  0.34269111370E+03  0.34269111371E+03  0.25500000920E-02 0. -1.
        2   -1    0    0  501    0  0.00000000000E+00  0.00000000000E+00 -0.21073127925E+04  0.21073127925E+04  0.25500000920E-02 0.  1.
    10030    2    1    2    0    0  0.00000000000E+00  0.00000000000E+00 -0.17646216788E+04  0.24500039062E+04  0.16995968555E+04 0.  0.
        4    1    3    3  502    0  0.65586428951E+03  0.45977201767E+03 -0.12915795385E+04  0.15197787969E+04  0.12699999809E+01 0.  1.
       -4    1    3    3    0  502 -0.65586428951E+03 -0.45977201767E+03 -0.47304214031E+03  0.93022510926E+03  0.12699999809E+01 0. -1.
</event>
<event>
 5   0  0.1815663E-04  0.1685006E+04  0.7818609E-02  0.8769962E-01
        1   -1    0    0  501    0  0.00000000000E+00  0.00000000000E+00  0.14411301146E+04  0.14411301146E+04  0.50400001928E-02 0.  1.
       -1   -1    0    0    0  501  0.00000000000E+00  0.00000000000E+00 -0.49253816949E+03  0.49253816952E+03  0.50400001928E-02 0. -1.
    10030    2    1    2    0    0  0.00000000000E+00  0.00000000000E+00  0.94859194506E+03  0.19336682841E+04  0.16850063367E+04 0.  0.
        5    1    3    3  502    0  0.50596208709E+03 -0.64506106348E+02 -0.29520376370E+03  0.58934372265E+03  0.46999998093E+01 0. -1.
       -5    1    3    3    0  502 -0.50596208709E+03  0.64506106348E+02  0.12437957088E+04  0.13443245614E+04  0.46999998093E+01 0.  1.
</event>
<event>
 5   0  0.3516723E-04  0.1765790E+04  0.7818609E-02  0.8724707E-01
       -2   -1    0    0    0  501  0.00000000000E+00  0.00000000000E+00  0.12506480969E+04  0.12506480969E+04  0.25500000920E-02 0. -1.
        2   -1    0    0  501    0  0.00000000000E+00  0.00000000000E+00 -0.62327952463E+03  0.62327952464E+03  0.25500000920E-02 0.  1.
    10030    2    1    2    0    0  0.00000000000E+00  0.00000000000E+00  0.62736857224E+03  0.18739276215E+04  0.17657897398E+04 0.  0.
        1    1    3    3  502    0  0.22697639816E+03  0.70872356129E+03  0.81785281785E+03  0.11057534098E+04  0.50400001928E-02 0. -1.
       -1    1    3    3    0  502 -0.22697639816E+03 -0.70872356129E+03 -0.19048424561E+03  0.76817421169E+03  0.50400001928E-02 0.  1.
</event>
<event>
 5   0  0.3574092E-04  0.1712552E+04  0.7818609E-02  0.8754238E-01
        2   -1    0    0  501    0  0.00000000000E+00  0.00000000000E+00  0.95826044966E+03  0.95826044966E+03  0.25500000920E-02 0. -1.
       -2   -1    0    0    0  501  0.00000000000E+00  0.00000000000E+00 -0.76514563047E+03  0.76514563047E+03  0.25500000920E-02 0.  1.
    10030    2    1    2    0    0  0.00000000000E+00  0.00000000000E+00  0.19311481919E+03  0.17234060801E+04  0.17125522426E+04 0.  0.
        3    1    3    3  502    0  0.45875746093E+02  0.55755352883E+02  0.95519154876E+03  0.95791656655E+03  0.10100000352E+00 0. -1.
       -3    1    3    3    0  502 -0.45875746093E+02 -0.55755352883E+02 -0.76207672957E+03  0.76548951358E+03  0.10100000352E+00 0.  1.
</event>
<event>
 5   0  0.1930116E-04  0.1691296E+04  0.7818609E-02  0.8766344E-01
       -1   -1    0    0    0  501  0.00000000000E+00  0.00000000000E+00  0.58585629302E+03  0.58585629305E+03  0.50400001928E-02 0.  1.
        1   -1    0    0  501    0  0.00000000000E+00  0.00000000000E+00 -0.12206409083E+04  0.12206409083E+04  0.50400001928E-02 0. -1.
    10030    2    1    2    0    0  0.00000000000E+00  0.00000000000E+00 -0.63478461529E+03  0.18064972014E+04  0.16912955480E+04 0.  0.
        1    1    3    3  502    0  0.68605961930E+02 -0.67533775536E+03  0.22127242599E+03  0.71396733003E+03  0.50400001928E-02 0.  1.
       -1    1    3    3    0  502 -0.68605961930E+02  0.67533775536E+03 -0.85605704128E+03  0.10925298713E+04  0.50400001928E-02 0. -1.
</event>
<event>
 5   0  0.1930116E-04  0.1865900E+04  0.7818609E-02  0.8672019E-01
        1   -1    0    0  501    0  0.00000000000E+00  0.00000000000E+00  0.16621087625E+04  0.16621087625E+04  0.50400001928E-02 0. -1.
       -1   -1    0    0    0  501  0.00000000000E+00  0.00000000000E+00 -0.52366931394E+03  0.52366931396E+03  0.50400001928E-02 0.  1.
    10030    2    1    2    0    0  0.00000000000E+00  0.00000000000E+00  0.11384394485E+04  0.21857780764E+04  0.18658996279E+04 0.  0.
        1    1    3    3  502    0 -0.26597198763E+03  0.60758754374E+02 -0.47589538634E+03  0.54855186008E+03  0.50400001928E-02 0.  1.
       -1    1    3    3    0  502  0.26597198763E+03 -0.60758754374E+02  0.16143348349E+04  0.16372262163E+04  0.50400001928E-02 0. -1.
</event>
<event>
 5   0  0.1824538E-04  0.1715678E+04  0.7818609E-02  0.8752473E-01
       -1   -1    0    0    0  501  0.00000000000E+00  0.00000000000E+00  0.37902148330E+03  0.37902148333E+03  0.50400001928E-02 0. -1.
        1   -1    0    0  501    0  0.00000000000E+00  0.00000000000E+00 -0.19415458113E+04  0.19415458113E+04  0.50400001928E-02 0.  1.
    10030    2    1    2    0    0  0.00000000000E+00  0.00000000000E+00 -0.15625243280E+04  0.23205672947E+04  0.17156777942E+04 0.  0.
        3    1    3    3  502    0  0.71351677678E+03  0.34109925967E+03 -0.12307388997E+04  0.14629330624E+04  0.10100000352E+00 0.  1.
       -3    1    3    3    0  502 -0.71351677678E+03 -0.34109925967E+03 -0.33178542837E+03  0.85763423228E+03  0.10100000352E+00 0. -1.
</event>
<event>
 5   0  0.1815663E-04  0.1679137E+04  0.7818609E-02  0.8773354E-01
       -1   -1    0    0    0  501  0.00000000000E+00  0.00000000000E+00  0.84895638017E+03  0.84895638019E+03  0.50400001928E-02 0.  1.
        1   -1    0    0  501    0  0.00000000000E+00  0.00000000000E+00 -0.83028407262E+03  0.83028407263E+03  0.50400001928E-02 0. -1.
    10030    2    1    2    0    0  0.00000000000E+00  0.00000000000E+00  0.18672307557E+02  0.16792404528E+04  0.16791366363E+04 0.  0.
        5    1    3    3  502    0  0.76564668101E+03  0.33895168277E+03  0.70575447787E+02  0.84030117650E+03  0.46999998093E+01 0. -1.
       -5    1    3    3    0  502 -0.76564668101E+03 -0.33895168277E+03 -0.51903140230E+02  0.83893927632E+03  0.46999998093E+01 0.  1.
</event>
<event>
 5   0  0.1815663E-04  0.1692463E+04  0.7818609E-02  0.8765675E-01
       -1   -1    0    0    0  501  0.00000000000E+00  0.00000000000E+00  0.90928743429E+03  0.90928743430E+03  0.50400001928E-02 0. -1.
        1   -1    0    0  501    0  0.00000000000E+00  0.00000000000E+00 -0.78754792147E+03  0.78754792148E+03  0.50400001928E-02 0.  1.
    10030    2    1    2    0    0  0.00000000000E+00  0.00000000000E+00  0.12173951282E+03  0.16968353558E+04  0.16924626187E+04 0.  0.
        5    1    3    3  502    0  0.20314782601E+02 -0.80958835205E+03 -0.18520142451E+03  0.83076329228E+03  0.46999998093E+01 0.  1.
       -5    1    3    3    0  502 -0.20314782601E+02  0.80958835205E+03  0.30694093734E+03  0.86607206350E+03  0.46999998093E+01 0. -1.
</event>
<event>
 5   0  0.3605571E-04  0.1728847E+04  0.7818609E-02  0.8745081E-01
       -2   -1    0    0    0  501  0.00000000000E+00  0.00000000000E+00  0.46872626598E+03  0.46872626598E+03  0.25500000920E-02 0. -1.
        2   -1    0    0  501    0  0.00000000000E+00  0.00000000000E+00 -0.15941664552E+04  0.15941664552E+04  0.25500000920E-02 0.  1.
    10030    2    1    2    0    0  0.00000000000E+00  0.00000000000E+00 -0.11254401892E+04  0.20628927212E+04  0.17288466559E+04 0.  0.
        4    1    3    3  502    0  0.87116699448E+02 -0.76182504846E+03 -0.10389017310E+04  0.12912339615E+04  0.12699999809E+01 0.  1.
       -4    1    3    3    0  502 -0.87116699448E+02  0.76182504846E+03 -0.86538458267E+02  0.77165875971E+03  0.12699999809E+01 0. -1.
</event>
<event>
 5   0  0.3516723E-04  0.1695780E+04  0.7818609E-02  0.8763775E-01
       -2   -1    0    0    0  501  0.00000000000E+00  0.00000000000E+00  0.58876821079E+03  0.58876821080E+03  0.25500000920E-02 0. -1.
        2   -1    0    0  501    0  0.00000000000E+00  0.00000000000E+00 -0.12210535635E+04  0.12210535635E+04  0.25500000920E-02 0.  1.
    10030    2    1    2    0    0  0.00000000000E+00  0.00000000000E+00 -0.63228535268E+03  0.18098217743E+04  0.16957800823E+04 0.  0.
        1    1    3    3  502    0  0.64605572578E+03  0.42487476329E+03 -0.68740307436E+03  0.10346156542E+04  0.50400001928E-02 0.  1.
       -1    1    3    3    0  502 -0.64605572578E+03 -0.42487476329E+03  0.55117721683E+02  0.77520612005E+03  0.50400001928E-02 0. -1.
</event>
<event>
 5   0  0.1893284E-04  0.1660543E+04  0.7818609E-02  0.8784194E-01
        1   -1    0    0  501    0  0.00000000000E+00  0.00000000000E+00  0.19092424636E+04  0.19092424636E+04  0.50400001928E-02 0.  1.
       -1   -1    0    0    0  501  0.00000000000E+00  0.00000000000E+00 -0.36105972842E+03  0.36105972846E+03  0.50400001928E-02 0. -1.
    10030    2    1    2    0    0  0.00000000000E+00  0.00000000000E+00  0.15481827351E+04  0.22703021920E+04  0.16605427612E+04 0.  0.
        2    1    3    3  502    0 -0.37872019939E+03 -0.38501280992E+02  0.17828988835E+04  0.18230852330E+04  0.25500000920E-02 0.  1.
       -2    1    3    3    0  502  0.37872019939E+03  0.38501280992E+02 -0.23471614840E+03  0.44721695897E+03  0.25500000920E-02 0. -1.
</event>
<event>
 5   0  0.3573262E-04  0.1694715E+04  0.7818609E-02  0.8764384E-01
        2   -1    0    0  501    0  0.00000000000E+00  0.00000000000E+00  0.12292662957E+04  0.12292662957E+04  0.25500000920E-02 0. -1.
       -2   -1    0    0    0  501  0.00000000000E+00  0.00000000000E+00 -0.58410023770E+03  0.58410023771E+03  0.25500000920E-02 0.  1.
    10030    2    1    2    0    0  0.00000000000E+00  0.00000000000E+00  0.64516605801E+03  0.18133665334E+04  0.16947150032E+04 0.  0.
        5    1    3    3  502    0  0.77839984068E+03  0.21879851039E+03  0.59372843256E+03  0.10031523522E+04  0.46999998093E+01 0. -1.
       -5    1    3    3    0  502 -0.77839984068E+03 -0.21879851039E+03  0.51437625445E+02  0.81021418121E+03  0.46999998093E+01 0.  1.
</event>
<event>
 5   0  0.1893284E-04  0.1715622E+04  0.7818609E-02  0.8752505E-01
       -1   -1    0    0    0  501  0.00000000000E+00  0.00000000000E+00  0.52022967266E+03  0.52022967268E+03  0.50400001928E-02 0.  1.
        1   -1    0    0  501    0  0.00000000000E+00  0.00000000000E+00 -0.14144509775E+04  0.14144509776E+04  0.50400001928E-02 0. -1.
    10030    2    1    2    0    0  0.00000000000E+00  0.00000000000E+00 -0.89422130489E+03  0.19346806502E+04  0.17156216006E+04 0.  0.
        2    1    3    3  502    0  0.54881981416E+03  0.27797786641E+03  0.22701907420E+03  0.65575341606E+03  0.25500000920E-02 0.  1.
       -2    1    3    3    0  502 -0.54881981416E+03 -0.27797786641E+03 -0.11212403791E+04  0.12789272342E+04  0.25500000920E-02 0. -1.
</event>
<event>
 5   0  0.3678896E-04  0.1733082E+04  0.7818609E-02  0.8742718E-01
       -2   -1    0    0    0  501  0.00000000000E+00  0.00000000000E+00  0.58738163968E+03  0.58738163969E+03  0.25500000920E-02 0.  1.
        2   -1    0    0  501    0  0.00000000000E+00  0.00000000000E+00 -0.12783742787E+04  0.12783742787E+04  0.25500000920E-02 0. -1.
    10030    2    1    2    0    0  0.00000000000E+00  0.00000000000E+00 -0.69099263905E+03  0.18657559184E+04  0.17330823177E+04 0.  0.
        2    1    3    3  502    0 -0.86478764763E+03  0.30131609922E+02 -0.29583474499E+03  0.91448553065E+03  0.25500000920E-02 0.  1.
       -2    1    3    3    0  502  0.86478764763E+03 -0.30131609922E+02 -0.39515789406E+03  0.95127038777E+03  0.25500000920E-02 0. -1.
</event>
<event>
 5   0  0.3574092E-04  0.1692642E+04  0.7818609E-02  0.8765572E-01
       -2   -1    0    0    0  501  0.00000000000E+00  0.00000000000E+00  0.37585844120E+03  0.37585844121E+03  0.25500000920E-02 0. -1.
        2   -1    0    0  501    0  0.00000000000E+00  0.00000000000E+00 -0.19056615632E+04  0.19056615632E+04  0.25500000920E-02 0.  1.
    10030    2    1    2    0    0  0.00000000000E+00  0.00000000000E+00 -0.15298031220E+04  0.22815200044E+04  0.16926417041E+04 0.  0.
        3    1    3    3  502    0 -0.53721403568E+03 -0.60938502526E+03 -0.44504755336E+03  0.92629172732E+03  0.10100000352E+00 0.  1.
       -3    1    3    3    0  502  0.53721403568E+03  0.60938502526E+03 -0.10847555686E+04  0.13552282771E+04  0.10100000352E+00 0. -1.
</event>
<event>
 5   0  0.3516723E-04  0.1698792E+04  0.7818609E-02  0.8762054E-01
       -2   -1    0    0    0  501  0.00000000000E+00  0.00000000000E+00  0.35729800332E+03  0.35729800333E+03  0.25500000920E-02 0.  1.
        2   -1    0    0  501    0  0.00000000000E+00  0.00000000000E+00 -0.20192484926E+04  0.20192484926E+04  0.25500000920E-02 0. -1.
    10030    2    1    2    0    0  0.00000000000E+00  0.00000000000E+00 -0.16619504893E+04  0.23765464959E+04  0.16987918703E+04 0.  0.
        1    1    3    3  502    0 -0.74474848183E+03 -0.21649812305E+03 -0.13154926405E+04  0.15271026900E+04  0.50400001928E-02 0. -1.
       -1    1    3    3    0  502  0.74474848183E+03  0.21649812305E+03 -0.34645784878E+03  0.84944380596E+03  0.50400001928E-02 0.  1.
</event>
<event>
 5   0  0.3605571E-04  0.1649906E+04  0.7818609E-02  0.8790462E-01
        2   -1    0    0  501    0  0.00000000000E+00  0.00000000000E+00  0.12754602946E+04  0.12754602946E+04  0.25500000920E-02 0.  1.
       -2   -1    0    0    0  501  0.00000000000E+00  0.00000000000E+00 -0.53356984807E+03  0.53356984808E+03  0.25500000920E-02 0. -1.
    10030    2    1    2    0    0  0.00000000000E+00  0.00000000000E+00  0.74189044653E+03  0.18090301427E+04  0.16499056405E+04 0.  0.
        4    1    3    3  502    0  0.67727478341E+03  0.22013703122E+03  0.82749835661E+03  0.10917493246E+04  0.12699999809E+01 0.  1.
       -4    1    3    3    0  502 -0.67727478341E+03 -0.22013703122E+03 -0.85607910087E+02  0.71728081804E+03  0.12699999809E+01 0. -1.
</event>
<event>
 5   0  0.1815663E-04  0.1713483E+04  0.7818609E-02  0.8753712E-01
        1   -1    0    0  501    0  0.00000000000E+00  0.00000000000E+00  0.47917246687E+03  0.47917246690E+03  0.50400001928E-02 0. -1.
       -1   -1    0    0    0  501  0.00000000000E+00  0.00000000000E+00 -0.15318197792E+04  0.15318197792E+04  0.50400001928E-02 0.  1.
    10030    2    1    2    0    0  0.00000000000E+00  0.00000000000E+00 -0.10526473123E+04  0.20109922461E+04  0.17134828420E+04 0.  0.
        5    1    3    3  502    0  0.10401957508E+03  0.51723854683E+03 -0.13185254693E+04  0.14201715705E+04  0.46999998093E+01 0.  1.
       -5    1    3    3    0  502 -0.10401957508E+03 -0.51723854683E+03  0.26587815704E+03  0.59082067560E+03  0.46999998093E+01 0. -1.
</event>
<event>
 5   0  0.1920289E-04  0.1701251E+04  0.7818609E-02  0.8760651E-01
       -1   -1    0    0    0  501  0.00000000000E+00  0.00000000000E+00  0.33696981116E+03  0.33696981120E+03  0.50400001928E-02 0. -1.
        1   -1    0    0  501    0  0.00000000000E+00  0.00000000000E+00 -0.21472658231E+04  0.21472658231E+04  0.50400001928E-02 0.  1.
    10030    2    1    2    0    0  0.00000000000E+00  0.00000000000E+00 -0.18102960120E+04  0.24842356343E+04  0.17012510209E+04 0.  0.
        4    1    3    3  502    0 -0.29728279881E+03  0.49900322964E+02 -0.20666543967E+04  0.20885231895E+04  0.12699999809E+01 0.  1.
       -4    1    3    3    0  502  0.29728279881E+03 -0.49900322964E+02  0.25635838472E+03  0.39571244486E+03  0.12699999809E+01 0. -1.
</event>
<event>
 5   0  0.1317625E-04  0.1691821E+04  0.7818609E-02  0.8766043E-01
       -3   -1    0    0    0  501  0.00000000000E+00  0.00000000000E+00  0.98824483579E+03  0.98824484095E+03  0.10100000352E+00 0. -1.
        3   -1    0    0  501    0  0.00000000000E+00  0.00000000000E+00 -0.72407640340E+03  0.72407641045E+03  0.10100000352E+00 0.  1.
    10030    2    1    2    0    0  0.00000000000E+00  0.00000000000E+00  0.26416843238E+03  0.17123212514E+04  0.16918212398E+04 0.  0.
        2    1    3    3  502    0  0.12050568599E+03  0.80514561312E+03  0.36461512072E+03  0.89203434068E+03  0.25500000920E-02 0. -1.
       -2    1    3    3    0  502 -0.12050568599E+03 -0.80514561312E+03 -0.10044668834E+03  0.82028691071E+03  0.25500000920E-02 0.  1.
</event>
<event>
 5   0  0.3574092E-04  0.1699094E+04  0.7818609E-02  0.8761881E-01
        2   -1    0    0  501    0  0.00000000000E+00  0.00000000000E+00  0.20793920160E+04  0.20793920160E+04  0.25500000920E-02 0.  1.
       -2   -1    0    0    0  501  0.00000000000E+00  0.00000000000E+00 -0.34708702695E+03  0.34708702695E+03  0.25500000920E-02 0. -1.
    10030    2    1    2    0    0  0.00000000000E+00  0.00000000000E+00  0.17323049890E+04  0.24264790429E+04  0.16990938676E+04 0.  0.
        3    1    3    3  502    0 -0.63711538735E+03 -0.56196969754E+03  0.86901751405E+03  0.12152849080E+04  0.10100000352E+00 0. -1.
       -3    1    3    3    0  502  0.63711538735E+03  0.56196969754E+03  0.86328747497E+03  0.12111941349E+04  0.10100000352E+00 0.  1.
</event>
<event>
 5   0  0.3678896E-04  0.1704768E+04  0.7818609E-02  0.8758649E-01
       -2   -1    0    0    0  501  0.00000000000E+00  0.00000000000E+00  0.12761472472E+04  0.12761472472E+04  0.25500000920E-02 0.  1.
        2   -1    0    0  501    0  0.00000000000E+00  0.00000000000E+00 -0.56933769040E+03  0.56933769041E+03  0.25500000920E-02 0. -1.
    10030    2    1    2    0    0  0.00000000000E+00  0.00000000000E+00  0.70680955682E+03  0.18454849376E+04  0.17047682850E+04 0.  0.
        2    1    3    3  502    0 -0.41831971303E+03 -0.10005803288E+03 -0.44324369262E+03  0.61763092807E+03  0.25500000920E-02 0. -1.
       -2    1    3    3    0  502  0.41831971303E+03  0.10005803288E+03  0.11500532494E+04  0.12278540096E+04  0.25500000920E-02 0.  1.
</event>
<event>
 5   0  0.3573262E-04  0.1697795E+04  0.7818609E-02  0.8762623E-01
        2   -1    0    0  501    0  0.00000000000E+00  0.00000000000E+00  0.10845971599E+04  0.10845971600E+04  0.25500000920E-02 0.  1.
       -2   -1    0    0    0  501  0.00000000000E+00  0.00000000000E+00 -0.66441875759E+03  0.66441875759E+03  0.25500000920E-02 0. -1.
    10030    2    1    2    0    0  0.00000000000E+00  0.00000000000E+00  0.42017840236E+03  0.17490159175E+04  0.16977946843E+04 0.  0.
        5    1    3    3  502    0 -0.37444606958E+03  0.30325829364E+03  0.93005088277E+03  0.10474694202E+04  0.46999998093E+01 0.  1.
       -5    1    3    3    0  502  0.37444606958E+03 -0.30325829364E+03 -0.50987248041E+03  0.70154649736E+03  0.46999998093E+01 0. -1.
</event>
<event>
 5   0  0.1920289E-04  0.1707680E+04  0.7818609E-02  0.8756996E-01
        1   -1    0    0  501    0  0.00000000000E+00  0.00000000000E+00  0.11836265554E+04  0.11836265554E+04  0.50400001928E-02 0. -1.
       -1   -1    0    0    0  501  0.00000000000E+00  0.00000000000E+00 -0.61593991413E+03  0.61593991415E+03  0.50400001928E-02 0.  1.
    10030    2    1    2    0    0  0.00000000000E+00  0.00000000000E+00  0.56768664123E+03  0.17995664695E+04  0.17076801093E+04 0.  0.
        4    1    3    3  502    0  0.43422649030E+03 -0.25375187482E+03  0.10109695480E+04  0.11291606169E+04  0.12699999809E+01 0. -1.
       -4    1    3    3    0  502 -0.43422649030E+03  0.25375187482E+03 -0.44328290680E+03  0.67040585261E+03  0.12699999809E+01 0.  1.
</event>
<event>
 5   0  0.1930116E-04  0.1733419E+04  0.7818609E-02  0.8742530E-01
       -1   -1    0    0    0  501  0.00000000000E+00  0.00000000000E+00  0.52793639460E+03  0.52793639463E+03  0.50400001928E-02 0. -1.
        1   -1    0    0  501    0  0.00000000000E+00  0.00000000000E+00 -0.14228713861E+04  0.14228713861E+04  0.50400001928E-02 0.  1.
    10030    2    1    2    0    0  0.00000000000E+00  0.00000000000E+00 -0.89493499145E+03  0.19508077807E+04  0.17334192679E+04 0.  0.
        1    1    3    3  502    0 -0.71521997714E+03 -0.13145020592E+03 -0.97816353866E+03  0.12188612229E+04  0.50400001928E-02 0.  1.
       -1    1    3    3    0  502  0.71521997714E+03  0.13145020592E+03  0.83228547210E+02  0.73194655777E+03  0.50400001928E-02 0. -1.
</event>
<event>
 5   0  0.3678896E-04  0.1682376E+04  0.7818609E-02  0.8771480E-01
       -2   -1    0    0    0  501  0.00000000000E+00  0.00000000000E+00  0.25991425707E+03  0.25991425708E+03  0.25500000920E-02 0. -1.
        2   -1    0    0  501    0  0.00000000000E+00  0.00000000000E+00 -0.27224261253E+04  0.27224261253E+04  0.25500000920E-02 0.  1.
    10030    2    1    2    0    0  0.00000000000E+00  0.00000000000E+00 -0.24625118683E+04  0.29823403824E+04  0.16823761337E+04 0.  0.
        2    1    3    3  502    0 -0.53343930238E+03  0.64593237456E+03 -0.13663911658E+04  0.16027510536E+04  0.25500000920E-02 0.  1.
       -2    1    3    3    0  502  0.53343930238E+03 -0.64593237456E+03 -0.10961207025E+04  0.13795893288E+04  0.25500000920E-02 0. -1.
</event>
<event>
 5   0  0.1317625E-04  0.1709533E+04  0.7818609E-02  0.8755946E-01
       -3   -1    0    0    0  501  0.00000000000E+00  0.00000000000E+00  0.73101347639E+03  0.73101348337E+03  0.10100000352E+00 0. -1.
        3   -1    0    0  501    0  0.00000000000E+00  0.00000000000E+00 -0.99946906508E+03  0.99946907019E+03  0.10100000352E+00 0.  1.
    10030    2    1    2    0    0  0.00000000000E+00  0.00000000000E+00 -0.26845558869E+03  0.17304825536E+04  0.17095325282E+04 0.  0.
        5    1    3    3  502    0  0.35704791521E+03 -0.38701791346E+03 -0.81578220709E+03  0.97097310905E+03  0.46999998093E+01 0.  1.
       -5    1    3    3    0  502 -0.35704791521E+03  0.38701791346E+03  0.54732661840E+03  0.75950944451E+03  0.46999998093E+01 0. -1.
</event>
<event>
 5   0  0.1920289E-04  0.1733003E+04  0.7818609E-02  0.8742762E-01
       -1   -1    0    0    0  501  0.00000000000E+00  0.00000000000E+00  0.58977847443E+03  0.58977847445E+03  0.50400001928E-02 0. -1.
        1   -1    0    0  501    0  0.00000000000E+00  0.00000000000E+00 -0.12730629550E+04  0.12730629550E+04  0.50400001928E-02 0.  1.
    10030    2    1    2    0    0  0.00000000000E+00  0.00000000000E+00 -0.68328448055E+03  0.18628414294E+04  0.17330033208E+04 0.  0.
        4    1    3    3  502    0 -0.78780726899E+03  0.34099803835E+03 -0.21489471445E+03  0.88493011387E+03  0.12699999809E+01 0.  1.
       -4    1    3    3    0  502  0.78780726899E+03 -0.34099803835E+03 -0.46838976610E+03  0.97791131557E+03  0.12699999809E+01 0. -1.
</event>
<event>
 5   0  0.3605571E-04  0.1712055E+04  0.7818609E-02  0.8754518E-01
       -2   -1    0    0    0  501  0.00000000000E+00  0.00000000000E+00  0.28552915947E+03  0.28552915948E+03  0.25500000920E-02 0.  1.
        2   -1    0    0  501    0  0.00000000000E+00  0.00000000000E+00 -0.25664047695E+04  0.25664047695E+04  0.25500000920E-02 0. -1.
    10030    2    1    2    0    0  0.00000000000E+00  0.00000000000E+00 -0.22808756100E+04  0.28519339290E+04  0.17120553691E+04 0.  0.
        4    1    3    3  502    0 -0.52690951739E+03  0.63817861324E+00 -0.16614981428E+02  0.52717332757E+03  0.12699999809E+01 0.  1.
       -4    1    3    3    0  502  0.52690951739E+03 -0.63817861324E+00 -0.22642606286E+04  0.23247606014E+04  0.12699999809E+01 0. -1.
</event>
<event>
 5   0  0.1815663E-04  0.1709173E+04  0.7818609E-02  0.8756150E-01
        1   -1    0    0  501    0  0.00000000000E+00  0.00000000000E+00  0.10232403545E+04  0.10232403545E+04  0.50400001928E-02 0.  1.
       -1   -1    0    0    0  501  0.00000000000E+00  0.00000000000E+00 -0.71373111110E+03  0.71373111111E+03  0.50400001928E-02 0. -1.
    10030    2    1    2    0    0  0.00000000000E+00  0.00000000000E+00  0.30950924337E+03  0.17369714656E+04  0.17091734554E+04 0.  0.
        5    1    3    3  502    0 -0.11021533496E+03  0.56294088910E+03  0.79849712482E+03  0.98319357861E+03  0.46999998093E+01 0.  1.
       -5    1    3    3    0  502  0.11021533496E+03 -0.56294088910E+03 -0.48898788145E+03  0.75377788697E+03  0.46999998093E+01 0. -1.
</event>
<event>
 5   0  0.3573262E-04  0.1700183E+04  0.7818609E-02  0.8761260E-01
       -2   -1    0    0    0  501  0.00000000000E+00  0.00000000000E+00  0.80396256544E+03  0.80396256544E+03  0.25500000920E-02 0.  1.
        2   -1    0    0  501    0  0.00000000000E+00  0.00000000000E+00 -0.89886750438E+03  0.89886750439E+03  0.25500000920E-02 0. -1.
    10030    2    1    2    0    0  0.00000000000E+00  0.00000000000E+00 -0.94904938944E+02  0.17028300698E+04  0.17001833134E+04 0.  0.
        5    1    3    3  502    0 -0.69425192593E+03  0.47603780065E+03 -0.16611057322E+03  0.85802828440E+03  0.46999998093E+01 0.  1.
       -5    1    3    3    0  502  0.69425192593E+03 -0.47603780065E+03  0.71205634278E+02  0.84480178542E+03  0.46999998093E+01 0. -1.
</event>
<event>
 5   0  0.3516723E-04  0.1616238E+04  0.7818609E-02  0.8810634E-01
        2   -1    0    0  501    0  0.00000000000E+00  0.00000000000E+00  0.26774072171E+04  0.26774072171E+04  0.25500000920E-02 0. -1.
       -2   -1    0    0    0  501  0.00000000000E+00  0.00000000000E+00 -0.24391361153E+03  0.24391361155E+03  0.25500000920E-02 0.  1.
    10030    2    1    2    0    0  0.00000000000E+00  0.00000000000E+00  0.24334936056E+04  0.29213208287E+04  0.16162376854E+04 0.  0.
        1    1    3    3  502    0  0.31677662090E+02  0.74894182496E+03  0.17624110742E+04  0.19152049827E+04  0.50400001928E-02 0. -1.
       -1    1    3    3    0  502 -0.31677662090E+02 -0.74894182496E+03  0.67108253139E+03  0.10061158459E+04  0.50400001928E-02 0.  1.
</event>
<event>
 5   0  0.1824538E-04  0.1704141E+04  0.7818609E-02  0.8759006E-01
       -1   -1    0    0    0  501  0.00000000000E+00  0.00000000000E+00  0.42355573553E+03  0.42355573556E+03  0.50400001928E-02 0.  1.
        1   -1    0    0  501    0  0.00000000000E+00  0.00000000000E+00 -0.17141172444E+04  0.17141172444E+04  0.50400001928E-02 0. -1.
    10030    2    1    2    0    0  0.00000000000E+00  0.00000000000E+00 -0.12905615089E+04  0.21376729800E+04  0.17041410626E+04 0.  0.
        3    1    3    3  502    0 -0.65997181759E+03  0.43550692393E+03 -0.10435304341E+04  0.13092688256E+04  0.10100000352E+00 0. -1.
       -3    1    3    3    0  502  0.65997181759E+03 -0.43550692393E+03 -0.24703107485E+03  0.82840415435E+03  0.10100000352E+00 0.  1.
</event>
<event>
 5   0  0.1920289E-04  0.1682984E+04  0.7818609E-02  0.8771129E-01
        1   -1    0    0  501    0  0.00000000000E+00  0.00000000000E+00  0.25671434110E+04  0.25671434110E+04  0.50400001928E-02 0. -1.
       -1   -1    0    0    0  501  0.00000000000E+00  0.00000000000E+00 -0.27583522883E+03  0.27583522888E+03  0.50400001928E-02 0.  1.
    10030    2    1    2    0    0  0.00000000000E+00  0.00000000000E+00  0.22913081822E+04  0.28429786399E+04  0.16829837673E+04 0.  0.
        4    1    3    3  502    0 -0.45808768030E+03 -0.58963098688E+03  0.49010804064E+03  0.89314977911E+03  0.12699999809E+01 0.  1.
       -4    1    3    3    0  502  0.45808768030E+03  0.58963098688E+03  0.18012001415E+04  0.19498288608E+04  0.12699999809E+01 0. -1.
</event>
<event>
 5   0  0.1920289E-04  0.1536916E+04  0.7818609E-02  0.8860269E-01
       -1   -1    0    0    0  501  0.00000000000E+00  0.00000000000E+00  0.24471559388E+03  0.24471559393E+03  0.50400001928E-02 0.  1.
        1   -1    0    0  501    0  0.00000000000E+00  0.00000000000E+00 -0.24131176106E+04  0.24131176106E+04  0.50400001928E-02 0. -1.
    10030    2    1    2    0    0  0.00000000000E+00  0.00000000000E+00 -0.21684020168E+04  0.26578332046E+04  0.15369157547E+04 0.  0.
        4    1    3    3  502    0  0.16581965121E+03 -0.40568582334E+03 -0.21758019357E+04  0.22195028318E+04  0.12699999809E+01 0. -1.
       -4    1    3    3    0  502 -0.16581965121E+03  0.40568582334E+03  0.73999189744E+01  0.43833037276E+03  0.12699999809E+01 0.  1.
</event>
<event>
 5   0  0.1920289E-04  0.1476921E+04  0.7818609E-02  0.8899947E-01
        1   -1    0    0  501    0  0.00000000000E+00  0.00000000000E+00  0.57958235290E+03  0.57958235292E+03  0.50400001928E-02 0. -1.
       -1   -1    0    0    0  501  0.00000000000E+00  0.00000000000E+00 -0.94089174322E+03  0.94089174323E+03  0.50400001928E-02 0.  1.
    10030    2    1    2    0    0  0.00000000000E+00  0.00000000000E+00 -0.36130939032E+03  0.15204740961E+04  0.14769214609E+04 0.  0.
        4    1    3    3  502    0  0.54303317657E+02 -0.69441203684E+03 -0.43317490900E+03  0.82024328214E+03  0.12699999809E+01 0.  1.
       -4    1    3    3    0  502 -0.54303317657E+02  0.69441203684E+03  0.71865518678E+02  0.70023081401E+03  0.12699999809E+01 0. -1.
</event>
<event>
 5   0  0.1824538E-04  0.1702067E+04  0.7818609E-02  0.8760186E-01
        1   -1    0    0  501    0  0.00000000000E+00  0.00000000000E+00  0.12492013614E+04  0.12492013614E+04  0.50400001928E-02 0.  1.
       -1   -1    0    0    0  501  0.00000000000E+00  0.00000000000E+00 -0.57977684016E+03  0.57977684018E+03  0.50400001928E-02 0. -1.
    10030    2    1    2    0    0  0.00000000000E+00  0.00000000000E+00  0.66942452124E+03  0.18289782016E+04  0.17020669999E+04 0.  0.
        3    1    3    3  502    0 -0.32588959224E+03  0.18447422939E+03 -0.48648396117E+03  0.61392297751E+03  0.10100000352E+00 0. -1.
       -3    1    3    3    0  502  0.32588959224E+03 -0.18447422939E+03  0.11559084824E+04  0.12150552241E+04  0.10100000352E+00 0.  1.
</event>
<event>
 5   0  0.3573262E-04  0.1705619E+04  0.7818609E-02  0.8758166E-01
        2   -1    0    0  501    0  0.00000000000E+00  0.00000000000E+00  0.11313533945E+04  0.11313533945E+04  0.25500000920E-02 0.  1.
       -2   -1    0    0    0  501  0.00000000000E+00  0.00000000000E+00 -0.64284401036E+03  0.64284401037E+03  0.25500000920E-02 0. -1.
    10030    2    1    2    0    0  0.00000000000E+00  0.00000000000E+00  0.48850938417E+03  0.17741974049E+04  0.17056186599E+04 0.  0.
        5    1    3    3  502    0 -0.46582233789E+03  0.27338326419E+03  0.93073871891E+03  0.10761159382E+04  0.46999998093E+01 0.  1.
       -5    1    3    3    0  502  0.46582233789E+03 -0.27338326419E+03 -0.44222933474E+03  0.69808146668E+03  0.46999998093E+01 0. -1.
</event>
<event>
 5   0  0.3678896E-04  0.1652504E+04  0.7818609E-02  0.8788927E-01
        2   -1    0    0  501    0  0.00000000000E+00  0.00000000000E+00  0.25762100808E+04  0.25762100808E+04  0.25500000920E-02 0.  1.
       -2   -1    0    0    0  501  0.00000000000E+00  0.00000000000E+00 -0.26499865472E+03  0.26499865473E+03  0.25500000920E-02 0. -1.
    10030    2    1    2    0    0  0.00000000000E+00  0.00000000000E+00  0.23112114261E+04  0.28412087355E+04  0.16525038042E+04 0.  0.
        2    1    3    3  502    0  0.76269764772E+03  0.31539862564E+03  0.12223772997E+04  0.14749204242E+04  0.25500000920E-02 0.  1.
       -2    1    3    3    0  502 -0.76269764772E+03 -0.31539862564E+03  0.10888341264E+04  0.13662883113E+04  0.25500000920E-02 0. -1.
</event>
<event>
 5   0  0.1893284E-04  0.1684822E+04  0.7818609E-02  0.8770068E-01
        1   -1    0    0  501    0  0.00000000000E+00  0.00000000000E+00  0.10415274104E+04  0.10415274105E+04  0.50400001928E-02 0.  1.
       -1   -1    0    0    0  501  0.00000000000E+00  0.00000000000E+00 -0.68136132215E+03  0.68136132217E+03  0.50400001928E-02 0. -1.
    10030    2    1    2    0    0  0.00000000000E+00  0.00000000000E+00  0.36016608830E+03  0.17228887326E+04  0.16848222381E+04 0.  0.
        2    1    3    3  502    0 -0.19547352126E+03  0.15033203271E+02 -0.65770813324E+03  0.68630596912E+03  0.25500000920E-02 0. -1.
       -2    1    3    3    0  502  0.19547352126E+03 -0.15033203271E+02  0.10178742215E+04  0.10365827635E+04  0.25500000920E-02 0.  1.
</event>
<event>
 5   0  0.1930116E-04  0.1690392E+04  0.7818609E-02  0.8766863E-01
       -1   -1    0    0    0  501  0.00000000000E+00  0.00000000000E+00  0.38059675467E+03  0.38059675470E+03  0.50400001928E-02 0.  1.
        1   -1    0    0  501    0  0.00000000000E+00  0.00000000000E+00 -0.18769375645E+04  0.18769375645E+04  0.50400001928E-02 0. -1.
    10030    2    1    2    0    0  0.00000000000E+00  0.00000000000E+00 -0.14963408098E+04  0.22575343192E+04  0.16903920797E+04 0.  0.
        1    1    3    3  502    0 -0.37708216322E+02 -0.82921003251E+03 -0.96078565673E+03  0.12696929809E+04  0.50400001928E-02 0. -1.
       -1    1    3    3    0  502  0.37708216322E+02  0.82921003251E+03 -0.53555515310E+03  0.98784133829E+03  0.50400001928E-02 0.  1.
</event>
<event>
 5   0  0.1824538E-04  0.1754665E+04  0.7818609E-02  0.8730787E-01
       -1   -1    0    0    0  501  0.00000000000E+00  0.00000000000E+00  0.48381317839E+03  0.48381317842E+03  0.50400001928E-02 0. -1.
        1   -1    0    0  501    0  0.00000000000E+00  0.00000000000E+00 -0.15909283346E+04  0.15909283346E+04  0.50400001928E-02 0.  1.
    10030    2    1    2    0    0  0.00000000000E+00  0.00000000000E+00 -0.11071151562E+04  0.20747415130E+04  0.17546647477E+04 0.  0.
        3    1    3    3  502    0 -0.51707596534E+03 -0.69883512634E+03 -0.69333278924E+03  0.11119570381E+04  0.10100000352E+00 0.  1.
       -3    1    3    3    0  502  0.51707596534E+03  0.69883512634E+03 -0.41378236697E+03  0.96278447493E+03  0.10100000352E+00 0. -1.
</event>
<event>
 5   0  0.1930116E-04  0.1708459E+04  0.7818609E-02  0.8756555E-01
        1   -1    0    0  501    0  0.00000000000E+00  0.00000000000E+00  0.17622334904E+04  0.17622334904E+04  0.50400001928E-02 0. -1.
       -1   -1    0    0    0  501  0.00000000000E+00  0.00000000000E+00 -0.41408122940E+03  0.41408122944E+03  0.50400001928E-02 0.  1.
    10030    2    1    2    0    0  0.00000000000E+00  0.00000000000E+00  0.13481522610E+04  0.21763147198E+04  0.17084587326E+04 0.  0.
        1    1    3    3  502    0  0.22902519440E+03  0.34696426077E+03  0.16246689635E+04  0.16770169883E+04  0.50400001928E-02 0. -1.
       -1    1    3    3    0  502 -0.22902519440E+03 -0.34696426077E+03 -0.27651670254E+03  0.49929773155E+03  0.50400001928E-02 0.  1.
</event>
<event>
 5   0  0.1920289E-04  0.1703250E+04  0.7818609E-02  0.8759513E-01
       -1   -1    0    0    0  501  0.00000000000E+00  0.00000000000E+00  0.45241761212E+03  0.45241761215E+03  0.50400001928E-02 0. -1.
        1   -1    0    0  501    0  0.00000000000E+00  0.00000000000E+00 -0.16030872968E+04  0.16030872968E+04  0.50400001928E-02 0.  1.
    10030    2    1    2    0    0  0.00000000000E+00  0.00000000000E+00 -0.11506696847E+04  0.20555049089E+04  0.17032497490E+04 0.  0.
        4    1    3    3  502    0  0.37945794915E+03 -0.41484800436E+03  0.19662608721E+03  0.59560946346E+03  0.12699999809E+01 0. -1.
       -4    1    3    3    0  502 -0.37945794915E+03  0.41484800436E+03 -0.13472957719E+04  0.14598954455E+04  0.12699999809E+01 0.  1.
</event>
<event>
 5   0  0.1920289E-04  0.1700905E+04  0.7818609E-02  0.8760849E-01
        1   -1    0    0  501    0  0.00000000000E+00  0.00000000000E+00  0.87866844105E+03  0.87866844107E+03  0.50400001928E-02 0. -1.
       -1   -1    0    0    0  501  0.00000000000E+00  0.00000000000E+00 -0.82314224710E+03  0.82314224711E+03  0.50400001928E-02 0.  1.
    10030    2    1    2    0    0  0.00000000000E+00  0.00000000000E+00  0.55526193955E+02  0.17018106882E+04  0.17009046006E+04 0.  0.
        4    1    3    3  502    0 -0.21949522017E+03 -0.71654191844E+03 -0.37451703906E+03  0.83777986250E+03  0.12699999809E+01 0.  1.
       -4    1    3    3    0  502  0.21949522017E+03  0.71654191844E+03  0.43004323302E+03  0.86403082568E+03  0.12699999809E+01 0. -1.
</event>
<event>
 5   0  0.1824538E-04  0.1700307E+04  0.7818609E-02  0.8761189E-01
        1   -1    0    0  501    0  0.00000000000E+00  0.00000000000E+00  0.99897030983E+03  0.99897030984E+03  0.50400001928E-02 0. -1.
       -1   -1    0    0    0  501  0.00000000000E+00  0.00000000000E+00 -0.72350606703E+03  0.72350606705E+03  0.50400001928E-02 0.  1.
    10030    2    1    2    0    0  0.00000000000E+00  0.00000000000E+00  0.27546424280E+03  0.17224763769E+04  0.17003071252E+04 0.  0.
        3    1    3    3  502    0 -0.43134512063E+03 -0.49093649609E+03  0.68859013926E+03  0.94933326413E+03  0.10100000352E+00 0. -1.
       -3    1    3    3    0  502  0.43134512063E+03  0.49093649609E+03 -0.41312589646E+03  0.77314311276E+03  0.10100000352E+00 0.  1.
</event>
<event>
 5   0  0.3678896E-04  0.1730029E+04  0.7818609E-02  0.8744420E-01
        2   -1    0    0  501    0  0.00000000000E+00  0.00000000000E+00  0.12931211612E+04  0.12931211612E+04  0.25500000920E-02 0.  1.
       -2   -1    0    0    0  501  0.00000000000E+00  0.00000000000E+00 -0.57863909898E+03  0.57863909898E+03  0.25500000920E-02 0. -1.
    10030    2    1    2    0    0  0.00000000000E+00  0.00000000000E+00  0.71448206223E+03  0.18717602602E+04  0.17300294374E+04 0.  0.
        2    1    3    3  502    0  0.23929139414E+03 -0.34704964384E+02  0.12558149510E+04  0.12788807595E+04  0.25500000920E-02 0.  1.
       -2    1    3    3    0  502 -0.23929139414E+03  0.34704964384E+02 -0.54133288877E+03  0.59287950069E+03  0.25500000920E-02 0. -1.
</event>
<event>
 5   0  0.1815663E-04  0.1700649E+04  0.7818609E-02  0.8760995E-01
       -1   -1    0    0    0  501  0.00000000000E+00  0.00000000000E+00  0.47718353584E+03  0.47718353587E+03  0.50400001928E-02 0.  1.
        1   -1    0    0  501    0  0.00000000000E+00  0.00000000000E+00 -0.15152479154E+04  0.15152479154E+04  0.50400001928E-02 0. -1.
    10030    2    1    2    0    0  0.00000000000E+00  0.00000000000E+00 -0.10380643796E+04  0.19924314513E+04  0.17006485328E+04 0.  0.
        5    1    3    3  502    0  0.68124919952E+03  0.30228342315E+03 -0.39469255783E+02  0.74636160935E+03  0.46999998093E+01 0.  1.
       -5    1    3    3    0  502 -0.68124919952E+03 -0.30228342315E+03 -0.99859512382E+03  0.12460698420E+04  0.46999998093E+01 0. -1.
</event>
<event>
 5   0  0.3516723E-04  0.1700761E+04  0.7818609E-02  0.8760930E-01
        2   -1    0    0  501    0  0.00000000000E+00  0.00000000000E+00  0.66109350511E+03  0.66109350511E+03  0.25500000920E-02 0.  1.
       -2   -1    0    0    0  501  0.00000000000E+00  0.00000000000E+00 -0.10938649636E+04  0.10938649636E+04  0.25500000920E-02 0. -1.
    10030    2    1    2    0    0  0.00000000000E+00  0.00000000000E+00 -0.43277145852E+03  0.17549584687E+04  0.17007610331E+04 0.  0.
        1    1    3    3  502    0  0.21363027110E+03 -0.27407958414E+03 -0.10172561378E+04  0.10749732839E+04  0.50400001928E-02 0. -1.
       -1    1    3    3    0  502 -0.21363027110E+03  0.27407958414E+03  0.58448467932E+03  0.67998518481E+03  0.50400001928E-02 0.  1.
</event>
<event>
 5   0  0.1824538E-04  0.1701629E+04  0.7818609E-02  0.8760436E-01
       -1   -1    0    0    0  501  0.00000000000E+00  0.00000000000E+00  0.46314307892E+03  0.46314307895E+03  0.50400001928E-02 0.  1.
        1   -1    0    0  501    0  0.00000000000E+00  0.00000000000E+00 -0.15629833719E+04  0.15629833719E+04  0.50400001928E-02 0. -1.
    10030    2    1    2    0    0  0.00000000000E+00  0.00000000000E+00 -0.10998402930E+04  0.20261264509E+04  0.17016285508E+04 0.  0.
        3    1    3    3  502    0 -0.13083398086E+03 -0.68467958561E+03 -0.11307824037E+04  0.13283721317E+04  0.10100000352E+00 0. -1.
       -3    1    3    3    0  502  0.13083398086E+03  0.68467958561E+03  0.30942110736E+02  0.69775431916E+03  0.10100000352E+00 0.  1.
</event>
<event>
 5   0  0.3516723E-04  0.1721696E+04  0.7818609E-02  0.8749086E-01
       -2   -1    0    0    0  501  0.00000000000E+00  0.00000000000E+00  0.84169012981E+03  0.84169012982E+03  0.25500000920E-02 0.  1.
        2   -1    0    0  501    0  0.00000000000E+00  0.00000000000E+00 -0.88044181943E+03  0.88044181944E+03  0.25500000920E-02 0. -1.
    10030    2    1    2    0    0  0.00000000000E+00  0.00000000000E+00 -0.38751689621E+02  0.17221319493E+04  0.17216958957E+04 0.  0.
        1    1    3    3  502    0 -0.46766336771E+03 -0.62523841671E+03  0.34324471100E+03  0.85290622866E+03  0.50400001928E-02 0.  1.
       -1    1    3    3    0  502  0.46766336771E+03  0.62523841671E+03 -0.38199640062E+03  0.86922572059E+03  0.50400001928E-02 0. -1.
</event>
<event>
 5   0  0.1930116E-04  0.1656940E+04  0.7818609E-02  0.8786311E-01
       -1   -1    0    0    0  501  0.00000000000E+00  0.00000000000E+00  0.43328435098E+03  0.43328435101E+03  0.50400001928E-02 0.  1.
        1   -1    0    0  501    0  0.00000000000E+00  0.00000000000E+00 -0.15840933551E+04  0.15840933551E+04  0.50400001928E-02 0. -1.
    10030    2    1    2    0    0  0.00000000000E+00  0.00000000000E+00 -0.11508090041E+04  0.20173777061E+04  0.16569403867E+04 0.  0.
        1    1    3    3  502    0  0.91073032717E+02 -0.38383043709E+03  0.31159295054E+03  0.50270296257E+03  0.50400001928E-02 0.  1.
       -1    1    3    3    0  502 -0.91073032717E+02  0.38383043709E+03 -0.14624019546E+04  0.15146747435E+04  0.50400001928E-02 0. -1.
</event>
<event>
 5   0  0.3573262E-04  0.1693569E+04  0.7818609E-02  0.8765041E-01
       -2   -1    0    0    0  501  0.00000000000E+00  0.00000000000E+00  0.43052086532E+03  0.43052086532E+03  0.25500000920E-02 0.  1.
        2   -1    0    0  501    0  0.00000000000E+00  0.00000000000E+00 -0.16655264425E+04  0.16655264425E+04  0.25500000920E-02 0. -1.
    10030    2    1    2    0    0  0.00000000000E+00  0.00000000000E+00 -0.12350055772E+04  0.20960473078E+04  0.16935688769E+04 0.  0.
        5    1    3    3  502    0 -0.32562212603E+03 -0.77266094656E+03 -0.47112948685E+03  0.96177949171E+03  0.46999998093E+01 0.  1.
       -5    1    3    3    0  502  0.32562212603E+03  0.77266094656E+03 -0.76387609033E+03  0.11342678161E+04  0.46999998093E+01 0. -1.
</event>
<event>
 5   0  0.1893284E-04  0.1643602E+04  0.7818609E-02  0.8794200E-01
       -1   -1    0    0    0  501  0.00000000000E+00  0.00000000000E+00  0.96656402727E+03  0.96656402728E+03  0.50400001928E-02 0. -1.
        1   -1    0    0  501    0  0.00000000000E+00  0.00000000000E+00 -0.69871954401E+03  0.69871954403E+03  0.50400001928E-02 0.  1.
    10030    2    1    2    0    0  0.00000000000E+00  0.00000000000E+00  0.26784448326E+03  0.16652835713E+04  0.16436023563E+04 0.  0.
        2    1    3    3  502    0 -0.34090418902E+03  0.28377178742E+02 -0.62315353984E+03  0.71087359255E+03  0.25500000920E-02 0.  1.
       -2    1    3    3    0  502  0.34090418902E+03 -0.28377178742E+02  0.89099802310E+03  0.95440997876E+03  0.25500000920E-02 0. -1.
</event>
<event>
 5   0  0.3574092E-04  0.1715336E+04  0.7818609E-02  0.8752665E-01
        2   -1    0    0  501    0  0.00000000000E+00  0.00000000000E+00  0.51393678930E+03  0.51393678931E+03  0.25500000920E-02 0. -1.
       -2   -1    0    0    0  501  0.00000000000E+00  0.00000000000E+00 -0.14312943216E+04  0.14312943216E+04  0.25500000920E-02 0.  1.
    10030    2    1    2    0    0  0.00000000000E+00  0.00000000000E+00 -0.91735753230E+03  0.19452311109E+04  0.17153364780E+04 0.  0.
        3    1    3    3  502    0  0.10556301677E+03 -0.35651905648E+03 -0.13351439091E+04  0.13859504524E+04  0.10100000352E+00 0.  1.
       -3    1    3    3    0  502 -0.10556301677E+03  0.35651905648E+03  0.41778637683E+03  0.55928065854E+03  0.10100000352E+00 0. -1.
</event>
<event>
 5   0  0.3678896E-04  0.1700489E+04  0.7818609E-02  0.8761086E-01
       -2   -1    0    0    0  501  0.00000000000E+00  0.00000000000E+00  0.40874516064E+03  0.40874516065E+03  0.25500000920E-02 0. -1.
        2   -1    0    0  501    0  0.00000000000E+00  0.00000000000E+00 -0.17686217604E+04  0.17686217604E+04  0.25500000920E-02 0.  1.
    10030    2    1    2    0    0  0.00000000000E+00  0.00000000000E+00 -0.13598765998E+04  0.21773669211E+04  0.17004888539E+04 0.  0.
        2    1    3    3  502    0  0.19058902537E+03 -0.50683536760E+03 -0.15192924021E+04  0.16129028704E+04  0.25500000920E-02 0.  1.
       -2    1    3    3    0  502 -0.19058902537E+03  0.50683536760E+03  0.15941580229E+03  0.56446405065E+03  0.25500000920E-02 0. -1.
</event>
<event>
 5   0  0.1893284E-04  0.1701847E+04  0.7818609E-02  0.8760312E-01
       -1   -1    0    0    0  501  0.00000000000E+00  0.00000000000E+00  0.41643232831E+03  0.41643232834E+03  0.50400001928E-02 0.  1.
        1   -1    0    0  501    0  0.00000000000E+00  0.00000000000E+00 -0.17387470211E+04  0.17387470211E+04  0.50400001928E-02 0. -1.
    10030    2    1    2    0    0  0.00000000000E+00  0.00000000000E+00 -0.13223146928E+04  0.21551793495E+04  0.17018466093E+04 0.  0.
        2    1    3    3  502    0  0.64824282125E+03 -0.42549378132E+03 -0.11049438957E+04  0.13498758187E+04  0.25500000920E-02 0. -1.
       -2    1    3    3    0  502 -0.64824282125E+03  0.42549378132E+03 -0.21737079711E+03  0.80530353078E+03  0.25500000920E-02 0.  1.
</event>
<event>
 5   0  0.3573262E-04  0.1695993E+04  0.7818609E-02  0.8763653E-01
        2   -1    0    0  501    0  0.00000000000E+00  0.00000000000E+00  0.67938721027E+03  0.67938721028E+03  0.25500000920E-02 0.  1.
       -2   -1    0    0    0  501  0.00000000000E+00  0.00000000000E+00 -0.10584505084E+04  0.10584505084E+04  0.25500000920E-02 0. -1.
    10030    2    1    2    0    0  0.00000000000E+00  0.00000000000E+00 -0.37906329812E+03  0.17378377187E+04  0.16959926157E+04 0.  0.
        5    1    3    3  502    0 -0.75350839619E+03  0.19443364607E+03  0.15567258847E+03  0.79362169240E+03  0.46999998093E+01 0.  1.
       -5    1    3    3    0  502  0.75350839619E+03 -0.19443364607E+03 -0.53473588658E+03  0.94421602626E+03  0.46999998093E+01 0. -1.
</event>
<event>
 5   0  0.3573262E-04  0.1697120E+04  0.7818609E-02  0.8763008E-01
       -2   -1    0    0    0  501  0.00000000000E+00  0.00000000000E+00  0.31893637396E+03  0.31893637397E+03  0.25500000920E-02 0.  1.
        2   -1    0    0  501    0  0.00000000000E+00  0.00000000000E+00 -0.22576739355E+04  0.22576739355E+04  0.25500000920E-02 0. -1.
    10030    2    1    2    0    0  0.00000000000E+00  0.00000000000E+00 -0.19387375616E+04  0.25766103095E+04  0.16971203123E+04 0.  0.
        5    1    3    3  502    0 -0.40116053865E+03 -0.68530469396E+03 -0.51526990401E+03  0.94662424716E+03  0.46999998093E+01 0.  1.
       -5    1    3    3    0  502  0.40116053865E+03  0.68530469396E+03 -0.14234676575E+04  0.16299860623E+04  0.46999998093E+01 0. -1.
</event>
<event>
 5   0  0.3574092E-04  0.1714389E+04  0.7818609E-02  0.8753200E-01
        2   -1    0    0  501    0  0.00000000000E+00  0.00000000000E+00  0.15622759925E+04  0.15622759925E+04  0.25500000920E-02 0.  1.
       -2   -1    0    0    0  501  0.00000000000E+00  0.00000000000E+00 -0.47032809148E+03  0.47032809149E+03  0.25500000920E-02 0. -1.
    10030    2    1    2    0    0  0.00000000000E+00  0.00000000000E+00  0.10919479010E+04  0.20326040840E+04  0.17143888543E+04 0.  0.
        3    1    3    3  502    0  0.23766482151E+02  0.41069275764E+03 -0.34564345116E+03  0.53731070377E+03  0.10100000352E+00 0. -1.
       -3    1    3    3    0  502 -0.23766482151E+02 -0.41069275764E+03  0.14375913522E+04  0.14952933802E+04  0.10100000352E+00 0.  1.
</event>
<event>
 5   0  0.3516723E-04  0.1908357E+04  0.7818609E-02  0.8650708E-01
       -2   -1    0    0    0  501  0.00000000000E+00  0.00000000000E+00  0.14540792385E+04  0.14540792385E+04  0.25500000920E-02 0. -1.
        2   -1    0    0  501    0  0.00000000000E+00  0.00000000000E+00 -0.62613939593E+03  0.62613939594E+03  0.25500000920E-02 0.  1.
    10030    2    1    2    0    0  0.00000000000E+00  0.00000000000E+00  0.82793984256E+03  0.20802186344E+04  0.19083566711E+04 0.  0.
        1    1    3    3  502    0 -0.90009987515E+02 -0.57996098855E+03  0.12340524406E+04  0.13665072163E+04  0.50400001928E-02 0. -1.
       -1    1    3    3    0  502  0.90009987515E+02  0.57996098855E+03 -0.40611259801E+03  0.71371141813E+03  0.50400001928E-02 0.  1.
</event>
<event>
 5   0  0.1815663E-04  0.1713379E+04  0.7818609E-02  0.8753770E-01
       -1   -1    0    0    0  501  0.00000000000E+00  0.00000000000E+00  0.61324222036E+03  0.61324222038E+03  0.50400001928E-02 0.  1.
        1   -1    0    0  501    0  0.00000000000E+00  0.00000000000E+00 -0.11967818154E+04  0.11967818155E+04  0.50400001928E-02 0. -1.
    10030    2    1    2    0    0  0.00000000000E+00  0.00000000000E+00 -0.58353959508E+03  0.18100240358E+04  0.17133792783E+04 0.  0.
        5    1    3    3  502    0 -0.43744039742E+03 -0.71248028133E+03 -0.48915888649E+03  0.96864893476E+03  0.46999998093E+01 0.  1.
       -5    1    3    3    0  502  0.43744039742E+03  0.71248028133E+03 -0.94380708595E+02  0.84137510109E+03  0.46999998093E+01 0. -1.
</event>
<event>
 5   0  0.1930116E-04  0.1593117E+04  0.7818609E-02  0.8824787E-01
       -1   -1    0    0    0  501  0.00000000000E+00  0.00000000000E+00  0.51548050160E+03  0.51548050162E+03  0.50400001928E-02 0. -1.
        1   -1    0    0  501    0  0.00000000000E+00  0.00000000000E+00 -0.12309014541E+04  0.12309014542E+04  0.50400001928E-02 0.  1.
    10030    2    1    2    0    0  0.00000000000E+00  0.00000000000E+00 -0.71542095254E+03  0.17463819558E+04  0.15931173203E+04 0.  0.
        1    1    3    3  502    0 -0.40597880993E+03 -0.50204124860E+03  0.15369140464E+03  0.66369063372E+03  0.50400001928E-02 0. -1.
       -1    1    3    3    0  502  0.40597880993E+03  0.50204124860E+03 -0.86911235718E+03  0.10826913220E+04  0.50400001928E-02 0.  1.
</event>
<event>
 5   0  0.3678896E-04  0.1708697E+04  0.7818609E-02  0.8756420E-01
       -2   -1    0    0    0  501  0.00000000000E+00  0.00000000000E+00  0.32642432246E+03  0.32642432247E+03  0.25500000920E-02 0.  1.
        2   -1    0    0  501    0  0.00000000000E+00  0.00000000000E+00 -0.22360815004E+04  0.22360815004E+04  0.25500000920E-02 0. -1.
    10030    2    1    2    0    0  0.00000000000E+00  0.00000000000E+00 -0.19096571780E+04  0.25625058229E+04  0.17086970343E+04 0.  0.
        2    1    3    3  502    0  0.84349548573E+03  0.10737624739E+03 -0.83028168837E+03  0.11884367779E+04  0.25500000920E-02 0.  1.
       -2    1    3    3    0  502 -0.84349548573E+03 -0.10737624739E+03 -0.10793754896E+04  0.13740690450E+04  0.25500000920E-02 0. -1.
</event>
<event>
 5   0  0.1893284E-04  0.1698774E+04  0.7818609E-02  0.8762064E-01
       -1   -1    0    0    0  501  0.00000000000E+00  0.00000000000E+00  0.14545134989E+04  0.14545134989E+04  0.50400001928E-02 0. -1.
        1   -1    0    0  501    0  0.00000000000E+00  0.00000000000E+00 -0.49601318110E+03  0.49601318113E+03  0.50400001928E-02 0.  1.
    10030    2    1    2    0    0  0.00000000000E+00  0.00000000000E+00  0.95850031780E+03  0.19505266800E+04  0.16987735194E+04 0.  0.
        2    1    3    3  502    0 -0.56140056923E+03 -0.62211648815E+03  0.31990976801E+03  0.89696253190E+03  0.25500000920E-02 0. -1.
       -2    1    3    3    0  502  0.56140056923E+03  0.62211648815E+03  0.63859054979E+03  0.10535641481E+04  0.25500000920E-02 0.  1.
</event>
<event>
 5   0  0.3516723E-04  0.1704187E+04  0.7818609E-02  0.8758980E-01
       -2   -1    0    0    0  501  0.00000000000E+00  0.00000000000E+00  0.97547600841E+03  0.97547600841E+03  0.25500000920E-02 0. -1.
        2   -1    0    0  501    0  0.00000000000E+00  0.00000000000E+00 -0.74431666135E+03  0.74431666135E+03  0.25500000920E-02 0.  1.
    10030    2    1    2    0    0  0.00000000000E+00  0.00000000000E+00  0.23115934706E+03  0.17197926698E+04  0.17041866633E+04 0.  0.
        1    1    3    3  502    0  0.30344317089E+03 -0.17553818066E+03  0.89933298045E+03  0.96524153484E+03  0.50400001928E-02 0. -1.
       -1    1    3    3    0  502 -0.30344317089E+03  0.17553818066E+03 -0.66817363339E+03  0.75455113492E+03  0.50400001928E-02 0.  1.
</event>
<event>
 5   0  0.3573262E-04  0.1715534E+04  0.7818609E-02  0.8752554E-01
       -2   -1    0    0    0  501  0.00000000000E+00  0.00000000000E+00  0.84259290677E+03  0.84259290678E+03  0.25500000920E-02 0. -1.
        2   -1    0    0  501    0  0.00000000000E+00  0.00000000000E+00 -0.87321484090E+03  0.87321484090E+03  0.25500000920E-02 0.  1.
    10030    2    1    2    0    0  0.00000000000E+00  0.00000000000E+00 -0.30621934123E+02  0.17158077477E+04  0.17155344719E+04 0.  0.
        5    1    3    3  502    0  0.39603886881E+03  0.66450833497E+03 -0.38594310519E+03  0.86451852687E+03  0.46999998093E+01 0. -1.
       -5    1    3    3    0  502 -0.39603886881E+03 -0.66450833497E+03  0.35532117107E+03  0.85128922081E+03  0.46999998093E+01 0.  1.
</event>
<event>
 5   0  0.1815663E-04  0.1626275E+04  0.7818609E-02  0.8804567E-01
       -1   -1    0    0    0  501  0.00000000000E+00  0.00000000000E+00  0.12763584422E+04  0.12763584423E+04  0.50400001928E-02 0. -1.
        1   -1    0    0  501    0  0.00000000000E+00  0.00000000000E+00 -0.51803037196E+03  0.51803037198E+03  0.50400001928E-02 0.  1.
    10030    2    1    2    0    0  0.00000000000E+00  0.00000000000E+00  0.75832807029E+03  0.17943888142E+04  0.16262748090E+04 0.  0.
        5    1    3    3  502    0 -0.68786393786E+03 -0.39570401959E+03  0.18354649169E+03  0.81452432298E+03  0.46999998093E+01 0. -1.
       -5    1    3    3    0  502  0.68786393786E+03  0.39570401959E+03  0.57478157860E+03  0.97986449125E+03  0.46999998093E+01 0.  1.
</event>
<event>
 5   0  0.1815663E-04  0.1687604E+04  0.7818609E-02  0.8768466E-01
       -1   -1    0    0    0  501  0.00000000000E+00  0.00000000000E+00  0.11239788494E+04  0.11239788494E+04  0.50400001928E-02 0.  1.
        1   -1    0    0  501    0  0.00000000000E+00  0.00000000000E+00 -0.63346523998E+03  0.63346524000E+03  0.50400001928E-02 0. -1.
    10030    2    1    2    0    0  0.00000000000E+00  0.00000000000E+00  0.49051360939E+03  0.17574440894E+04  0.16876036639E+04 0.  0.
        5    1    3    3  502    0 -0.23216561708E+02  0.83872612887E+03  0.15223539031E+03  0.85275918761E+03  0.46999998093E+01 0. -1.
       -5    1    3    3    0  502  0.23216561708E+02 -0.83872612887E+03  0.33827821908E+03  0.90468490177E+03  0.46999998093E+01 0.  1.
</event>
<event>
 5   0  0.3516723E-04  0.1705610E+04  0.7818609E-02  0.8758171E-01
        2   -1    0    0  501    0  0.00000000000E+00  0.00000000000E+00  0.18744027528E+04  0.18744027528E+04  0.25500000920E-02 0.  1.
       -2   -1    0    0    0  501  0.00000000000E+00  0.00000000000E+00 -0.38800413306E+03  0.38800413307E+03  0.25500000920E-02 0. -1.
    10030    2    1    2    0    0  0.00000000000E+00  0.00000000000E+00  0.14863986197E+04  0.22624068858E+04  0.17056095862E+04 0.  0.
        1    1    3    3  502    0 -0.11475702438E+03  0.56331580005E+03  0.15787391232E+04  0.16801521015E+04  0.50400001928E-02 0.  1.
       -1    1    3    3    0  502  0.11475702438E+03 -0.56331580005E+03 -0.92340503470E+02  0.58225478430E+03  0.50400001928E-02 0. -1.
</event>
<event>
 5   0  0.3605571E-04  0.1706979E+04  0.7818609E-02  0.8757394E-01
       -2   -1    0    0    0  501  0.00000000000E+00  0.00000000000E+00  0.61346484659E+03  0.61346484659E+03  0.25500000920E-02 0. -1.
        2   -1    0    0  501    0  0.00000000000E+00  0.00000000000E+00 -0.11874260510E+04  0.11874260510E+04  0.25500000920E-02 0.  1.
    10030    2    1    2    0    0  0.00000000000E+00  0.00000000000E+00 -0.57396120442E+03  0.18008908976E+04  0.17069787816E+04 0.  0.
        4    1    3    3  502    0 -0.37535597136E+03  0.35908716227E+03  0.42748206476E+03  0.67273934323E+03  0.12699999809E+01 0. -1.
       -4    1    3    3    0  502  0.37535597136E+03 -0.35908716227E+03 -0.10014432692E+04  0.11281515544E+04  0.12699999809E+01 0.  1.
</event>
<event>
 5   0  0.1317625E-04  0.1726460E+04  0.7818609E-02  0.8746416E-01
        4   -1    0    0  501    0  0.00000000000E+00  0.00000000000E+00  0.10292409700E+04  0.10292417535E+04  0.12699999809E+01 0.  1.
       -4   -1    0    0    0  501  0.00000000000E+00  0.00000000000E+00 -0.72399366941E+03  0.72399478330E+03  0.12699999809E+01 0. -1.
    10030    2    1    2    0    0  0.00000000000E+00  0.00000000000E+00  0.30524730056E+03  0.17532365368E+04  0.17264595100E+04 0.  0.
        5    1    3    3  502    0  0.14499372059E+03 -0.83865037284E+03  0.62144194627E+01  0.85112768482E+03  0.46999998093E+01 0. -1.
       -5    1    3    3    0  502 -0.14499372059E+03  0.83865037284E+03  0.29903288110E+03  0.90210885199E+03  0.46999998093E+01 0.  1.
</event>
<event>
 5   0  0.1920289E-04  0.1687253E+04  0.7818609E-02  0.8768668E-01
        1   -1    0    0  501    0  0.00000000000E+00  0.00000000000E+00  0.15076809469E+04  0.15076809469E+04  0.50400001928E-02 0.  1.
       -1   -1    0    0    0  501  0.00000000000E+00  0.00000000000E+00 -0.47205301063E+03  0.47205301066E+03  0.50400001928E-02 0. -1.
    10030    2    1    2    0    0  0.00000000000E+00  0.00000000000E+00  0.10356279363E+04  0.19797339576E+04  0.16872525953E+04 0.  0.
        4    1    3    3  502    0  0.32214845606E+03  0.23539153490E+03  0.13899791210E+04  0.14461093915E+04  0.12699999809E+01 0.  1.
       -4    1    3    3    0  502 -0.32214845606E+03 -0.23539153490E+03 -0.35435118477E+03  0.53362456604E+03  0.12699999809E+01 0. -1.
</event>
<event>
 5   0  0.3574092E-04  0.1698406E+04  0.7818609E-02  0.8762274E-01
        2   -1    0    0  501    0  0.00000000000E+00  0.00000000000E+00  0.39730683644E+03  0.39730683645E+03  0.25500000920E-02 0.  1.
       -2   -1    0    0    0  501  0.00000000000E+00  0.00000000000E+00 -0.18150851619E+04  0.18150851619E+04  0.25500000920E-02 0. -1.
    10030    2    1    2    0    0  0.00000000000E+00  0.00000000000E+00 -0.14177783254E+04  0.22123919983E+04  0.16984060098E+04 0.  0.
        3    1    3    3  502    0  0.51537907174E+03 -0.59597704893E+03 -0.29625910377E+03  0.84176819684E+03  0.10100000352E+00 0.  1.
       -3    1    3    3    0  502 -0.51537907174E+03  0.59597704893E+03 -0.11215192217E+04  0.13706238015E+04  0.10100000352E+00 0. -1.
</event>
<event>
 5   0  0.1930116E-04  0.1638662E+04  0.7818609E-02  0.8797142E-01
        1   -1    0    0  501    0  0.00000000000E+00  0.00000000000E+00  0.88826001134E+03  0.88826001136E+03  0.50400001928E-02 0.  1.
       -1   -1    0    0    0  501  0.00000000000E+00  0.00000000000E+00 -0.75575068702E+03  0.75575068704E+03  0.50400001928E-02 0. -1.
    10030    2    1    2    0    0  0.00000000000E+00  0.00000000000E+00  0.13250932432E+03  0.16440106984E+04  0.16386617880E+04 0.  0.
        1    1    3    3  502    0 -0.78659754509E+03 -0.86978328273E+02 -0.14657498227E+03  0.80485101291E+03  0.50400001928E-02 0. -1.
       -1    1    3    3    0  502  0.78659754509E+03  0.86978328273E+02  0.27908430659E+03  0.83915968549E+03  0.50400001928E-02 0.  1.
</event>
<event>
 5   0  0.3573262E-04  0.1803970E+04  0.7818609E-02  0.8704191E-01
       -2   -1    0    0    0  501  0.00000000000E+00  0.00000000000E+00  0.45626203801E+03  0.45626203802E+03  0.25500000920E-02 0.  1.
        2   -1    0    0  501    0  0.00000000000E+00  0.00000000000E+00 -0.17831345955E+04  0.17831345955E+04  0.25500000920E-02 0. -1.
    10030    2    1    2    0    0  0.00000000000E+00  0.00000000000E+00 -0.13268725575E+04  0.22393966335E+04  0.18039696501E+04 0.  0.
        5    1    3    3  502    0 -0.70296492547E+03  0.19621370803E+03 -0.13213573882E+04  0.15095254033E+04  0.46999998093E+01 0. -1.
       -5    1    3    3    0  502  0.70296492547E+03 -0.19621370803E+03 -0.55151692613E+01  0.72987123026E+03  0.46999998093E+01 0.  1.
</event>
<event>
 5   0  0.1893284E-04  0.1696416E+04  0.7818609E-02  0.8763411E-01
       -1   -1    0    0    0  501  0.00000000000E+00  0.00000000000E+00  0.11309030103E+04  0.11309030104E+04  0.50400001928E-02 0. -1.
        1   -1    0    0  501    0  0.00000000000E+00  0.00000000000E+00 -0.63617877725E+03  0.63617877727E+03  0.50400001928E-02 0.  1.
    10030    2    1    2    0    0  0.00000000000E+00  0.00000000000E+00  0.49472423309E+03  0.17670817876E+04  0.16964156264E+04 0.  0.
        2    1    3    3  502    0 -0.55066324710E+03 -0.58716116276E+03  0.52583375193E+03  0.96150370641E+03  0.25500000920E-02 0. -1.
       -2    1    3    3    0  502  0.55066324710E+03  0.58716116276E+03 -0.31109518840E+02  0.80557808122E+03  0.25500000920E-02 0.  1.
</event>
<event>
 5   0  0.3516723E-04  0.1777882E+04  0.7818609E-02  0.8718151E-01
        2   -1    0    0  501    0  0.00000000000E+00  0.00000000000E+00  0.46790316740E+03  0.46790316740E+03  0.25500000920E-02 0. -1.
       -2   -1    0    0    0  501  0.00000000000E+00  0.00000000000E+00 -0.16888460907E+04  0.16888460907E+04  0.25500000920E-02 0.  1.
    10030    2    1    2    0    0  0.00000000000E+00  0.00000000000E+00 -0.12209429233E+04  0.21567492581E+04  0.17778823753E+04 0.  0.
        1    1    3    3  502    0 -0.71732841636E+03  0.40409523749E+02 -0.12454959840E+04  0.14378641217E+04  0.50400001928E-02 0.  1.
       -1    1    3    3    0  502  0.71732841636E+03 -0.40409523749E+02  0.24553060614E+02  0.71888513640E+03  0.50400001928E-02 0. -1.
</event>
<event>
 5   0  0.3678896E-04  0.1706136E+04  0.7818609E-02  0.8757872E-01
       -2   -1    0    0    0  501  0.00000000000E+00  0.00000000000E+00  0.45806654344E+03  0.45806654345E+03  0.25500000920E-02 0.  1.
        2   -1    0    0  501    0  0.00000000000E+00  0.00000000000E+00 -0.15886888846E+04  0.15886888846E+04  0.25500000920E-02 0. -1.
    10030    2    1    2    0    0  0.00000000000E+00  0.00000000000E+00 -0.11306223411E+04  0.20467554280E+04  0.17061362501E+04 0.  0.
        2    1    3    3  502    0 -0.36670960206E+03  0.75465248098E+03 -0.38043785344E+03  0.92125417753E+03  0.25500000920E-02 0.  1.
       -2    1    3    3    0  502  0.36670960206E+03 -0.75465248098E+03 -0.75018448769E+03  0.11255012505E+04  0.25500000920E-02 0. -1.
</event>
<event>
 5   0  0.1317625E-04  0.1681761E+04  0.7818609E-02  0.8771835E-01
        3   -1    0    0  501    0  0.00000000000E+00  0.00000000000E+00  0.47099657837E+03  0.47099658920E+03  0.10100000352E+00 0. -1.
       -3   -1    0    0    0  501  0.00000000000E+00  0.00000000000E+00 -0.15012427552E+04  0.15012427586E+04  0.10100000352E+00 0.  1.
    10030    2    1    2    0    0  0.00000000000E+00  0.00000000000E+00 -0.10302461769E+04  0.19722393478E+04  0.16817612376E+04 0.  0.
        1    1    3    3  502    0  0.72999375581E+03  0.30925436427E+03 -0.84380161585E+03  0.11578127276E+04  0.50400001928E-02 0.  1.
       -1    1    3    3    0  502 -0.72999375581E+03 -0.30925436427E+03 -0.18644456103E+03  0.81442662021E+03  0.50400001928E-02 0. -1.
</event>
<event>
 5   0  0.1920289E-04  0.1691547E+04  0.7818609E-02  0.8766200E-01
        1   -1    0    0  501    0  0.00000000000E+00  0.00000000000E+00  0.68589236765E+03  0.68589236767E+03  0.50400001928E-02 0.  1.
       -1   -1    0    0    0  501  0.00000000000E+00  0.00000000000E+00 -0.10429225363E+04  0.10429225363E+04  0.50400001928E-02 0. -1.
    10030    2    1    2    0    0  0.00000000000E+00  0.00000000000E+00 -0.35703016866E+03  0.17288149040E+04  0.16915467569E+04 0.  0.
        4    1    3    3  502    0 -0.43545076408E+03 -0.70776624543E+03 -0.33940177763E+03  0.89763333587E+03  0.12699999809E+01 0. -1.
       -4    1    3    3    0  502  0.43545076408E+03  0.70776624543E+03 -0.17628391029E+02  0.83118156812E+03  0.12699999809E+01 0.  1.
</event>
<event>
 5   0  0.3605571E-04  0.1691469E+04  0.7818609E-02  0.8766245E-01
        2   -1    0    0  501    0  0.00000000000E+00  0.00000000000E+00  0.14048337270E+04  0.14048337270E+04  0.25500000920E-02 0.  1.
       -2   -1    0    0    0  501  0.00000000000E+00  0.00000000000E+00 -0.50914719584E+03  0.50914719584E+03  0.25500000920E-02 0. -1.
    10030    2    1    2    0    0  0.00000000000E+00  0.00000000000E+00  0.89568653116E+03  0.19139809228E+04  0.16914693645E+04 0.  0.
        4    1    3    3  502    0 -0.13251070939E+03  0.22015733551E+03 -0.46390546266E+03  0.53031899049E+03  0.12699999809E+01 0. -1.
       -4    1    3    3    0  502  0.13251070939E+03 -0.22015733551E+03  0.13595919938E+04  0.13836619324E+04  0.12699999809E+01 0.  1.
</event>
<event>
 5   0  0.3573262E-04  0.1721903E+04  0.7818609E-02  0.8748970E-01
        2   -1    0    0  501    0  0.00000000000E+00  0.00000000000E+00  0.20274495811E+04  0.20274495811E+04  0.25500000920E-02 0. -1.
       -2   -1    0    0    0  501  0.00000000000E+00  0.00000000000E+00 -0.36560098633E+03  0.36560098634E+03  0.25500000920E-02 0.  1.
    10030    2    1    2    0    0  0.00000000000E+00  0.00000000000E+00  0.16618485948E+04  0.23930505675E+04  0.17219030944E+04 0.  0.
        5    1    3    3  502    0 -0.33519563418E+03  0.48497171086E+03 -0.41052257263E+02  0.59098312272E+03  0.46999998093E+01 0.  1.
       -5    1    3    3    0  502  0.33519563418E+03 -0.48497171086E+03  0.17029008521E+04  0.18020674448E+04  0.46999998093E+01 0. -1.
</event>
<event>
 5   0  0.1930116E-04  0.1714450E+04  0.7818609E-02  0.8753166E-01
        1   -1    0    0  501    0  0.00000000000E+00  0.00000000000E+00  0.14684486942E+04  0.14684486942E+04  0.50400001928E-02 0.  1.
       -1   -1    0    0    0  501  0.00000000000E+00  0.00000000000E+00 -0.50041557751E+03  0.50041557754E+03  0.50400001928E-02 0. -1.
    10030    2    1    2    0    0  0.00000000000E+00  0.00000000000E+00  0.96803311671E+03  0.19688642718E+04  0.17144498843E+04 0.  0.
        1    1    3    3  502    0 -0.10777922020E+03 -0.73398949041E+03 -0.92286610485E+01  0.74191785296E+03  0.50400001928E-02 0. -1.
       -1    1    3    3    0  502  0.10777922020E+03  0.73398949041E+03  0.97726177776E+03  0.12269464188E+04  0.50400001928E-02 0.  1.
</event>
<event>
 5   0  0.3605571E-04  0.1664543E+04  0.7818609E-02  0.8781849E-01
        2   -1    0    0  501    0  0.00000000000E+00  0.00000000000E+00  0.76807156699E+03  0.76807156700E+03  0.25500000920E-02 0.  1.
       -2   -1    0    0    0  501  0.00000000000E+00  0.00000000000E+00 -0.90183789205E+03  0.90183789205E+03  0.25500000920E-02 0. -1.
    10030    2    1    2    0    0  0.00000000000E+00  0.00000000000E+00 -0.13376632506E+03  0.16699094590E+04  0.16645432322E+04 0.  0.
        4    1    3    3  502    0  0.36684884516E+02 -0.62013416963E+03  0.48876362834E+03  0.79044523301E+03  0.12699999809E+01 0.  1.
       -4    1    3    3    0  502 -0.36684884516E+02  0.62013416963E+03 -0.62252995340E+03  0.87946422604E+03  0.12699999809E+01 0. -1.
</event>
<event>
 5   0  0.1824538E-04  0.1658163E+04  0.7818609E-02  0.8785592E-01
       -1   -1    0    0    0  501  0.00000000000E+00  0.00000000000E+00  0.50043135826E+03  0.50043135829E+03  0.50400001928E-02 0. -1.
        1   -1    0    0  501    0  0.00000000000E+00  0.00000000000E+00 -0.13735680502E+04  0.13735680502E+04  0.50400001928E-02 0.  1.
    10030    2    1    2    0    0  0.00000000000E+00  0.00000000000E+00 -0.87313669196E+03  0.18739994085E+04  0.16581634721E+04 0.  0.
        3    1    3    3  502    0  0.23763090054E+02 -0.50085950870E+03 -0.11827786388E+04  0.12846751537E+04  0.10100000352E+00 0.  1.
       -3    1    3    3    0  502 -0.23763090054E+02  0.50085950870E+03  0.30964194683E+03  0.58932425484E+03  0.10100000352E+00 0. -1.
</event>
<event>
 5   0  0.1893284E-04  0.1693548E+04  0.7818609E-02  0.8765052E-01
        1   -1    0    0  501    0  0.00000000000E+00  0.00000000000E+00  0.18268921205E+04  0.18268921205E+04  0.50400001928E-02 0.  1.
       -1   -1    0    0    0  501  0.00000000000E+00  0.00000000000E+00 -0.39248435859E+03  0.39248435862E+03  0.50400001928E-02 0. -1.
    10030    2    1    2    0    0  0.00000000000E+00  0.00000000000E+00  0.14344077619E+04  0.22193764791E+04  0.16935484429E+04 0.  0.
        2    1    3    3  502    0  0.53373389297E+03  0.42473344556E+03  0.13747458147E+04  0.15346649221E+04  0.25500000920E-02 0.  1.
       -2    1    3    3    0  502 -0.53373389297E+03 -0.42473344556E+03  0.59661947214E+02  0.68471155696E+03  0.25500000920E-02 0. -1.
</event>
<event>
 5   0  0.1893284E-04  0.1695209E+04  0.7818609E-02  0.8764101E-01
        1   -1    0    0  501    0  0.00000000000E+00  0.00000000000E+00  0.10118561011E+04  0.10118561011E+04  0.50400001928E-02 0.  1.
       -1   -1    0    0    0  501  0.00000000000E+00  0.00000000000E+00 -0.71001553888E+03  0.71001553889E+03  0.50400001928E-02 0. -1.
    10030    2    1    2    0    0  0.00000000000E+00  0.00000000000E+00  0.30184056220E+03  0.17218716400E+04  0.16952091964E+04 0.  0.
        2    1    3    3  502    0 -0.84646007236E+03  0.10578973677E+02  0.10750475223E+03  0.85332516695E+03  0.25500000920E-02 0. -1.
       -2    1    3    3    0  502  0.84646007236E+03 -0.10578973677E+02  0.19433580997E+03  0.86854647304E+03  0.25500000920E-02 0.  1.
</event>
<event>
 5   0  0.1930116E-04  0.1678757E+04  0.7818609E-02  0.8773574E-01
       -1   -1    0    0    0  501  0.00000000000E+00  0.00000000000E+00  0.58918814402E+03  0.58918814404E+03  0.50400001928E-02 0.  1.
        1   -1    0    0  501    0  0.00000000000E+00  0.00000000000E+00 -0.11958087609E+04  0.11958087609E+04  0.50400001928E-02 0. -1.
    10030    2    1    2    0    0  0.00000000000E+00  0.00000000000E+00 -0.60662061686E+03  0.17849969049E+04  0.16787570932E+04 0.  0.
        1    1    3    3  502    0 -0.20153818428E+03  0.30461403728E+03  0.50026080128E+03  0.61940957432E+03  0.50400001928E-02 0.  1.
       -1    1    3    3    0  502  0.20153818428E+03 -0.30461403728E+03 -0.11068814181E+04  0.11655873306E+04  0.50400001928E-02 0. -1.
</event>
<event>
 5   0  0.1815663E-04  0.1714900E+04  0.7818609E-02  0.8752911E-01
        1   -1    0    0  501    0  0.00000000000E+00  0.00000000000E+00  0.13952667131E+04  0.13952667131E+04  0.50400001928E-02 0. -1.
       -1   -1    0    0    0  501  0.00000000000E+00  0.00000000000E+00 -0.52693924882E+03  0.52693924884E+03  0.50400001928E-02 0.  1.
    10030    2    1    2    0    0  0.00000000000E+00  0.00000000000E+00  0.86832746424E+03  0.19222059619E+04  0.17149003396E+04 0.  0.
        5    1    3    3  502    0 -0.50187104212E+03 -0.56464768077E+03 -0.20447573946E+02  0.75573920078E+03  0.46999998093E+01 0.  1.
       -5    1    3    3    0  502  0.50187104212E+03  0.56464768077E+03  0.88877503818E+03  0.11664667611E+04  0.46999998093E+01 0. -1.
</event>
<event>
 5   0  0.1893284E-04  0.1696741E+04  0.7818609E-02  0.8763225E-01
        1   -1    0    0  501    0  0.00000000000E+00  0.00000000000E+00  0.67091640190E+03  0.67091640192E+03  0.50400001928E-02 0. -1.
       -1   -1    0    0    0  501  0.00000000000E+00  0.00000000000E+00 -0.10727600503E+04  0.10727600503E+04  0.50400001928E-02 0.  1.
    10030    2    1    2    0    0  0.00000000000E+00  0.00000000000E+00 -0.40184364842E+03  0.17436764522E+04  0.16967407735E+04 0.  0.
        2    1    3    3  502    0  0.30975958764E+03  0.63375988707E+03 -0.68526561606E+03  0.98345897787E+03  0.25500000920E-02 0.  1.
       -2    1    3    3    0  502 -0.30975958764E+03 -0.63375988707E+03  0.28342196764E+03  0.76021747438E+03  0.25500000920E-02 0. -1.
</event>
<event>
 5   0  0.3605571E-04  0.1577947E+04  0.7818609E-02  0.8834212E-01
        2   -1    0    0  501    0  0.00000000000E+00  0.00000000000E+00  0.52131180163E+03  0.52131180163E+03  0.25500000920E-02 0. -1.
       -2   -1    0    0    0  501  0.00000000000E+00  0.00000000000E+00 -0.11940625944E+04  0.11940625944E+04  0.25500000920E-02 0.  1.
    10030    2    1    2    0    0  0.00000000000E+00  0.00000000000E+00 -0.67275079277E+03  0.17153743960E+04  0.15779466687E+04 0.  0.
        4    1    3    3  502    0  0.26514653568E+02 -0.63664677145E+03  0.16939171528E+03  0.65933095222E+03  0.12699999809E+01 0. -1.
       -4    1    3    3    0  502 -0.26514653568E+02  0.63664677145E+03 -0.84214250805E+03  0.10560434438E+04  0.12699999809E+01 0.  1.
</event>
<event>
 5   0  0.3605571E-04  0.1704695E+04  0.7818609E-02  0.8758691E-01
       -2   -1    0    0    0  501  0.00000000000E+00  0.00000000000E+00  0.34023317030E+03  0.34023317031E+03  0.25500000920E-02 0. -1.
        2   -1    0    0  501    0  0.00000000000E+00  0.00000000000E+00 -0.21352885882E+04  0.21352885882E+04  0.25500000920E-02 0.  1.
    10030    2    1    2    0    0  0.00000000000E+00  0.00000000000E+00 -0.17950554179E+04  0.24755217585E+04  0.17046947009E+04 0.  0.
        4    1    3    3  502    0 -0.58529379017E+03 -0.41170881238E+03 -0.15699687729E+04  0.17253627236E+04  0.12699999809E+01 0.  1.
       -4    1    3    3    0  502  0.58529379017E+03  0.41170881238E+03 -0.22508664493E+03  0.75015903489E+03  0.12699999809E+01 0. -1.
</event>
<event>
 5   0  0.3516723E-04  0.1716109E+04  0.7818609E-02  0.8752230E-01
       -2   -1    0    0    0  501  0.00000000000E+00  0.00000000000E+00  0.10228341931E+04  0.10228341931E+04  0.25500000920E-02 0.  1.
        2   -1    0    0  501    0  0.00000000000E+00  0.00000000000E+00 -0.71982084982E+03  0.71982084982E+03  0.25500000920E-02 0. -1.
    10030    2    1    2    0    0  0.00000000000E+00  0.00000000000E+00  0.30301334330E+03  0.17426550429E+04  0.17161088289E+04 0.  0.
        1    1    3    3  502    0 -0.43145310693E+03  0.25714617364E+03 -0.55494255731E+03  0.74848993316E+03  0.50400001928E-02 0. -1.
       -1    1    3    3    0  502  0.43145310693E+03 -0.25714617364E+03  0.85795590061E+03  0.99416510979E+03  0.50400001928E-02 0.  1.
</event>
<event>
 5   0  0.1920289E-04  0.1696699E+04  0.7818609E-02  0.8763249E-01
        1   -1    0    0  501    0  0.00000000000E+00  0.00000000000E+00  0.63408601739E+03  0.63408601741E+03  0.50400001928E-02 0.  1.
       -1   -1    0    0    0  501  0.00000000000E+00  0.00000000000E+00 -0.11350141648E+04  0.11350141648E+04  0.50400001928E-02 0. -1.
    10030    2    1    2    0    0  0.00000000000E+00  0.00000000000E+00 -0.50092814744E+03  0.17691001822E+04  0.16966986904E+04 0.  0.
        4    1    3    3  502    0 -0.73306281825E+03 -0.33251854328E+03 -0.52974707024E+03  0.96363024467E+03  0.12699999809E+01 0. -1.
       -4    1    3    3    0  502  0.73306281825E+03  0.33251854328E+03  0.28818922798E+02  0.80546993757E+03  0.12699999809E+01 0.  1.
</event>
<event>
 5   0  0.1920289E-04  0.1635832E+04  0.7818609E-02  0.8798833E-01
        1   -1    0    0  501    0  0.00000000000E+00  0.00000000000E+00  0.10186622857E+04  0.10186622857E+04  0.50400001928E-02 0.  1.
       -1   -1    0    0    0  501  0.00000000000E+00  0.00000000000E+00 -0.65673012087E+03  0.65673012089E+03  0.50400001928E-02 0. -1.
    10030    2    1    2    0    0  0.00000000000E+00  0.00000000000E+00  0.36193216484E+03  0.16753924066E+04  0.16358315391E+04 0.  0.
        4    1    3    3  502    0 -0.42137532729E+03 -0.87452056253E+02 -0.53139752612E+03  0.68380550763E+03  0.12699999809E+01 0. -1.
       -4    1    3    3    0  502  0.42137532729E+03  0.87452056253E+02  0.89332969096E+03  0.99158689899E+03  0.12699999809E+01 0.  1.
</event>
<event>
 5   0  0.3573262E-04  0.1679384E+04  0.7818609E-02  0.8773211E-01
        2   -1    0    0  501    0  0.00000000000E+00  0.00000000000E+00  0.13007520537E+04  0.13007520537E+04  0.25500000920E-02 0. -1.
       -2   -1    0    0    0  501  0.00000000000E+00  0.00000000000E+00 -0.54205745236E+03  0.54205745236E+03  0.25500000920E-02 0.  1.
    10030    2    1    2    0    0  0.00000000000E+00  0.00000000000E+00  0.75869460137E+03  0.18428095061E+04  0.16793836303E+04 0.  0.
        5    1    3    3  502    0  0.75510208872E+03 -0.99973022940E+02 -0.84352374739E+01  0.76175259300E+03  0.46999998093E+01 0.  1.
       -5    1    3    3    0  502 -0.75510208872E+03  0.99973022940E+02  0.76712983884E+03  0.10810569131E+04  0.46999998093E+01 0. -1.
</event>
<event>
 5   0  0.1815663E-04  0.1694368E+04  0.7818609E-02  0.8764583E-01
       -1   -1    0    0    0  501  0.00000000000E+00  0.00000000000E+00  0.39470340760E+03  0.39470340763E+03  0.50400001928E-02 0. -1.
        1   -1    0    0  501    0  0.00000000000E+00  0.00000000000E+00 -0.18183804350E+04  0.18183804350E+04  0.50400001928E-02 0.  1.
    10030    2    1    2    0    0  0.00000000000E+00  0.00000000000E+00 -0.14236770274E+04  0.22130838427E+04  0.16943682647E+04 0.  0.
        5    1    3    3  502    0 -0.68575698033E+03 -0.13033093960E+03 -0.84822713111E+02  0.70318260257E+03  0.46999998093E+01 0. -1.
       -5    1    3    3    0  502  0.68575698033E+03  0.13033093960E+03 -0.13388543143E+04  0.15099012401E+04  0.46999998093E+01 0.  1.
</event>
<event>
 5   0  0.1317625E-04  0.1640452E+04  0.7818609E-02  0.8796075E-01
        3   -1    0    0  501    0  0.00000000000E+00  0.00000000000E+00  0.11461322203E+04  0.11461322247E+04  0.10100000352E+00 0. -1.
       -3   -1    0    0    0  501  0.00000000000E+00  0.00000000000E+00 -0.58699214635E+03  0.58699215504E+03  0.10100000352E+00 0.  1.
    10030    2    1    2    0    0  0.00000000000E+00  0.00000000000E+00  0.55914007390E+03  0.17331243797E+04  0.16404519174E+04 0.  0.
        2    1    3    3  502    0 -0.36193962626E+03 -0.19000510264E+03 -0.47170529597E+03  0.62418596455E+03  0.25500000920E-02 0.  1.
       -2    1    3    3    0  502  0.36193962626E+03  0.19000510264E+03  0.10308453699E+04  0.11089384152E+04  0.25500000920E-02 0. -1.
</event>
<event>
 5   0  0.3678896E-04  0.1380565E+04  0.7818609E-02  0.8968008E-01
       -2   -1    0    0    0  501  0.00000000000E+00  0.00000000000E+00  0.38113196828E+03  0.38113196828E+03  0.25500000920E-02 0.  1.
        2   -1    0    0  501    0  0.00000000000E+00  0.00000000000E+00 -0.12501969271E+04  0.12501969271E+04  0.25500000920E-02 0. -1.
    10030    2    1    2    0    0  0.00000000000E+00  0.00000000000E+00 -0.86906495880E+03  0.16313288954E+04  0.13805651242E+04 0.  0.
        2    1    3    3  502    0  0.14229219807E+03  0.11401336884E+03  0.35216183843E+03  0.39656535194E+03  0.25500000920E-02 0.  1.
       -2    1    3    3    0  502 -0.14229219807E+03 -0.11401336884E+03 -0.12212267972E+04  0.12347635434E+04  0.25500000920E-02 0. -1.
</event>
<event>
 5   0  0.1824538E-04  0.1853262E+04  0.7818609E-02  0.8678477E-01
        1   -1    0    0  501    0  0.00000000000E+00  0.00000000000E+00  0.10751809555E+04  0.10751809555E+04  0.50400001928E-02 0.  1.
       -1   -1    0    0    0  501  0.00000000000E+00  0.00000000000E+00 -0.79860500979E+03  0.79860500981E+03  0.50400001928E-02 0. -1.
    10030    2    1    2    0    0  0.00000000000E+00  0.00000000000E+00  0.27657594569E+03  0.18737859653E+04  0.18532618784E+04 0.  0.
        3    1    3    3  502    0  0.43661540119E+03  0.13538740756E+03  0.95324301211E+03  0.10571825807E+04  0.10100000352E+00 0.  1.
       -3    1    3    3    0  502 -0.43661540119E+03 -0.13538740756E+03 -0.67666706643E+03  0.81660338456E+03  0.10100000352E+00 0. -1.
</event>
<event>
 5   0  0.3574092E-04  0.1694691E+04  0.7818609E-02  0.8764398E-01
        2   -1    0    0  501    0  0.00000000000E+00  0.00000000000E+00  0.13492089617E+04  0.13492089617E+04  0.25500000920E-02 0.  1.
       -2   -1    0    0    0  501  0.00000000000E+00  0.00000000000E+00 -0.53215981465E+03  0.53215981466E+03  0.25500000920E-02 0. -1.
    10030    2    1    2    0    0  0.00000000000E+00  0.00000000000E+00  0.81704914705E+03  0.18813687764E+04  0.16946914657E+04 0.  0.
        3    1    3    3  502    0  0.38454131353E+03 -0.73214803377E+03  0.61347363096E+03  0.10296905706E+04  0.10100000352E+00 0.  1.
       -3    1    3    3    0  502 -0.38454131353E+03  0.73214803377E+03  0.20357551609E+03  0.85167820573E+03  0.10100000352E+00 0. -1.
</event>
<event>
 5   0  0.3605571E-04  0.1702406E+04  0.7818609E-02  0.8759993E-01
       -2   -1    0    0    0  501  0.00000000000E+00  0.00000000000E+00  0.55905908109E+03  0.55905908109E+03  0.25500000920E-02 0.  1.
        2   -1    0    0  501    0  0.00000000000E+00  0.00000000000E+00 -0.12960113986E+04  0.12960113986E+04  0.25500000920E-02 0. -1.
    10030    2    1    2    0    0  0.00000000000E+00  0.00000000000E+00 -0.73695231751E+03  0.18550704797E+04  0.17024064633E+04 0.  0.
        4    1    3    3  502    0  0.71564162598E+02  0.82712274023E+03 -0.16376830633E+03  0.84621222387E+03  0.12699999809E+01 0.  1.
       -4    1    3    3    0  502 -0.71564162598E+02 -0.82712274023E+03 -0.57318401118E+03  0.10088582558E+04  0.12699999809E+01 0. -1.
</event>
<event>
 5   0  0.3605571E-04  0.1696598E+04  0.7818609E-02  0.8763307E-01
        2   -1    0    0  501    0  0.00000000000E+00  0.00000000000E+00  0.27247904310E+04  0.27247904310E+04  0.25500000920E-02 0. -1.
       -2   -1    0    0    0  501  0.00000000000E+00  0.00000000000E+00 -0.26409776687E+03  0.26409776688E+03  0.25500000920E-02 0.  1.
    10030    2    1    2    0    0  0.00000000000E+00  0.00000000000E+00  0.24606926642E+04  0.29888881979E+04  0.16965978522E+04 0.  0.
        4    1    3    3  502    0  0.21837285328E+03 -0.55460942534E+03  0.16698980279E+03  0.61900365497E+03  0.12699999809E+01 0.  1.
       -4    1    3    3    0  502 -0.21837285328E+03  0.55460942534E+03  0.22937028614E+04  0.23698845429E+04  0.12699999809E+01 0. -1.
</event>
<event>
 5   0  0.1893284E-04  0.1709913E+04  0.7818609E-02  0.8755731E-01
       -1   -1    0    0    0  501  0.00000000000E+00  0.00000000000E+00  0.77693660914E+03  0.77693660916E+03  0.50400001928E-02 0.  1.
        1   -1    0    0  501    0  0.00000000000E+00  0.00000000000E+00 -0.94081129539E+03  0.94081129541E+03  0.50400001928E-02 0. -1.
    10030    2    1    2    0    0  0.00000000000E+00  0.00000000000E+00 -0.16387468625E+03  0.17177479046E+04  0.17099131413E+04 0.  0.
        2    1    3    3  502    0  0.33861552711E+03  0.53255172363E+02 -0.86875922887E+03  0.93393746383E+03  0.25500000920E-02 0. -1.
       -2    1    3    3    0  502 -0.33861552711E+03 -0.53255172363E+02  0.70488454262E+03  0.78381044074E+03  0.25500000920E-02 0.  1.
</event>
<event>
 5   0  0.3516723E-04  0.1712109E+04  0.7818609E-02  0.8754488E-01
        2   -1    0    0  501    0  0.00000000000E+00  0.00000000000E+00  0.87155507998E+03  0.87155507999E+03  0.25500000920E-02 0. -1.
       -2   -1    0    0    0  501  0.00000000000E+00  0.00000000000E+00 -0.84082926739E+03  0.84082926739E+03  0.25500000920E-02 0.  1.
    10030    2    1    2    0    0  0.00000000000E+00  0.00000000000E+00  0.30725812593E+02  0.17123843474E+04  0.17121086641E+04 0.  0.
        1    1    3    3  502    0  0.31925868676E+03 -0.18714704834E+03  0.78741912484E+03  0.87004540396E+03  0.50400001928E-02 0. -1.
       -1    1    3    3    0  502 -0.31925868676E+03  0.18714704834E+03 -0.75669331224E+03  0.84233894342E+03  0.50400001928E-02 0.  1.
</event>
<event>
 5   0  0.1930116E-04  0.1705869E+04  0.7818609E-02  0.8758024E-01
        1   -1    0    0  501    0  0.00000000000E+00  0.00000000000E+00  0.12308683646E+04  0.12308683646E+04  0.50400001928E-02 0.  1.
       -1   -1    0    0    0  501  0.00000000000E+00  0.00000000000E+00 -0.59104364416E+03  0.59104364418E+03  0.50400001928E-02 0. -1.
    10030    2    1    2    0    0  0.00000000000E+00  0.00000000000E+00  0.63982472045E+03  0.18219120088E+04  0.17058686042E+04 0.  0.
        1    1    3    3  502    0 -0.64955783963E+03  0.39865812090E+02 -0.26893934549E+03  0.70416123266E+03  0.50400001928E-02 0. -1.
       -1    1    3    3    0  502  0.64955783963E+03 -0.39865812090E+02  0.90876406593E+03  0.11177507761E+04  0.50400001928E-02 0.  1.
</event>
<event>
 5   0  0.1815663E-04  0.1735667E+04  0.7818609E-02  0.8741279E-01
       -1   -1    0    0    0  501  0.00000000000E+00  0.00000000000E+00  0.49156995906E+03  0.49156995908E+03  0.50400001928E-02 0. -1.
        1   -1    0    0  501    0  0.00000000000E+00  0.00000000000E+00 -0.15321017612E+04  0.15321017612E+04  0.50400001928E-02 0.  1.
    10030    2    1    2    0    0  0.00000000000E+00  0.00000000000E+00 -0.10405318021E+04  0.20236717202E+04  0.17356672493E+04 0.  0.
        5    1    3    3  502    0  0.41599304670E+03 -0.16764996198E+03  0.34594964725E+03  0.56644503094E+03  0.46999998093E+01 0. -1.
       -5    1    3    3    0  502 -0.41599304670E+03  0.16764996198E+03 -0.13864814493E+04  0.14572266893E+04  0.46999998093E+01 0.  1.
</event>
<event>
 5   0  0.3516723E-04  0.1501063E+04  0.7818609E-02  0.8883746E-01
        2   -1    0    0  501    0  0.00000000000E+00  0.00000000000E+00  0.19677831754E+04  0.19677831754E+04  0.25500000920E-02 0.  1.
       -2   -1    0    0    0  501  0.00000000000E+00  0.00000000000E+00 -0.28625990898E+03  0.28625990899E+03  0.25500000920E-02 0. -1.
    10030    2    1    2    0    0  0.00000000000E+00  0.00000000000E+00  0.16815232664E+04  0.22540430844E+04  0.15010628670E+04 0.  0.
        1    1    3    3  502    0 -0.19334942717E+03  0.67860267439E+03  0.12248149507E+04  0.14135265311E+04  0.50400001928E-02 0.  1.
       -1    1    3    3    0  502  0.19334942717E+03 -0.67860267439E+03  0.45670831577E+03  0.84051655332E+03  0.50400001928E-02 0. -1.
</event>
<event>
 5   0  0.1815663E-04  0.1704000E+04  0.7818609E-02  0.8759086E-01
        1   -1    0    0  501    0  0.00000000000E+00  0.00000000000E+00  0.48740000617E+03  0.48740000620E+03  0.50400001928E-02 0. -1.
       -1   -1    0    0    0  501  0.00000000000E+00  0.00000000000E+00 -0.14893397185E+04  0.14893397185E+04  0.50400001928E-02 0.  1.
    10030    2    1    2    0    0  0.00000000000E+00  0.00000000000E+00 -0.10019397123E+04  0.19767397247E+04  0.17040002207E+04 0.  0.
        5    1    3    3  502    0  0.63303289668E+03  0.55502100814E+02 -0.11593180245E+04  0.13220633507E+04  0.46999998093E+01 0.  1.
       -5    1    3    3    0  502 -0.63303289668E+03 -0.55502100814E+02  0.15737831218E+03  0.65467637395E+03  0.46999998093E+01 0. -1.
</event>
<event>
 5   0  0.1824538E-04  0.1687999E+04  0.7818609E-02  0.8768239E-01
       -1   -1    0    0    0  501  0.00000000000E+00  0.00000000000E+00  0.87168798771E+03  0.87168798773E+03  0.50400001928E-02 0. -1.
        1   -1    0    0  501    0  0.00000000000E+00  0.00000000000E+00 -0.81719037144E+03  0.81719037145E+03  0.50400001928E-02 0.  1.
    10030    2    1    2    0    0  0.00000000000E+00  0.00000000000E+00  0.54497616275E+02  0.16888783592E+04  0.16879988513E+04 0.  0.
        3    1    3    3  502    0  0.71329494450E+03  0.33054474139E+03  0.33446826429E+03  0.85435269878E+03  0.10100000352E+00 0. -1.
       -3    1    3    3    0  502 -0.71329494450E+03 -0.33054474139E+03 -0.27997064801E+03  0.83452566039E+03  0.10100000352E+00 0.  1.
</event>
<event>
 5   0  0.1920289E-04  0.1694744E+04  0.7818609E-02  0.8764368E-01
        1   -1    0    0  501    0  0.00000000000E+00  0.00000000000E+00  0.11694389100E+04  0.11694389100E+04  0.50400001928E-02 0. -1.
       -1   -1    0    0    0  501  0.00000000000E+00  0.00000000000E+00 -0.61400293846E+03  0.61400293848E+03  0.50400001928E-02 0.  1.
    10030    2    1    2    0    0  0.00000000000E+00  0.00000000000E+00  0.55543597156E+03  0.17834418485E+04  0.16947435524E+04 0.  0.
        4    1    3    3  502    0  0.47839134624E+03 -0.65238560867E+03  0.54304903640E+03  0.97435575197E+03  0.12699999809E+01 0. -1.
       -4    1    3    3    0  502 -0.47839134624E+03  0.65238560867E+03  0.12386935159E+02  0.80908609654E+03  0.12699999809E+01 0.  1.
</event>
<event>
 5   0  0.3573262E-04  0.1692186E+04  0.7818609E-02  0.8765833E-01
        2   -1    0    0  501    0  0.00000000000E+00  0.00000000000E+00  0.19406404724E+04  0.19406404724E+04  0.25500000920E-02 0.  1.
       -2   -1    0    0    0  501  0.00000000000E+00  0.00000000000E+00 -0.36888517493E+03  0.36888517494E+03  0.25500000920E-02 0. -1.
    10030    2    1    2    0    0  0.00000000000E+00  0.00000000000E+00  0.15717552974E+04  0.23095256473E+04  0.16921861601E+04 0.  0.
        5    1    3    3  502    0 -0.37047761575E+03 -0.18545419517E+03  0.17927066347E+04  0.18399636112E+04  0.46999998093E+01 0.  1.
       -5    1    3    3    0  502  0.37047761575E+03  0.18545419517E+03 -0.22095133732E+03  0.46956203610E+03  0.46999998093E+01 0. -1.
</event>
<event>
 5   0  0.3516723E-04  0.1698440E+04  0.7818609E-02  0.8762254E-01
       -2   -1    0    0    0  501  0.00000000000E+00  0.00000000000E+00  0.57961955648E+03  0.57961955649E+03  0.25500000920E-02 0. -1.
        2   -1    0    0  501    0  0.00000000000E+00  0.00000000000E+00 -0.12442211613E+04  0.12442211613E+04  0.25500000920E-02 0.  1.
    10030    2    1    2    0    0  0.00000000000E+00  0.00000000000E+00 -0.66460160478E+03  0.18238407178E+04  0.16984403642E+04 0.  0.
        1    1    3    3  502    0 -0.12612984833E+03  0.60699756397E+03  0.29091094114E+03  0.68482403361E+03  0.50400001928E-02 0. -1.
       -1    1    3    3    0  502  0.12612984833E+03 -0.60699756397E+03 -0.95551254593E+03  0.11390166841E+04  0.50400001928E-02 0.  1.
</event>
<event>
 5   0  0.1893284E-04  0.1724077E+04  0.7818609E-02  0.8747750E-01
        1   -1    0    0  501    0  0.00000000000E+00  0.00000000000E+00  0.15113400186E+04  0.15113400186E+04  0.50400001928E-02 0. -1.
       -1   -1    0    0    0  501  0.00000000000E+00  0.00000000000E+00 -0.49168986993E+03  0.49168986996E+03  0.50400001928E-02 0.  1.
    10030    2    1    2    0    0  0.00000000000E+00  0.00000000000E+00  0.10196501486E+04  0.20030298885E+04  0.17240772340E+04 0.  0.
        2    1    3    3  502    0  0.34646991566E+03  0.27999583052E+03 -0.34760367684E+03  0.56503750648E+03  0.25500000920E-02 0.  1.
       -2    1    3    3    0  502 -0.34646991566E+03 -0.27999583052E+03  0.13672538255E+04  0.14379923821E+04  0.25500000920E-02 0. -1.
</event>
<event>
 5   0  0.1815663E-04  0.1704200E+04  0.7818609E-02  0.8758973E-01
        1   -1    0    0  501    0  0.00000000000E+00  0.00000000000E+00  0.69978052376E+03  0.69978052378E+03  0.50400001928E-02 0. -1.
       -1   -1    0    0    0  501  0.00000000000E+00  0.00000000000E+00 -0.10375742651E+04  0.10375742651E+04  0.50400001928E-02 0.  1.
    10030    2    1    2    0    0  0.00000000000E+00  0.00000000000E+00 -0.33779374130E+03  0.17373547889E+04  0.17041998271E+04 0.  0.
        5    1    3    3  502    0 -0.58427447997E+02  0.66710901162E+03 -0.70602863642E+03  0.97311187718E+03  0.46999998093E+01 0.  1.
       -5    1    3    3    0  502  0.58427447997E+02 -0.66710901162E+03  0.36823489512E+03  0.76424291167E+03  0.46999998093E+01 0. -1.
</event>
<event>
 5   0  0.3574092E-04  0.1735919E+04  0.7818609E-02  0.8741139E-01
       -2   -1    0    0    0  501  0.00000000000E+00  0.00000000000E+00  0.29814772377E+03  0.29814772378E+03  0.25500000920E-02 0. -1.
        2   -1    0    0  501    0  0.00000000000E+00  0.00000000000E+00 -0.25267807672E+04  0.25267807672E+04  0.25500000920E-02 0.  1.
    10030    2    1    2    0    0  0.00000000000E+00  0.00000000000E+00 -0.22286330435E+04  0.28249284910E+04  0.17359192772E+04 0.  0.
        3    1    3    3  502    0 -0.54589667389E+03 -0.51827456441E+03 -0.18175494420E+04  0.19672563857E+04  0.10100000352E+00 0.  1.
       -3    1    3    3    0  502  0.54589667389E+03  0.51827456441E+03 -0.41108360148E+03  0.85767210534E+03  0.10100000352E+00 0. -1.
</event>
<event>
 5   0  0.3516723E-04  0.1491657E+04  0.7818609E-02  0.8890020E-01
       -2   -1    0    0    0  501  0.00000000000E+00  0.00000000000E+00  0.85109044332E+03  0.85109044332E+03  0.25500000920E-02 0. -1.
        2   -1    0    0  501    0  0.00000000000E+00  0.00000000000E+00 -0.65358503495E+03  0.65358503495E+03  0.25500000920E-02 0.  1.
    10030    2    1    2    0    0  0.00000000000E+00  0.00000000000E+00  0.19750540837E+03  0.15046754783E+04  0.14916567663E+04 0.  0.
        1    1    3    3  502    0 -0.44948459587E+03 -0.59486303461E+03  0.11793299847E+03  0.75485536630E+03  0.50400001928E-02 0.  1.
       -1    1    3    3    0  502  0.44948459587E+03  0.59486303461E+03  0.79572409894E+02  0.74982011197E+03  0.50400001928E-02 0. -1.
</event>
<event>
 5   0  0.1317625E-04  0.1677495E+04  0.7818609E-02  0.8774305E-01
       -3   -1    0    0    0  501  0.00000000000E+00  0.00000000000E+00  0.54921024243E+03  0.54921025172E+03  0.10100000352E+00 0. -1.
        3   -1    0    0  501    0  0.00000000000E+00  0.00000000000E+00 -0.12809253893E+04  0.12809253933E+04  0.10100000352E+00 0.  1.
    10030    2    1    2    0    0  0.00000000000E+00  0.00000000000E+00 -0.73171514689E+03  0.18301356450E+04  0.16774949845E+04 0.  0.
        4    1    3    3  502    0 -0.28108807506E+03 -0.57091678064E+03 -0.96196259469E+03  0.11533993770E+04  0.12699999809E+01 0.  1.
       -4    1    3    3    0  502  0.28108807506E+03  0.57091678064E+03  0.23024744780E+03  0.67673626803E+03  0.12699999809E+01 0. -1.
</event>
<event>
 5   0  0.1893284E-04  0.1706772E+04  0.7818609E-02  0.8757512E-01
        1   -1    0    0  501    0  0.00000000000E+00  0.00000000000E+00  0.11536338187E+04  0.11536338187E+04  0.50400001928E-02 0.  1.
       -1   -1    0    0    0  501  0.00000000000E+00  0.00000000000E+00 -0.63128123559E+03  0.63128123561E+03  0.50400001928E-02 0. -1.
    10030    2    1    2    0    0  0.00000000000E+00  0.00000000000E+00  0.52235258313E+03  0.17849150543E+04  0.17067716690E+04 0.  0.
        2    1    3    3  502    0  0.49482163799E+03 -0.61686981696E+03  0.59662790762E+03  0.99062691497E+03  0.25500000920E-02 0.  1.
       -2    1    3    3    0  502 -0.49482163799E+03  0.61686981696E+03 -0.74275324487E+02  0.79428813937E+03  0.25500000920E-02 0. -1.
</event>
<event>
 5   0  0.1815663E-04  0.1698066E+04  0.7818609E-02  0.8762468E-01
       -1   -1    0    0    0  501  0.00000000000E+00  0.00000000000E+00  0.50978252760E+03  0.50978252762E+03  0.50400001928E-02 0.  1.
        1   -1    0    0  501    0  0.00000000000E+00  0.00000000000E+00 -0.14140479395E+04  0.14140479395E+04  0.50400001928E-02 0. -1.
    10030    2    1    2    0    0  0.00000000000E+00  0.00000000000E+00 -0.90426541189E+03  0.19238304671E+04  0.16980658795E+04 0.  0.
        5    1    3    3  502    0 -0.60416516216E+03  0.23752210450E+03 -0.10720589323E+04  0.12533015350E+04  0.46999998093E+01 0. -1.
       -5    1    3    3    0  502  0.60416516216E+03 -0.23752210450E+03  0.16779352044E+03  0.67052893210E+03  0.46999998093E+01 0.  1.
</event>
<event>
 5   0  0.1893284E-04  0.1705214E+04  0.7818609E-02  0.8758396E-01
        1   -1    0    0  501    0  0.00000000000E+00  0.00000000000E+00  0.13484133218E+04  0.13484133219E+04  0.50400001928E-02 0.  1.
       -1   -1    0    0    0  501  0.00000000000E+00  0.00000000000E+00 -0.53910701305E+03  0.53910701307E+03  0.50400001928E-02 0. -1.
    10030    2    1    2    0    0  0.00000000000E+00  0.00000000000E+00  0.80930630879E+03  0.18875203349E+04  0.17052144479E+04 0.  0.
        2    1    3    3  502    0 -0.38643591542E+03 -0.28001330138E+03 -0.37742373188E+03  0.60843145798E+03  0.25500000920E-02 0. -1.
       -2    1    3    3    0  502  0.38643591542E+03  0.28001330138E+03  0.11867300407E+04  0.12790888769E+04  0.25500000920E-02 0.  1.
</event>
<event>
 5   0  0.1815663E-04  0.1648390E+04  0.7818609E-02  0.8791359E-01
        1   -1    0    0  501    0  0.00000000000E+00  0.00000000000E+00  0.11082519908E+04  0.11082519908E+04  0.50400001928E-02 0.  1.
       -1   -1    0    0    0  501  0.00000000000E+00  0.00000000000E+00 -0.61294489723E+03  0.61294489725E+03  0.50400001928E-02 0. -1.
    10030    2    1    2    0    0  0.00000000000E+00  0.00000000000E+00  0.49530709358E+03  0.17211968881E+04  0.16483900056E+04 0.  0.
        5    1    3    3  502    0  0.75468006833E+03  0.14035731148E+02 -0.97927267476E+02  0.76115100144E+03  0.46999998093E+01 0. -1.
       -5    1    3    3    0  502 -0.75468006833E+03 -0.14035731148E+02  0.59323436106E+03  0.96004588662E+03  0.46999998093E+01 0.  1.
</event>
<event>
 5   0  0.1893284E-04  0.1681685E+04  0.7818609E-02  0.8771879E-01
       -1   -1    0    0    0  501  0.00000000000E+00  0.00000000000E+00  0.12050184169E+04  0.12050184169E+04  0.50400001928E-02 0. -1.
        1   -1    0    0  501    0  0.00000000000E+00  0.00000000000E+00 -0.58672656374E+03  0.58672656376E+03  0.50400001928E-02 0.  1.
    10030    2    1    2    0    0  0.00000000000E+00  0.00000000000E+00  0.61829185319E+03  0.17917449807E+04  0.16816852441E+04 0.  0.
        2    1    3    3  502    0  0.34888311159E+03  0.42050915252E+03  0.99008930855E+03  0.11308511006E+04  0.25500000920E-02 0. -1.
       -2    1    3    3    0  502 -0.34888311159E+03 -0.42050915252E+03 -0.37179745535E+03  0.66089388008E+03  0.25500000920E-02 0.  1.
</event>
<event>
 5   0  0.3574092E-04  0.1698733E+04  0.7818609E-02  0.8762087E-01
       -2   -1    0    0    0  501  0.00000000000E+00  0.00000000000E+00  0.35736829023E+03  0.35736829024E+03  0.25500000920E-02 0.  1.
        2   -1    0    0  501    0  0.00000000000E+00  0.00000000000E+00 -0.20187120702E+04  0.20187120702E+04  0.25500000920E-02 0. -1.
    10030    2    1    2    0    0  0.00000000000E+00  0.00000000000E+00 -0.16613437800E+04  0.23760803604E+04  0.16987332704E+04 0.  0.
        3    1    3    3  502    0 -0.47334363497E+03  0.41946823112E+03 -0.37678449460E+02  0.63358304068E+03  0.10100000352E+00 0.  1.
       -3    1    3    3    0  502  0.47334363497E+03 -0.41946823112E+03 -0.16236653305E+04  0.17424973198E+04  0.10100000352E+00 0. -1.
</event>
<event>
 5   0  0.3678896E-04  0.1685796E+04  0.7818609E-02  0.8769507E-01
        2   -1    0    0  501    0  0.00000000000E+00  0.00000000000E+00  0.76335830801E+03  0.76335830802E+03  0.25500000920E-02 0. -1.
       -2   -1    0    0    0  501  0.00000000000E+00  0.00000000000E+00 -0.93072501823E+03  0.93072501823E+03  0.25500000920E-02 0.  1.
    10030    2    1    2    0    0  0.00000000000E+00  0.00000000000E+00 -0.16736671022E+03  0.16940833262E+04  0.16857955690E+04 0.  0.
        2    1    3    3  502    0  0.80329316402E+03  0.21678049211E+03 -0.21926508715E+03  0.86043644017E+03  0.25500000920E-02 0.  1.
       -2    1    3    3    0  502 -0.80329316402E+03 -0.21678049211E+03  0.51898376939E+02  0.83364688607E+03  0.25500000920E-02 0. -1.
</event>
<event>
 5   0  0.3516723E-04  0.1686970E+04  0.7818609E-02  0.8768831E-01
       -2   -1    0    0    0  501  0.00000000000E+00  0.00000000000E+00  0.93636996754E+03  0.93636996755E+03  0.25500000920E-02 0.  1.
        2   -1    0    0  501    0  0.00000000000E+00  0.00000000000E+00 -0.75981386522E+03  0.75981386523E+03  0.25500000920E-02 0. -1.
    10030    2    1    2    0    0  0.00000000000E+00  0.00000000000E+00  0.17655610232E+03  0.16961838328E+04  0.16869699278E+04 0.  0.
        1    1    3    3  502    0  0.31796917092E+03  0.72044231023E+03 -0.21557338588E+03  0.81646396170E+03  0.50400001928E-02 0.  1.
       -1    1    3    3    0  502 -0.31796917092E+03 -0.72044231023E+03  0.39212948819E+03  0.87971987108E+03  0.50400001928E-02 0. -1.
</event>
<event>
 5   0  0.1893284E-04  0.1701120E+04  0.7818609E-02  0.8760726E-01
        1   -1    0    0  501    0  0.00000000000E+00  0.00000000000E+00  0.15718199036E+04  0.15718199036E+04  0.50400001928E-02 0.  1.
       -1   -1    0    0    0  501  0.00000000000E+00  0.00000000000E+00 -0.46026387172E+03  0.46026387175E+03  0.50400001928E-02 0. -1.
    10030    2    1    2    0    0  0.00000000000E+00  0.00000000000E+00  0.11115560319E+04  0.20320837754E+04  0.17011195308E+04 0.  0.
        2    1    3    3  502    0 -0.55589119849E+03  0.30344987409E+03  0.12340033779E+04  0.13870332322E+04  0.25500000920E-02 0.  1.
       -2    1    3    3    0  502  0.55589119849E+03 -0.30344987409E+03 -0.12244734602E+03  0.64505054313E+03  0.25500000920E-02 0. -1.
</event>
<event>
 5   0  0.3605571E-04  0.1743444E+04  0.7818609E-02  0.8736968E-01
        2   -1    0    0  501    0  0.00000000000E+00  0.00000000000E+00  0.11188474334E+04  0.11188474334E+04  0.25500000920E-02 0.  1.
       -2   -1    0    0    0  501  0.00000000000E+00  0.00000000000E+00 -0.67918010254E+03  0.67918010255E+03  0.25500000920E-02 0. -1.
    10030    2    1    2    0    0  0.00000000000E+00  0.00000000000E+00  0.43966733081E+03  0.17980275359E+04  0.17434436206E+04 0.  0.
        4    1    3    3  502    0 -0.72264440433E+03 -0.48617157594E+03  0.18237055203E+03  0.88985300332E+03  0.12699999809E+01 0. -1.
       -4    1    3    3    0  502  0.72264440433E+03  0.48617157594E+03  0.25729677879E+03  0.90817453259E+03  0.12699999809E+01 0.  1.
</event>
<event>
 5   0  0.1930116E-04  0.1690414E+04  0.7818609E-02  0.8766850E-01
        1   -1    0    0  501    0  0.00000000000E+00  0.00000000000E+00  0.13165423393E+04  0.13165423393E+04  0.50400001928E-02 0. -1.
       -1   -1    0    0    0  501  0.00000000000E+00  0.00000000000E+00 -0.54261473849E+03  0.54261473852E+03  0.50400001928E-02 0.  1.
    10030    2    1    2    0    0  0.00000000000E+00  0.00000000000E+00  0.77392760080E+03  0.18591570778E+04  0.16904144784E+04 0.  0.
        1    1    3    3  502    0 -0.27006580542E+03  0.53246835393E+03 -0.27101842081E+03  0.65567451654E+03  0.50400001928E-02 0.  1.
       -1    1    3    3    0  502  0.27006580542E+03 -0.53246835393E+03  0.10449460216E+04  0.12034825613E+04  0.50400001928E-02 0. -1.
</event>
<event>
 5   0  0.1920289E-04  0.1708468E+04  0.7818609E-02  0.8756549E-01
        1   -1    0    0  501    0  0.00000000000E+00  0.00000000000E+00  0.85156365933E+03  0.85156365935E+03  0.50400001928E-02 0.  1.
       -1   -1    0    0    0  501  0.00000000000E+00  0.00000000000E+00 -0.85691288379E+03  0.85691288381E+03  0.50400001928E-02 0. -1.
    10030    2    1    2    0    0  0.00000000000E+00  0.00000000000E+00 -0.53492244623E+01  0.17084765432E+04  0.17084681689E+04 0.  0.
        4    1    3    3  502    0  0.42550838491E+03  0.69011542691E+03 -0.27174389665E+03  0.85508072505E+03  0.12699999809E+01 0. -1.
       -4    1    3    3    0  502 -0.42550838491E+03 -0.69011542691E+03  0.26639467219E+03  0.85339581810E+03  0.12699999809E+01 0.  1.
</event>
<event>
 5   0  0.3574092E-04  0.1709053E+04  0.7818609E-02  0.8756218E-01
       -2   -1    0    0    0  501  0.00000000000E+00  0.00000000000E+00  0.99397480090E+03  0.99397480090E+03  0.25500000920E-02 0. -1.
        2   -1    0    0  501    0  0.00000000000E+00  0.00000000000E+00 -0.73464178199E+03  0.73464178199E+03  0.25500000920E-02 0.  1.
    10030    2    1    2    0    0  0.00000000000E+00  0.00000000000E+00  0.25933301891E+03  0.17286165829E+04  0.17090528593E+04 0.  0.
        3    1    3    3  502    0 -0.34225288132E+03 -0.71996612826E+03  0.44096743443E+03  0.91101072937E+03  0.10100000352E+00 0. -1.
       -3    1    3    3    0  502  0.34225288132E+03  0.71996612826E+03 -0.18163441552E+03  0.81760585352E+03  0.10100000352E+00 0.  1.
</event>
<event>
 5   0  0.1815663E-04  0.1714613E+04  0.7818609E-02  0.8753073E-01
       -1   -1    0    0    0  501  0.00000000000E+00  0.00000000000E+00  0.41629582489E+03  0.41629582492E+03  0.50400001928E-02 0.  1.
        1   -1    0    0  501    0  0.00000000000E+00  0.00000000000E+00 -0.17655109280E+04  0.17655109280E+04  0.50400001928E-02 0. -1.
    10030    2    1    2    0    0  0.00000000000E+00  0.00000000000E+00 -0.13492151031E+04  0.21818067529E+04  0.17146134587E+04 0.  0.
        5    1    3    3  502    0  0.41034380956E+03 -0.50638376837E+03  0.34044858005E+02  0.65267733626E+03  0.46999998093E+01 0.  1.
       -5    1    3    3    0  502 -0.41034380956E+03  0.50638376837E+03 -0.13832599611E+04  0.15291294167E+04  0.46999998093E+01 0. -1.
</event>
<event>
 5   0  0.3574092E-04  0.1730913E+04  0.7818609E-02  0.8743928E-01
       -2   -1    0    0    0  501  0.00000000000E+00  0.00000000000E+00  0.11670554817E+04  0.11670554817E+04  0.25500000920E-02 0.  1.
        2   -1    0    0  501    0  0.00000000000E+00  0.00000000000E+00 -0.64179868254E+03  0.64179868254E+03  0.25500000920E-02 0. -1.
    10030    2    1    2    0    0  0.00000000000E+00  0.00000000000E+00  0.52525679916E+03  0.18088541642E+04  0.17309126733E+04 0.  0.
        3    1    3    3  502    0 -0.61296398218E+02  0.10035856926E+03  0.11586673389E+04  0.11646197248E+04  0.10100000352E+00 0.  1.
       -3    1    3    3    0  502  0.61296398218E+02 -0.10035856926E+03 -0.63341053978E+03  0.64423443945E+03  0.10100000352E+00 0. -1.
</event>
<event>
 5   0  0.1920289E-04  0.1553465E+04  0.7818609E-02  0.8849657E-01
        1   -1    0    0  501    0  0.00000000000E+00  0.00000000000E+00  0.13810548618E+04  0.13810548618E+04  0.50400001928E-02 0.  1.
       -1   -1    0    0    0  501  0.00000000000E+00  0.00000000000E+00 -0.43684980457E+03  0.43684980460E+03  0.50400001928E-02 0. -1.
    10030    2    1    2    0    0  0.00000000000E+00  0.00000000000E+00  0.94420505727E+03  0.18179046665E+04  0.15534652188E+04 0.  0.
        4    1    3    3  502    0 -0.35557259399E+03  0.40802055719E+03 -0.17987094941E+03  0.57032255438E+03  0.12699999809E+01 0. -1.
       -4    1    3    3    0  502  0.35557259399E+03 -0.40802055719E+03  0.11240760067E+04  0.12475821121E+04  0.12699999809E+01 0.  1.
</event>
<event>
 5   0  0.1815663E-04  0.1698346E+04  0.7818609E-02  0.8762308E-01
        1   -1    0    0  501    0  0.00000000000E+00  0.00000000000E+00  0.42565604163E+03  0.42565604166E+03  0.50400001928E-02 0. -1.
       -1   -1    0    0    0  501  0.00000000000E+00  0.00000000000E+00 -0.16940789541E+04  0.16940789541E+04  0.50400001928E-02 0.  1.
    10030    2    1    2    0    0  0.00000000000E+00  0.00000000000E+00 -0.12684229125E+04  0.21197349958E+04  0.16983461860E+04 0.  0.
        5    1    3    3  502    0 -0.25881727002E+03  0.52484656947E+03 -0.14022068023E+04  0.15194263086E+04  0.46999998093E+01 0.  1.
       -5    1    3    3    0  502  0.25881727002E+03 -0.52484656947E+03  0.13378388983E+03  0.60030868720E+03  0.46999998093E+01 0. -1.
</event>
<event>
 5   0  0.3573262E-04  0.1724852E+04  0.7818609E-02  0.8747316E-01
       -2   -1    0    0    0  501  0.00000000000E+00  0.00000000000E+00  0.36639943179E+03  0.36639943179E+03  0.25500000920E-02 0. -1.
        2   -1    0    0  501    0  0.00000000000E+00  0.00000000000E+00 -0.20299675032E+04  0.20299675032E+04  0.25500000920E-02 0.  1.
    10030    2    1    2    0    0  0.00000000000E+00  0.00000000000E+00 -0.16635680714E+04  0.23963669350E+04  0.17248523876E+04 0.  0.
        5    1    3    3  502    0 -0.27913181217E+03  0.70092361095E+03 -0.14122266461E+04  0.16011291850E+04  0.46999998093E+01 0.  1.
       -5    1    3    3    0  502  0.27913181217E+03 -0.70092361095E+03 -0.25134142525E+03  0.79523774998E+03  0.46999998093E+01 0. -1.
</event>
<event>
 5   0  0.1930116E-04  0.1648491E+04  0.7818609E-02  0.8791300E-01
       -1   -1    0    0    0  501  0.00000000000E+00  0.00000000000E+00  0.43703954091E+03  0.43703954094E+03  0.50400001928E-02 0. -1.
        1   -1    0    0  501    0  0.00000000000E+00  0.00000000000E+00 -0.15545066467E+04  0.15545066467E+04  0.50400001928E-02 0.  1.
    10030    2    1    2    0    0  0.00000000000E+00  0.00000000000E+00 -0.11174671058E+04  0.19915461876E+04  0.16484912754E+04 0.  0.
        1    1    3    3  502    0  0.12359011956E+03  0.63245186491E+03  0.62131147234E+02  0.64740262477E+03  0.50400001928E-02 0. -1.
       -1    1    3    3    0  502 -0.12359011956E+03 -0.63245186491E+03 -0.11795982530E+04  0.13441435629E+04  0.50400001928E-02 0.  1.
</event>
<event>
 5   0  0.3573262E-04  0.1678979E+04  0.7818609E-02  0.8773445E-01
        2   -1    0    0  501    0  0.00000000000E+00  0.00000000000E+00  0.15885190267E+04  0.15885190267E+04  0.25500000920E-02 0.  1.
       -2   -1    0    0    0  501  0.00000000000E+00  0.00000000000E+00 -0.44364747187E+03  0.44364747187E+03  0.25500000920E-02 0. -1.
    10030    2    1    2    0    0  0.00000000000E+00  0.00000000000E+00  0.11448715549E+04  0.20321664986E+04  0.16789787971E+04 0.  0.
        5    1    3    3  502    0  0.59778893781E+03  0.12677217895E+03  0.12690994982E+04  0.14085660886E+04  0.46999998093E+01 0.  1.
       -5    1    3    3    0  502 -0.59778893781E+03 -0.12677217895E+03 -0.12422794332E+03  0.62360041006E+03  0.46999998093E+01 0. -1.
</event>
<event>
 5   0  0.1893284E-04  0.1722389E+04  0.7818609E-02  0.8748697E-01
       -1   -1    0    0    0  501  0.00000000000E+00  0.00000000000E+00  0.34555166337E+03  0.34555166341E+03  0.50400001928E-02 0.  1.
        1   -1    0    0  501    0  0.00000000000E+00  0.00000000000E+00 -0.21462961897E+04  0.21462961897E+04  0.50400001928E-02 0. -1.
    10030    2    1    2    0    0  0.00000000000E+00  0.00000000000E+00 -0.18007445263E+04  0.24918478531E+04  0.17223892922E+04 0.  0.
        2    1    3    3  502    0 -0.38810169604E+03 -0.46930633825E+03 -0.17813221354E+04  0.18825461258E+04  0.25500000920E-02 0. -1.
       -2    1    3    3    0  502  0.38810169604E+03  0.46930633825E+03 -0.19422390866E+02  0.60930172728E+03  0.25500000920E-02 0.  1.
</event>
<event>
 5   0  0.1824538E-04  0.1691015E+04  0.7818609E-02  0.8766505E-01
        1   -1    0    0  501    0  0.00000000000E+00  0.00000000000E+00  0.21105405561E+04  0.21105405561E+04  0.50400001928E-02 0.  1.
       -1   -1    0    0    0  501  0.00000000000E+00  0.00000000000E+00 -0.33872045778E+03  0.33872045782E+03  0.50400001928E-02 0. -1.
    10030    2    1    2    0    0  0.00000000000E+00  0.00000000000E+00  0.17718200983E+04  0.24492610139E+04  0.16910153913E+04 0.  0.
        3    1    3    3  502    0  0.24642680000E+03  0.68524099936E+01 -0.28551079255E+03  0.37721286583E+03  0.10100000352E+00 0. -1.
       -3    1    3    3    0  502 -0.24642680000E+03 -0.68524099936E+01  0.20573308908E+04  0.20720481481E+04  0.10100000352E+00 0.  1.
</event>
<event>
 5   0  0.1815663E-04  0.1708170E+04  0.7818609E-02  0.8756718E-01
        1   -1    0    0  501    0  0.00000000000E+00  0.00000000000E+00  0.10056842914E+04  0.10056842914E+04  0.50400001928E-02 0. -1.
       -1   -1    0    0    0  501  0.00000000000E+00  0.00000000000E+00 -0.72533848261E+03  0.72533848262E+03  0.50400001928E-02 0.  1.
    10030    2    1    2    0    0  0.00000000000E+00  0.00000000000E+00  0.28034580877E+03  0.17310227740E+04  0.17081703872E+04 0.  0.
        5    1    3    3  502    0 -0.15520418808E+03 -0.30681077885E+03 -0.65209077003E+03  0.73720123194E+03  0.46999998093E+01 0.  1.
       -5    1    3    3    0  502  0.15520418808E+03  0.30681077885E+03  0.93243657880E+03  0.99382154208E+03  0.46999998093E+01 0. -1.
</event>
<event>
 5   0  0.3678896E-04  0.1706218E+04  0.7818609E-02  0.8757826E-01
        2   -1    0    0  501    0  0.00000000000E+00  0.00000000000E+00  0.15490894722E+04  0.15490894722E+04  0.25500000920E-02 0. -1.
       -2   -1    0    0    0  501  0.00000000000E+00  0.00000000000E+00 -0.46982085720E+03  0.46982085721E+03  0.25500000920E-02 0.  1.
    10030    2    1    2    0    0  0.00000000000E+00  0.00000000000E+00  0.10792686150E+04  0.20189103294E+04  0.17062175052E+04 0.  0.
        2    1    3    3  502    0  0.15937391775E+03  0.50157497412E+03 -0.25484538339E+03  0.58474239607E+03  0.25500000920E-02 0.  1.
       -2    1    3    3    0  502 -0.15937391775E+03 -0.50157497412E+03  0.13341139984E+04  0.14341679333E+04  0.25500000920E-02 0. -1.
</event>
<event>
 5   0  0.3516723E-04  0.1713685E+04  0.7818609E-02  0.8753598E-01
       -2   -1    0    0    0  501  0.00000000000E+00  0.00000000000E+00  0.29263881240E+03  0.29263881241E+03  0.25500000920E-02 0. -1.
        2   -1    0    0  501    0  0.00000000000E+00  0.00000000000E+00 -0.25088235994E+04  0.25088235994E+04  0.25500000920E-02 0.  1.
    10030    2    1    2    0    0  0.00000000000E+00  0.00000000000E+00 -0.22161847870E+04  0.28014624118E+04  0.17136851037E+04 0.  0.
        1    1    3    3  502    0  0.24744566021E+03 -0.15153915222E+03 -0.24260628509E+04  0.24433531112E+04  0.50400001928E-02 0.  1.
       -1    1    3    3    0  502 -0.24744566021E+03  0.15153915222E+03  0.20987806394E+03  0.35810930058E+03  0.50400001928E-02 0. -1.
</event>
<event>
 5   0  0.1930116E-04  0.1583557E+04  0.7818609E-02  0.8830714E-01
       -1   -1    0    0    0  501  0.00000000000E+00  0.00000000000E+00  0.39952368700E+03  0.39952368703E+03  0.50400001928E-02 0.  1.
        1   -1    0    0  501    0  0.00000000000E+00  0.00000000000E+00 -0.15691505657E+04  0.15691505657E+04  0.50400001928E-02 0. -1.
    10030    2    1    2    0    0  0.00000000000E+00  0.00000000000E+00 -0.11696268787E+04  0.19686742527E+04  0.15835565282E+04 0.  0.
        1    1    3    3  502    0  0.74613392377E+03  0.25968538443E+03 -0.65013149559E+03  0.10231438279E+04  0.50400001928E-02 0.  1.
       -1    1    3    3    0  502 -0.74613392377E+03 -0.25968538443E+03 -0.51949538308E+03  0.94553042476E+03  0.50400001928E-02 0. -1.
</event>
<event>
 5   0  0.1824538E-04  0.1724595E+04  0.7818609E-02  0.8747460E-01
        1   -1    0    0  501    0  0.00000000000E+00  0.00000000000E+00  0.12660530440E+04  0.12660530440E+04  0.50400001928E-02 0. -1.
       -1   -1    0    0    0  501  0.00000000000E+00  0.00000000000E+00 -0.58730338835E+03  0.58730338837E+03  0.50400001928E-02 0.  1.
    10030    2    1    2    0    0  0.00000000000E+00  0.00000000000E+00  0.67874965565E+03  0.18533564324E+04  0.17245953063E+04 0.  0.
        3    1    3    3  502    0 -0.21621368273E+03  0.34662207209E+03 -0.47670458571E+03  0.62780768528E+03  0.10100000352E+00 0.  1.
       -3    1    3    3    0  502  0.21621368273E+03 -0.34662207209E+03  0.11554542414E+04  0.12255487471E+04  0.10100000352E+00 0. -1.
</event>
<event>
 5   0  0.1824538E-04  0.1682598E+04  0.7818609E-02  0.8771352E-01
       -1   -1    0    0    0  501  0.00000000000E+00  0.00000000000E+00  0.50802625177E+03  0.50802625180E+03  0.50400001928E-02 0. -1.
        1   -1    0    0  501    0  0.00000000000E+00  0.00000000000E+00 -0.13932041674E+04  0.13932041674E+04  0.50400001928E-02 0.  1.
    10030    2    1    2    0    0  0.00000000000E+00  0.00000000000E+00 -0.88517791558E+03  0.19012304192E+04  0.16825983372E+04 0.  0.
        3    1    3    3  502    0 -0.27380750498E+03 -0.33109442044E+03 -0.12598938636E+04  0.13311373418E+04  0.10100000352E+00 0.  1.
       -3    1    3    3    0  502  0.27380750498E+03  0.33109442044E+03  0.37471594797E+03  0.57009307739E+03  0.10100000352E+00 0. -1.
</event>
<event>
 5   0  0.1893284E-04  0.1700949E+04  0.7818609E-02  0.8760823E-01
        1   -1    0    0  501    0  0.00000000000E+00  0.00000000000E+00  0.12588927514E+04  0.12588927514E+04  0.50400001928E-02 0.  1.
       -1   -1    0    0    0  501  0.00000000000E+00  0.00000000000E+00 -0.57455831292E+03  0.57455831294E+03  0.50400001928E-02 0. -1.
    10030    2    1    2    0    0  0.00000000000E+00  0.00000000000E+00  0.68433443849E+03  0.18334510644E+04  0.17009494942E+04 0.  0.
        2    1    3    3  502    0  0.26005529008E+03  0.60315757441E+03  0.92451133012E+03  0.11340850995E+04  0.25500000920E-02 0.  1.
       -2    1    3    3    0  502 -0.26005529008E+03 -0.60315757441E+03 -0.24017689162E+03  0.69936596482E+03  0.25500000920E-02 0. -1.
</event>
<event>
 5   0  0.3516723E-04  0.1691514E+04  0.7818609E-02  0.8766219E-01
        2   -1    0    0  501    0  0.00000000000E+00  0.00000000000E+00  0.13850952618E+04  0.13850952618E+04  0.25500000920E-02 0. -1.
       -2   -1    0    0    0  501  0.00000000000E+00  0.00000000000E+00 -0.51642987970E+03  0.51642987970E+03  0.25500000920E-02 0.  1.
    10030    2    1    2    0    0  0.00000000000E+00  0.00000000000E+00  0.86866538206E+03  0.19015251415E+04  0.16915136173E+04 0.  0.
        1    1    3    3  502    0  0.21656735240E+03  0.80636330258E+03  0.28275333375E+03  0.88151723843E+03  0.50400001928E-02 0. -1.
       -1    1    3    3    0  502 -0.21656735240E+03 -0.80636330258E+03  0.58591204830E+03  0.10200079030E+04  0.50400001928E-02 0.  1.
</event>
<event>
 5   0  0.3574092E-04  0.1687479E+04  0.7818609E-02  0.8768538E-01
        2   -1    0    0  501    0  0.00000000000E+00  0.00000000000E+00  0.15209511346E+04  0.15209511346E+04  0.25500000920E-02 0.  1.
       -2   -1    0    0    0  501  0.00000000000E+00  0.00000000000E+00 -0.46805987444E+03  0.46805987444E+03  0.25500000920E-02 0. -1.
    10030    2    1    2    0    0  0.00000000000E+00  0.00000000000E+00  0.10528912602E+04  0.19890110090E+04  0.16874788261E+04 0.  0.
        3    1    3    3  502    0 -0.76076831921E+03  0.89662992500E+02  0.10956933692E+03  0.77383030280E+03  0.10100000352E+00 0. -1.
       -3    1    3    3    0  502  0.76076831921E+03 -0.89662992500E+02  0.94332192324E+03  0.12151807062E+04  0.10100000352E+00 0.  1.
</event>
<event>
 5   0  0.1824538E-04  0.1701690E+04  0.7818609E-02  0.8760401E-01
        1   -1    0    0  501    0  0.00000000000E+00  0.00000000000E+00  0.98167650974E+03  0.98167650975E+03  0.50400001928E-02 0. -1.
       -1   -1    0    0    0  501  0.00000000000E+00  0.00000000000E+00 -0.73744981850E+03  0.73744981852E+03  0.50400001928E-02 0.  1.
    10030    2    1    2    0    0  0.00000000000E+00  0.00000000000E+00  0.24422669123E+03  0.17191263283E+04  0.17016899412E+04 0.  0.
        3    1    3    3  502    0 -0.28741836069E+03 -0.41043140855E+02 -0.68585861128E+03  0.74477909365E+03  0.10100000352E+00 0.  1.
       -3    1    3    3    0  502  0.28741836069E+03  0.41043140855E+02  0.93008530251E+03  0.97434723462E+03  0.10100000352E+00 0. -1.
</event>
<event>
 5   0  0.3605571E-04  0.1713337E+04  0.7818609E-02  0.8753794E-01
        2   -1    0    0  501    0  0.00000000000E+00  0.00000000000E+00  0.12206875909E+04  0.12206875909E+04  0.25500000920E-02 0.  1.
       -2   -1    0    0    0  501  0.00000000000E+00  0.00000000000E+00 -0.60120314304E+03  0.60120314305E+03  0.25500000920E-02 0. -1.
    10030    2    1    2    0    0  0.00000000000E+00  0.00000000000E+00  0.61948444786E+03  0.18218907340E+04  0.17133373472E+04 0.  0.
        4    1    3    3  502    0 -0.89859049200E+02 -0.37510906155E+03 -0.50363837001E+03  0.63437739353E+03  0.12699999809E+01 0. -1.
       -4    1    3    3    0  502  0.89859049200E+02  0.37510906155E+03  0.11231228179E+04  0.11875133404E+04  0.12699999809E+01 0.  1.
</event>
<event>
 5   0  0.1824538E-04  0.1694846E+04  0.7818609E-02  0.8764309E-01
       -1   -1    0    0    0  501  0.00000000000E+00  0.00000000000E+00  0.58551396120E+03  0.58551396122E+03  0.50400001928E-02 0.  1.
        1   -1    0    0  501    0  0.00000000000E+00  0.00000000000E+00 -0.12264880246E+04  0.12264880246E+04  0.50400001928E-02 0. -1.
    10030    2    1    2    0    0  0.00000000000E+00  0.00000000000E+00 -0.64097406339E+03  0.18120019858E+04  0.16948461425E+04 0.  0.
        3    1    3    3  502    0 -0.51939287696E+02 -0.45120540150E+03  0.44439821680E+03  0.63543197058E+03  0.10100000352E+00 0.  1.
       -3    1    3    3    0  502  0.51939287696E+02  0.45120540150E+03 -0.10853722802E+04  0.11765700152E+04  0.10100000352E+00 0. -1.
</event>
<event>
 5   0  0.1824538E-04  0.1682905E+04  0.7818609E-02  0.8771175E-01
        1   -1    0    0  501    0  0.00000000000E+00  0.00000000000E+00  0.88732032043E+03  0.88732032044E+03  0.50400001928E-02 0. -1.
       -1   -1    0    0    0  501  0.00000000000E+00  0.00000000000E+00 -0.79795594131E+03  0.79795594133E+03  0.50400001928E-02 0.  1.
    10030    2    1    2    0    0  0.00000000000E+00  0.00000000000E+00  0.89364379114E+02  0.16852762618E+04  0.16829052517E+04 0.  0.
        3    1    3    3  502    0  0.43949833183E+02 -0.10774582855E+03 -0.78985964675E+03  0.79838525987E+03  0.10100000352E+00 0.  1.
       -3    1    3    3    0  502 -0.43949833183E+02  0.10774582855E+03  0.87922402586E+03  0.88689100191E+03  0.10100000352E+00 0. -1.
</event>
<event>
 5   0  0.3573262E-04  0.1710567E+04  0.7818609E-02  0.8755360E-01
       -2   -1    0    0    0  501  0.00000000000E+00  0.00000000000E+00  0.66972557766E+03  0.66972557766E+03  0.25500000920E-02 0.  1.
        2   -1    0    0  501    0  0.00000000000E+00  0.00000000000E+00 -0.10922536283E+04  0.10922536283E+04  0.25500000920E-02 0. -1.
    10030    2    1    2    0    0  0.00000000000E+00  0.00000000000E+00 -0.42252805062E+03  0.17619792059E+04  0.17105673821E+04 0.  0.
        5    1    3    3  502    0  0.29347467957E+03 -0.19237804662E+03  0.59214711390E+03  0.68832913266E+03  0.46999998093E+01 0.  1.
       -5    1    3    3    0  502 -0.29347467957E+03  0.19237804662E+03 -0.10146751645E+04  0.10736500733E+04  0.46999998093E+01 0. -1.
</event>
<event>
 5   0  0.1920289E-04  0.1704363E+04  0.7818609E-02  0.8758880E-01
       -1   -1    0    0    0  501  0.00000000000E+00  0.00000000000E+00  0.89233651786E+03  0.89233651787E+03  0.50400001928E-02 0.  1.
        1   -1    0    0  501    0  0.00000000000E+00  0.00000000000E+00 -0.81383323902E+03  0.81383323903E+03  0.50400001928E-02 0. -1.
    10030    2    1    2    0    0  0.00000000000E+00  0.00000000000E+00  0.78503278840E+02  0.17061697569E+04  0.17043627767E+04 0.  0.
        4    1    3    3  502    0  0.20779184383E+03 -0.56607108955E+02  0.86464365382E+03  0.89106233011E+03  0.12699999809E+01 0.  1.
       -4    1    3    3    0  502 -0.20779184383E+03  0.56607108955E+02 -0.78614037498E+03  0.81510742680E+03  0.12699999809E+01 0. -1.
</event>
<event>
 5   0  0.1824538E-04  0.1637912E+04  0.7818609E-02  0.8797590E-01
       -1   -1    0    0    0  501  0.00000000000E+00  0.00000000000E+00  0.67482581714E+03  0.67482581716E+03  0.50400001928E-02 0. -1.
        1   -1    0    0  501    0  0.00000000000E+00  0.00000000000E+00 -0.99386910851E+03  0.99386910852E+03  0.50400001928E-02 0.  1.
    10030    2    1    2    0    0  0.00000000000E+00  0.00000000000E+00 -0.31904329137E+03  0.16686949257E+04  0.16379115157E+04 0.  0.
        3    1    3    3  502    0 -0.24557592717E+03 -0.49133371804E+03 -0.77836867571E+03  0.95266686938E+03  0.10100000352E+00 0.  1.
       -3    1    3    3    0  502  0.24557592717E+03  0.49133371804E+03  0.45932538435E+03  0.71602805629E+03  0.10100000352E+00 0. -1.
</event>
<event>
 5   0  0.3678896E-04  0.1690567E+04  0.7818609E-02  0.8766763E-01
       -2   -1    0    0    0  501  0.00000000000E+00  0.00000000000E+00  0.85460920337E+03  0.85460920337E+03  0.25500000920E-02 0. -1.
        2   -1    0    0  501    0  0.00000000000E+00  0.00000000000E+00 -0.83605968248E+03  0.83605968249E+03  0.25500000920E-02 0.  1.
    10030    2    1    2    0    0  0.00000000000E+00  0.00000000000E+00  0.18549520883E+02  0.16906688859E+04  0.16905671229E+04 0.  0.
        2    1    3    3  502    0 -0.62216670539E+03 -0.13106946756E+03 -0.54774501883E+03  0.83922298603E+03  0.25500000920E-02 0.  1.
       -2    1    3    3    0  502  0.62216670539E+03  0.13106946756E+03  0.56629453971E+03  0.85144589983E+03  0.25500000920E-02 0. -1.
</event>
<event>
 5   0  0.1920289E-04  0.1696991E+04  0.7818609E-02  0.8763083E-01
       -1   -1    0    0    0  501  0.00000000000E+00  0.00000000000E+00  0.66797447718E+03  0.66797447719E+03  0.50400001928E-02 0. -1.
        1   -1    0    0  501    0  0.00000000000E+00  0.00000000000E+00 -0.10778020766E+04  0.10778020766E+04  0.50400001928E-02 0.  1.
    10030    2    1    2    0    0  0.00000000000E+00  0.00000000000E+00 -0.40982759941E+03  0.17457765538E+04  0.16969906053E+04 0.  0.
        4    1    3    3  502    0 -0.39279181475E+03  0.11576997786E+03  0.55958864230E+03  0.69341845880E+03  0.12699999809E+01 0. -1.
       -4    1    3    3    0  502  0.39279181475E+03 -0.11576997786E+03 -0.96941624171E+03  0.10523580950E+04  0.12699999809E+01 0.  1.
</event>
<event>
 5   0  0.3516723E-04  0.1628542E+04  0.7818609E-02  0.8803203E-01
       -2   -1    0    0    0  501  0.00000000000E+00  0.00000000000E+00  0.59064587207E+03  0.59064587208E+03  0.25500000920E-02 0.  1.
        2   -1    0    0  501    0  0.00000000000E+00  0.00000000000E+00 -0.11225635129E+04  0.11225635129E+04  0.25500000920E-02 0. -1.
    10030    2    1    2    0    0  0.00000000000E+00  0.00000000000E+00 -0.53191764084E+03  0.17132093850E+04  0.16285422992E+04 0.  0.
        1    1    3    3  502    0  0.41491060631E+02 -0.16077087331E+03 -0.11045658366E+04  0.11169755903E+04  0.50400001928E-02 0. -1.
       -1    1    3    3    0  502 -0.41491060631E+02  0.16077087331E+03  0.57264819578E+03  0.59623379472E+03  0.50400001928E-02 0.  1.
</event>
<event>
 5   0  0.1893284E-04  0.1724099E+04  0.7818609E-02  0.8747738E-01
        1   -1    0    0  501    0  0.00000000000E+00  0.00000000000E+00  0.14103248293E+04  0.14103248293E+04  0.50400001928E-02 0. -1.
       -1   -1    0    0    0  501  0.00000000000E+00  0.00000000000E+00 -0.52692063439E+03  0.52692063441E+03  0.50400001928E-02 0.  1.
    10030    2    1    2    0    0  0.00000000000E+00  0.00000000000E+00  0.88340419494E+03  0.19372454637E+04  0.17240988995E+04 0.  0.
        2    1    3    3  502    0 -0.83696024694E+03  0.19730261427E+03  0.37336855231E+03  0.93746192051E+03  0.25500000920E-02 0. -1.
       -2    1    3    3    0  502  0.83696024694E+03 -0.19730261427E+03  0.51003564263E+03  0.99978354323E+03  0.25500000920E-02 0.  1.
</event>
<event>
 5   0  0.1920289E-04  0.1695775E+04  0.7818609E-02  0.8763778E-01
        1   -1    0    0  501    0  0.00000000000E+00  0.00000000000E+00  0.24586591184E+04  0.24586591184E+04  0.50400001928E-02 0.  1.
       -1   -1    0    0    0  501  0.00000000000E+00  0.00000000000E+00 -0.29240042382E+03  0.29240042387E+03  0.50400001928E-02 0. -1.
    10030    2    1    2    0    0  0.00000000000E+00  0.00000000000E+00  0.21662586946E+04  0.27510595423E+04  0.16957747118E+04 0.  0.
        4    1    3    3  502    0 -0.72406797913E+03 -0.31090969837E+03  0.15909180003E+04  0.17753762913E+04  0.12699999809E+01 0.  1.
       -4    1    3    3    0  502  0.72406797913E+03  0.31090969837E+03  0.57534069427E+03  0.97568325103E+03  0.12699999809E+01 0. -1.
</event>
<event>
 5   0  0.3574092E-04  0.1737553E+04  0.7818609E-02  0.8740231E-01
       -2   -1    0    0    0  501  0.00000000000E+00  0.00000000000E+00  0.93755016886E+03  0.93755016887E+03  0.25500000920E-02 0. -1.
        2   -1    0    0  501    0  0.00000000000E+00  0.00000000000E+00 -0.80504800049E+03  0.80504800049E+03  0.25500000920E-02 0.  1.
    10030    2    1    2    0    0  0.00000000000E+00  0.00000000000E+00  0.13250216838E+03  0.17425981694E+04  0.17375533244E+04 0.  0.
        3    1    3    3  502    0 -0.32749799115E+03 -0.62005670997E+03 -0.44811970918E+03  0.83218780437E+03  0.10100000352E+00 0.  1.
       -3    1    3    3    0  502  0.32749799115E+03  0.62005670997E+03  0.58062187756E+03  0.91041036499E+03  0.10100000352E+00 0. -1.
</event>
<event>
 5   0  0.1824538E-04  0.1698732E+04  0.7818609E-02  0.8762088E-01
       -1   -1    0    0    0  501  0.00000000000E+00  0.00000000000E+00  0.41939822569E+03  0.41939822572E+03  0.50400001928E-02 0.  1.
        1   -1    0    0  501    0  0.00000000000E+00  0.00000000000E+00 -0.17201380325E+04  0.17201380326E+04  0.50400001928E-02 0. -1.
    10030    2    1    2    0    0  0.00000000000E+00  0.00000000000E+00 -0.13007398069E+04  0.21395362583E+04  0.16987322789E+04 0.  0.
        3    1    3    3  502    0  0.64832898300E+03 -0.29889462198E+03 -0.70793232965E+02  0.71741212512E+03  0.10100000352E+00 0.  1.
       -3    1    3    3    0  502 -0.64832898300E+03  0.29889462198E+03 -0.12299465739E+04  0.14221241331E+04  0.10100000352E+00 0. -1.
</event>
<event>
 5   0  0.3678896E-04  0.1696695E+04  0.7818609E-02  0.8763252E-01
        2   -1    0    0  501    0  0.00000000000E+00  0.00000000000E+00  0.84172766157E+03  0.84172766157E+03  0.25500000920E-02 0. -1.
       -2   -1    0    0    0  501  0.00000000000E+00  0.00000000000E+00 -0.85501932581E+03  0.85501932582E+03  0.25500000920E-02 0.  1.
    10030    2    1    2    0    0  0.00000000000E+00  0.00000000000E+00 -0.13291664248E+02  0.16967469874E+04  0.16966949257E+04 0.  0.
        2    1    3    3  502    0 -0.57442532288E+02 -0.43429988586E+03  0.71985934450E+03  0.84268233116E+03  0.25500000920E-02 0. -1.
       -2    1    3    3    0  502  0.57442532288E+02  0.43429988586E+03 -0.73315100875E+03  0.85406465623E+03  0.25500000920E-02 0.  1.
</event>
<event>
 5   0  0.3574092E-04  0.1706339E+04  0.7818609E-02  0.8757757E-01
        2   -1    0    0  501    0  0.00000000000E+00  0.00000000000E+00  0.27527176525E+04  0.27527176525E+04  0.25500000920E-02 0.  1.
       -2   -1    0    0    0  501  0.00000000000E+00  0.00000000000E+00 -0.26442899910E+03  0.26442899911E+03  0.25500000920E-02 0. -1.
    10030    2    1    2    0    0  0.00000000000E+00  0.00000000000E+00  0.24882886534E+04  0.30171466516E+04  0.17063392086E+04 0.  0.
        3    1    3    3  502    0  0.36520806761E+03  0.55320810418E+03  0.29443527166E+03  0.72533321899E+03  0.10100000352E+00 0. -1.
       -3    1    3    3    0  502 -0.36520806761E+03 -0.55320810418E+03  0.21938533818E+04  0.22918134326E+04  0.10100000352E+00 0.  1.
</event>
<event>
 5   0  0.3678896E-04  0.1692768E+04  0.7818609E-02  0.8765500E-01
        2   -1    0    0  501    0  0.00000000000E+00  0.00000000000E+00  0.11500676649E+04  0.11500676649E+04  0.25500000920E-02 0.  1.
       -2   -1    0    0    0  501  0.00000000000E+00  0.00000000000E+00 -0.62289031802E+03  0.62289031802E+03  0.25500000920E-02 0. -1.
    10030    2    1    2    0    0  0.00000000000E+00  0.00000000000E+00  0.52717734686E+03  0.17729579829E+04  0.16927681631E+04 0.  0.
        2    1    3    3  502    0 -0.89935489382E+02 -0.16014642361E+03 -0.60176548117E+03  0.62917164874E+03  0.25500000920E-02 0. -1.
       -2    1    3    3    0  502  0.89935489382E+02  0.16014642361E+03  0.11289428280E+04  0.11437863342E+04  0.25500000920E-02 0.  1.
</event>
<event>
 5   0  0.3605571E-04  0.1675687E+04  0.7818609E-02  0.8775354E-01
       -2   -1    0    0    0  501  0.00000000000E+00  0.00000000000E+00  0.37563175283E+03  0.37563175284E+03  0.25500000920E-02 0. -1.
        2   -1    0    0  501    0  0.00000000000E+00  0.00000000000E+00 -0.18688022661E+04  0.18688022661E+04  0.25500000920E-02 0.  1.
    10030    2    1    2    0    0  0.00000000000E+00  0.00000000000E+00 -0.14931705133E+04  0.22444340189E+04  0.16756866902E+04 0.  0.
        4    1    3    3  502    0  0.69239853919E+03  0.37094121288E+02 -0.13765191091E+04  0.15412975643E+04  0.12699999809E+01 0.  1.
       -4    1    3    3    0  502 -0.69239853919E+03 -0.37094121288E+02 -0.11665140414E+03  0.70313645468E+03  0.12699999809E+01 0. -1.
</event>
<event>
 5   0  0.1815663E-04  0.1683888E+04  0.7818609E-02  0.8770608E-01
       -1   -1    0    0    0  501  0.00000000000E+00  0.00000000000E+00  0.50798021935E+03  0.50798021938E+03  0.50400001928E-02 0. -1.
        1   -1    0    0  501    0  0.00000000000E+00  0.00000000000E+00 -0.13954664334E+04  0.13954664334E+04  0.50400001928E-02 0.  1.
    10030    2    1    2    0    0  0.00000000000E+00  0.00000000000E+00 -0.88748621401E+03  0.19034466527E+04  0.16838875793E+04 0.  0.
        5    1    3    3  502    0 -0.14050658430E+03  0.82700095814E+03 -0.36242921532E+03  0.91381054443E+03  0.46999998093E+01 0.  1.
       -5    1    3    3    0  502  0.14050658430E+03 -0.82700095814E+03 -0.52505699870E+03  0.98963610832E+03  0.46999998093E+01 0. -1.
</event>
<event>
 5   0  0.1920289E-04  0.1680384E+04  0.7818609E-02  0.8772632E-01
        1   -1    0    0  501    0  0.00000000000E+00  0.00000000000E+00  0.38228033328E+03  0.38228033332E+03  0.50400001928E-02 0.  1.
       -1   -1    0    0    0  501  0.00000000000E+00  0.00000000000E+00 -0.18466098761E+04  0.18466098761E+04  0.50400001928E-02 0. -1.
    10030    2    1    2    0    0  0.00000000000E+00  0.00000000000E+00 -0.14643295428E+04  0.22288902094E+04  0.16803840501E+04 0.  0.
        4    1    3    3  502    0  0.20255807927E+03  0.78375930774E+03 -0.10305720704E+04  0.13104918287E+04  0.12699999809E+01 0. -1.
       -4    1    3    3    0  502 -0.20255807927E+03 -0.78375930774E+03 -0.43375747249E+03  0.91839838077E+03  0.12699999809E+01 0.  1.
</event>
<event>
 5   0  0.3678896E-04  0.1708103E+04  0.7818609E-02  0.8756756E-01
       -2   -1    0    0    0  501  0.00000000000E+00  0.00000000000E+00  0.36533193300E+03  0.36533193301E+03  0.25500000920E-02 0.  1.
        2   -1    0    0  501    0  0.00000000000E+00  0.00000000000E+00 -0.19965509775E+04  0.19965509775E+04  0.25500000920E-02 0. -1.
    10030    2    1    2    0    0  0.00000000000E+00  0.00000000000E+00 -0.16312190445E+04  0.23618829105E+04  0.17081028399E+04 0.  0.
        2    1    3    3  502    0  0.14442188551E+03  0.25279614544E+03 -0.19258142189E+04  0.19476970960E+04  0.25500000920E-02 0. -1.
       -2    1    3    3    0  502 -0.14442188551E+03 -0.25279614544E+03  0.29459517438E+03  0.41418581450E+03  0.25500000920E-02 0.  1.
</event>
<event>
 5   0  0.3678896E-04  0.1667148E+04  0.7818609E-02  0.8780326E-01
        2   -1    0    0  501    0  0.00000000000E+00  0.00000000000E+00  0.11129609231E+04  0.11129609231E+04  0.25500000920E-02 0. -1.
       -2   -1    0    0    0  501  0.00000000000E+00  0.00000000000E+00 -0.62432140998E+03  0.62432140998E+03  0.25500000920E-02 0.  1.
    10030    2    1    2    0    0  0.00000000000E+00  0.00000000000E+00  0.48863951308E+03  0.17372823330E+04  0.16671476632E+04 0.  0.
        2    1    3    3  502    0  0.71817739619E+03  0.36912531511E+03  0.45993749198E+03  0.92928723611E+03  0.25500000920E-02 0.  1.
       -2    1    3    3    0  502 -0.71817739619E+03 -0.36912531511E+03  0.28702021102E+02  0.80799509694E+03  0.25500000920E-02 0. -1.
</event>
<event>
 5   0  0.1317625E-04  0.1713034E+04  0.7818609E-02  0.8753965E-01
       -3   -1    0    0    0  501  0.00000000000E+00  0.00000000000E+00  0.83728197469E+03  0.83728198078E+03  0.10100000352E+00 0.  1.
        3   -1    0    0  501    0  0.00000000000E+00  0.00000000000E+00 -0.87619408083E+03  0.87619408665E+03  0.10100000352E+00 0. -1.
    10030    2    1    2    0    0  0.00000000000E+00  0.00000000000E+00 -0.38912106145E+02  0.17134760674E+04  0.17130341741E+04 0.  0.
        5    1    3    3  502    0  0.24918528476E+03 -0.80023724742E+03 -0.19592852378E+03  0.86074562719E+03  0.46999998093E+01 0. -1.
       -5    1    3    3    0  502 -0.24918528476E+03  0.80023724742E+03  0.15701641763E+03  0.85273044024E+03  0.46999998093E+01 0.  1.
</event>
<event>
 5   0  0.3574092E-04  0.1691217E+04  0.7818609E-02  0.8766390E-01
       -2   -1    0    0    0  501  0.00000000000E+00  0.00000000000E+00  0.37960910540E+03  0.37960910541E+03  0.25500000920E-02 0.  1.
        2   -1    0    0  501    0  0.00000000000E+00  0.00000000000E+00 -0.18836580786E+04  0.18836580786E+04  0.25500000920E-02 0. -1.
    10030    2    1    2    0    0  0.00000000000E+00  0.00000000000E+00 -0.15040489732E+04  0.22632671840E+04  0.16912170270E+04 0.  0.
        3    1    3    3  502    0  0.52048028799E+03 -0.18708246494E+03 -0.16080367261E+04  0.17004945462E+04  0.10100000352E+00 0.  1.
       -3    1    3    3    0  502 -0.52048028799E+03  0.18708246494E+03  0.10398775295E+03  0.56277263778E+03  0.10100000352E+00 0. -1.
</event>
<event>
 5   0  0.1317625E-04  0.1711046E+04  0.7818609E-02  0.8755089E-01
       -4   -1    0    0    0  501  0.00000000000E+00  0.00000000000E+00  0.98260843210E+03  0.98260925283E+03  0.12699999809E+01 0.  1.
        4   -1    0    0  501    0  0.00000000000E+00  0.00000000000E+00 -0.74487268611E+03  0.74487376877E+03  0.12699999809E+01 0. -1.
    10030    2    1    2    0    0  0.00000000000E+00  0.00000000000E+00  0.23773574600E+03  0.17274830216E+04  0.17110462603E+04 0.  0.
        5    1    3    3  502    0 -0.26997014605E+03 -0.69075500179E+03  0.54942840999E+03  0.92299513540E+03  0.46999998093E+01 0.  1.
       -5    1    3    3    0  502  0.26997014605E+03  0.69075500179E+03 -0.31169266399E+03  0.80448788620E+03  0.46999998093E+01 0. -1.
</event>
<event>
 5   0  0.1930116E-04  0.1703133E+04  0.7818609E-02  0.8759579E-01
        1   -1    0    0  501    0  0.00000000000E+00  0.00000000000E+00  0.83230061074E+03  0.83230061076E+03  0.50400001928E-02 0. -1.
       -1   -1    0    0    0  501  0.00000000000E+00  0.00000000000E+00 -0.87127868706E+03  0.87127868707E+03  0.50400001928E-02 0.  1.
    10030    2    1    2    0    0  0.00000000000E+00  0.00000000000E+00 -0.38978076316E+02  0.17035792978E+04  0.17031333282E+04 0.  0.
        1    1    3    3  502    0  0.28736103532E+03 -0.42486099840E+03 -0.69943357808E+03  0.86734685262E+03  0.50400001928E-02 0.  1.
       -1    1    3    3    0  502 -0.28736103532E+03  0.42486099840E+03  0.66045550176E+03  0.83623244521E+03  0.50400001928E-02 0. -1.
</event>
<event>
 5   0  0.3678896E-04  0.1708053E+04  0.7818609E-02  0.8756785E-01
       -2   -1    0    0    0  501  0.00000000000E+00  0.00000000000E+00  0.94599719481E+03  0.94599719481E+03  0.25500000920E-02 0.  1.
        2   -1    0    0  501    0  0.00000000000E+00  0.00000000000E+00 -0.77099761989E+03  0.77099761989E+03  0.25500000920E-02 0. -1.
    10030    2    1    2    0    0  0.00000000000E+00  0.00000000000E+00  0.17499957493E+03  0.17169948147E+04  0.17080533781E+04 0.  0.
        2    1    3    3  502    0  0.65847050738E+03 -0.16547452557E+03 -0.43328207940E+03  0.80541826899E+03  0.25500000920E-02 0. -1.
       -2    1    3    3    0  502 -0.65847050738E+03  0.16547452557E+03  0.60828165432E+03  0.91157654571E+03  0.25500000920E-02 0.  1.
</event>
<event>
 5   0  0.3573262E-04  0.1686476E+04  0.7818609E-02  0.8769115E-01
        2   -1    0    0  501    0  0.00000000000E+00  0.00000000000E+00  0.21654518193E+04  0.21654518193E+04  0.25500000920E-02 0.  1.
       -2   -1    0    0    0  501  0.00000000000E+00  0.00000000000E+00 -0.32836126672E+03  0.32836126673E+03  0.25500000920E-02 0. -1.
    10030    2    1    2    0    0  0.00000000000E+00  0.00000000000E+00  0.18370905526E+04  0.24938130861E+04  0.16864762108E+04 0.  0.
        5    1    3    3  502    0 -0.58363912368E+03 -0.59184493494E+03  0.11282585790E+04  0.14013937936E+04  0.46999998093E+01 0.  1.
       -5    1    3    3    0  502  0.58363912368E+03  0.59184493494E+03  0.70883197360E+03  0.10924192924E+04  0.46999998093E+01 0. -1.
</event>
<event>
 5   0  0.1317625E-04  0.1701429E+04  0.7818609E-02  0.8760550E-01
       -4   -1    0    0    0  501  0.00000000000E+00  0.00000000000E+00  0.65052859685E+03  0.65052983653E+03  0.12699999809E+01 0. -1.
        4   -1    0    0  501    0  0.00000000000E+00  0.00000000000E+00 -0.11125007365E+04  0.11125014614E+04  0.12699999809E+01 0.  1.
    10030    2    1    2    0    0  0.00000000000E+00  0.00000000000E+00 -0.46197213966E+03  0.17630312979E+04  0.17014291345E+04 0.  0.
        5    1    3    3  502    0 -0.25907630751E+03  0.12021139145E+03 -0.10613240225E+04  0.10990914805E+04  0.46999998093E+01 0.  1.
       -5    1    3    3    0  502  0.25907630751E+03 -0.12021139145E+03  0.59935188283E+03  0.66393981746E+03  0.46999998093E+01 0. -1.
</event>
<event>
 5   0  0.1815663E-04  0.1696988E+04  0.7818609E-02  0.8763084E-01
        1   -1    0    0  501    0  0.00000000000E+00  0.00000000000E+00  0.11990277860E+04  0.11990277861E+04  0.50400001928E-02 0. -1.
       -1   -1    0    0    0  501  0.00000000000E+00  0.00000000000E+00 -0.60043802282E+03  0.60043802284E+03  0.50400001928E-02 0.  1.
    10030    2    1    2    0    0  0.00000000000E+00  0.00000000000E+00  0.59858976322E+03  0.17994658089E+04  0.16969877704E+04 0.  0.
        5    1    3    3  502    0 -0.48626275775E+03 -0.62325181358E+03  0.62617232054E+03  0.10084682235E+04  0.46999998093E+01 0. -1.
       -5    1    3    3    0  502  0.48626275775E+03  0.62325181358E+03 -0.27582557320E+02  0.79099758544E+03  0.46999998093E+01 0.  1.
</event>
<event>
 5   0  0.3605571E-04  0.1688879E+04  0.7818609E-02  0.8767732E-01
       -2   -1    0    0    0  501  0.00000000000E+00  0.00000000000E+00  0.36150131526E+03  0.36150131527E+03  0.25500000920E-02 0.  1.
        2   -1    0    0  501    0  0.00000000000E+00  0.00000000000E+00 -0.19725471284E+04  0.19725471284E+04  0.25500000920E-02 0. -1.
    10030    2    1    2    0    0  0.00000000000E+00  0.00000000000E+00 -0.16110458131E+04  0.23340484436E+04  0.16888793697E+04 0.  0.
        4    1    3    3  502    0  0.35680460753E+03 -0.50690424452E+03 -0.13044820484E+02  0.62002679080E+03  0.12699999809E+01 0.  1.
       -4    1    3    3    0  502 -0.35680460753E+03  0.50690424452E+03 -0.15980009926E+04  0.17140216528E+04  0.12699999809E+01 0. -1.
</event>
<event>
 5   0  0.1824538E-04  0.1703988E+04  0.7818609E-02  0.8759093E-01
        1   -1    0    0  501    0  0.00000000000E+00  0.00000000000E+00  0.74694210072E+03  0.74694210074E+03  0.50400001928E-02 0.  1.
       -1   -1    0    0    0  501  0.00000000000E+00  0.00000000000E+00 -0.97182018535E+03  0.97182018536E+03  0.50400001928E-02 0. -1.
    10030    2    1    2    0    0  0.00000000000E+00  0.00000000000E+00 -0.22487808462E+03  0.17187622861E+04  0.17039875713E+04 0.  0.
        3    1    3    3  502    0  0.55531296034E+02 -0.19141667460E+03 -0.94797480780E+03  0.96870032238E+03  0.10100000352E+00 0. -1.
       -3    1    3    3    0  502 -0.55531296034E+02  0.19141667460E+03  0.72309672318E+03  0.75006196372E+03  0.10100000352E+00 0.  1.
</event>
<event>
 5   0  0.1893284E-04  0.1555961E+04  0.7818609E-02  0.8848069E-01
       -1   -1    0    0    0  501  0.00000000000E+00  0.00000000000E+00  0.85214712977E+03  0.85214712978E+03  0.50400001928E-02 0.  1.
        1   -1    0    0  501    0  0.00000000000E+00  0.00000000000E+00 -0.71026860468E+03  0.71026860469E+03  0.50400001928E-02 0. -1.
    10030    2    1    2    0    0  0.00000000000E+00  0.00000000000E+00  0.14187852509E+03  0.15624157345E+04  0.15559606073E+04 0.  0.
        2    1    3    3  502    0  0.25723079021E+03  0.27628321427E+03 -0.61214259264E+03  0.71917914851E+03  0.25500000920E-02 0. -1.
       -2    1    3    3    0  502 -0.25723079021E+03 -0.27628321427E+03  0.75402111773E+03  0.84323658597E+03  0.25500000920E-02 0.  1.
</event>
<event>
 5   0  0.3678896E-04  0.1688867E+04  0.7818609E-02  0.8767739E-01
       -2   -1    0    0    0  501  0.00000000000E+00  0.00000000000E+00  0.56972422819E+03  0.56972422820E+03  0.25500000920E-02 0.  1.
        2   -1    0    0  501    0  0.00000000000E+00  0.00000000000E+00 -0.12516025488E+04  0.12516025488E+04  0.25500000920E-02 0. -1.
    10030    2    1    2    0    0  0.00000000000E+00  0.00000000000E+00 -0.68187832060E+03  0.18213267770E+04  0.16888674266E+04 0.  0.
        2    1    3    3  502    0  0.26428962676E+03  0.35890101475E+02 -0.12049845393E+04  0.12341494424E+04  0.25500000920E-02 0. -1.
       -2    1    3    3    0  502 -0.26428962676E+03 -0.35890101475E+02  0.52310621871E+03  0.58717733459E+03  0.25500000920E-02 0.  1.
</event>
<event>
 5   0  0.3573262E-04  0.1695368E+04  0.7818609E-02  0.8764011E-01
        2   -1    0    0  501    0  0.00000000000E+00  0.00000000000E+00  0.10009167155E+04  0.10009167155E+04  0.25500000920E-02 0. -1.
       -2   -1    0    0    0  501  0.00000000000E+00  0.00000000000E+00 -0.71790967772E+03  0.71790967772E+03  0.25500000920E-02 0.  1.
    10030    2    1    2    0    0  0.00000000000E+00  0.00000000000E+00  0.28300703781E+03  0.17188263933E+04  0.16953675668E+04 0.  0.
        5    1    3    3  502    0  0.63805787751E+03  0.16159610004E+03 -0.40003593738E+03  0.77024800928E+03  0.46999998093E+01 0.  1.
       -5    1    3    3    0  502 -0.63805787751E+03 -0.16159610004E+03  0.68304297519E+03  0.94857838398E+03  0.46999998093E+01 0. -1.
</event>
<event>
 5   0  0.1920289E-04  0.1687663E+04  0.7818609E-02  0.8768432E-01
       -1   -1    0    0    0  501  0.00000000000E+00  0.00000000000E+00  0.62287442221E+03  0.62287442223E+03  0.50400001928E-02 0.  1.
        1   -1    0    0  501    0  0.00000000000E+00  0.00000000000E+00 -0.11431705038E+04  0.11431705038E+04  0.50400001928E-02 0. -1.
    10030    2    1    2    0    0  0.00000000000E+00  0.00000000000E+00 -0.52029608158E+03  0.17660449260E+04  0.16876630790E+04 0.  0.
        4    1    3    3  502    0  0.10839952170E+02 -0.75772595886E+03  0.12828419753E+03  0.76858609247E+03  0.12699999809E+01 0.  1.
       -4    1    3    3    0  502 -0.10839952170E+02  0.75772595886E+03 -0.64858027911E+03  0.99745883356E+03  0.12699999809E+01 0. -1.
</event>
<event>
 5   0  0.3573262E-04  0.1761369E+04  0.7818609E-02  0.8727117E-01
       -2   -1    0    0    0  501  0.00000000000E+00  0.00000000000E+00  0.87468735259E+03  0.87468735259E+03  0.25500000920E-02 0. -1.
        2   -1    0    0  501    0  0.00000000000E+00  0.00000000000E+00 -0.88672283712E+03  0.88672283713E+03  0.25500000920E-02 0.  1.
    10030    2    1    2    0    0  0.00000000000E+00  0.00000000000E+00 -0.12035484533E+02  0.17614101897E+04  0.17613690708E+04 0.  0.
        5    1    3    3  502    0  0.55181982488E+03  0.43405681576E+03  0.52566441892E+03  0.87707218047E+03  0.46999998093E+01 0. -1.
       -5    1    3    3    0  502 -0.55181982488E+03 -0.43405681576E+03 -0.53769990345E+03  0.88433800925E+03  0.46999998093E+01 0.  1.
</event>
<event>
 5   0  0.1824538E-04  0.1682689E+04  0.7818609E-02  0.8771299E-01
       -1   -1    0    0    0  501  0.00000000000E+00  0.00000000000E+00  0.64548782768E+03  0.64548782770E+03  0.50400001928E-02 0.  1.
        1   -1    0    0  501    0  0.00000000000E+00  0.00000000000E+00 -0.10966289801E+04  0.10966289801E+04  0.50400001928E-02 0. -1.
    10030    2    1    2    0    0  0.00000000000E+00  0.00000000000E+00 -0.45114115243E+03  0.17421168078E+04  0.16826891076E+04 0.  0.
        3    1    3    3  502    0 -0.27936732595E+03  0.30757607742E+03  0.53184826864E+03  0.67491609646E+03  0.10100000352E+00 0.  1.
       -3    1    3    3    0  502  0.27936732595E+03 -0.30757607742E+03 -0.98298942107E+03  0.10672007114E+04  0.10100000352E+00 0. -1.
</event>
<event>
 5   0  0.3678896E-04  0.1823510E+04  0.7818609E-02  0.8693896E-01
       -2   -1    0    0    0  501  0.00000000000E+00  0.00000000000E+00  0.39788141115E+03  0.39788141116E+03  0.25500000920E-02 0.  1.
        2   -1    0    0  501    0  0.00000000000E+00  0.00000000000E+00 -0.20893100505E+04  0.20893100505E+04  0.25500000920E-02 0. -1.
    10030    2    1    2    0    0  0.00000000000E+00  0.00000000000E+00 -0.16914286393E+04  0.24871914616E+04  0.18235104949E+04 0.  0.
        2    1    3    3  502    0 -0.43938257403E+03 -0.35677900778E+03  0.12925256670E+03  0.58056397817E+03  0.25500000920E-02 0.  1.
       -2    1    3    3    0  502  0.43938257403E+03  0.35677900778E+03 -0.18206812060E+04  0.19066274835E+04  0.25500000920E-02 0. -1.
</event>
<event>
 5   0  0.3574092E-04  0.1714575E+04  0.7818609E-02  0.8753095E-01
       -2   -1    0    0    0  501  0.00000000000E+00  0.00000000000E+00  0.41211308005E+03  0.41211308006E+03  0.25500000920E-02 0.  1.
        2   -1    0    0  501    0  0.00000000000E+00  0.00000000000E+00 -0.17833503193E+04  0.17833503193E+04  0.25500000920E-02 0. -1.
    10030    2    1    2    0    0  0.00000000000E+00  0.00000000000E+00 -0.13712372393E+04  0.21954633994E+04  0.17145751578E+04 0.  0.
        3    1    3    3  502    0  0.40916933620E+03  0.60126015860E+03 -0.12668009628E+04  0.14607251671E+04  0.10100000352E+00 0.  1.
       -3    1    3    3    0  502 -0.40916933620E+03 -0.60126015860E+03 -0.10443627642E+03  0.73473823233E+03  0.10100000352E+00 0. -1.
</event>
<event>
 5   0  0.3516723E-04  0.1693080E+04  0.7818609E-02  0.8765321E-01
       -2   -1    0    0    0  501  0.00000000000E+00  0.00000000000E+00  0.95066304304E+03  0.95066304305E+03  0.25500000920E-02 0.  1.
        2   -1    0    0  501    0  0.00000000000E+00  0.00000000000E+00 -0.75382132605E+03  0.75382132605E+03  0.25500000920E-02 0. -1.
    10030    2    1    2    0    0  0.00000000000E+00  0.00000000000E+00  0.19684171700E+03  0.17044843691E+04  0.16930801230E+04 0.  0.
        1    1    3    3  502    0 -0.26481674616E+03 -0.31600200233E+02 -0.71042328289E+03  0.75883313225E+03  0.50400001928E-02 0. -1.
       -1    1    3    3    0  502  0.26481674616E+03  0.31600200233E+02  0.90726499989E+03  0.94565123685E+03  0.50400001928E-02 0.  1.
</event>
<event>
 5   0  0.1930116E-04  0.1695866E+04  0.7818609E-02  0.8763725E-01
        1   -1    0    0  501    0  0.00000000000E+00  0.00000000000E+00  0.25943013498E+04  0.25943013499E+04  0.50400001928E-02 0. -1.
       -1   -1    0    0    0  501  0.00000000000E+00  0.00000000000E+00 -0.27714228806E+03  0.27714228810E+03  0.50400001928E-02 0.  1.
    10030    2    1    2    0    0  0.00000000000E+00  0.00000000000E+00  0.23171590618E+04  0.28714436380E+04  0.16958662826E+04 0.  0.
        1    1    3    3  502    0 -0.54063712420E+03  0.68455992955E+02  0.22585299053E+04  0.23233450145E+04  0.50400001928E-02 0. -1.
       -1    1    3    3    0  502  0.54063712420E+03 -0.68455992955E+02  0.58629156457E+02  0.54809862347E+03  0.50400001928E-02 0.  1.
</event>
<event>
 5   0  0.3574092E-04  0.1800186E+04  0.7818609E-02  0.8706201E-01
        2   -1    0    0  501    0  0.00000000000E+00  0.00000000000E+00  0.13003334901E+04  0.13003334901E+04  0.25500000920E-02 0. -1.
       -2   -1    0    0    0  501  0.00000000000E+00  0.00000000000E+00 -0.62304573850E+03  0.62304573851E+03  0.25500000920E-02 0.  1.
    10030    2    1    2    0    0  0.00000000000E+00  0.00000000000E+00  0.67728775157E+03  0.19233792286E+04  0.18001858122E+04 0.  0.
        3    1    3    3  502    0  0.65300464186E+03 -0.17778022617E+03  0.97267297092E+03  0.11849529905E+04  0.10100000352E+00 0.  1.
       -3    1    3    3    0  502 -0.65300464186E+03  0.17778022617E+03 -0.29538521934E+03  0.73842623810E+03  0.10100000352E+00 0. -1.
</event>
<event>
 5   0  0.1920289E-04  0.1701615E+04  0.7818609E-02  0.8760444E-01
       -1   -1    0    0    0  501  0.00000000000E+00  0.00000000000E+00  0.54346983689E+03  0.54346983692E+03  0.50400001928E-02 0.  1.
        1   -1    0    0  501    0  0.00000000000E+00  0.00000000000E+00 -0.13319482526E+04  0.13319482526E+04  0.50400001928E-02 0. -1.
    10030    2    1    2    0    0  0.00000000000E+00  0.00000000000E+00 -0.78847841567E+03  0.18754180895E+04  0.17016153497E+04 0.  0.
        4    1    3    3  502    0 -0.39263592654E+03  0.52829372643E+03  0.19991012078E+03  0.68791198673E+03  0.12699999809E+01 0.  1.
       -4    1    3    3    0  502  0.39263592654E+03 -0.52829372643E+03 -0.98838853645E+03  0.11875061028E+04  0.12699999809E+01 0. -1.
</event>
<event>
 5   0  0.3573262E-04  0.1688528E+04  0.7818609E-02  0.8767935E-01
        2   -1    0    0  501    0  0.00000000000E+00  0.00000000000E+00  0.13676344922E+04  0.13676344922E+04  0.25500000920E-02 0.  1.
       -2   -1    0    0    0  501  0.00000000000E+00  0.00000000000E+00 -0.52117838442E+03  0.52117838442E+03  0.25500000920E-02 0. -1.
    10030    2    1    2    0    0  0.00000000000E+00  0.00000000000E+00  0.84645610777E+03  0.18888128766E+04  0.16885278027E+04 0.  0.
        5    1    3    3  502    0 -0.40523857909E+03 -0.65862057152E+03  0.44283086635E+02  0.77458533744E+03  0.46999998093E+01 0. -1.
       -5    1    3    3    0  502  0.40523857909E+03  0.65862057152E+03  0.80217302113E+03  0.11142275392E+04  0.46999998093E+01 0.  1.
</event>
<event>
 5   0  0.1920289E-04  0.1699761E+04  0.7818609E-02  0.8761501E-01
        1   -1    0    0  501    0  0.00000000000E+00  0.00000000000E+00  0.19476872043E+04  0.19476872043E+04  0.50400001928E-02 0.  1.
       -1   -1    0    0    0  501  0.00000000000E+00  0.00000000000E+00 -0.37084840846E+03  0.37084840850E+03  0.50400001928E-02 0. -1.
    10030    2    1    2    0    0  0.00000000000E+00  0.00000000000E+00  0.15768387958E+04  0.23185356128E+04  0.16997608066E+04 0.  0.
        4    1    3    3  502    0 -0.12903695999E+03 -0.74098110962E+03  0.24864769305E+03  0.79216843539E+03  0.12699999809E+01 0. -1.
       -4    1    3    3    0  502  0.12903695999E+03  0.74098110962E+03  0.13281911028E+04  0.15263671774E+04  0.12699999809E+01 0.  1.
</event>
<event>
 5   0  0.1824538E-04  0.1699048E+04  0.7818609E-02  0.8761908E-01
        1   -1    0    0  501    0  0.00000000000E+00  0.00000000000E+00  0.10708610108E+04  0.10708610108E+04  0.50400001928E-02 0.  1.
       -1   -1    0    0    0  501  0.00000000000E+00  0.00000000000E+00 -0.67393507542E+03  0.67393507544E+03  0.50400001928E-02 0. -1.
    10030    2    1    2    0    0  0.00000000000E+00  0.00000000000E+00  0.39692593541E+03  0.17447960863E+04  0.16990477287E+04 0.  0.
        3    1    3    3  502    0  0.66525563451E+02  0.70090307398E+03  0.68665797604E+03  0.98345816178E+03  0.10100000352E+00 0.  1.
       -3    1    3    3    0  502 -0.66525563451E+02 -0.70090307398E+03 -0.28973204063E+03  0.76133792450E+03  0.10100000352E+00 0. -1.
</event>
<event>
 5   0  0.3516723E-04  0.1638451E+04  0.7818609E-02  0.8797268E-01
        2   -1    0    0  501    0  0.00000000000E+00  0.00000000000E+00  0.89320109407E+03  0.89320109407E+03  0.25500000920E-02 0. -1.
       -2   -1    0    0    0  501  0.00000000000E+00  0.00000000000E+00 -0.75137666443E+03  0.75137666443E+03  0.25500000920E-02 0.  1.
    10030    2    1    2    0    0  0.00000000000E+00  0.00000000000E+00  0.14182442964E+03  0.16445777585E+04  0.16384510475E+04 0.  0.
        1    1    3    3  502    0  0.69355384223E+02 -0.10774923664E+03 -0.74125519641E+03  0.75224951549E+03  0.50400001928E-02 0.  1.
       -1    1    3    3    0  502 -0.69355384223E+02  0.10774923664E+03  0.88307962605E+03  0.89232824302E+03  0.50400001928E-02 0. -1.
</event>
<event>
 5   0  0.3605571E-04  0.1605016E+04  0.7818609E-02  0.8817472E-01
        2   -1    0    0  501    0  0.00000000000E+00  0.00000000000E+00  0.68059884276E+03  0.68059884277E+03  0.25500000920E-02 0.  1.
       -2   -1    0    0    0  501  0.00000000000E+00  0.00000000000E+00 -0.94625369095E+03  0.94625369095E+03  0.25500000920E-02 0. -1.
    10030    2    1    2    0    0  0.00000000000E+00  0.00000000000E+00 -0.26565484819E+03  0.16268525337E+04  0.16050160959E+04 0.  0.
        4    1    3    3  502    0 -0.77698841060E+03 -0.65876266425E+01  0.70559375592E+02  0.78021447398E+03  0.12699999809E+01 0.  1.
       -4    1    3    3    0  502  0.77698841060E+03  0.65876266425E+01 -0.33621422378E+03  0.84663805974E+03  0.12699999809E+01 0. -1.
</event>
<event>
 5   0  0.3574092E-04  0.1706507E+04  0.7818609E-02  0.8757662E-01
        2   -1    0    0  501    0  0.00000000000E+00  0.00000000000E+00  0.15040727466E+04  0.15040727466E+04  0.25500000920E-02 0. -1.
       -2   -1    0    0    0  501  0.00000000000E+00  0.00000000000E+00 -0.48404682165E+03  0.48404682166E+03  0.25500000920E-02 0.  1.
    10030    2    1    2    0    0  0.00000000000E+00  0.00000000000E+00  0.10200259249E+04  0.19881195682E+04  0.17065071140E+04 0.  0.
        3    1    3    3  502    0 -0.50007716569E+03 -0.51598567236E+03 -0.26053526420E+02  0.71902516101E+03  0.10100000352E+00 0.  1.
       -3    1    3    3    0  502  0.50007716569E+03  0.51598567236E+03  0.10460794513E+04  0.12690944072E+04  0.10100000352E+00 0. -1.
</event>
<event>
 5   0  0.1920289E-04  0.1693435E+04  0.7818609E-02  0.8765117E-01
        1   -1    0    0  501    0  0.00000000000E+00  0.00000000000E+00  0.10699796269E+04  0.10699796269E+04  0.50400001928E-02 0. -1.
       -1   -1    0    0    0  501  0.00000000000E+00  0.00000000000E+00 -0.67004153573E+03  0.67004153574E+03  0.50400001928E-02 0.  1.
    10030    2    1    2    0    0  0.00000000000E+00  0.00000000000E+00  0.39993809117E+03  0.17400211627E+04  0.16934353161E+04 0.  0.
        4    1    3    3  502    0  0.36327302732E+03 -0.71584888902E+03  0.47667695184E+03  0.93361097551E+03  0.12699999809E+01 0. -1.
       -4    1    3    3    0  502 -0.36327302732E+03  0.71584888902E+03 -0.76738860670E+02  0.80641018714E+03  0.12699999809E+01 0.  1.
</event>
<event>
 5   0  0.1893284E-04  0.1696706E+04  0.7818609E-02  0.8763245E-01
        1   -1    0    0  501    0  0.00000000000E+00  0.00000000000E+00  0.11211804103E+04  0.11211804103E+04  0.50400001928E-02 0. -1.
       -1   -1    0    0    0  501  0.00000000000E+00  0.00000000000E+00 -0.64191500765E+03  0.64191500767E+03  0.50400001928E-02 0.  1.
    10030    2    1    2    0    0  0.00000000000E+00  0.00000000000E+00  0.47926540263E+03  0.17630954180E+04  0.16967056688E+04 0.  0.
        2    1    3    3  502    0 -0.59685366919E+03 -0.26194750819E+03  0.80388215551E+03  0.10349286543E+04  0.25500000920E-02 0. -1.
       -2    1    3    3    0  502  0.59685366919E+03  0.26194750819E+03 -0.32461675288E+03  0.72816676368E+03  0.25500000920E-02 0.  1.
</event>
<event>
 5   0  0.3573262E-04  0.1689037E+04  0.7818609E-02  0.8767642E-01
        2   -1    0    0  501    0  0.00000000000E+00  0.00000000000E+00  0.16956354980E+04  0.16956354980E+04  0.25500000920E-02 0. -1.
       -2   -1    0    0    0  501  0.00000000000E+00  0.00000000000E+00 -0.42061579728E+03  0.42061579729E+03  0.25500000920E-02 0.  1.
    10030    2    1    2    0    0  0.00000000000E+00  0.00000000000E+00  0.12750197007E+04  0.21162512953E+04  0.16890365027E+04 0.  0.
        5    1    3    3  502    0  0.81074546897E+03  0.16299094957E+02  0.34203222138E+03  0.88010340666E+03  0.46999998093E+01 0.  1.
       -5    1    3    3    0  502 -0.81074546897E+03 -0.16299094957E+02  0.93298747930E+03  0.12361478886E+04  0.46999998093E+01 0. -1.
</event>
<event>
 5   0  0.1930116E-04  0.1702783E+04  0.7818609E-02  0.8759779E-01
       -1   -1    0    0    0  501  0.00000000000E+00  0.00000000000E+00  0.58465029117E+03  0.58465029119E+03  0.50400001928E-02 0. -1.
        1   -1    0    0  501    0  0.00000000000E+00  0.00000000000E+00 -0.12398306430E+04  0.12398306430E+04  0.50400001928E-02 0.  1.
    10030    2    1    2    0    0  0.00000000000E+00  0.00000000000E+00 -0.65518035185E+03  0.18244809342E+04  0.17027828358E+04 0.  0.
        1    1    3    3  502    0  0.60894725731E+03  0.50678506213E+03  0.64946294304E+01  0.79226892001E+03  0.50400001928E-02 0. -1.
       -1    1    3    3    0  502 -0.60894725731E+03 -0.50678506213E+03 -0.66167498128E+03  0.10322120142E+04  0.50400001928E-02 0.  1.
</event>
<event>
 5   0  0.3574092E-04  0.1700415E+04  0.7818609E-02  0.8761127E-01
        2   -1    0    0  501    0  0.00000000000E+00  0.00000000000E+00  0.13913533793E+04  0.13913533793E+04  0.25500000920E-02 0. -1.
       -2   -1    0    0    0  501  0.00000000000E+00  0.00000000000E+00 -0.51953236657E+03  0.51953236658E+03  0.25500000920E-02 0.  1.
    10030    2    1    2    0    0  0.00000000000E+00  0.00000000000E+00  0.87182101276E+03  0.19108857459E+04  0.17004153774E+04 0.  0.
        3    1    3    3  502    0 -0.57016915940E+03  0.62965510346E+03  0.47634589296E+03  0.97389108199E+03  0.10100000352E+00 0.  1.
       -3    1    3    3    0  502  0.57016915940E+03 -0.62965510346E+03  0.39547511980E+03  0.93699466392E+03  0.10100000352E+00 0. -1.
</event>
<event>
 5   0  0.1893284E-04  0.1711558E+04  0.7818609E-02  0.8754800E-01
       -1   -1    0    0    0  501  0.00000000000E+00  0.00000000000E+00  0.44664748601E+03  0.44664748604E+03  0.50400001928E-02 0. -1.
        1   -1    0    0  501    0  0.00000000000E+00  0.00000000000E+00 -0.16396763381E+04  0.16396763381E+04  0.50400001928E-02 0.  1.
    10030    2    1    2    0    0  0.00000000000E+00  0.00000000000E+00 -0.11930288521E+04  0.20863238242E+04  0.17115575530E+04 0.  0.
        2    1    3    3  502    0  0.12196571467E+03 -0.38920130843E+03 -0.15135791076E+04  0.15675697781E+04  0.25500000920E-02 0.  1.
       -2    1    3    3    0  502 -0.12196571467E+03  0.38920130843E+03  0.32055025552E+03  0.51875404611E+03  0.25500000920E-02 0. -1.
</event>
<event>
 5   0  0.1920289E-04  0.1694941E+04  0.7818609E-02  0.8764255E-01
       -1   -1    0    0    0  501  0.00000000000E+00  0.00000000000E+00  0.84153946771E+03  0.84153946773E+03  0.50400001928E-02 0.  1.
        1   -1    0    0  501    0  0.00000000000E+00  0.00000000000E+00 -0.85344283668E+03  0.85344283669E+03  0.50400001928E-02 0. -1.
    10030    2    1    2    0    0  0.00000000000E+00  0.00000000000E+00 -0.11903368962E+02  0.16949823044E+04  0.16949405070E+04 0.  0.
        4    1    3    3  502    0  0.31972817219E+03  0.44908932675E+03 -0.64962654310E+03  0.85201149399E+03  0.12699999809E+01 0. -1.
       -4    1    3    3    0  502 -0.31972817219E+03 -0.44908932675E+03  0.63772317414E+03  0.84297081043E+03  0.12699999809E+01 0.  1.
</event>
<event>
 5   0  0.1317625E-04  0.1708690E+04  0.7818609E-02  0.8756424E-01
        3   -1    0    0  501    0  0.00000000000E+00  0.00000000000E+00  0.10233747401E+04  0.10233747451E+04  0.10100000352E+00 0.  1.
       -3   -1    0    0    0  501  0.00000000000E+00  0.00000000000E+00 -0.71323354738E+03  0.71323355453E+03  0.10100000352E+00 0. -1.
    10030    2    1    2    0    0  0.00000000000E+00  0.00000000000E+00  0.31014119273E+03  0.17366082996E+04  0.17086897983E+04 0.  0.
        4    1    3    3  502    0  0.80015175561E+03 -0.29795949527E+03  0.18523551748E+03  0.87369130857E+03  0.12699999809E+01 0.  1.
       -4    1    3    3    0  502 -0.80015175561E+03  0.29795949527E+03  0.12490567525E+03  0.86291699105E+03  0.12699999809E+01 0. -1.
</event>
<event>
 5   0  0.3605571E-04  0.1644664E+04  0.7818609E-02  0.8793569E-01
        2   -1    0    0  501    0  0.00000000000E+00  0.00000000000E+00  0.17375533437E+04  0.17375533437E+04  0.25500000920E-02 0.  1.
       -2   -1    0    0    0  501  0.00000000000E+00  0.00000000000E+00 -0.38918513529E+03  0.38918513530E+03  0.25500000920E-02 0. -1.
    10030    2    1    2    0    0  0.00000000000E+00  0.00000000000E+00  0.13483682084E+04  0.21267384790E+04  0.16446640182E+04 0.  0.
        4    1    3    3  502    0  0.41879079800E+03 -0.34785916501E+02  0.15882178922E+04  0.16428735431E+04  0.12699999809E+01 0.  1.
       -4    1    3    3    0  502 -0.41879079800E+03  0.34785916501E+02 -0.23984968383E+03  0.48386493591E+03  0.12699999809E+01 0. -1.
</event>
<event>
 5   0  0.1815663E-04  0.1711725E+04  0.7818609E-02  0.8754706E-01
       -1   -1    0    0    0  501  0.00000000000E+00  0.00000000000E+00  0.63591993834E+03  0.63591993836E+03  0.50400001928E-02 0.  1.
        1   -1    0    0  501    0  0.00000000000E+00  0.00000000000E+00 -0.11518748647E+04  0.11518748647E+04  0.50400001928E-02 0. -1.
    10030    2    1    2    0    0  0.00000000000E+00  0.00000000000E+00 -0.51595492637E+03  0.17877948031E+04  0.17117245023E+04 0.  0.
        5    1    3    3  502    0  0.71389102816E+03 -0.37250240460E+03 -0.56082865026E+03  0.98129980457E+03  0.46999998093E+01 0. -1.
       -5    1    3    3    0  502 -0.71389102816E+03  0.37250240460E+03  0.44873723889E+02  0.80649499850E+03  0.46999998093E+01 0.  1.
</event>
<event>
 5   0  0.3678896E-04  0.1747309E+04  0.7818609E-02  0.8734833E-01
       -2   -1    0    0    0  501  0.00000000000E+00  0.00000000000E+00  0.86991171539E+03  0.86991171539E+03  0.25500000920E-02 0. -1.
        2   -1    0    0  501    0  0.00000000000E+00  0.00000000000E+00 -0.87741337009E+03  0.87741337009E+03  0.25500000920E-02 0.  1.
    10030    2    1    2    0    0  0.00000000000E+00  0.00000000000E+00 -0.75016546991E+01  0.17473250855E+04  0.17473089823E+04 0.  0.
        2    1    3    3  502    0 -0.85925471635E+03  0.82420577548E+02  0.13101076006E+03  0.87308398132E+03  0.25500000920E-02 0.  1.
       -2    1    3    3    0  502  0.85925471635E+03 -0.82420577548E+02 -0.13851241476E+03  0.87424110417E+03  0.25500000920E-02 0. -1.
</event>
<event>
 5   0  0.1893284E-04  0.1674670E+04  0.7818609E-02  0.8775944E-01
       -1   -1    0    0    0  501  0.00000000000E+00  0.00000000000E+00  0.12107542075E+04  0.12107542075E+04  0.50400001928E-02 0.  1.
        1   -1    0    0  501    0  0.00000000000E+00  0.00000000000E+00 -0.57908525347E+03  0.57908525349E+03  0.50400001928E-02 0. -1.
    10030    2    1    2    0    0  0.00000000000E+00  0.00000000000E+00  0.63166895398E+03  0.17898394610E+04  0.16746700059E+04 0.  0.
        2    1    3    3  502    0  0.18826874747E+03  0.78633518571E+03  0.83240341500E+02  0.81283276264E+03  0.25500000920E-02 0. -1.
       -2    1    3    3    0  502 -0.18826874747E+03 -0.78633518571E+03  0.54842861248E+03  0.97700669832E+03  0.25500000920E-02 0.  1.
</event>
<event>
 5   0  0.1930116E-04  0.1690299E+04  0.7818609E-02  0.8766916E-01
        1   -1    0    0  501    0  0.00000000000E+00  0.00000000000E+00  0.15223098372E+04  0.15223098372E+04  0.50400001928E-02 0. -1.
       -1   -1    0    0    0  501  0.00000000000E+00  0.00000000000E+00 -0.46920662338E+03  0.46920662341E+03  0.50400001928E-02 0.  1.
    10030    2    1    2    0    0  0.00000000000E+00  0.00000000000E+00  0.10531032138E+04  0.19915164606E+04  0.16902992143E+04 0.  0.
        1    1    3    3  502    0 -0.48729951447E+03 -0.48585005953E+03 -0.51569168073E+02  0.69005106787E+03  0.50400001928E-02 0.  1.
       -1    1    3    3    0  502  0.48729951447E+03  0.48585005953E+03  0.11046723819E+04  0.13014653927E+04  0.50400001928E-02 0. -1.
</event>
<event>
 5   0  0.3678896E-04  0.1714025E+04  0.7818609E-02  0.8753405E-01
       -2   -1    0    0    0  501  0.00000000000E+00  0.00000000000E+00  0.48045090684E+03  0.48045090685E+03  0.25500000920E-02 0.  1.
        2   -1    0    0  501    0  0.00000000000E+00  0.00000000000E+00 -0.15287111816E+04  0.15287111816E+04  0.25500000920E-02 0. -1.
    10030    2    1    2    0    0  0.00000000000E+00  0.00000000000E+00 -0.10482602748E+04  0.20091620884E+04  0.17140252898E+04 0.  0.
        2    1    3    3  502    0 -0.83612389375E+03 -0.79610741387E+02 -0.32441151728E+03  0.90037984673E+03  0.25500000920E-02 0. -1.
       -2    1    3    3    0  502  0.83612389375E+03  0.79610741387E+02 -0.72384875747E+03  0.11087822417E+04  0.25500000920E-02 0.  1.
</event>
<event>
 5   0  0.3516723E-04  0.1678027E+04  0.7818609E-02  0.8773997E-01
        2   -1    0    0  501    0  0.00000000000E+00  0.00000000000E+00  0.56530430650E+03  0.56530430651E+03  0.25500000920E-02 0.  1.
       -2   -1    0    0    0  501  0.00000000000E+00  0.00000000000E+00 -0.12452470738E+04  0.12452470738E+04  0.25500000920E-02 0. -1.
    10030    2    1    2    0    0  0.00000000000E+00  0.00000000000E+00 -0.67994276727E+03  0.18105513803E+04  0.16780268573E+04 0.  0.
        1    1    3    3  502    0 -0.39713567336E+03  0.57357087520E+02  0.45506434786E+03  0.60670432606E+03  0.50400001928E-02 0.  1.
       -1    1    3    3    0  502  0.39713567336E+03 -0.57357087520E+02 -0.11350071151E+04  0.12038470542E+04  0.50400001928E-02 0. -1.
</event>
<event>
 5   0  0.1893284E-04  0.1703380E+04  0.7818609E-02  0.8759439E-01
       -1   -1    0    0    0  501  0.00000000000E+00  0.00000000000E+00  0.11022204773E+04  0.11022204773E+04  0.50400001928E-02 0.  1.
        1   -1    0    0  501    0  0.00000000000E+00  0.00000000000E+00 -0.65810432817E+03  0.65810432819E+03  0.50400001928E-02 0. -1.
    10030    2    1    2    0    0  0.00000000000E+00  0.00000000000E+00  0.44411614913E+03  0.17603248055E+04  0.17033802473E+04 0.  0.
        2    1    3    3  502    0  0.22523042091E+03 -0.27996669002E+03  0.10200549972E+04  0.10814907708E+04  0.25500000920E-02 0.  1.
       -2    1    3    3    0  502 -0.22523042091E+03  0.27996669002E+03 -0.57593884803E+03  0.67883403472E+03  0.25500000920E-02 0. -1.
</event>
<event>
 5   0  0.1930116E-04  0.1705433E+04  0.7818609E-02  0.8758272E-01
        1   -1    0    0  501    0  0.00000000000E+00  0.00000000000E+00  0.14552867542E+04  0.14552867542E+04  0.50400001928E-02 0. -1.
       -1   -1    0    0    0  501  0.00000000000E+00  0.00000000000E+00 -0.49964407684E+03  0.49964407686E+03  0.50400001928E-02 0.  1.
    10030    2    1    2    0    0  0.00000000000E+00  0.00000000000E+00  0.95564267738E+03  0.19549308311E+04  0.17054329736E+04 0.  0.
        1    1    3    3  502    0  0.63688025581E+03 -0.54865574044E+03  0.31375349488E+03  0.89726297000E+03  0.50400001928E-02 0.  1.
       -1    1    3    3    0  502 -0.63688025581E+03  0.54865574044E+03  0.64188918250E+03  0.10576678611E+04  0.50400001928E-02 0. -1.
</event>
<event>
 5   0  0.1920289E-04  0.1696513E+04  0.7818609E-02  0.8763355E-01
       -1   -1    0    0    0  501  0.00000000000E+00  0.00000000000E+00  0.62959363776E+03  0.62959363778E+03  0.50400001928E-02 0. -1.
        1   -1    0    0  501    0  0.00000000000E+00  0.00000000000E+00 -0.11428632322E+04  0.11428632322E+04  0.50400001928E-02 0.  1.
    10030    2    1    2    0    0  0.00000000000E+00  0.00000000000E+00 -0.51326959447E+03  0.17724568700E+04  0.16965133891E+04 0.  0.
        4    1    3    3  502    0 -0.32720996265E+03  0.78043682918E+03 -0.19580650662E+03  0.86861372596E+03  0.12699999809E+01 0. -1.
       -4    1    3    3    0  502  0.32720996265E+03 -0.78043682918E+03 -0.31746308786E+03  0.90384314405E+03  0.12699999809E+01 0.  1.
</event>
<event>
 5   0  0.3605571E-04  0.1672043E+04  0.7818609E-02  0.8777472E-01
        2   -1    0    0  501    0  0.00000000000E+00  0.00000000000E+00  0.32261600419E+04  0.32261600419E+04  0.25500000920E-02 0.  1.
       -2   -1    0    0    0  501  0.00000000000E+00  0.00000000000E+00 -0.21664510091E+03  0.21664510093E+03  0.25500000920E-02 0. -1.
    10030    2    1    2    0    0  0.00000000000E+00  0.00000000000E+00  0.30095149410E+04  0.34428051429E+04  0.16720427840E+04 0.  0.
        4    1    3    3  502    0 -0.31354470583E+03 -0.59439992290E+03  0.25287214280E+04  0.26164967465E+04  0.12699999809E+01 0.  1.
       -4    1    3    3    0  502  0.31354470583E+03  0.59439992290E+03  0.48079351302E+03  0.82630839640E+03  0.12699999809E+01 0. -1.
</event>
<event>
 5   0  0.1824538E-04  0.1696871E+04  0.7818609E-02  0.8763151E-01
       -1   -1    0    0    0  501  0.00000000000E+00  0.00000000000E+00  0.68291085265E+03  0.68291085267E+03  0.50400001928E-02 0. -1.
        1   -1    0    0  501    0  0.00000000000E+00  0.00000000000E+00 -0.10540805190E+04  0.10540805190E+04  0.50400001928E-02 0.  1.
    10030    2    1    2    0    0  0.00000000000E+00  0.00000000000E+00 -0.37116966634E+03  0.17369913717E+04  0.16968712691E+04 0.  0.
        3    1    3    3  502    0 -0.18826929236E+03 -0.31191695608E+03  0.59875963854E+03  0.70089273707E+03  0.10100000352E+00 0. -1.
       -3    1    3    3    0  502  0.18826929236E+03  0.31191695608E+03 -0.96992930489E+03  0.10360986346E+04  0.10100000352E+00 0.  1.
</event>
<event>
 5   0  0.1930116E-04  0.1670967E+04  0.7818609E-02  0.8778098E-01
       -1   -1    0    0    0  501  0.00000000000E+00  0.00000000000E+00  0.13308306289E+04  0.13308306289E+04  0.50400001928E-02 0. -1.
        1   -1    0    0  501    0  0.00000000000E+00  0.00000000000E+00 -0.52450898005E+03  0.52450898007E+03  0.50400001928E-02 0.  1.
    10030    2    1    2    0    0  0.00000000000E+00  0.00000000000E+00  0.80632164887E+03  0.18553396090E+04  0.16709669246E+04 0.  0.
        1    1    3    3  502    0 -0.96498639704E+02  0.74314024373E+03 -0.70086616874E+01  0.74941212339E+03  0.50400001928E-02 0.  1.
       -1    1    3    3    0  502  0.96498639704E+02 -0.74314024373E+03  0.81333031056E+03  0.11059274856E+04  0.50400001928E-02 0. -1.
</event>
<event>
 5   0  0.1930116E-04  0.1695430E+04  0.7818609E-02  0.8763975E-01
        1   -1    0    0  501    0  0.00000000000E+00  0.00000000000E+00  0.22362166223E+04  0.22362166223E+04  0.50400001928E-02 0.  1.
       -1   -1    0    0    0  501  0.00000000000E+00  0.00000000000E+00 -0.32135549225E+03  0.32135549229E+03  0.50400001928E-02 0. -1.
    10030    2    1    2    0    0  0.00000000000E+00  0.00000000000E+00  0.19148611300E+04  0.25575721146E+04  0.16954297314E+04 0.  0.
        1    1    3    3  502    0 -0.33804978039E+03  0.30165595825E+02  0.21292550743E+04  0.21561342233E+04  0.50400001928E-02 0.  1.
       -1    1    3    3    0  502  0.33804978039E+03 -0.30165595825E+02 -0.21439394431E+03  0.40143789130E+03  0.50400001928E-02 0. -1.
</event>
<event>
 5   0  0.3605571E-04  0.1700743E+04  0.7818609E-02  0.8760941E-01
       -2   -1    0    0    0  501  0.00000000000E+00  0.00000000000E+00  0.38427518818E+03  0.38427518818E+03  0.25500000920E-02 0. -1.
        2   -1    0    0  501    0  0.00000000000E+00  0.00000000000E+00 -0.18818070620E+04  0.18818070620E+04  0.25500000920E-02 0.  1.
    10030    2    1    2    0    0  0.00000000000E+00  0.00000000000E+00 -0.14975318739E+04  0.22660822502E+04  0.17007430881E+04 0.  0.
        4    1    3    3  502    0  0.75690843549E+03 -0.19744757050E+03 -0.30438422741E+03  0.83937315516E+03  0.12699999809E+01 0.  1.
       -4    1    3    3    0  502 -0.75690843549E+03  0.19744757050E+03 -0.11931476465E+04  0.14267090951E+04  0.12699999809E+01 0. -1.
</event>
<event>
 5   0  0.3574092E-04  0.1655676E+04  0.7818609E-02  0.8787056E-01
       -2   -1    0    0    0  501  0.00000000000E+00  0.00000000000E+00  0.11603162190E+04  0.11603162190E+04  0.25500000920E-02 0. -1.
        2   -1    0    0  501    0  0.00000000000E+00  0.00000000000E+00 -0.59062826705E+03  0.59062826706E+03  0.25500000920E-02 0.  1.
    10030    2    1    2    0    0  0.00000000000E+00  0.00000000000E+00  0.56968795194E+03  0.17509444861E+04  0.16556757625E+04 0.  0.
        3    1    3    3  502    0 -0.71384592381E+03 -0.53837298356E+02  0.72450764902E+03  0.10185213799E+04  0.10100000352E+00 0. -1.
       -3    1    3    3    0  502  0.71384592381E+03  0.53837298356E+02 -0.15481969708E+03  0.73242310616E+03  0.10100000352E+00 0.  1.
</event>
<event>
 5   0  0.3573262E-04  0.1537076E+04  0.7818609E-02  0.8860166E-01
        2   -1    0    0  501    0  0.00000000000E+00  0.00000000000E+00  0.49660861824E+03  0.49660861824E+03  0.25500000920E-02 0.  1.
       -2   -1    0    0    0  501  0.00000000000E+00  0.00000000000E+00 -0.11893680911E+04  0.11893680911E+04  0.25500000920E-02 0. -1.
    10030    2    1    2    0    0  0.00000000000E+00  0.00000000000E+00 -0.69275947284E+03  0.16859767093E+04  0.15370757227E+04 0.  0.
        5    1    3    3  502    0  0.37935048272E+02 -0.71968216982E+03 -0.63915823187E+03  0.96328958720E+03  0.46999998093E+01 0. -1.
       -5    1    3    3    0  502 -0.37935048272E+02  0.71968216982E+03 -0.53601240972E+02  0.72268712212E+03  0.46999998093E+01 0.  1.
</event>
<event>
 5   0  0.3574092E-04  0.1692737E+04  0.7818609E-02  0.8765518E-01
       -2   -1    0    0    0  501  0.00000000000E+00  0.00000000000E+00  0.51995280303E+03  0.51995280303E+03  0.25500000920E-02 0.  1.
        2   -1    0    0  501    0  0.00000000000E+00  0.00000000000E+00 -0.13777005768E+04  0.13777005768E+04  0.25500000920E-02 0. -1.
    10030    2    1    2    0    0  0.00000000000E+00  0.00000000000E+00 -0.85774777376E+03  0.18976533798E+04  0.16927365733E+04 0.  0.
        3    1    3    3  502    0 -0.22318207634E+03 -0.30743525815E+03  0.41899813416E+03  0.56558476269E+03  0.10100000352E+00 0.  1.
       -3    1    3    3    0  502  0.22318207634E+03  0.30743525815E+03 -0.12767459079E+04  0.13320686171E+04  0.10100000352E+00 0. -1.
</event>
<event>
 5   0  0.1815663E-04  0.1708229E+04  0.7818609E-02  0.8756685E-01
       -1   -1    0    0    0  501  0.00000000000E+00  0.00000000000E+00  0.69163903231E+03  0.69163903233E+03  0.50400001928E-02 0. -1.
        1   -1    0    0  501    0  0.00000000000E+00  0.00000000000E+00 -0.10547575304E+04  0.10547575304E+04  0.50400001928E-02 0.  1.
    10030    2    1    2    0    0  0.00000000000E+00  0.00000000000E+00 -0.36311849806E+03  0.17463965627E+04  0.17082288812E+04 0.  0.
        5    1    3    3  502    0  0.22276618737E+03 -0.12568640000E+03 -0.10146703752E+04  0.10464224318E+04  0.46999998093E+01 0.  1.
       -5    1    3    3    0  502 -0.22276618737E+03  0.12568640000E+03  0.65155187715E+03  0.69997413095E+03  0.46999998093E+01 0. -1.
</event>
<event>
 5   0  0.3573262E-04  0.1826989E+04  0.7818609E-02  0.8692077E-01
        2   -1    0    0  501    0  0.00000000000E+00  0.00000000000E+00  0.10538952516E+04  0.10538952516E+04  0.25500000920E-02 0.  1.
       -2   -1    0    0    0  501  0.00000000000E+00  0.00000000000E+00 -0.79179829171E+03  0.79179829171E+03  0.25500000920E-02 0. -1.
    10030    2    1    2    0    0  0.00000000000E+00  0.00000000000E+00  0.26209695986E+03  0.18456935433E+04  0.18269892828E+04 0.  0.
        5    1    3    3  502    0  0.46199294873E+03 -0.44982050266E+03  0.78472336135E+03  0.10156716069E+04  0.46999998093E+01 0. -1.
       -5    1    3    3    0  502 -0.46199294873E+03  0.44982050266E+03 -0.52262640149E+03  0.83002193635E+03  0.46999998093E+01 0.  1.
</event>
<event>
 5   0  0.3678896E-04  0.1717269E+04  0.7818609E-02  0.8751576E-01
        2   -1    0    0  501    0  0.00000000000E+00  0.00000000000E+00  0.95005496771E+03  0.95005496771E+03  0.25500000920E-02 0. -1.
       -2   -1    0    0    0  501  0.00000000000E+00  0.00000000000E+00 -0.77601103067E+03  0.77601103067E+03  0.25500000920E-02 0.  1.
    10030    2    1    2    0    0  0.00000000000E+00  0.00000000000E+00  0.17404393704E+03  0.17260659984E+04  0.17172689186E+04 0.  0.
        2    1    3    3  502    0 -0.42192114333E+03 -0.16303963709E+02  0.83849480225E+03  0.93880605230E+03  0.25500000920E-02 0. -1.
       -2    1    3    3    0  502  0.42192114333E+03  0.16303963709E+02 -0.66445086522E+03  0.78725994609E+03  0.25500000920E-02 0.  1.
</event>
<event>
 5   0  0.3573262E-04  0.1701040E+04  0.7818609E-02  0.8760772E-01
       -2   -1    0    0    0  501  0.00000000000E+00  0.00000000000E+00  0.78030069313E+03  0.78030069314E+03  0.25500000920E-02 0.  1.
        2   -1    0    0  501    0  0.00000000000E+00  0.00000000000E+00 -0.92705794149E+03  0.92705794150E+03  0.25500000920E-02 0. -1.
    10030    2    1    2    0    0  0.00000000000E+00  0.00000000000E+00 -0.14675724836E+03  0.17073586346E+04  0.17010396284E+04 0.  0.
        5    1    3    3  502    0  0.79083377089E+01  0.79659608567E+03  0.22561047227E+03  0.82797949293E+03  0.46999998093E+01 0.  1.
       -5    1    3    3    0  502 -0.79083377089E+01 -0.79659608567E+03 -0.37236772063E+03  0.87937914171E+03  0.46999998093E+01 0. -1.
</event>
<event>
 5   0  0.1930116E-04  0.1705654E+04  0.7818609E-02  0.8758146E-01
       -1   -1    0    0    0  501  0.00000000000E+00  0.00000000000E+00  0.75207820480E+03  0.75207820482E+03  0.50400001928E-02 0.  1.
        1   -1    0    0  501    0  0.00000000000E+00  0.00000000000E+00 -0.96707233567E+03  0.96707233568E+03  0.50400001928E-02 0. -1.
    10030    2    1    2    0    0  0.00000000000E+00  0.00000000000E+00 -0.21499413087E+03  0.17191505405E+04  0.17056541574E+04 0.  0.
        1    1    3    3  502    0  0.63960311564E+03  0.39632572543E+03 -0.51210567646E+03  0.91017495574E+03  0.50400001928E-02 0. -1.
       -1    1    3    3    0  502 -0.63960311564E+03 -0.39632572543E+03  0.29711154559E+03  0.80897558475E+03  0.50400001928E-02 0.  1.
</event>
<event>
 5   0  0.3678896E-04  0.1666457E+04  0.7818609E-02  0.8780730E-01
       -2   -1    0    0    0  501  0.00000000000E+00  0.00000000000E+00  0.16257799994E+04  0.16257799994E+04  0.25500000920E-02 0.  1.
        2   -1    0    0  501    0  0.00000000000E+00  0.00000000000E+00 -0.42703812688E+03  0.42703812688E+03  0.25500000920E-02 0. -1.
    10030    2    1    2    0    0  0.00000000000E+00  0.00000000000E+00  0.11987418726E+04  0.20528181263E+04  0.16664573750E+04 0.  0.
        2    1    3    3  502    0 -0.67872711176E+03  0.44158593295E+03  0.35734724007E+03  0.88507947576E+03  0.25500000920E-02 0. -1.
       -2    1    3    3    0  502  0.67872711176E+03 -0.44158593295E+03  0.84139463250E+03  0.11677386506E+04  0.25500000920E-02 0.  1.
</event>
<event>
 5   0  0.1815663E-04  0.1692273E+04  0.7818609E-02  0.8765783E-01
        1   -1    0    0  501    0  0.00000000000E+00  0.00000000000E+00  0.86862664940E+03  0.86862664941E+03  0.50400001928E-02 0. -1.
       -1   -1    0    0    0  501  0.00000000000E+00  0.00000000000E+00 -0.82422905749E+03  0.82422905751E+03  0.50400001928E-02 0.  1.
    10030    2    1    2    0    0  0.00000000000E+00  0.00000000000E+00  0.44397591910E+02  0.16928557069E+04  0.16922734112E+04 0.  0.
        5    1    3    3  502    0  0.52392097041E+03  0.94066207976E+02  0.68013598683E+03  0.86368320888E+03  0.46999998093E+01 0. -1.
       -5    1    3    3    0  502 -0.52392097041E+03 -0.94066207976E+02 -0.63573839493E+03  0.82917249804E+03  0.46999998093E+01 0.  1.
</event>
<event>
 5   0  0.1824538E-04  0.1677349E+04  0.7818609E-02  0.8774389E-01
       -1   -1    0    0    0  501  0.00000000000E+00  0.00000000000E+00  0.10397962166E+04  0.10397962166E+04  0.50400001928E-02 0. -1.
        1   -1    0    0  501    0  0.00000000000E+00  0.00000000000E+00 -0.67645492321E+03  0.67645492323E+03  0.50400001928E-02 0.  1.
    10030    2    1    2    0    0  0.00000000000E+00  0.00000000000E+00  0.36334129334E+03  0.17162511398E+04  0.16773494208E+04 0.  0.
        3    1    3    3  502    0 -0.65893536602E+03 -0.33604016733E+03 -0.22278999906E+03  0.77249867608E+03  0.10100000352E+00 0. -1.
       -3    1    3    3    0  502  0.65893536602E+03  0.33604016733E+03  0.58613129240E+03  0.94375246373E+03  0.10100000352E+00 0.  1.
</event>
<event>
 5   0  0.3605571E-04  0.1665568E+04  0.7818609E-02  0.8781250E-01
       -2   -1    0    0    0  501  0.00000000000E+00  0.00000000000E+00  0.11920570457E+04  0.11920570457E+04  0.25500000920E-02 0. -1.
        2   -1    0    0  501    0  0.00000000000E+00  0.00000000000E+00 -0.58179198890E+03  0.58179198891E+03  0.25500000920E-02 0.  1.
    10030    2    1    2    0    0  0.00000000000E+00  0.00000000000E+00  0.61026505678E+03  0.17738490346E+04  0.16655680586E+04 0.  0.
        4    1    3    3  502    0 -0.25560882892E+03 -0.18567440730E+03  0.11257559905E+04  0.11692472031E+04  0.12699999809E+01 0. -1.
       -4    1    3    3    0  502  0.25560882892E+03  0.18567440730E+03 -0.51549093373E+03  0.60460183146E+03  0.12699999809E+01 0.  1.
</event>
<event>
 5   0  0.1815663E-04  0.1669241E+04  0.7818609E-02  0.8779104E-01
       -1   -1    0    0    0  501  0.00000000000E+00  0.00000000000E+00  0.27494062014E+03  0.27494062019E+03  0.50400001928E-02 0. -1.
        1   -1    0    0  501    0  0.00000000000E+00  0.00000000000E+00 -0.25336074117E+04  0.25336074117E+04  0.50400001928E-02 0.  1.
    10030    2    1    2    0    0  0.00000000000E+00  0.00000000000E+00 -0.22586667915E+04  0.28085480319E+04  0.16692412564E+04 0.  0.
        5    1    3    3  502    0  0.42433110626E+03  0.24814886118E+02  0.79159712328E+02  0.43238988930E+03  0.46999998093E+01 0. -1.
       -5    1    3    3    0  502 -0.42433110626E+03 -0.24814886118E+02 -0.23378265039E+04  0.23761581426E+04  0.46999998093E+01 0.  1.
</event>
<event>
 5   0  0.1930116E-04  0.1698851E+04  0.7818609E-02  0.8762020E-01
        1   -1    0    0  501    0  0.00000000000E+00  0.00000000000E+00  0.13216391767E+04  0.13216391767E+04  0.50400001928E-02 0. -1.
       -1   -1    0    0    0  501  0.00000000000E+00  0.00000000000E+00 -0.54593095026E+03  0.54593095028E+03  0.50400001928E-02 0.  1.
    10030    2    1    2    0    0  0.00000000000E+00  0.00000000000E+00  0.77570822640E+03  0.18675701270E+04  0.16988510607E+04 0.  0.
        1    1    3    3  502    0 -0.25763877120E+03  0.18484872683E+02  0.12774184751E+04  0.13032718011E+04  0.50400001928E-02 0. -1.
       -1    1    3    3    0  502  0.25763877120E+03 -0.18484872683E+02 -0.50171024868E+03  0.56429832589E+03  0.50400001928E-02 0.  1.
</event>
<event>
 5   0  0.1815663E-04  0.1680145E+04  0.7818609E-02  0.8772770E-01
        1   -1    0    0  501    0  0.00000000000E+00  0.00000000000E+00  0.70154248045E+03  0.70154248047E+03  0.50400001928E-02 0.  1.
       -1   -1    0    0    0  501  0.00000000000E+00  0.00000000000E+00 -0.10059576819E+04  0.10059576819E+04  0.50400001928E-02 0. -1.
    10030    2    1    2    0    0  0.00000000000E+00  0.00000000000E+00 -0.30441520145E+03  0.17075001624E+04  0.16801452883E+04 0.  0.
        5    1    3    3  502    0 -0.56562123823E+03  0.28551926919E+03 -0.71277798582E+03  0.95368924985E+03  0.46999998093E+01 0. -1.
       -5    1    3    3    0  502  0.56562123823E+03 -0.28551926919E+03  0.40836278437E+03  0.75381091254E+03  0.46999998093E+01 0.  1.
</event>
<event>
 5   0  0.3573262E-04  0.1701759E+04  0.7818609E-02  0.8760362E-01
       -2   -1    0    0    0  501  0.00000000000E+00  0.00000000000E+00  0.13021563092E+04  0.13021563092E+04  0.25500000920E-02 0. -1.
        2   -1    0    0  501    0  0.00000000000E+00  0.00000000000E+00 -0.55599766721E+03  0.55599766722E+03  0.25500000920E-02 0.  1.
    10030    2    1    2    0    0  0.00000000000E+00  0.00000000000E+00  0.74615864203E+03  0.18581539765E+04  0.17017589374E+04 0.  0.
        5    1    3    3  502    0 -0.41266760674E+03  0.72296090355E+03  0.18080918088E+03  0.85186916343E+03  0.46999998093E+01 0. -1.
       -5    1    3    3    0  502  0.41266760674E+03 -0.72296090355E+03  0.56534946115E+03  0.10062848130E+04  0.46999998093E+01 0.  1.
</event>
<event>
 5   0  0.1920289E-04  0.1690434E+04  0.7818609E-02  0.8766839E-01
        1   -1    0    0  501    0  0.00000000000E+00  0.00000000000E+00  0.90013112989E+03  0.90013112990E+03  0.50400001928E-02 0.  1.
       -1   -1    0    0    0  501  0.00000000000E+00  0.00000000000E+00 -0.79365255824E+03  0.79365255825E+03  0.50400001928E-02 0. -1.
    10030    2    1    2    0    0  0.00000000000E+00  0.00000000000E+00  0.10647857165E+03  0.16937836882E+04  0.16904335231E+04 0.  0.
        4    1    3    3  502    0 -0.51232977602E+03  0.59062898723E+03  0.37491347443E+03  0.86711367546E+03  0.12699999809E+01 0.  1.
       -4    1    3    3    0  502  0.51232977602E+03 -0.59062898723E+03 -0.26843490278E+03  0.82667001270E+03  0.12699999809E+01 0. -1.
</event>
<event>
 5   0  0.1317625E-04  0.1570962E+04  0.7818609E-02  0.8838588E-01
       -3   -1    0    0    0  501  0.00000000000E+00  0.00000000000E+00  0.85776478267E+03  0.85776478862E+03  0.10100000352E+00 0.  1.
        3   -1    0    0  501    0  0.00000000000E+00  0.00000000000E+00 -0.71928893360E+03  0.71928894069E+03  0.10100000352E+00 0. -1.
    10030    2    1    2    0    0  0.00000000000E+00  0.00000000000E+00  0.13847584908E+03  0.15770537293E+04  0.15709624134E+04 0.  0.
        2    1    3    3  502    0  0.10587165881E+03 -0.28325227065E+02  0.85005170782E+03  0.85708752914E+03  0.25500000920E-02 0.  1.
       -2    1    3    3    0  502 -0.10587165881E+03  0.28325227065E+02 -0.71157585875E+03  0.71996620017E+03  0.25500000920E-02 0. -1.
</event>
<event>
 5   0  0.3573262E-04  0.1713462E+04  0.7818609E-02  0.8753724E-01
        2   -1    0    0  501    0  0.00000000000E+00  0.00000000000E+00  0.11973109436E+04  0.11973109436E+04  0.25500000920E-02 0. -1.
       -2   -1    0    0    0  501  0.00000000000E+00  0.00000000000E+00 -0.61303019724E+03  0.61303019725E+03  0.25500000920E-02 0.  1.
    10030    2    1    2    0    0  0.00000000000E+00  0.00000000000E+00  0.58428074639E+03  0.18103411409E+04  0.17134617171E+04 0.  0.
        5    1    3    3  502    0 -0.45298300086E+03 -0.43490553865E+03  0.90786788169E+03  0.11038942917E+04  0.46999998093E+01 0. -1.
       -5    1    3    3    0  502  0.45298300086E+03  0.43490553865E+03 -0.32358713529E+03  0.70644684920E+03  0.46999998093E+01 0.  1.
</event>
<event>
 5   0  0.1815663E-04  0.1704587E+04  0.7818609E-02  0.8758752E-01
       -1   -1    0    0    0  501  0.00000000000E+00  0.00000000000E+00  0.45557886253E+03  0.45557886256E+03  0.50400001928E-02 0. -1.
        1   -1    0    0  501    0  0.00000000000E+00  0.00000000000E+00 -0.15944648203E+04  0.15944648203E+04  0.50400001928E-02 0.  1.
    10030    2    1    2    0    0  0.00000000000E+00  0.00000000000E+00 -0.11388859578E+04  0.20500436829E+04  0.17045873040E+04 0.  0.
        5    1    3    3  502    0 -0.15353818531E+03  0.66657776444E+03 -0.11808908386E+04  0.13647069843E+04  0.46999998093E+01 0.  1.
       -5    1    3    3    0  502  0.15353818531E+03 -0.66657776444E+03  0.42004880805E+02  0.68533669857E+03  0.46999998093E+01 0. -1.
</event>
<event>
 5   0  0.3605571E-04  0.1704500E+04  0.7818609E-02  0.8758802E-01
       -2   -1    0    0    0  501  0.00000000000E+00  0.00000000000E+00  0.52176080033E+03  0.52176080033E+03  0.25500000920E-02 0. -1.
        2   -1    0    0  501    0  0.00000000000E+00  0.00000000000E+00 -0.13920741224E+04  0.13920741224E+04  0.25500000920E-02 0.  1.
    10030    2    1    2    0    0  0.00000000000E+00  0.00000000000E+00 -0.87031332212E+03  0.19138349228E+04  0.17044995843E+04 0.  0.
        4    1    3    3  502    0 -0.79271107981E+03 -0.28380817962E+03 -0.28708930544E+03  0.88958407196E+03  0.12699999809E+01 0. -1.
       -4    1    3    3    0  502  0.79271107981E+03  0.28380817962E+03 -0.58322401668E+03  0.10242508508E+04  0.12699999809E+01 0.  1.
</event>
<event>
 5   0  0.1920289E-04  0.1715428E+04  0.7818609E-02  0.8752614E-01
       -1   -1    0    0    0  501  0.00000000000E+00  0.00000000000E+00  0.10786425101E+04  0.10786425101E+04  0.50400001928E-02 0. -1.
        1   -1    0    0  501    0  0.00000000000E+00  0.00000000000E+00 -0.68203625315E+03  0.68203625317E+03  0.50400001928E-02 0.  1.
    10030    2    1    2    0    0  0.00000000000E+00  0.00000000000E+00  0.39660625698E+03  0.17606787633E+04  0.17154279887E+04 0.  0.
        4    1    3    3  502    0 -0.20026000295E+03  0.78664302974E+03  0.48266812114E+03  0.94439475490E+03  0.12699999809E+01 0. -1.
       -4    1    3    3    0  502  0.20026000295E+03 -0.78664302974E+03 -0.86061864163E+02  0.81628400841E+03  0.12699999809E+01 0.  1.
</event>
<event>
 5   0  0.1893284E-04  0.1690946E+04  0.7818609E-02  0.8766545E-01
        1   -1    0    0  501    0  0.00000000000E+00  0.00000000000E+00  0.67304787173E+03  0.67304787175E+03  0.50400001928E-02 0. -1.
       -1   -1    0    0    0  501  0.00000000000E+00  0.00000000000E+00 -0.10620714551E+04  0.10620714551E+04  0.50400001928E-02 0.  1.
    10030    2    1    2    0    0  0.00000000000E+00  0.00000000000E+00 -0.38902358335E+03  0.17351193268E+04  0.16909464007E+04 0.  0.
        2    1    3    3  502    0  0.82398176297E+03  0.18010893145E+03 -0.25469336680E+03  0.88105271352E+03  0.25500000920E-02 0.  1.
       -2    1    3    3    0  502 -0.82398176297E+03 -0.18010893145E+03 -0.13433021655E+03  0.85406661332E+03  0.25500000920E-02 0. -1.
</event>
<event>
 5   0  0.1824538E-04  0.1703765E+04  0.7818609E-02  0.8759220E-01
        1   -1    0    0  501    0  0.00000000000E+00  0.00000000000E+00  0.35626511891E+03  0.35626511895E+03  0.50400001928E-02 0. -1.
       -1   -1    0    0    0  501  0.00000000000E+00  0.00000000000E+00 -0.20369763944E+04  0.20369763944E+04  0.50400001928E-02 0.  1.
    10030    2    1    2    0    0  0.00000000000E+00  0.00000000000E+00 -0.16807112755E+04  0.23932415133E+04  0.17037648164E+04 0.  0.
        3    1    3    3  502    0 -0.24782526014E+03  0.74058307520E+03 -0.36230462509E+03  0.86089796282E+03  0.10100000352E+00 0. -1.
       -3    1    3    3    0  502  0.24782526014E+03 -0.74058307520E+03 -0.13184066504E+04  0.15323435505E+04  0.10100000352E+00 0.  1.
</event>
<event>
 5   0  0.3574092E-04  0.1700779E+04  0.7818609E-02  0.8760920E-01
       -2   -1    0    0    0  501  0.00000000000E+00  0.00000000000E+00  0.23866568811E+04  0.23866568811E+04  0.25500000920E-02 0. -1.
        2   -1    0    0  501    0  0.00000000000E+00  0.00000000000E+00 -0.30300232815E+03  0.30300232816E+03  0.25500000920E-02 0.  1.
    10030    2    1    2    0    0  0.00000000000E+00  0.00000000000E+00  0.20836545529E+04  0.26896592092E+04  0.17007793407E+04 0.  0.
        3    1    3    3  502    0 -0.80380608569E+03 -0.22325099371E+03  0.78092839496E+03  0.11427136115E+04  0.10100000352E+00 0.  1.
       -3    1    3    3    0  502  0.80380608569E+03  0.22325099371E+03  0.13027261579E+04  0.15469455977E+04  0.10100000352E+00 0. -1.
</event>
<event>
 5   0  0.1893284E-04  0.1573875E+04  0.7818609E-02  0.8836760E-01
       -1   -1    0    0    0  501  0.00000000000E+00  0.00000000000E+00  0.45598225675E+03  0.45598225678E+03  0.50400001928E-02 0.  1.
        1   -1    0    0  501    0  0.00000000000E+00  0.00000000000E+00 -0.13581029865E+04  0.13581029865E+04  0.50400001928E-02 0. -1.
    10030    2    1    2    0    0  0.00000000000E+00  0.00000000000E+00 -0.90212072974E+03  0.18140852433E+04  0.15738752996E+04 0.  0.
        2    1    3    3  502    0  0.64430365412E+03 -0.39813055945E+03 -0.69728972789E+03  0.10294892451E+04  0.25500000920E-02 0. -1.
       -2    1    3    3    0  502 -0.64430365412E+03  0.39813055945E+03 -0.20483100186E+03  0.78459599821E+03  0.25500000920E-02 0.  1.
</event>
<event>
 5   0  0.1893284E-04  0.1676066E+04  0.7818609E-02  0.8775134E-01
        1   -1    0    0  501    0  0.00000000000E+00  0.00000000000E+00  0.11510888780E+04  0.11510888781E+04  0.50400001928E-02 0.  1.
       -1   -1    0    0    0  501  0.00000000000E+00  0.00000000000E+00 -0.61011718211E+03  0.61011718213E+03  0.50400001928E-02 0. -1.
    10030    2    1    2    0    0  0.00000000000E+00  0.00000000000E+00  0.54097169593E+03  0.17612060602E+04  0.16760657537E+04 0.  0.
        2    1    3    3  502    0  0.33580210754E+03  0.70282763972E+03  0.59533254001E+03  0.98038287408E+03  0.25500000920E-02 0.  1.
       -2    1    3    3    0  502 -0.33580210754E+03 -0.70282763972E+03 -0.54360844078E+02  0.78082318610E+03  0.25500000920E-02 0. -1.
</event>
<event>
 5   0  0.3573262E-04  0.1681080E+04  0.7818609E-02  0.8772229E-01
        2   -1    0    0  501    0  0.00000000000E+00  0.00000000000E+00  0.22419490599E+04  0.22419490599E+04  0.25500000920E-02 0. -1.
       -2   -1    0    0    0  501  0.00000000000E+00  0.00000000000E+00 -0.31513102016E+03  0.31513102017E+03  0.25500000920E-02 0.  1.
    10030    2    1    2    0    0  0.00000000000E+00  0.00000000000E+00  0.19268180397E+04  0.25570800801E+04  0.16810802413E+04 0.  0.
        5    1    3    3  502    0  0.25657629670E+03  0.55067399606E+03  0.18469696945E+04  0.19443231183E+04  0.46999998093E+01 0. -1.
       -5    1    3    3    0  502 -0.25657629670E+03 -0.55067399606E+03  0.79848345233E+02  0.61275696177E+03  0.46999998093E+01 0.  1.
</event>
<event>
 5   0  0.3605571E-04  0.1660420E+04  0.7818609E-02  0.8784266E-01
        2   -1    0    0  501    0  0.00000000000E+00  0.00000000000E+00  0.17671388019E+04  0.17671388019E+04  0.25500000920E-02 0. -1.
       -2   -1    0    0    0  501  0.00000000000E+00  0.00000000000E+00 -0.39003639479E+03  0.39003639480E+03  0.25500000920E-02 0.  1.
    10030    2    1    2    0    0  0.00000000000E+00  0.00000000000E+00  0.13771024071E+04  0.21571751967E+04  0.16604197631E+04 0.  0.
        4    1    3    3  502    0  0.78907751750E+03  0.50758062511E+02  0.35981349415E+03  0.86872727194E+03  0.12699999809E+01 0.  1.
       -4    1    3    3    0  502 -0.78907751750E+03 -0.50758062511E+02  0.10172889130E+04  0.12884479248E+04  0.12699999809E+01 0. -1.
</event>
<event>
 5   0  0.1893284E-04  0.1673152E+04  0.7818609E-02  0.8776827E-01
        1   -1    0    0  501    0  0.00000000000E+00  0.00000000000E+00  0.10012109868E+04  0.10012109868E+04  0.50400001928E-02 0. -1.
       -1   -1    0    0    0  501  0.00000000000E+00  0.00000000000E+00 -0.69901276517E+03  0.69901276519E+03  0.50400001928E-02 0.  1.
    10030    2    1    2    0    0  0.00000000000E+00  0.00000000000E+00  0.30219822159E+03  0.17002237520E+04  0.16731518286E+04 0.  0.
        2    1    3    3  502    0 -0.51580995224E+03 -0.38628119611E+03 -0.39099868083E+03  0.75375927040E+03  0.25500000920E-02 0.  1.
       -2    1    3    3    0  502  0.51580995224E+03  0.38628119611E+03  0.69319690242E+03  0.94646448155E+03  0.25500000920E-02 0. -1.
</event>
<event>
 5   0  0.1824538E-04  0.1698784E+04  0.7818609E-02  0.8762058E-01
       -1   -1    0    0    0  501  0.00000000000E+00  0.00000000000E+00  0.52817045589E+03  0.52817045592E+03  0.50400001928E-02 0. -1.
        1   -1    0    0  501    0  0.00000000000E+00  0.00000000000E+00 -0.13659741391E+04  0.13659741391E+04  0.50400001928E-02 0.  1.
    10030    2    1    2    0    0  0.00000000000E+00  0.00000000000E+00 -0.83780368318E+03  0.18941445950E+04  0.16987844876E+04 0.  0.
        3    1    3    3  502    0 -0.57333236569E+03 -0.85568427913E+02 -0.11111320357E+04  0.12532543112E+04  0.10100000352E+00 0.  1.
       -3    1    3    3    0  502  0.57333236569E+03  0.85568427913E+02  0.27332835256E+03  0.64089028383E+03  0.10100000352E+00 0. -1.
</event>
<event>
 5   0  0.1824538E-04  0.1733828E+04  0.7818609E-02  0.8742303E-01
       -1   -1    0    0    0  501  0.00000000000E+00  0.00000000000E+00  0.38894400235E+03  0.38894400239E+03  0.50400001928E-02 0. -1.
        1   -1    0    0  501    0  0.00000000000E+00  0.00000000000E+00 -0.19322578231E+04  0.19322578231E+04  0.50400001928E-02 0.  1.
    10030    2    1    2    0    0  0.00000000000E+00  0.00000000000E+00 -0.15433138207E+04  0.23212018255E+04  0.17338282399E+04 0.  0.
        3    1    3    3  502    0  0.73453925627E+03  0.34105842103E+03 -0.35756408670E+03  0.88528009797E+03  0.10100000352E+00 0.  1.
       -3    1    3    3    0  502 -0.73453925627E+03 -0.34105842103E+03 -0.11857497340E+04  0.14359217275E+04  0.10100000352E+00 0. -1.
</event>
<event>
 5   0  0.3678896E-04  0.1699406E+04  0.7818609E-02  0.8761703E-01
       -2   -1    0    0    0  501  0.00000000000E+00  0.00000000000E+00  0.65327048452E+03  0.65327048453E+03  0.25500000920E-02 0. -1.
        2   -1    0    0  501    0  0.00000000000E+00  0.00000000000E+00 -0.11052008259E+04  0.11052008259E+04  0.25500000920E-02 0.  1.
    10030    2    1    2    0    0  0.00000000000E+00  0.00000000000E+00 -0.45193034134E+03  0.17584713104E+04  0.16994058715E+04 0.  0.
        2    1    3    3  502    0 -0.55412251508E+03  0.31269075587E+03  0.35678542140E+03  0.72946768774E+03  0.25500000920E-02 0. -1.
       -2    1    3    3    0  502  0.55412251508E+03 -0.31269075587E+03 -0.80871576274E+03  0.10290036227E+04  0.25500000920E-02 0.  1.
</event>
<event>
 5   0  0.1930116E-04  0.1697772E+04  0.7818609E-02  0.8762636E-01
       -1   -1    0    0    0  501  0.00000000000E+00  0.00000000000E+00  0.40755645434E+03  0.40755645437E+03  0.50400001928E-02 0.  1.
        1   -1    0    0  501    0  0.00000000000E+00  0.00000000000E+00 -0.17681161628E+04  0.17681161628E+04  0.50400001928E-02 0. -1.
    10030    2    1    2    0    0  0.00000000000E+00  0.00000000000E+00 -0.13605597084E+04  0.21756726171E+04  0.16977716621E+04 0.  0.
        1    1    3    3  502    0  0.56179320298E+03 -0.24606626900E+03  0.71819875172E+02  0.61750976199E+03  0.50400001928E-02 0.  1.
       -1    1    3    3    0  502 -0.56179320298E+03  0.24606626900E+03 -0.14323795836E+04  0.15581628552E+04  0.50400001928E-02 0. -1.
</event>
<event>
 5   0  0.3573262E-04  0.1699572E+04  0.7818609E-02  0.8761609E-01
       -2   -1    0    0    0  501  0.00000000000E+00  0.00000000000E+00  0.50689224447E+03  0.50689224448E+03  0.25500000920E-02 0. -1.
        2   -1    0    0  501    0  0.00000000000E+00  0.00000000000E+00 -0.14246344204E+04  0.14246344204E+04  0.25500000920E-02 0.  1.
    10030    2    1    2    0    0  0.00000000000E+00  0.00000000000E+00 -0.91774217593E+03  0.19315266649E+04  0.16995718742E+04 0.  0.
        5    1    3    3  502    0  0.11695173291E+03  0.19872376681E+03  0.47064400342E+03  0.52411516986E+03  0.46999998093E+01 0. -1.
       -5    1    3    3    0  502 -0.11695173291E+03 -0.19872376681E+03 -0.13883861793E+04  0.14074114950E+04  0.46999998093E+01 0.  1.
</event>
<event>
 5   0  0.1824538E-04  0.1672442E+04  0.7818609E-02  0.8777240E-01
       -1   -1    0    0    0  501  0.00000000000E+00  0.00000000000E+00  0.64190541302E+03  0.64190541304E+03  0.50400001928E-02 0.  1.
        1   -1    0    0  501    0  0.00000000000E+00  0.00000000000E+00 -0.10893588122E+04  0.10893588122E+04  0.50400001928E-02 0. -1.
    10030    2    1    2    0    0  0.00000000000E+00  0.00000000000E+00 -0.44745339921E+03  0.17312642253E+04  0.16724417100E+04 0.  0.
        3    1    3    3  502    0 -0.11952503301E+03 -0.50634331438E+03  0.45397126245E+03  0.69047788007E+03  0.10100000352E+00 0.  1.
       -3    1    3    3    0  502  0.11952503301E+03  0.50634331438E+03 -0.90142466167E+03  0.10407863452E+04  0.10100000352E+00 0. -1.
</event>
<event>
 5   0  0.3678896E-04  0.1710842E+04  0.7818609E-02  0.8755205E-01
       -2   -1    0    0    0  501  0.00000000000E+00  0.00000000000E+00  0.82863151373E+03  0.82863151373E+03  0.25500000920E-02 0. -1.
        2   -1    0    0  501    0  0.00000000000E+00  0.00000000000E+00 -0.88307702423E+03  0.88307702423E+03  0.25500000920E-02 0.  1.
    10030    2    1    2    0    0  0.00000000000E+00  0.00000000000E+00 -0.54445510506E+02  0.17117085380E+04  0.17108424256E+04 0.  0.
        2    1    3    3  502    0  0.24690603101E+03  0.44413543704E+03 -0.71570379556E+03  0.87775326690E+03  0.25500000920E-02 0.  1.
       -2    1    3    3    0  502 -0.24690603101E+03 -0.44413543704E+03  0.66125828505E+03  0.83395527106E+03  0.25500000920E-02 0. -1.
</event>
<event>
 5   0  0.1317625E-04  0.1688268E+04  0.7818609E-02  0.8768084E-01
        3   -1    0    0  501    0  0.00000000000E+00  0.00000000000E+00  0.11261214573E+04  0.11261214618E+04  0.10100000352E+00 0. -1.
       -3   -1    0    0    0  501  0.00000000000E+00  0.00000000000E+00 -0.63275765373E+03  0.63275766180E+03  0.10100000352E+00 0.  1.
    10030    2    1    2    0    0  0.00000000000E+00  0.00000000000E+00  0.49336380358E+03  0.17588791236E+04  0.16882677302E+04 0.  0.
        5    1    3    3  502    0 -0.73381143626E+03  0.12854580263E+03 -0.16682757847E+03  0.76345057357E+03  0.46999998093E+01 0.  1.
       -5    1    3    3    0  502  0.73381143626E+03 -0.12854580263E+03  0.66019138205E+03  0.99542855006E+03  0.46999998093E+01 0. -1.
</event>
<event>
 5   0  0.3573262E-04  0.1702067E+04  0.7818609E-02  0.8760186E-01
        2   -1    0    0  501    0  0.00000000000E+00  0.00000000000E+00  0.10224239630E+04  0.10224239630E+04  0.25500000920E-02 0.  1.
       -2   -1    0    0    0  501  0.00000000000E+00  0.00000000000E+00 -0.70837343542E+03  0.70837343543E+03  0.25500000920E-02 0. -1.
    10030    2    1    2    0    0  0.00000000000E+00  0.00000000000E+00  0.31405052759E+03  0.17307973984E+04  0.17020669495E+04 0.  0.
        5    1    3    3  502    0 -0.63060708766E+03  0.26976212893E+03 -0.35526314693E+03  0.77244475452E+03  0.46999998093E+01 0. -1.
       -5    1    3    3    0  502  0.63060708766E+03 -0.26976212893E+03  0.66931367452E+03  0.95835264392E+03  0.46999998093E+01 0.  1.
</event>
<event>
 5   0  0.1930116E-04  0.1700450E+04  0.7818609E-02  0.8761108E-01
        1   -1    0    0  501    0  0.00000000000E+00  0.00000000000E+00  0.13935986927E+04  0.13935986927E+04  0.50400001928E-02 0. -1.
       -1   -1    0    0    0  501  0.00000000000E+00  0.00000000000E+00 -0.51871640095E+03  0.51871640098E+03  0.50400001928E-02 0.  1.
    10030    2    1    2    0    0  0.00000000000E+00  0.00000000000E+00  0.87488229174E+03  0.19123150937E+04  0.17004499384E+04 0.  0.
        1    1    3    3  502    0  0.32821065196E+03  0.63119650048E+03 -0.86130840270E+02  0.71662387342E+03  0.50400001928E-02 0.  1.
       -1    1    3    3    0  502 -0.32821065196E+03 -0.63119650048E+03  0.96101313201E+03  0.11956912203E+04  0.50400001928E-02 0. -1.
</event>
<event>
 5   0  0.1920289E-04  0.1713903E+04  0.7818609E-02  0.8753475E-01
        1   -1    0    0  501    0  0.00000000000E+00  0.00000000000E+00  0.12542442691E+04  0.12542442691E+04  0.50400001928E-02 0.  1.
       -1   -1    0    0    0  501  0.00000000000E+00  0.00000000000E+00 -0.58550453975E+03  0.58550453977E+03  0.50400001928E-02 0. -1.
    10030    2    1    2    0    0  0.00000000000E+00  0.00000000000E+00  0.66873972932E+03  0.18397488088E+04  0.17139028135E+04 0.  0.
        4    1    3    3  502    0  0.83190031553E+03  0.10066989610E+03  0.14183550357E+03  0.84988910214E+03  0.12699999809E+01 0. -1.
       -4    1    3    3    0  502 -0.83190031553E+03 -0.10066989610E+03  0.52690422575E+03  0.98985970671E+03  0.12699999809E+01 0.  1.
</event>
<event>
 5   0  0.3574092E-04  0.1713564E+04  0.7818609E-02  0.8753666E-01
       -2   -1    0    0    0  501  0.00000000000E+00  0.00000000000E+00  0.74300933707E+03  0.74300933707E+03  0.25500000920E-02 0. -1.
        2   -1    0    0  501    0  0.00000000000E+00  0.00000000000E+00 -0.98797543704E+03  0.98797543704E+03  0.25500000920E-02 0.  1.
    10030    2    1    2    0    0  0.00000000000E+00  0.00000000000E+00 -0.24496609997E+03  0.17309847741E+04  0.17135635086E+04 0.  0.
        3    1    3    3  502    0  0.20818781397E+03  0.82363877142E+03 -0.23475239869E+03  0.88138055945E+03  0.10100000352E+00 0. -1.
       -3    1    3    3    0  502 -0.20818781397E+03 -0.82363877142E+03 -0.10213701273E+02  0.84960421466E+03  0.10100000352E+00 0.  1.
</event>
<event>
 5   0  0.1815663E-04  0.1710868E+04  0.7818609E-02  0.8755190E-01
       -1   -1    0    0    0  501  0.00000000000E+00  0.00000000000E+00  0.52220443594E+03  0.52220443596E+03  0.50400001928E-02 0. -1.
        1   -1    0    0  501    0  0.00000000000E+00  0.00000000000E+00 -0.14013044867E+04  0.14013044867E+04  0.50400001928E-02 0.  1.
    10030    2    1    2    0    0  0.00000000000E+00  0.00000000000E+00 -0.87910005078E+03  0.19235089227E+04  0.17108681061E+04 0.  0.
        5    1    3    3  502    0 -0.73820621765E+03  0.14304473645E+03  0.18981968035E+02  0.75219187812E+03  0.46999998093E+01 0. -1.
       -5    1    3    3    0  502  0.73820621765E+03 -0.14304473645E+03 -0.89808201881E+03  0.11713170446E+04  0.46999998093E+01 0.  1.
</event>
<event>
 5   0  0.3516723E-04  0.1716771E+04  0.7818609E-02  0.8751857E-01
        2   -1    0    0  501    0  0.00000000000E+00  0.00000000000E+00  0.18756100999E+04  0.18756101000E+04  0.25500000920E-02 0. -1.
       -2   -1    0    0    0  501  0.00000000000E+00  0.00000000000E+00 -0.39284578986E+03  0.39284578987E+03  0.25500000920E-02 0.  1.
    10030    2    1    2    0    0  0.00000000000E+00  0.00000000000E+00  0.14827643101E+04  0.22684558898E+04  0.17167708422E+04 0.  0.
        1    1    3    3  502    0 -0.79231354241E+03 -0.21232362813E+03  0.40714720087E+03  0.91575701786E+03  0.50400001928E-02 0.  1.
       -1    1    3    3    0  502  0.79231354241E+03  0.21232362813E+03  0.10756171092E+04  0.13526988720E+04  0.50400001928E-02 0. -1.
</event>
<event>
 5   0  0.1930116E-04  0.1714162E+04  0.7818609E-02  0.8753328E-01
        1   -1    0    0  501    0  0.00000000000E+00  0.00000000000E+00  0.61858384456E+03  0.61858384458E+03  0.50400001928E-02 0.  1.
       -1   -1    0    0    0  501  0.00000000000E+00  0.00000000000E+00 -0.11875313923E+04  0.11875313923E+04  0.50400001928E-02 0. -1.
    10030    2    1    2    0    0  0.00000000000E+00  0.00000000000E+00 -0.56894754771E+03  0.18061152368E+04  0.17141618759E+04 0.  0.
        1    1    3    3  502    0  0.28834200779E+03 -0.80397724794E+03 -0.20947090365E+03  0.87943083194E+03  0.50400001928E-02 0.  1.
       -1    1    3    3    0  502 -0.28834200779E+03  0.80397724794E+03 -0.35947664405E+03  0.92668440491E+03  0.50400001928E-02 0. -1.
</event>
<event>
 5   0  0.3678896E-04  0.1705231E+04  0.7818609E-02  0.8758386E-01
       -2   -1    0    0    0  501  0.00000000000E+00  0.00000000000E+00  0.67832615531E+03  0.67832615532E+03  0.25500000920E-02 0. -1.
        2   -1    0    0  501    0  0.00000000000E+00  0.00000000000E+00 -0.10716869679E+04  0.10716869679E+04  0.25500000920E-02 0.  1.
    10030    2    1    2    0    0  0.00000000000E+00  0.00000000000E+00 -0.39336081262E+03  0.17500131233E+04  0.17052311288E+04 0.  0.
        2    1    3    3  502    0  0.40420338126E+03 -0.72070635893E+03  0.18969529302E+02  0.82653364861E+03  0.25500000920E-02 0.  1.
       -2    1    3    3    0  502 -0.40420338126E+03  0.72070635893E+03 -0.41233034193E+03  0.92347947466E+03  0.25500000920E-02 0. -1.
</event>
<event>
 5   0  0.1824538E-04  0.1731112E+04  0.7818609E-02  0.8743816E-01
        1   -1    0    0  501    0  0.00000000000E+00  0.00000000000E+00  0.13469440102E+04  0.13469440102E+04  0.50400001928E-02 0.  1.
       -1   -1    0    0    0  501  0.00000000000E+00  0.00000000000E+00 -0.55621252952E+03  0.55621252954E+03  0.50400001928E-02 0. -1.
    10030    2    1    2    0    0  0.00000000000E+00  0.00000000000E+00  0.79073148063E+03  0.19031565397E+04  0.17311119375E+04 0.  0.
        3    1    3    3  502    0 -0.38908072491E+03 -0.77071243446E+03  0.32754473499E+03  0.92339971342E+03  0.10100000352E+00 0.  1.
       -3    1    3    3    0  502  0.38908072491E+03  0.77071243446E+03  0.46318674564E+03  0.97975682629E+03  0.10100000352E+00 0. -1.
</event>
<event>
 5   0  0.3605571E-04  0.1688855E+04  0.7818609E-02  0.8767746E-01
       -2   -1    0    0    0  501  0.00000000000E+00  0.00000000000E+00  0.41291349913E+03  0.41291349914E+03  0.25500000920E-02 0. -1.
        2   -1    0    0  501    0  0.00000000000E+00  0.00000000000E+00 -0.17268937297E+04  0.17268937297E+04  0.25500000920E-02 0.  1.
    10030    2    1    2    0    0  0.00000000000E+00  0.00000000000E+00 -0.13139802305E+04  0.21398072288E+04  0.16888549169E+04 0.  0.
        4    1    3    3  502    0  0.75781924142E+03  0.15254884358E+03 -0.10875800145E+04  0.13343137012E+04  0.12699999809E+01 0.  1.
       -4    1    3    3    0  502 -0.75781924142E+03 -0.15254884358E+03 -0.22640021607E+03  0.80549352765E+03  0.12699999809E+01 0. -1.
</event>
<event>
 5   0  0.3516723E-04  0.1712685E+04  0.7818609E-02  0.8754162E-01
       -2   -1    0    0    0  501  0.00000000000E+00  0.00000000000E+00  0.82346872661E+03  0.82346872661E+03  0.25500000920E-02 0.  1.
        2   -1    0    0  501    0  0.00000000000E+00  0.00000000000E+00 -0.89052899339E+03  0.89052899339E+03  0.25500000920E-02 0. -1.
    10030    2    1    2    0    0  0.00000000000E+00  0.00000000000E+00 -0.67060266784E+02  0.17139977200E+04  0.17126853490E+04 0.  0.
        1    1    3    3  502    0 -0.67656970338E+02  0.56381972908E+03  0.60793889073E+03  0.83190134477E+03  0.50400001928E-02 0.  1.
       -1    1    3    3    0  502  0.67656970338E+02 -0.56381972908E+03 -0.67499915751E+03  0.88209637524E+03  0.50400001928E-02 0. -1.
</event>
<event>
 5   0  0.1824538E-04  0.1752503E+04  0.7818609E-02  0.8731974E-01
        1   -1    0    0  501    0  0.00000000000E+00  0.00000000000E+00  0.11266256587E+04  0.11266256587E+04  0.50400001928E-02 0. -1.
       -1   -1    0    0    0  501  0.00000000000E+00  0.00000000000E+00 -0.68151870266E+03  0.68151870268E+03  0.50400001928E-02 0.  1.
    10030    2    1    2    0    0  0.00000000000E+00  0.00000000000E+00  0.44510695603E+03  0.18081443614E+04  0.17525027330E+04 0.  0.
        3    1    3    3  502    0  0.49302552874E+03  0.12742012882E+03  0.95829048809E+03  0.10851869567E+04  0.10100000352E+00 0. -1.
       -3    1    3    3    0  502 -0.49302552874E+03 -0.12742012882E+03 -0.51318353206E+03  0.72295740469E+03  0.10100000352E+00 0.  1.
</event>
<event>
 5   0  0.1815663E-04  0.1693614E+04  0.7818609E-02  0.8765015E-01
       -1   -1    0    0    0  501  0.00000000000E+00  0.00000000000E+00  0.46408987709E+03  0.46408987711E+03  0.50400001928E-02 0.  1.
        1   -1    0    0  501    0  0.00000000000E+00  0.00000000000E+00 -0.15451370990E+04  0.15451370990E+04  0.50400001928E-02 0. -1.
    10030    2    1    2    0    0  0.00000000000E+00  0.00000000000E+00 -0.10810472219E+04  0.20092269761E+04  0.16936144619E+04 0.  0.
        5    1    3    3  502    0  0.69654222919E+03 -0.31264198624E+02  0.29558712932E+02  0.69788561718E+03  0.46999998093E+01 0.  1.
       -5    1    3    3    0  502 -0.69654222919E+03  0.31264198624E+02 -0.11106059349E+04  0.13113413590E+04  0.46999998093E+01 0. -1.
</event>
<event>
 5   0  0.1824538E-04  0.1787907E+04  0.7818609E-02  0.8712757E-01
       -1   -1    0    0    0  501  0.00000000000E+00  0.00000000000E+00  0.45230717331E+03  0.45230717334E+03  0.50400001928E-02 0. -1.
        1   -1    0    0  501    0  0.00000000000E+00  0.00000000000E+00 -0.17668368390E+04  0.17668368390E+04  0.50400001928E-02 0.  1.
    10030    2    1    2    0    0  0.00000000000E+00  0.00000000000E+00 -0.13145296657E+04  0.22191440123E+04  0.17879071300E+04 0.  0.
        3    1    3    3  502    0 -0.54438311453E+03 -0.66561635591E+03 -0.35385675561E+03  0.92984553681E+03  0.10100000352E+00 0. -1.
       -3    1    3    3    0  502  0.54438311453E+03  0.66561635591E+03 -0.96067291006E+03  0.12892984755E+04  0.10100000352E+00 0.  1.
</event>
<event>
 5   0  0.1317625E-04  0.1716672E+04  0.7818609E-02  0.8751912E-01
        3   -1    0    0  501    0  0.00000000000E+00  0.00000000000E+00  0.13787962208E+04  0.13787962245E+04  0.10100000352E+00 0.  1.
       -3   -1    0    0    0  501  0.00000000000E+00  0.00000000000E+00 -0.53433632440E+03  0.53433633395E+03  0.10100000352E+00 0. -1.
    10030    2    1    2    0    0  0.00000000000E+00  0.00000000000E+00  0.84445989638E+03  0.19131325584E+04  0.17166722662E+04 0.  0.
        2    1    3    3  502    0  0.38040455260E+02  0.25861424465E+03  0.13333591326E+04  0.13587402181E+04  0.25500000920E-02 0.  1.
       -2    1    3    3    0  502 -0.38040455260E+02 -0.25861424465E+03 -0.48889923626E+03  0.55439234031E+03  0.25500000920E-02 0. -1.
</event>
<event>
 5   0  0.3678896E-04  0.1568951E+04  0.7818609E-02  0.8839853E-01
       -2   -1    0    0    0  501  0.00000000000E+00  0.00000000000E+00  0.76234563430E+03  0.76234563430E+03  0.25500000920E-02 0. -1.
        2   -1    0    0  501    0  0.00000000000E+00  0.00000000000E+00 -0.80724824406E+03  0.80724824406E+03  0.25500000920E-02 0.  1.
    10030    2    1    2    0    0  0.00000000000E+00  0.00000000000E+00 -0.44902609758E+02  0.15695938784E+04  0.15689514647E+04 0.  0.
        2    1    3    3  502    0  0.22406924446E+03  0.33593676490E+03 -0.69529017152E+03  0.80404537120E+03  0.25500000920E-02 0.  1.
       -2    1    3    3    0  502 -0.22406924446E+03 -0.33593676490E+03  0.65038756176E+03  0.76554850717E+03  0.25500000920E-02 0. -1.
</event>
<event>
 5   0  0.1824538E-04  0.1708212E+04  0.7818609E-02  0.8756694E-01
       -1   -1    0    0    0  501  0.00000000000E+00  0.00000000000E+00  0.14419819372E+04  0.14419819372E+04  0.50400001928E-02 0. -1.
        1   -1    0    0  501    0  0.00000000000E+00  0.00000000000E+00 -0.50589917727E+03  0.50589917729E+03  0.50400001928E-02 0.  1.
    10030    2    1    2    0    0  0.00000000000E+00  0.00000000000E+00  0.93608275993E+03  0.19478811145E+04  0.17082124876E+04 0.  0.
        3    1    3    3  502    0 -0.82072342762E+02  0.33794132641E+03 -0.42151049019E+03  0.54645339516E+03  0.10100000352E+00 0.  1.
       -3    1    3    3    0  502  0.82072342762E+02 -0.33794132641E+03  0.13575932501E+04  0.14014277193E+04  0.10100000352E+00 0. -1.
</event>
<event>
 5   0  0.3516723E-04  0.1700306E+04  0.7818609E-02  0.8761190E-01
        2   -1    0    0  501    0  0.00000000000E+00  0.00000000000E+00  0.13703243024E+04  0.13703243024E+04  0.25500000920E-02 0.  1.
       -2   -1    0    0    0  501  0.00000000000E+00  0.00000000000E+00 -0.52743698712E+03  0.52743698712E+03  0.25500000920E-02 0. -1.
    10030    2    1    2    0    0  0.00000000000E+00  0.00000000000E+00  0.84288731525E+03  0.18977612895E+04  0.17003055272E+04 0.  0.
        1    1    3    3  502    0 -0.12783485386E+03  0.43926489577E+03  0.12212222100E+04  0.13041008721E+04  0.50400001928E-02 0.  1.
       -1    1    3    3    0  502  0.12783485386E+03 -0.43926489577E+03 -0.37833489475E+03  0.59366041735E+03  0.50400001928E-02 0. -1.
</event>
<event>
 5   0  0.3605571E-04  0.1706775E+04  0.7818609E-02  0.8757510E-01
        2   -1    0    0  501    0  0.00000000000E+00  0.00000000000E+00  0.95720038175E+03  0.95720038175E+03  0.25500000920E-02 0.  1.
       -2   -1    0    0    0  501  0.00000000000E+00  0.00000000000E+00 -0.76083363170E+03  0.76083363171E+03  0.25500000920E-02 0. -1.
    10030    2    1    2    0    0  0.00000000000E+00  0.00000000000E+00  0.19636675004E+03  0.17180340135E+04  0.17067750206E+04 0.  0.
        4    1    3    3  502    0 -0.20424438953E+03  0.31143499629E+03  0.87107729451E+03  0.94735674035E+03  0.12699999809E+01 0.  1.
       -4    1    3    3    0  502  0.20424438953E+03 -0.31143499629E+03 -0.67471054447E+03  0.77067727311E+03  0.12699999809E+01 0. -1.
</event>
<event>
 5   0  0.1815663E-04  0.1711318E+04  0.7818609E-02  0.8754935E-01
        1   -1    0    0  501    0  0.00000000000E+00  0.00000000000E+00  0.17282197797E+04  0.17282197797E+04  0.50400001928E-02 0.  1.
       -1   -1    0    0    0  501  0.00000000000E+00  0.00000000000E+00 -0.42364542493E+03  0.42364542496E+03  0.50400001928E-02 0. -1.
    10030    2    1    2    0    0  0.00000000000E+00  0.00000000000E+00  0.13045743547E+04  0.21518652046E+04  0.17113180920E+04 0.  0.
        5    1    3    3  502    0 -0.79556665305E+02  0.78411720804E+03  0.23342610570E+03  0.82199689522E+03  0.46999998093E+01 0. -1.
       -5    1    3    3    0  502  0.79556665305E+02 -0.78411720804E+03  0.10711482490E+04  0.13298683094E+04  0.46999998093E+01 0.  1.
</event>
<event>
 5   0  0.3574092E-04  0.1697750E+04  0.7818609E-02  0.8762648E-01
       -2   -1    0    0    0  501  0.00000000000E+00  0.00000000000E+00  0.18152633818E+04  0.18152633818E+04  0.25500000920E-02 0.  1.
        2   -1    0    0  501    0  0.00000000000E+00  0.00000000000E+00 -0.39696122010E+03  0.39696122011E+03  0.25500000920E-02 0. -1.
    10030    2    1    2    0    0  0.00000000000E+00  0.00000000000E+00  0.14183021617E+04  0.22122246019E+04  0.16977504727E+04 0.  0.
        3    1    3    3  502    0 -0.34348470374E+03 -0.20650618280E+03 -0.26591684938E+03  0.48097643001E+03  0.10100000352E+00 0. -1.
       -3    1    3    3    0  502  0.34348470374E+03  0.20650618280E+03  0.16842190111E+04  0.17312481719E+04  0.10100000352E+00 0.  1.
</event>
<event>
 5   0  0.3574092E-04  0.1681296E+04  0.7818609E-02  0.8772105E-01
       -2   -1    0    0    0  501  0.00000000000E+00  0.00000000000E+00  0.84699096089E+03  0.84699096089E+03  0.25500000920E-02 0. -1.
        2   -1    0    0  501    0  0.00000000000E+00  0.00000000000E+00 -0.83435205064E+03  0.83435205064E+03  0.25500000920E-02 0.  1.
    10030    2    1    2    0    0  0.00000000000E+00  0.00000000000E+00  0.12638910251E+02  0.16813430115E+04  0.16812955066E+04 0.  0.
        3    1    3    3  502    0 -0.34699226434E+03 -0.68284685979E+03 -0.34010795580E+03  0.83806735841E+03  0.10100000352E+00 0. -1.
       -3    1    3    3    0  502  0.34699226434E+03  0.68284685979E+03  0.35274686605E+03  0.84327565312E+03  0.10100000352E+00 0.  1.
</event>
<event>
 5   0  0.1893284E-04  0.1699847E+04  0.7818609E-02  0.8761452E-01
       -1   -1    0    0    0  501  0.00000000000E+00  0.00000000000E+00  0.70256535591E+03  0.70256535593E+03  0.50400001928E-02 0. -1.
        1   -1    0    0  501    0  0.00000000000E+00  0.00000000000E+00 -0.10281890930E+04  0.10281890930E+04  0.50400001928E-02 0.  1.
    10030    2    1    2    0    0  0.00000000000E+00  0.00000000000E+00 -0.32562373707E+03  0.17307544489E+04  0.16998470944E+04 0.  0.
        2    1    3    3  502    0 -0.76159521426E+03 -0.99419104692E+02  0.20775423558E+03  0.79565900433E+03  0.25500000920E-02 0. -1.
       -2    1    3    3    0  502  0.76159521426E+03  0.99419104692E+02 -0.53337797265E+03  0.93509544459E+03  0.25500000920E-02 0.  1.
</event>
<event>
 5   0  0.1815663E-04  0.1710783E+04  0.7818609E-02  0.8755238E-01
        1   -1    0    0  501    0  0.00000000000E+00  0.00000000000E+00  0.10717731598E+04  0.10717731598E+04  0.50400001928E-02 0. -1.
       -1   -1    0    0    0  501  0.00000000000E+00  0.00000000000E+00 -0.68269531433E+03  0.68269531434E+03  0.50400001928E-02 0.  1.
    10030    2    1    2    0    0  0.00000000000E+00  0.00000000000E+00  0.38907784543E+03  0.17544684741E+04  0.17107828783E+04 0.  0.
        5    1    3    3  502    0  0.26625071521E+03  0.66372697797E+03 -0.28675249679E+03  0.77050115448E+03  0.46999998093E+01 0.  1.
       -5    1    3    3    0  502 -0.26625071521E+03 -0.66372697797E+03  0.67583034223E+03  0.98396731964E+03  0.46999998093E+01 0. -1.
</event>
<event>
 5   0  0.1930116E-04  0.1709704E+04  0.7818609E-02  0.8755849E-01
        1   -1    0    0  501    0  0.00000000000E+00  0.00000000000E+00  0.72120430619E+03  0.72120430621E+03  0.50400001928E-02 0.  1.
       -1   -1    0    0    0  501  0.00000000000E+00  0.00000000000E+00 -0.10132665117E+04  0.10132665117E+04  0.50400001928E-02 0. -1.
    10030    2    1    2    0    0  0.00000000000E+00  0.00000000000E+00 -0.29206220553E+03  0.17344708179E+04  0.17097042687E+04 0.  0.
        1    1    3    3  502    0  0.67562216756E+03  0.47016618671E+02 -0.67521584775E+03  0.95634320032E+03  0.50400001928E-02 0. -1.
       -1    1    3    3    0  502 -0.67562216756E+03 -0.47016618671E+02  0.38315364222E+03  0.77812761762E+03  0.50400001928E-02 0.  1.
</event>
<event>
 5   0  0.3573262E-04  0.1703886E+04  0.7818609E-02  0.8759151E-01
        2   -1    0    0  501    0  0.00000000000E+00  0.00000000000E+00  0.14046812485E+04  0.14046812485E+04  0.25500000920E-02 0.  1.
       -2   -1    0    0    0  501  0.00000000000E+00  0.00000000000E+00 -0.51670599077E+03  0.51670599077E+03  0.25500000920E-02 0. -1.
    10030    2    1    2    0    0  0.00000000000E+00  0.00000000000E+00  0.88797525770E+03  0.19213872392E+04  0.17038864002E+04 0.  0.
        5    1    3    3  502    0  0.55566305114E+03  0.28062035532E+03  0.10998456054E+04  0.12638004811E+04  0.46999998093E+01 0.  1.
       -5    1    3    3    0  502 -0.55566305114E+03 -0.28062035532E+03 -0.21187034775E+03  0.65758675813E+03  0.46999998093E+01 0. -1.
</event>
<event>
 5   0  0.3574092E-04  0.1704524E+04  0.7818609E-02  0.8758788E-01
        2   -1    0    0  501    0  0.00000000000E+00  0.00000000000E+00  0.80239863794E+03  0.80239863794E+03  0.25500000920E-02 0. -1.
       -2   -1    0    0    0  501  0.00000000000E+00  0.00000000000E+00 -0.90522379572E+03  0.90522379572E+03  0.25500000920E-02 0.  1.
    10030    2    1    2    0    0  0.00000000000E+00  0.00000000000E+00 -0.10282515778E+03  0.17076224337E+04  0.17045237936E+04 0.  0.
        3    1    3    3  502    0 -0.42569572743E+03 -0.43447683000E+03  0.54663440941E+03  0.81779958175E+03  0.10100000352E+00 0. -1.
       -3    1    3    3    0  502  0.42569572743E+03  0.43447683000E+03 -0.64945956719E+03  0.88982285191E+03  0.10100000352E+00 0.  1.
</event>
<event>
 5   0  0.3605571E-04  0.1697838E+04  0.7818609E-02  0.8762599E-01
       -2   -1    0    0    0  501  0.00000000000E+00  0.00000000000E+00  0.63063885665E+03  0.63063885666E+03  0.25500000920E-02 0.  1.
        2   -1    0    0  501    0  0.00000000000E+00  0.00000000000E+00 -0.11427509879E+04  0.11427509879E+04  0.25500000920E-02 0. -1.
    10030    2    1    2    0    0  0.00000000000E+00  0.00000000000E+00 -0.51211213128E+03  0.17733898446E+04  0.16978376559E+04 0.  0.
        4    1    3    3  502    0 -0.76349066528E+03  0.13960006341E+03 -0.61524134362E+03  0.99041895049E+03  0.12699999809E+01 0. -1.
       -4    1    3    3    0  502  0.76349066528E+03 -0.13960006341E+03  0.10312921235E+03  0.78297089411E+03  0.12699999809E+01 0.  1.
</event>
<event>
 5   0  0.3574092E-04  0.1690131E+04  0.7818609E-02  0.8767013E-01
        2   -1    0    0  501    0  0.00000000000E+00  0.00000000000E+00  0.18457145629E+04  0.18457145629E+04  0.25500000920E-02 0. -1.
       -2   -1    0    0    0  501  0.00000000000E+00  0.00000000000E+00 -0.38691577182E+03  0.38691577182E+03  0.25500000920E-02 0.  1.
    10030    2    1    2    0    0  0.00000000000E+00  0.00000000000E+00  0.14587987911E+04  0.22326303347E+04  0.16901314442E+04 0.  0.
        3    1    3    3  502    0  0.15142221263E+03  0.83131067881E+03  0.71434176778E+03  0.11064765260E+04  0.10100000352E+00 0. -1.
       -3    1    3    3    0  502 -0.15142221263E+03 -0.83131067881E+03  0.74445702331E+03  0.11261538087E+04  0.10100000352E+00 0.  1.
</event>
<event>
 5   0  0.1815663E-04  0.1685542E+04  0.7818609E-02  0.8769654E-01
       -1   -1    0    0    0  501  0.00000000000E+00  0.00000000000E+00  0.10640303654E+04  0.10640303654E+04  0.50400001928E-02 0.  1.
        1   -1    0    0  501    0  0.00000000000E+00  0.00000000000E+00 -0.66752118820E+03  0.66752118822E+03  0.50400001928E-02 0. -1.
    10030    2    1    2    0    0  0.00000000000E+00  0.00000000000E+00  0.39650917723E+03  0.17315515537E+04  0.16855418284E+04 0.  0.
        5    1    3    3  502    0 -0.18418458565E+03 -0.40194938211E+03  0.93530217387E+03  0.10345528086E+04  0.46999998093E+01 0.  1.
       -5    1    3    3    0  502  0.18418458565E+03  0.40194938211E+03 -0.53879299664E+03  0.69699874505E+03  0.46999998093E+01 0. -1.
</event>
<event>
 5   0  0.1920289E-04  0.1644074E+04  0.7818609E-02  0.8793920E-01
        1   -1    0    0  501    0  0.00000000000E+00  0.00000000000E+00  0.62666307967E+03  0.62666307969E+03  0.50400001928E-02 0. -1.
       -1   -1    0    0    0  501  0.00000000000E+00  0.00000000000E+00 -0.10783219550E+04  0.10783219550E+04  0.50400001928E-02 0.  1.
    10030    2    1    2    0    0  0.00000000000E+00  0.00000000000E+00 -0.45165887536E+03  0.17049850347E+04  0.16440736690E+04 0.  0.
        4    1    3    3  502    0 -0.72360754397E+03 -0.27040132965E+03 -0.51734572858E+03  0.92971660873E+03  0.12699999809E+01 0.  1.
       -4    1    3    3    0  502  0.72360754397E+03  0.27040132965E+03  0.65686853224E+02  0.77526842600E+03  0.12699999809E+01 0. -1.
</event>
<event>
 5   0  0.1815663E-04  0.1702343E+04  0.7818609E-02  0.8760029E-01
        1   -1    0    0  501    0  0.00000000000E+00  0.00000000000E+00  0.16164627160E+04  0.16164627160E+04  0.50400001928E-02 0. -1.
       -1   -1    0    0    0  501  0.00000000000E+00  0.00000000000E+00 -0.44819628400E+03  0.44819628403E+03  0.50400001928E-02 0.  1.
    10030    2    1    2    0    0  0.00000000000E+00  0.00000000000E+00  0.11682664320E+04  0.20646590000E+04  0.17023426007E+04 0.  0.
        5    1    3    3  502    0  0.34812675436E+03  0.66781449104E+03  0.10310719207E+03  0.76014578510E+03  0.46999998093E+01 0.  1.
       -5    1    3    3    0  502 -0.34812675436E+03 -0.66781449104E+03  0.10651592399E+04  0.13045132150E+04  0.46999998093E+01 0. -1.
</event>
<event>
 5   0  0.1920289E-04  0.1568108E+04  0.7818609E-02  0.8840384E-01
        1   -1    0    0  501    0  0.00000000000E+00  0.00000000000E+00  0.13774659346E+04  0.13774659346E+04  0.50400001928E-02 0.  1.
       -1   -1    0    0    0  501  0.00000000000E+00  0.00000000000E+00 -0.44628370481E+03  0.44628370484E+03  0.50400001928E-02 0. -1.
    10030    2    1    2    0    0  0.00000000000E+00  0.00000000000E+00  0.93118222981E+03  0.18237496395E+04  0.15681079052E+04 0.  0.
        4    1    3    3  502    0  0.35265668168E+03 -0.34205229875E+02 -0.34786382319E+03  0.49653558308E+03  0.12699999809E+01 0. -1.
       -4    1    3    3    0  502 -0.35265668168E+03  0.34205229875E+02  0.12790460530E+04  0.13272140564E+04  0.12699999809E+01 0.  1.
</event>
<event>
 5   0  0.3574092E-04  0.1689769E+04  0.7818609E-02  0.8767221E-01
        2   -1    0    0  501    0  0.00000000000E+00  0.00000000000E+00  0.19177171624E+04  0.19177171624E+04  0.25500000920E-02 0. -1.
       -2   -1    0    0    0  501  0.00000000000E+00  0.00000000000E+00 -0.37222913765E+03  0.37222913766E+03  0.25500000920E-02 0.  1.
    10030    2    1    2    0    0  0.00000000000E+00  0.00000000000E+00  0.15454880248E+04  0.22899463001E+04  0.16897694584E+04 0.  0.
        3    1    3    3  502    0 -0.47494878105E+02  0.45671562091E+03  0.17338592815E+04  0.17936312163E+04  0.10100000352E+00 0. -1.
       -3    1    3    3    0  502  0.47494878105E+02 -0.45671562091E+03 -0.18837125673E+03  0.49631508379E+03  0.10100000352E+00 0.  1.
</event>
<event>
 5   0  0.1824538E-04  0.1712940E+04  0.7818609E-02  0.8754018E-01
        1   -1    0    0  501    0  0.00000000000E+00  0.00000000000E+00  0.60586984586E+03  0.60586984588E+03  0.50400001928E-02 0. -1.
       -1   -1    0    0    0  501  0.00000000000E+00  0.00000000000E+00 -0.12107238862E+04  0.12107238862E+04  0.50400001928E-02 0.  1.
    10030    2    1    2    0    0  0.00000000000E+00  0.00000000000E+00 -0.60485404037E+03  0.18165937321E+04  0.17129402726E+04 0.  0.
        3    1    3    3  502    0 -0.51879063115E+02 -0.49339604047E+03  0.43796683601E+03  0.66177492366E+03  0.10100000352E+00 0. -1.
       -3    1    3    3    0  502  0.51879063115E+02  0.49339604047E+03 -0.10428208764E+04  0.11548188085E+04  0.10100000352E+00 0.  1.
</event>
<event>
 5   0  0.3573262E-04  0.1708623E+04  0.7818609E-02  0.8756462E-01
       -2   -1    0    0    0  501  0.00000000000E+00  0.00000000000E+00  0.83543438489E+03  0.83543438489E+03  0.25500000920E-02 0. -1.
        2   -1    0    0  501    0  0.00000000000E+00  0.00000000000E+00 -0.87361487743E+03  0.87361487743E+03  0.25500000920E-02 0.  1.
    10030    2    1    2    0    0  0.00000000000E+00  0.00000000000E+00 -0.38180492540E+02  0.17090492623E+04  0.17086227293E+04 0.  0.
        5    1    3    3  502    0  0.29848895930E+03 -0.11447354861E+03 -0.81151649537E+03  0.87222758751E+03  0.46999998093E+01 0.  1.
       -5    1    3    3    0  502 -0.29848895930E+03  0.11447354861E+03  0.77333600283E+03  0.83682167481E+03  0.46999998093E+01 0. -1.
</event>
<event>
 5   0  0.3574092E-04  0.1693969E+04  0.7818609E-02  0.8764811E-01
        2   -1    0    0  501    0  0.00000000000E+00  0.00000000000E+00  0.92031377506E+03  0.92031377506E+03  0.25500000920E-02 0.  1.
       -2   -1    0    0    0  501  0.00000000000E+00  0.00000000000E+00 -0.77949807689E+03  0.77949807689E+03  0.25500000920E-02 0. -1.
    10030    2    1    2    0    0  0.00000000000E+00  0.00000000000E+00  0.14081569817E+03  0.16998118520E+04  0.16939690880E+04 0.  0.
        3    1    3    3  502    0 -0.36008812863E+03 -0.27586035747E+03  0.78815140661E+03  0.90936518910E+03  0.10100000352E+00 0.  1.
       -3    1    3    3    0  502  0.36008812863E+03  0.27586035747E+03 -0.64733570844E+03  0.79044666286E+03  0.10100000352E+00 0. -1.
</event>
<event>
 5   0  0.1824538E-04  0.1703392E+04  0.7818609E-02  0.8759432E-01
        1   -1    0    0  501    0  0.00000000000E+00  0.00000000000E+00  0.49914201427E+03  0.49914201429E+03  0.50400001928E-02 0.  1.
       -1   -1    0    0    0  501  0.00000000000E+00  0.00000000000E+00 -0.14532658797E+04  0.14532658797E+04  0.50400001928E-02 0. -1.
    10030    2    1    2    0    0  0.00000000000E+00  0.00000000000E+00 -0.95412386541E+03  0.19524078940E+04  0.17033919789E+04 0.  0.
        3    1    3    3  502    0  0.21369730605E+03  0.56913222403E+03  0.20663530349E+03  0.64208736624E+03  0.10100000352E+00 0.  1.
       -3    1    3    3    0  502 -0.21369730605E+03 -0.56913222403E+03 -0.11607591689E+04  0.13103205277E+04  0.10100000352E+00 0. -1.
</event>
<event>
 5   0  0.3605571E-04  0.1651465E+04  0.7818609E-02  0.8789540E-01
       -2   -1    0    0    0  501  0.00000000000E+00  0.00000000000E+00  0.66072059334E+03  0.66072059335E+03  0.25500000920E-02 0.  1.
        2   -1    0    0  501    0  0.00000000000E+00  0.00000000000E+00 -0.10319558737E+04  0.10319558737E+04  0.25500000920E-02 0. -1.
    10030    2    1    2    0    0  0.00000000000E+00  0.00000000000E+00 -0.37123528035E+03  0.16926764670E+04  0.16514654064E+04 0.  0.
        4    1    3    3  502    0 -0.21915521179E+01  0.54775327758E+02  0.65885244125E+03  0.66113031368E+03  0.12699999809E+01 0.  1.
       -4    1    3    3    0  502  0.21915521179E+01 -0.54775327758E+02 -0.10300877216E+04  0.10315461534E+04  0.12699999809E+01 0. -1.
</event>
<event>
 5   0  0.1317625E-04  0.1692624E+04  0.7818609E-02  0.8765582E-01
       -4   -1    0    0    0  501  0.00000000000E+00  0.00000000000E+00  0.53853099015E+03  0.53853248764E+03  0.12699999809E+01 0.  1.
        4   -1    0    0  501    0  0.00000000000E+00  0.00000000000E+00 -0.13299921178E+04  0.13299927241E+04  0.12699999809E+01 0. -1.
    10030    2    1    2    0    0  0.00000000000E+00  0.00000000000E+00 -0.79146112764E+03  0.18685252118E+04  0.16926239247E+04 0.  0.
        2    1    3    3  502    0 -0.58905336857E+02 -0.69373751541E+03  0.13541822680E+03  0.70928109742E+03  0.25500000920E-02 0.  1.
       -2    1    3    3    0  502  0.58905336857E+02  0.69373751541E+03 -0.92687935444E+03  0.11592441144E+04  0.25500000920E-02 0. -1.
</event>
<event>
 5   0  0.1893284E-04  0.1694768E+04  0.7818609E-02  0.8764354E-01
       -1   -1    0    0    0  501  0.00000000000E+00  0.00000000000E+00  0.10162008261E+04  0.10162008262E+04  0.50400001928E-02 0.  1.
        1   -1    0    0  501    0  0.00000000000E+00  0.00000000000E+00 -0.70661171193E+03  0.70661171195E+03  0.50400001928E-02 0. -1.
    10030    2    1    2    0    0  0.00000000000E+00  0.00000000000E+00  0.30958911420E+03  0.17228125381E+04  0.16947677191E+04 0.  0.
        2    1    3    3  502    0 -0.83450595466E+03  0.14572614069E+03  0.17570455401E+03  0.86516379187E+03  0.25500000920E-02 0. -1.
       -2    1    3    3    0  502  0.83450595466E+03 -0.14572614069E+03  0.13388456019E+03  0.85764874623E+03  0.25500000920E-02 0.  1.
</event>
<event>
 5   0  0.1920289E-04  0.1590091E+04  0.7818609E-02  0.8826659E-01
       -1   -1    0    0    0  501  0.00000000000E+00  0.00000000000E+00  0.68000615812E+03  0.68000615814E+03  0.50400001928E-02 0.  1.
        1   -1    0    0  501    0  0.00000000000E+00  0.00000000000E+00 -0.92954668732E+03  0.92954668734E+03  0.50400001928E-02 0. -1.
    10030    2    1    2    0    0  0.00000000000E+00  0.00000000000E+00 -0.24954052921E+03  0.16095528455E+04  0.15900911567E+04 0.  0.
        4    1    3    3  502    0  0.58058239703E+03 -0.31986301941E+03  0.31958734881E+03  0.73588447283E+03  0.12699999809E+01 0.  1.
       -4    1    3    3    0  502 -0.58058239703E+03  0.31986301941E+03 -0.56912787801E+03  0.87366837265E+03  0.12699999809E+01 0. -1.
</event>
<event>
 5   0  0.1824538E-04  0.1696020E+04  0.7818609E-02  0.8763637E-01
        1   -1    0    0  501    0  0.00000000000E+00  0.00000000000E+00  0.86645872469E+03  0.86645872470E+03  0.50400001928E-02 0. -1.
       -1   -1    0    0    0  501  0.00000000000E+00  0.00000000000E+00 -0.82995456042E+03  0.82995456043E+03  0.50400001928E-02 0.  1.
    10030    2    1    2    0    0  0.00000000000E+00  0.00000000000E+00  0.36504164270E+02  0.16964132851E+04  0.16960204834E+04 0.  0.
        3    1    3    3  502    0  0.44290507235E+03  0.80304694627E+02  0.73710317160E+03  0.86367519524E+03  0.10100000352E+00 0. -1.
       -3    1    3    3    0  502 -0.44290507235E+03 -0.80304694627E+02 -0.70059900733E+03  0.83273808989E+03  0.10100000352E+00 0.  1.
</event>
<event>
 5   0  0.1815663E-04  0.1684171E+04  0.7818609E-02  0.8770444E-01
       -1   -1    0    0    0  501  0.00000000000E+00  0.00000000000E+00  0.85680429553E+03  0.85680429554E+03  0.50400001928E-02 0. -1.
        1   -1    0    0  501    0  0.00000000000E+00  0.00000000000E+00 -0.82761952510E+03  0.82761952511E+03  0.50400001928E-02 0.  1.
    10030    2    1    2    0    0  0.00000000000E+00  0.00000000000E+00  0.29184770432E+02  0.16844238207E+04  0.16841709702E+04 0.  0.
        5    1    3    3  502    0  0.19534543738E+03 -0.43739918255E+03  0.70723371423E+03  0.85421279629E+03  0.46999998093E+01 0. -1.
       -5    1    3    3    0  502 -0.19534543738E+03  0.43739918255E+03 -0.67804894379E+03  0.83021102437E+03  0.46999998093E+01 0.  1.
</event>
<event>
 5   0  0.3574092E-04  0.1695948E+04  0.7818609E-02  0.8763679E-01
        2   -1    0    0  501    0  0.00000000000E+00  0.00000000000E+00  0.64545773619E+03  0.64545773620E+03  0.25500000920E-02 0.  1.
       -2   -1    0    0    0  501  0.00000000000E+00  0.00000000000E+00 -0.11140306301E+04  0.11140306301E+04  0.25500000920E-02 0. -1.
    10030    2    1    2    0    0  0.00000000000E+00  0.00000000000E+00 -0.46857289392E+03  0.17594883663E+04  0.16959477451E+04 0.  0.
        3    1    3    3  502    0  0.19558517057E+03 -0.58247422296E+03 -0.84058746529E+03  0.10412094296E+04  0.10100000352E+00 0. -1.
       -3    1    3    3    0  502 -0.19558517057E+03  0.58247422296E+03  0.37201457137E+03  0.71827893668E+03  0.10100000352E+00 0.  1.
</event>
<event>
 5   0  0.1930116E-04  0.1679131E+04  0.7818609E-02  0.8773357E-01
       -1   -1    0    0    0  501  0.00000000000E+00  0.00000000000E+00  0.51298054743E+03  0.51298054746E+03  0.50400001928E-02 0. -1.
        1   -1    0    0  501    0  0.00000000000E+00  0.00000000000E+00 -0.13740684292E+04  0.13740684292E+04  0.50400001928E-02 0.  1.
    10030    2    1    2    0    0  0.00000000000E+00  0.00000000000E+00 -0.86108788175E+03  0.18870489766E+04  0.16791311742E+04 0.  0.
        1    1    3    3  502    0  0.40625625779E+03 -0.65701627785E+03 -0.60951115503E+02  0.77487390901E+03  0.50400001928E-02 0. -1.
       -1    1    3    3    0  502 -0.40625625779E+03  0.65701627785E+03 -0.80013676624E+03  0.11121750676E+04  0.50400001928E-02 0.  1.
</event>
<event>
 5   0  0.3516723E-04  0.1698875E+04  0.7818609E-02  0.8762006E-01
       -2   -1    0    0    0  501  0.00000000000E+00  0.00000000000E+00  0.32832592140E+03  0.32832592141E+03  0.25500000920E-02 0. -1.
        2   -1    0    0  501    0  0.00000000000E+00  0.00000000000E+00 -0.21976470410E+04  0.21976470410E+04  0.25500000920E-02 0.  1.
    10030    2    1    2    0    0  0.00000000000E+00  0.00000000000E+00 -0.18693211196E+04  0.25259729624E+04  0.16988754983E+04 0.  0.
        1    1    3    3  502    0  0.87104706299E+02 -0.29927255098E+03  0.24022678842E+03  0.39352280687E+03  0.50400001928E-02 0. -1.
       -1    1    3    3    0  502 -0.87104706299E+02  0.29927255098E+03 -0.21095479080E+04  0.21324501556E+04  0.50400001928E-02 0.  1.
</event>
<event>
 5   0  0.1824538E-04  0.1672172E+04  0.7818609E-02  0.8777397E-01
       -1   -1    0    0    0  501  0.00000000000E+00  0.00000000000E+00  0.76521739170E+03  0.76521739172E+03  0.50400001928E-02 0. -1.
        1   -1    0    0  501    0  0.00000000000E+00  0.00000000000E+00 -0.91351812733E+03  0.91351812734E+03  0.50400001928E-02 0.  1.
    10030    2    1    2    0    0  0.00000000000E+00  0.00000000000E+00 -0.14830073562E+03  0.16787355191E+04  0.16721721905E+04 0.  0.
        3    1    3    3  502    0 -0.34061807886E+02  0.42200067320E+03  0.64964767468E+03  0.77542690588E+03  0.10100000352E+00 0. -1.
       -3    1    3    3    0  502  0.34061807886E+02 -0.42200067320E+03 -0.79794841031E+03  0.90330861318E+03  0.10100000352E+00 0.  1.
</event>
<event>
 5   0  0.1893284E-04  0.1698287E+04  0.7818609E-02  0.8762342E-01
        1   -1    0    0  501    0  0.00000000000E+00  0.00000000000E+00  0.15191844216E+04  0.15191844216E+04  0.50400001928E-02 0. -1.
       -1   -1    0    0    0  501  0.00000000000E+00  0.00000000000E+00 -0.47462627247E+03  0.47462627250E+03  0.50400001928E-02 0.  1.
    10030    2    1    2    0    0  0.00000000000E+00  0.00000000000E+00  0.10445581491E+04  0.19938106941E+04  0.16982871833E+04 0.  0.
        2    1    3    3  502    0  0.57210934719E+03 -0.10018249284E+03  0.12495031315E+04  0.13778982955E+04  0.25500000920E-02 0. -1.
       -2    1    3    3    0  502 -0.57210934719E+03  0.10018249284E+03 -0.20494498235E+03  0.61591239866E+03  0.25500000920E-02 0.  1.
</event>
<event>
 5   0  0.1815663E-04  0.1691736E+04  0.7818609E-02  0.8766092E-01
        1   -1    0    0  501    0  0.00000000000E+00  0.00000000000E+00  0.14346010464E+04  0.14346010464E+04  0.50400001928E-02 0. -1.
       -1   -1    0    0    0  501  0.00000000000E+00  0.00000000000E+00 -0.49873959478E+03  0.49873959481E+03  0.50400001928E-02 0.  1.
    10030    2    1    2    0    0  0.00000000000E+00  0.00000000000E+00  0.93586145158E+03  0.19333406412E+04  0.16917356112E+04 0.  0.
        5    1    3    3  502    0  0.74420461147E+02 -0.41571294414E+03  0.13054780721E+04  0.13720972064E+04  0.46999998093E+01 0. -1.
       -5    1    3    3    0  502 -0.74420461147E+02  0.41571294414E+03 -0.36961662052E+03  0.56124343482E+03  0.46999998093E+01 0.  1.
</event>
<event>
 5   0  0.3573262E-04  0.1695338E+04  0.7818609E-02  0.8764028E-01
        2   -1    0    0  501    0  0.00000000000E+00  0.00000000000E+00  0.10113522623E+04  0.10113522623E+04  0.25500000920E-02 0.  1.
       -2   -1    0    0    0  501  0.00000000000E+00  0.00000000000E+00 -0.71047700715E+03  0.71047700716E+03  0.25500000920E-02 0. -1.
    10030    2    1    2    0    0  0.00000000000E+00  0.00000000000E+00  0.30087525518E+03  0.17218292695E+04  0.16953377581E+04 0.  0.
        5    1    3    3  502    0  0.19360970167E+03 -0.56890461839E+03 -0.45671929747E+03  0.75481904327E+03  0.46999998093E+01 0. -1.
       -5    1    3    3    0  502 -0.19360970167E+03  0.56890461839E+03  0.75759455265E+03  0.96701022622E+03  0.46999998093E+01 0.  1.
</event>
<event>
 5   0  0.3573262E-04  0.1748766E+04  0.7818609E-02  0.8734030E-01
        2   -1    0    0  501    0  0.00000000000E+00  0.00000000000E+00  0.11152178571E+04  0.11152178571E+04  0.25500000920E-02 0. -1.
       -2   -1    0    0    0  501  0.00000000000E+00  0.00000000000E+00 -0.68555681446E+03  0.68555681446E+03  0.25500000920E-02 0.  1.
    10030    2    1    2    0    0  0.00000000000E+00  0.00000000000E+00  0.42966104264E+03  0.18007746716E+04  0.17487655092E+04 0.  0.
        5    1    3    3  502    0 -0.64398562581E+03 -0.47009080503E+03  0.58442023935E+03  0.98857066382E+03  0.46999998093E+01 0. -1.
       -5    1    3    3    0  502  0.64398562581E+03  0.47009080503E+03 -0.15475919671E+03  0.81220400773E+03  0.46999998093E+01 0.  1.
</event>
<event>
 5   0  0.3573262E-04  0.1710371E+04  0.7818609E-02  0.8755471E-01
       -2   -1    0    0    0  501  0.00000000000E+00  0.00000000000E+00  0.42965650723E+03  0.42965650724E+03  0.25500000920E-02 0.  1.
        2   -1    0    0  501    0  0.00000000000E+00  0.00000000000E+00 -0.17021562497E+04  0.17021562497E+04  0.25500000920E-02 0. -1.
    10030    2    1    2    0    0  0.00000000000E+00  0.00000000000E+00 -0.12724997425E+04  0.21318127569E+04  0.17103713152E+04 0.  0.
        5    1    3    3  502    0 -0.58160237247E+03  0.46484139517E+03 -0.11606015735E+04  0.13788970030E+04  0.46999998093E+01 0. -1.
       -5    1    3    3    0  502  0.58160237247E+03 -0.46484139517E+03 -0.11189816891E+03  0.75291575394E+03  0.46999998093E+01 0.  1.
</event>
<event>
 5   0  0.1920289E-04  0.1424740E+04  0.7818609E-02  0.8936103E-01
       -1   -1    0    0    0  501  0.00000000000E+00  0.00000000000E+00  0.70370796844E+03  0.70370796846E+03  0.50400001928E-02 0. -1.
        1   -1    0    0  501    0  0.00000000000E+00  0.00000000000E+00 -0.72113832068E+03  0.72113832070E+03  0.50400001928E-02 0.  1.
    10030    2    1    2    0    0  0.00000000000E+00  0.00000000000E+00 -0.17430352241E+02  0.14248462892E+04  0.14247396711E+04 0.  0.
        4    1    3    3  502    0  0.39644542088E+03  0.55386939272E+03  0.19993622903E+03  0.70987068154E+03  0.12699999809E+01 0.  1.
       -4    1    3    3    0  502 -0.39644542088E+03 -0.55386939272E+03 -0.21736658127E+03  0.71497560762E+03  0.12699999809E+01 0. -1.
</event>
<event>
 5   0  0.3678896E-04  0.1695059E+04  0.7818609E-02  0.8764188E-01
        2   -1    0    0  501    0  0.00000000000E+00  0.00000000000E+00  0.69467499750E+03  0.69467499751E+03  0.25500000920E-02 0.  1.
       -2   -1    0    0    0  501  0.00000000000E+00  0.00000000000E+00 -0.10340174632E+04  0.10340174632E+04  0.25500000920E-02 0. -1.
    10030    2    1    2    0    0  0.00000000000E+00  0.00000000000E+00 -0.33934246571E+03  0.17286924607E+04  0.16950587939E+04 0.  0.
        2    1    3    3  502    0  0.11209192800E+03  0.36396691481E+03  0.60249785855E+03  0.71276937712E+03  0.25500000920E-02 0.  1.
       -2    1    3    3    0  502 -0.11209192800E+03 -0.36396691481E+03 -0.94184032426E+03  0.10159230836E+04  0.25500000920E-02 0. -1.
</event>
<event>
 5   0  0.3574092E-04  0.1684683E+04  0.7818609E-02  0.8770149E-01
       -2   -1    0    0    0  501  0.00000000000E+00  0.00000000000E+00  0.36922787565E+03  0.36922787566E+03  0.25500000920E-02 0.  1.
        2   -1    0    0  501    0  0.00000000000E+00  0.00000000000E+00 -0.19216826032E+04  0.19216826032E+04  0.25500000920E-02 0. -1.
    10030    2    1    2    0    0  0.00000000000E+00  0.00000000000E+00 -0.15524547275E+04  0.22909104788E+04  0.16846825045E+04 0.  0.
        3    1    3    3  502    0 -0.87361553160E+02  0.46402856224E+03  0.17234194029E+03  0.50264928342E+03  0.10100000352E+00 0.  1.
       -3    1    3    3    0  502  0.87361553160E+02 -0.46402856224E+03 -0.17247966678E+04  0.17882611954E+04  0.10100000352E+00 0. -1.
</event>
<event>
 5   0  0.1824538E-04  0.1714079E+04  0.7818609E-02  0.8753375E-01
        1   -1    0    0  501    0  0.00000000000E+00  0.00000000000E+00  0.62555882783E+03  0.62555882785E+03  0.50400001928E-02 0. -1.
       -1   -1    0    0    0  501  0.00000000000E+00  0.00000000000E+00 -0.11741764582E+04  0.11741764582E+04  0.50400001928E-02 0.  1.
    10030    2    1    2    0    0  0.00000000000E+00  0.00000000000E+00 -0.54861763037E+03  0.17997352861E+04  0.17140787017E+04 0.  0.
        3    1    3    3  502    0 -0.14913987604E+03  0.39900849473E+03  0.50653888698E+03  0.66183996232E+03  0.10100000352E+00 0. -1.
       -3    1    3    3    0  502  0.14913987604E+03 -0.39900849473E+03 -0.10551565173E+04  0.11378953237E+04  0.10100000352E+00 0.  1.
</event>
<event>
 5   0  0.3574092E-04  0.1690576E+04  0.7818609E-02  0.8766758E-01
       -2   -1    0    0    0  501  0.00000000000E+00  0.00000000000E+00  0.46916499742E+03  0.46916499743E+03  0.25500000920E-02 0.  1.
        2   -1    0    0  501    0  0.00000000000E+00  0.00000000000E+00 -0.15229432707E+04  0.15229432707E+04  0.25500000920E-02 0. -1.
    10030    2    1    2    0    0  0.00000000000E+00  0.00000000000E+00 -0.10537782733E+04  0.19921082681E+04  0.16905758494E+04 0.  0.
        3    1    3    3  502    0  0.76871449175E+02  0.58171472557E+03 -0.12438618025E+04  0.13753157585E+04  0.10100000352E+00 0.  1.
       -3    1    3    3    0  502 -0.76871449175E+02 -0.58171472557E+03  0.19008352924E+03  0.61679250963E+03  0.10100000352E+00 0. -1.
</event>
<event>
 5   0  0.1920289E-04  0.1706615E+04  0.7818609E-02  0.8757600E-01
       -1   -1    0    0    0  501  0.00000000000E+00  0.00000000000E+00  0.67787309645E+03  0.67787309647E+03  0.50400001928E-02 0.  1.
        1   -1    0    0  501    0  0.00000000000E+00  0.00000000000E+00 -0.10741450952E+04  0.10741450952E+04  0.50400001928E-02 0. -1.
    10030    2    1    2    0    0  0.00000000000E+00  0.00000000000E+00 -0.39627199873E+03  0.17520181917E+04  0.17066154362E+04 0.  0.
        4    1    3    3  502    0  0.78953311439E+03  0.28402793247E+03 -0.38770673328E+02  0.83996379872E+03  0.12699999809E+01 0.  1.
       -4    1    3    3    0  502 -0.78953311439E+03 -0.28402793247E+03 -0.35750132541E+03  0.91205439296E+03  0.12699999809E+01 0. -1.
</event>
<event>
 5   0  0.3573262E-04  0.1692212E+04  0.7818609E-02  0.8765819E-01
        2   -1    0    0  501    0  0.00000000000E+00  0.00000000000E+00  0.68681707542E+03  0.68681707543E+03  0.25500000920E-02 0. -1.
       -2   -1    0    0    0  501  0.00000000000E+00  0.00000000000E+00 -0.10423375589E+04  0.10423375589E+04  0.25500000920E-02 0.  1.
    10030    2    1    2    0    0  0.00000000000E+00  0.00000000000E+00 -0.35552048350E+03  0.17291546343E+04  0.16922118471E+04 0.  0.
        5    1    3    3  502    0  0.97640739970E+02 -0.69563245721E+02  0.67808070014E+03  0.68861330597E+03  0.46999998093E+01 0. -1.
       -5    1    3    3    0  502 -0.97640739970E+02  0.69563245721E+02 -0.10336011836E+04  0.10405413284E+04  0.46999998093E+01 0.  1.
</event>
<event>
 5   0  0.1824538E-04  0.1688967E+04  0.7818609E-02  0.8767682E-01
       -1   -1    0    0    0  501  0.00000000000E+00  0.00000000000E+00  0.41314138203E+03  0.41314138206E+03  0.50400001928E-02 0. -1.
        1   -1    0    0  501    0  0.00000000000E+00  0.00000000000E+00 -0.17261703414E+04  0.17261703414E+04  0.50400001928E-02 0.  1.
    10030    2    1    2    0    0  0.00000000000E+00  0.00000000000E+00 -0.13130289593E+04  0.21393117234E+04  0.16889670222E+04 0.  0.
        3    1    3    3  502    0 -0.36788652458E+03 -0.35566177367E+03 -0.15074439290E+04  0.15919243077E+04  0.10100000352E+00 0.  1.
       -3    1    3    3    0  502  0.36788652458E+03  0.35566177367E+03  0.19441496969E+03  0.54738741569E+03  0.10100000352E+00 0. -1.
</event>
<event>
 5   0  0.3678896E-04  0.1692776E+04  0.7818609E-02  0.8765495E-01
        2   -1    0    0  501    0  0.00000000000E+00  0.00000000000E+00  0.10210658050E+04  0.10210658050E+04  0.25500000920E-02 0.  1.
       -2   -1    0    0    0  501  0.00000000000E+00  0.00000000000E+00 -0.70159341820E+03  0.70159341820E+03  0.25500000920E-02 0. -1.
    10030    2    1    2    0    0  0.00000000000E+00  0.00000000000E+00  0.31947238683E+03  0.17226592232E+04  0.16927764747E+04 0.  0.
        2    1    3    3  502    0 -0.54098146512E+03 -0.64476059133E+03  0.25073442741E+03  0.87820551059E+03  0.25500000920E-02 0.  1.
       -2    1    3    3    0  502  0.54098146512E+03  0.64476059133E+03  0.68737959426E+02  0.84445371265E+03  0.25500000920E-02 0. -1.
</event>
<event>
 5   0  0.1815663E-04  0.1686335E+04  0.7818609E-02  0.8769196E-01
        1   -1    0    0  501    0  0.00000000000E+00  0.00000000000E+00  0.49889009616E+03  0.49889009618E+03  0.50400001928E-02 0.  1.
       -1   -1    0    0    0  501  0.00000000000E+00  0.00000000000E+00 -0.14250267155E+04  0.14250267155E+04  0.50400001928E-02 0. -1.
    10030    2    1    2    0    0  0.00000000000E+00  0.00000000000E+00 -0.92613661931E+03  0.19239168117E+04  0.16863353346E+04 0.  0.
        5    1    3    3  502    0 -0.32430723506E+03  0.26127399706E+03  0.37334243152E+03  0.55932633178E+03  0.46999998093E+01 0.  1.
       -5    1    3    3    0  502  0.32430723506E+03 -0.26127399706E+03 -0.12994790508E+04  0.13645904799E+04  0.46999998093E+01 0. -1.
</event>
<event>
 5   0  0.1893284E-04  0.1697663E+04  0.7818609E-02  0.8762698E-01
        1   -1    0    0  501    0  0.00000000000E+00  0.00000000000E+00  0.70599013958E+03  0.70599013959E+03  0.50400001928E-02 0.  1.
       -1   -1    0    0    0  501  0.00000000000E+00  0.00000000000E+00 -0.10205738388E+04  0.10205738389E+04  0.50400001928E-02 0. -1.
    10030    2    1    2    0    0  0.00000000000E+00  0.00000000000E+00 -0.31458369926E+03  0.17265639784E+04  0.16976631786E+04 0.  0.
        2    1    3    3  502    0  0.84632001350E+03  0.24664997988E+02 -0.21872833804E+03  0.87447585058E+03  0.25500000920E-02 0.  1.
       -2    1    3    3    0  502 -0.84632001350E+03 -0.24664997988E+02 -0.95855361226E+02  0.85208812787E+03  0.25500000920E-02 0. -1.
</event>
<event>
 5   0  0.1815663E-04  0.1748756E+04  0.7818609E-02  0.8734035E-01
       -1   -1    0    0    0  501  0.00000000000E+00  0.00000000000E+00  0.74439643301E+03  0.74439643302E+03  0.50400001928E-02 0.  1.
        1   -1    0    0  501    0  0.00000000000E+00  0.00000000000E+00 -0.10270562383E+04  0.10270562383E+04  0.50400001928E-02 0. -1.
    10030    2    1    2    0    0  0.00000000000E+00  0.00000000000E+00 -0.28265980530E+03  0.17714526713E+04  0.17487561297E+04 0.  0.
        5    1    3    3  502    0  0.43406688536E+03  0.41179882397E+03 -0.78719622460E+03  0.98878325148E+03  0.46999998093E+01 0. -1.
       -5    1    3    3    0  502 -0.43406688536E+03 -0.41179882397E+03  0.50453641930E+03  0.78266941986E+03  0.46999998093E+01 0.  1.
</event>
<event>
 5   0  0.3573262E-04  0.1700770E+04  0.7818609E-02  0.8760925E-01
       -2   -1    0    0    0  501  0.00000000000E+00  0.00000000000E+00  0.34903101391E+03  0.34903101392E+03  0.25500000920E-02 0.  1.
        2   -1    0    0  501    0  0.00000000000E+00  0.00000000000E+00 -0.20718926784E+04  0.20718926784E+04  0.25500000920E-02 0. -1.
    10030    2    1    2    0    0  0.00000000000E+00  0.00000000000E+00 -0.17228616645E+04  0.24209236923E+04  0.17007701811E+04 0.  0.
        5    1    3    3  502    0  0.14776652872E+03 -0.68820147452E+02 -0.20494274862E+04  0.20559052193E+04  0.46999998093E+01 0. -1.
       -5    1    3    3    0  502 -0.14776652872E+03  0.68820147452E+02  0.32656582172E+03  0.36501847298E+03  0.46999998093E+01 0.  1.
</event>
<event>
 5   0  0.1815663E-04  0.1702813E+04  0.7818609E-02  0.8759761E-01
       -1   -1    0    0    0  501  0.00000000000E+00  0.00000000000E+00  0.70838935554E+03  0.70838935555E+03  0.50400001928E-02 0. -1.
        1   -1    0    0  501    0  0.00000000000E+00  0.00000000000E+00 -0.10232979107E+04  0.10232979107E+04  0.50400001928E-02 0.  1.
    10030    2    1    2    0    0  0.00000000000E+00  0.00000000000E+00 -0.31490855514E+03  0.17316872662E+04  0.17028133750E+04 0.  0.
        5    1    3    3  502    0  0.11087644043E+03 -0.16176960979E+03  0.68509180375E+03  0.71262603184E+03  0.46999998093E+01 0. -1.
       -5    1    3    3    0  502 -0.11087644043E+03  0.16176960979E+03 -0.10000003589E+04  0.10190612344E+04  0.46999998093E+01 0.  1.
</event>
<event>
 5   0  0.3516723E-04  0.1714107E+04  0.7818609E-02  0.8753359E-01
       -2   -1    0    0    0  501  0.00000000000E+00  0.00000000000E+00  0.37825458216E+03  0.37825458217E+03  0.25500000920E-02 0.  1.
        2   -1    0    0  501    0  0.00000000000E+00  0.00000000000E+00 -0.19419210433E+04  0.19419210433E+04  0.25500000920E-02 0. -1.
    10030    2    1    2    0    0  0.00000000000E+00  0.00000000000E+00 -0.15636664612E+04  0.23201756255E+04  0.17141068028E+04 0.  0.
        1    1    3    3  502    0 -0.80707307947E+03  0.89187088253E+02 -0.41059947961E+03  0.90989737058E+03  0.50400001928E-02 0.  1.
       -1    1    3    3    0  502  0.80707307947E+03 -0.89187088253E+02 -0.11530669816E+04  0.14102782549E+04  0.50400001928E-02 0. -1.
</event>
<event>
 5   0  0.3573262E-04  0.1722638E+04  0.7818609E-02  0.8748557E-01
        2   -1    0    0  501    0  0.00000000000E+00  0.00000000000E+00  0.85005878028E+03  0.85005878028E+03  0.25500000920E-02 0. -1.
       -2   -1    0    0    0  501  0.00000000000E+00  0.00000000000E+00 -0.87272817284E+03  0.87272817284E+03  0.25500000920E-02 0.  1.
    10030    2    1    2    0    0  0.00000000000E+00  0.00000000000E+00 -0.22669392559E+02  0.17227869531E+04  0.17226377984E+04 0.  0.
        5    1    3    3  502    0 -0.23848146107E+03  0.21332398925E+02  0.81609398410E+03  0.85050570803E+03  0.46999998093E+01 0. -1.
       -5    1    3    3    0  502  0.23848146107E+03 -0.21332398925E+02 -0.83876337666E+03  0.87228124509E+03  0.46999998093E+01 0.  1.
</event>
<event>
 5   0  0.3573262E-04  0.1693951E+04  0.7818609E-02  0.8764822E-01
       -2   -1    0    0    0  501  0.00000000000E+00  0.00000000000E+00  0.47768733846E+03  0.47768733847E+03  0.25500000920E-02 0. -1.
        2   -1    0    0  501    0  0.00000000000E+00  0.00000000000E+00 -0.15017508933E+04  0.15017508933E+04  0.25500000920E-02 0.  1.
    10030    2    1    2    0    0  0.00000000000E+00  0.00000000000E+00 -0.10240635548E+04  0.19794382318E+04  0.16939508697E+04 0.  0.
        5    1    3    3  502    0  0.75358191923E+03 -0.37414814359E+03 -0.39830066297E+03  0.93088025570E+03  0.46999998093E+01 0.  1.
       -5    1    3    3    0  502 -0.75358191923E+03  0.37414814359E+03 -0.62576289186E+03  0.10485579761E+04  0.46999998093E+01 0. -1.
</event>
<event>
 5   0  0.1815663E-04  0.1712495E+04  0.7818609E-02  0.8754270E-01
       -1   -1    0    0    0  501  0.00000000000E+00  0.00000000000E+00  0.87158531650E+03  0.87158531651E+03  0.50400001928E-02 0. -1.
        1   -1    0    0  501    0  0.00000000000E+00  0.00000000000E+00 -0.84117945137E+03  0.84117945139E+03  0.50400001928E-02 0.  1.
    10030    2    1    2    0    0  0.00000000000E+00  0.00000000000E+00  0.30405865126E+02  0.17127647679E+04  0.17124948565E+04 0.  0.
        5    1    3    3  502    0 -0.66416881545E+03  0.31088110786E+02  0.55477928152E+03  0.86596121579E+03  0.46999998093E+01 0. -1.
       -5    1    3    3    0  502  0.66416881545E+03 -0.31088110786E+02 -0.52437341640E+03  0.84680355211E+03  0.46999998093E+01 0.  1.
</event>
<event>
 5   0  0.1815663E-04  0.1694304E+04  0.7818609E-02  0.8764619E-01
       -1   -1    0    0    0  501  0.00000000000E+00  0.00000000000E+00  0.13352849454E+04  0.13352849454E+04  0.50400001928E-02 0.  1.
        1   -1    0    0  501    0  0.00000000000E+00  0.00000000000E+00 -0.53746342006E+03  0.53746342008E+03  0.50400001928E-02 0. -1.
    10030    2    1    2    0    0  0.00000000000E+00  0.00000000000E+00  0.79782152533E+03  0.18727483655E+04  0.16943043570E+04 0.  0.
        5    1    3    3  502    0 -0.44835109585E+03  0.22065547048E+03 -0.35719365687E+03  0.61426129645E+03  0.46999998093E+01 0. -1.
       -5    1    3    3    0  502  0.44835109585E+03 -0.22065547048E+03  0.11550151822E+04  0.12584870690E+04  0.46999998093E+01 0.  1.
</event>
<event>
 5   0  0.3573262E-04  0.1723115E+04  0.7818609E-02  0.8748290E-01
       -2   -1    0    0    0  501  0.00000000000E+00  0.00000000000E+00  0.37996436724E+03  0.37996436725E+03  0.25500000920E-02 0.  1.
        2   -1    0    0  501    0  0.00000000000E+00  0.00000000000E+00 -0.19535549155E+04  0.19535549155E+04  0.25500000920E-02 0. -1.
    10030    2    1    2    0    0  0.00000000000E+00  0.00000000000E+00 -0.15735905482E+04  0.23335192827E+04  0.17231149205E+04 0.  0.
        5    1    3    3  502    0  0.16702315683E+03  0.82985243322E+03 -0.10039283516E+04  0.13131816405E+04  0.46999998093E+01 0.  1.
       -5    1    3    3    0  502 -0.16702315683E+03 -0.82985243322E+03 -0.56966219663E+03  0.10203376422E+04  0.46999998093E+01 0. -1.
</event>
<event>
 5   0  0.1920289E-04  0.1690245E+04  0.7818609E-02  0.8766948E-01
       -1   -1    0    0    0  501  0.00000000000E+00  0.00000000000E+00  0.38966440573E+03  0.38966440577E+03  0.50400001928E-02 0.  1.
        1   -1    0    0  501    0  0.00000000000E+00  0.00000000000E+00 -0.18329405347E+04  0.18329405347E+04  0.50400001928E-02 0. -1.
    10030    2    1    2    0    0  0.00000000000E+00  0.00000000000E+00 -0.14432761290E+04  0.22226049405E+04  0.16902445790E+04 0.  0.
        4    1    3    3  502    0  0.40976929497E+03 -0.38532513944E+03  0.10777139526E+03  0.57271513400E+03  0.12699999809E+01 0.  1.
       -4    1    3    3    0  502 -0.40976929497E+03  0.38532513944E+03 -0.15510475242E+04  0.16498898065E+04  0.12699999809E+01 0. -1.
</event>
<event>
 5   0  0.3516723E-04  0.1700515E+04  0.7818609E-02  0.8761071E-01
        2   -1    0    0  501    0  0.00000000000E+00  0.00000000000E+00  0.71677993135E+03  0.71677993135E+03  0.25500000920E-02 0. -1.
       -2   -1    0    0    0  501  0.00000000000E+00  0.00000000000E+00 -0.10085904881E+04  0.10085904881E+04  0.25500000920E-02 0.  1.
    10030    2    1    2    0    0  0.00000000000E+00  0.00000000000E+00 -0.29181055677E+03  0.17253704195E+04  0.17005145349E+04 0.  0.
        1    1    3    3  502    0  0.54373317567E+03 -0.62795927782E+03 -0.33010445921E+03  0.89383867389E+03  0.50400001928E-02 0.  1.
       -1    1    3    3    0  502 -0.54373317567E+03  0.62795927782E+03  0.38293902437E+02  0.83153174559E+03  0.50400001928E-02 0. -1.
</event>
<event>
 5   0  0.1815663E-04  0.1715045E+04  0.7818609E-02  0.8752830E-01
        1   -1    0    0  501    0  0.00000000000E+00  0.00000000000E+00  0.14106833269E+04  0.14106833269E+04  0.50400001928E-02 0. -1.
       -1   -1    0    0    0  501  0.00000000000E+00  0.00000000000E+00 -0.52126859524E+03  0.52126859527E+03  0.50400001928E-02 0.  1.
    10030    2    1    2    0    0  0.00000000000E+00  0.00000000000E+00  0.88941473162E+03  0.19319519221E+04  0.17150450911E+04 0.  0.
        5    1    3    3  502    0 -0.72481675495E+03  0.32225139882E+03  0.77751067628E+02  0.79703990541E+03  0.46999998093E+01 0.  1.
       -5    1    3    3    0  502  0.72481675495E+03 -0.32225139882E+03  0.81166366400E+03  0.11349120167E+04  0.46999998093E+01 0. -1.
</event>
<event>
 5   0  0.1930116E-04  0.1710169E+04  0.7818609E-02  0.8755586E-01
        1   -1    0    0  501    0  0.00000000000E+00  0.00000000000E+00  0.74058095829E+03  0.74058095831E+03  0.50400001928E-02 0.  1.
       -1   -1    0    0    0  501  0.00000000000E+00  0.00000000000E+00 -0.98729233878E+03  0.98729233879E+03  0.50400001928E-02 0. -1.
    10030    2    1    2    0    0  0.00000000000E+00  0.00000000000E+00 -0.24671138049E+03  0.17278732971E+04  0.17101694728E+04 0.  0.
        1    1    3    3  502    0  0.10679325620E+03  0.50173012665E+01  0.73380163880E+03  0.74154893164E+03  0.50400001928E-02 0.  1.
       -1    1    3    3    0  502 -0.10679325620E+03 -0.50173012665E+01 -0.98051301929E+03  0.98632436546E+03  0.50400001928E-02 0. -1.
</event>
<event>
 5   0  0.1930116E-04  0.1704421E+04  0.7818609E-02  0.8758847E-01
        1   -1    0    0  501    0  0.00000000000E+00  0.00000000000E+00  0.78206292513E+03  0.78206292515E+03  0.50400001928E-02 0. -1.
       -1   -1    0    0    0  501  0.00000000000E+00  0.00000000000E+00 -0.92864950967E+03  0.92864950968E+03  0.50400001928E-02 0.  1.
    10030    2    1    2    0    0  0.00000000000E+00  0.00000000000E+00 -0.14658658454E+03  0.17107124348E+04  0.17044205490E+04 0.  0.
        1    1    3    3  502    0 -0.22473701330E+03  0.24643534642E+03  0.71383717459E+03  0.78790901567E+03  0.50400001928E-02 0. -1.
       -1    1    3    3    0  502  0.22473701330E+03 -0.24643534642E+03 -0.86042375913E+03  0.92280341916E+03  0.50400001928E-02 0.  1.
</event>
<event>
 5   0  0.1920289E-04  0.1698648E+04  0.7818609E-02  0.8762136E-01
        1   -1    0    0  501    0  0.00000000000E+00  0.00000000000E+00  0.13173324216E+04  0.13173324216E+04  0.50400001928E-02 0. -1.
       -1   -1    0    0    0  501  0.00000000000E+00  0.00000000000E+00 -0.54758500816E+03  0.54758500818E+03  0.50400001928E-02 0.  1.
    10030    2    1    2    0    0  0.00000000000E+00  0.00000000000E+00  0.76974741343E+03  0.18649174298E+04  0.16986482683E+04 0.  0.
        4    1    3    3  502    0 -0.24972493363E+03  0.72216431055E+03 -0.22182007012E+02  0.76444587006E+03  0.12699999809E+01 0.  1.
       -4    1    3    3    0  502  0.24972493363E+03 -0.72216431055E+03  0.79192942044E+03  0.11004715597E+04  0.12699999809E+01 0. -1.
</event>
<event>
 5   0  0.3605571E-04  0.1754473E+04  0.7818609E-02  0.8730892E-01
        2   -1    0    0  501    0  0.00000000000E+00  0.00000000000E+00  0.19880613101E+04  0.19880613101E+04  0.25500000920E-02 0.  1.
       -2   -1    0    0    0  501  0.00000000000E+00  0.00000000000E+00 -0.38708275239E+03  0.38708275239E+03  0.25500000920E-02 0. -1.
    10030    2    1    2    0    0  0.00000000000E+00  0.00000000000E+00  0.16009785577E+04  0.23751440625E+04  0.17544734182E+04 0.  0.
        4    1    3    3  502    0 -0.80023013330E+03 -0.30435464195E+03  0.54170196383E+03  0.10131350575E+04  0.12699999809E+01 0. -1.
       -4    1    3    3    0  502  0.80023013330E+03  0.30435464195E+03  0.10592765939E+04  0.13620090049E+04  0.12699999809E+01 0.  1.
</event>
<event>
 5   0  0.3574092E-04  0.1676275E+04  0.7818609E-02  0.8775013E-01
       -2   -1    0    0    0  501  0.00000000000E+00  0.00000000000E+00  0.42165483024E+03  0.42165483025E+03  0.25500000920E-02 0.  1.
        2   -1    0    0  501    0  0.00000000000E+00  0.00000000000E+00 -0.16659933440E+04  0.16659933440E+04  0.25500000920E-02 0. -1.
    10030    2    1    2    0    0  0.00000000000E+00  0.00000000000E+00 -0.12443385138E+04  0.20876481743E+04  0.16762746084E+04 0.  0.
        3    1    3    3  502    0  0.17118890112E+03 -0.87038233838E+02  0.39388397844E+03  0.43820759086E+03  0.10100000352E+00 0.  1.
       -3    1    3    3    0  502 -0.17118890112E+03  0.87038233838E+02 -0.16382224922E+04  0.16494405834E+04  0.10100000352E+00 0. -1.
</event>
<event>
 5   0  0.1920289E-04  0.1688879E+04  0.7818609E-02  0.8767733E-01
       -1   -1    0    0    0  501  0.00000000000E+00  0.00000000000E+00  0.32078813113E+03  0.32078813117E+03  0.50400001928E-02 0. -1.
        1   -1    0    0  501    0  0.00000000000E+00  0.00000000000E+00 -0.22228943968E+04  0.22228943968E+04  0.50400001928E-02 0.  1.
    10030    2    1    2    0    0  0.00000000000E+00  0.00000000000E+00 -0.19021062657E+04  0.25436825280E+04  0.16888790831E+04 0.  0.
        4    1    3    3  502    0  0.63274940962E+03  0.86722269105E+02 -0.11901122467E+03  0.64965979700E+03  0.12699999809E+01 0. -1.
       -4    1    3    3    0  502 -0.63274940962E+03 -0.86722269105E+02 -0.17830950410E+04  0.18940227310E+04  0.12699999809E+01 0.  1.
</event>
<event>
 5   0  0.3573262E-04  0.1656403E+04  0.7818609E-02  0.8786627E-01
        2   -1    0    0  501    0  0.00000000000E+00  0.00000000000E+00  0.15119176620E+04  0.15119176620E+04  0.25500000920E-02 0. -1.
       -2   -1    0    0    0  501  0.00000000000E+00  0.00000000000E+00 -0.45367408502E+03  0.45367408503E+03  0.25500000920E-02 0.  1.
    10030    2    1    2    0    0  0.00000000000E+00  0.00000000000E+00  0.10582435770E+04  0.19655917470E+04  0.16564031658E+04 0.  0.
        5    1    3    3  502    0 -0.70107662287E+03 -0.14190163600E+03  0.33768284074E+02  0.71610536407E+03  0.46999998093E+01 0.  1.
       -5    1    3    3    0  502  0.70107662287E+03  0.14190163600E+03  0.10244752929E+04  0.12494863830E+04  0.46999998093E+01 0. -1.
</event>
<event>
 5   0  0.3574092E-04  0.1679480E+04  0.7818609E-02  0.8773155E-01
       -2   -1    0    0    0  501  0.00000000000E+00  0.00000000000E+00  0.56924588250E+03  0.56924588251E+03  0.25500000920E-02 0. -1.
        2   -1    0    0  501    0  0.00000000000E+00  0.00000000000E+00 -0.12387668176E+04  0.12387668176E+04  0.25500000920E-02 0.  1.
    10030    2    1    2    0    0  0.00000000000E+00  0.00000000000E+00 -0.66952093505E+03  0.18080127001E+04  0.16794795745E+04 0.  0.
        3    1    3    3  502    0  0.67461165138E+03  0.31859048915E+03 -0.74969616050E+03  0.10576602116E+04  0.10100000352E+00 0.  1.
       -3    1    3    3    0  502 -0.67461165138E+03 -0.31859048915E+03  0.80175225453E+02  0.75035248845E+03  0.10100000352E+00 0. -1.
</event>
<event>
 5   0  0.3605571E-04  0.1811545E+04  0.7818609E-02  0.8700184E-01
        2   -1    0    0  501    0  0.00000000000E+00  0.00000000000E+00  0.14266713310E+04  0.14266713310E+04  0.25500000920E-02 0. -1.
       -2   -1    0    0    0  501  0.00000000000E+00  0.00000000000E+00 -0.57506164304E+03  0.57506164304E+03  0.25500000920E-02 0.  1.
    10030    2    1    2    0    0  0.00000000000E+00  0.00000000000E+00  0.85160968801E+03  0.20017329741E+04  0.18115451523E+04 0.  0.
        4    1    3    3  502    0  0.53230959410E+03 -0.60452332995E+03  0.88356861464E+03  0.11956157703E+04  0.12699999809E+01 0. -1.
       -4    1    3    3    0  502 -0.53230959410E+03  0.60452332995E+03 -0.31958926626E+02  0.80611720383E+03  0.12699999809E+01 0.  1.
</event>
<event>
 5   0  0.3678896E-04  0.1747905E+04  0.7818609E-02  0.8734504E-01
        2   -1    0    0  501    0  0.00000000000E+00  0.00000000000E+00  0.19086908232E+04  0.19086908232E+04  0.25500000920E-02 0. -1.
       -2   -1    0    0    0  501  0.00000000000E+00  0.00000000000E+00 -0.40016598986E+03  0.40016598987E+03  0.25500000920E-02 0.  1.
    10030    2    1    2    0    0  0.00000000000E+00  0.00000000000E+00  0.15085248334E+04  0.23088568131E+04  0.17479052064E+04 0.  0.
        2    1    3    3  502    0  0.60641018722E+03  0.15215660034E+03  0.15609030493E+04  0.16814586750E+04  0.25500000920E-02 0. -1.
       -2    1    3    3    0  502 -0.60641018722E+03 -0.15215660034E+03 -0.52378215988E+02  0.62739813812E+03  0.25500000920E-02 0.  1.
</event>
<event>
 5   0  0.3678896E-04  0.1709200E+04  0.7818609E-02  0.8756134E-01
       -2   -1    0    0    0  501  0.00000000000E+00  0.00000000000E+00  0.67919341984E+03  0.67919341984E+03  0.25500000920E-02 0. -1.
        2   -1    0    0  501    0  0.00000000000E+00  0.00000000000E+00 -0.10753068921E+04  0.10753068921E+04  0.25500000920E-02 0.  1.
    10030    2    1    2    0    0  0.00000000000E+00  0.00000000000E+00 -0.39611347229E+03  0.17545003120E+04  0.17092002404E+04 0.  0.
        2    1    3    3  502    0 -0.70828676468E+03  0.27831673500E+03 -0.59722152585E+03  0.96736957619E+03  0.25500000920E-02 0.  1.
       -2    1    3    3    0  502  0.70828676468E+03 -0.27831673500E+03  0.20110805356E+03  0.78713073578E+03  0.25500000920E-02 0. -1.
</event>
<event>
 5   0  0.3678896E-04  0.1697647E+04  0.7818609E-02  0.8762708E-01
        2   -1    0    0  501    0  0.00000000000E+00  0.00000000000E+00  0.12617055037E+04  0.12617055037E+04  0.25500000920E-02 0. -1.
       -2   -1    0    0    0  501  0.00000000000E+00  0.00000000000E+00 -0.57105319729E+03  0.57105319730E+03  0.25500000920E-02 0.  1.
    10030    2    1    2    0    0  0.00000000000E+00  0.00000000000E+00  0.69065230642E+03  0.18327587010E+04  0.16976465615E+04 0.  0.
        2    1    3    3  502    0  0.19509285656E+03 -0.41515434954E+03 -0.42571928396E+03  0.62582047375E+03  0.25500000920E-02 0.  1.
       -2    1    3    3    0  502 -0.19509285656E+03  0.41515434954E+03  0.11163715904E+04  0.12069382273E+04  0.25500000920E-02 0. -1.
</event>
<event>
 5   0  0.3574092E-04  0.1709112E+04  0.7818609E-02  0.8756185E-01
       -2   -1    0    0    0  501  0.00000000000E+00  0.00000000000E+00  0.84716937693E+03  0.84716937693E+03  0.25500000920E-02 0.  1.
        2   -1    0    0  501    0  0.00000000000E+00  0.00000000000E+00 -0.86200678576E+03  0.86200678577E+03  0.25500000920E-02 0. -1.
    10030    2    1    2    0    0  0.00000000000E+00  0.00000000000E+00 -0.14837408836E+02  0.17091761627E+04  0.17091117595E+04 0.  0.
        3    1    3    3  502    0 -0.46432841768E+03  0.71701921388E+03 -0.30835582765E+02  0.85479136396E+03  0.10100000352E+00 0. -1.
       -3    1    3    3    0  502  0.46432841768E+03 -0.71701921388E+03  0.15998173929E+02  0.85438479873E+03  0.10100000352E+00 0.  1.
</event>
<event>
 5   0  0.3605571E-04  0.1725280E+04  0.7818609E-02  0.8747076E-01
        2   -1    0    0  501    0  0.00000000000E+00  0.00000000000E+00  0.14679668638E+04  0.14679668638E+04  0.25500000920E-02 0. -1.
       -2   -1    0    0    0  501  0.00000000000E+00  0.00000000000E+00 -0.50692395333E+03  0.50692395334E+03  0.25500000920E-02 0.  1.
    10030    2    1    2    0    0  0.00000000000E+00  0.00000000000E+00  0.96104291045E+03  0.19748908171E+04  0.17252797639E+04 0.  0.
        4    1    3    3  502    0 -0.46545270361E+03 -0.29757980256E+03 -0.27786244948E+03  0.61839236082E+03  0.12699999809E+01 0.  1.
       -4    1    3    3    0  502  0.46545270361E+03  0.29757980256E+03  0.12389053599E+04  0.13564984563E+04  0.12699999809E+01 0. -1.
</event>
<event>
 5   0  0.3516723E-04  0.1650100E+04  0.7818609E-02  0.8790347E-01
        2   -1    0    0  501    0  0.00000000000E+00  0.00000000000E+00  0.10544658665E+04  0.10544658665E+04  0.25500000920E-02 0.  1.
       -2   -1    0    0    0  501  0.00000000000E+00  0.00000000000E+00 -0.64554706900E+03  0.64554706901E+03  0.25500000920E-02 0. -1.
    10030    2    1    2    0    0  0.00000000000E+00  0.00000000000E+00  0.40891879753E+03  0.17000129355E+04  0.16500998146E+04 0.  0.
        1    1    3    3  502    0  0.77157312693E+03 -0.15137076198E+03 -0.53039167196E+02  0.78806811321E+03  0.50400001928E-02 0. -1.
       -1    1    3    3    0  502 -0.77157312693E+03  0.15137076198E+03  0.46195796473E+03  0.91194482233E+03  0.50400001928E-02 0.  1.
</event>
<event>
 5   0  0.1930116E-04  0.1701313E+04  0.7818609E-02  0.8760616E-01
       -1   -1    0    0    0  501  0.00000000000E+00  0.00000000000E+00  0.59977390479E+03  0.59977390481E+03  0.50400001928E-02 0. -1.
        1   -1    0    0  501    0  0.00000000000E+00  0.00000000000E+00 -0.12064822939E+04  0.12064822939E+04  0.50400001928E-02 0.  1.
    10030    2    1    2    0    0  0.00000000000E+00  0.00000000000E+00 -0.60670838908E+03  0.18062561987E+04  0.17013131358E+04 0.  0.
        1    1    3    3  502    0 -0.10307840844E+03  0.35603986602E+03  0.50952877160E+03  0.63008659214E+03  0.50400001928E-02 0. -1.
       -1    1    3    3    0  502  0.10307840844E+03 -0.35603986602E+03 -0.11162371607E+04  0.11761696066E+04  0.50400001928E-02 0.  1.
</event>
<event>
 5   0  0.1824538E-04  0.1688498E+04  0.7818609E-02  0.8767952E-01
       -1   -1    0    0    0  501  0.00000000000E+00  0.00000000000E+00  0.77095556209E+03  0.77095556211E+03  0.50400001928E-02 0.  1.
        1   -1    0    0  501    0  0.00000000000E+00  0.00000000000E+00 -0.92451018775E+03  0.92451018777E+03  0.50400001928E-02 0. -1.
    10030    2    1    2    0    0  0.00000000000E+00  0.00000000000E+00 -0.15355462566E+03  0.16954657499E+04  0.16884978786E+04 0.  0.
        3    1    3    3  502    0 -0.22841242528E+03  0.46546670046E+03  0.59224899213E+03  0.78714062539E+03  0.10100000352E+00 0.  1.
       -3    1    3    3    0  502  0.22841242528E+03 -0.46546670046E+03 -0.74580361779E+03  0.90832512449E+03  0.10100000352E+00 0. -1.
</event>
<event>
 5   0  0.1930116E-04  0.1709454E+04  0.7818609E-02  0.8755991E-01
       -1   -1    0    0    0  501  0.00000000000E+00  0.00000000000E+00  0.48274198246E+03  0.48274198249E+03  0.50400001928E-02 0. -1.
        1   -1    0    0  501    0  0.00000000000E+00  0.00000000000E+00 -0.15133510191E+04  0.15133510191E+04  0.50400001928E-02 0.  1.
    10030    2    1    2    0    0  0.00000000000E+00  0.00000000000E+00 -0.10306090366E+04  0.19960930016E+04  0.17094537972E+04 0.  0.
        1    1    3    3  502    0 -0.42247131054E+03 -0.30777083514E+02 -0.13821665298E+04  0.14456187441E+04  0.50400001928E-02 0.  1.
       -1    1    3    3    0  502  0.42247131054E+03  0.30777083514E+02  0.35155749320E+03  0.55047425748E+03  0.50400001928E-02 0. -1.
</event>
<event>
 5   0  0.3605571E-04  0.1703628E+04  0.7818609E-02  0.8759298E-01
        2   -1    0    0  501    0  0.00000000000E+00  0.00000000000E+00  0.10093804226E+04  0.10093804226E+04  0.25500000920E-02 0. -1.
       -2   -1    0    0    0  501  0.00000000000E+00  0.00000000000E+00 -0.71884410991E+03  0.71884410991E+03  0.25500000920E-02 0.  1.
    10030    2    1    2    0    0  0.00000000000E+00  0.00000000000E+00  0.29053631272E+03  0.17282245325E+04  0.17036280949E+04 0.  0.
        4    1    3    3  502    0  0.45470171010E+03 -0.71957642648E+03  0.11252711381E+03  0.85860808461E+03  0.12699999809E+01 0. -1.
       -4    1    3    3    0  502 -0.45470171010E+03  0.71957642648E+03  0.17800919891E+03  0.86961644793E+03  0.12699999809E+01 0.  1.
</event>
<event>
 5   0  0.3678896E-04  0.1691027E+04  0.7818609E-02  0.8766499E-01
        2   -1    0    0  501    0  0.00000000000E+00  0.00000000000E+00  0.11865800737E+04  0.11865800737E+04  0.25500000920E-02 0. -1.
       -2   -1    0    0    0  501  0.00000000000E+00  0.00000000000E+00 -0.60248188478E+03  0.60248188478E+03  0.25500000920E-02 0.  1.
    10030    2    1    2    0    0  0.00000000000E+00  0.00000000000E+00  0.58409818897E+03  0.17890619585E+04  0.16910269061E+04 0.  0.
        2    1    3    3  502    0  0.57038167231E+03 -0.60241348872E+03  0.46478006010E+03  0.95092469091E+03  0.25500000920E-02 0. -1.
       -2    1    3    3    0  502 -0.57038167231E+03  0.60241348872E+03  0.11931812887E+03  0.83813726763E+03  0.25500000920E-02 0.  1.
</event>
<event>
 5   0  0.3678896E-04  0.1715284E+04  0.7818609E-02  0.8752695E-01
        2   -1    0    0  501    0  0.00000000000E+00  0.00000000000E+00  0.16241518597E+04  0.16241518597E+04  0.25500000920E-02 0.  1.
       -2   -1    0    0    0  501  0.00000000000E+00  0.00000000000E+00 -0.45288218044E+03  0.45288218045E+03  0.25500000920E-02 0. -1.
    10030    2    1    2    0    0  0.00000000000E+00  0.00000000000E+00  0.11712696793E+04  0.20770340402E+04  0.17152835749E+04 0.  0.
        2    1    3    3  502    0  0.46696380232E+03 -0.71823828423E+03  0.63449289966E+03  0.10660687902E+04  0.25500000920E-02 0. -1.
       -2    1    3    3    0  502 -0.46696380232E+03  0.71823828423E+03  0.53677677963E+03  0.10109652500E+04  0.25500000920E-02 0.  1.
</event>
<event>
 5   0  0.3516723E-04  0.1700522E+04  0.7818609E-02  0.8761067E-01
        2   -1    0    0  501    0  0.00000000000E+00  0.00000000000E+00  0.74366219649E+03  0.74366219649E+03  0.25500000920E-02 0. -1.
       -2   -1    0    0    0  501  0.00000000000E+00  0.00000000000E+00 -0.97214016806E+03  0.97214016806E+03  0.25500000920E-02 0.  1.
    10030    2    1    2    0    0  0.00000000000E+00  0.00000000000E+00 -0.22847797157E+03  0.17158023645E+04  0.17005221465E+04 0.  0.
        1    1    3    3  502    0 -0.20708580894E+03  0.73737737130E+03 -0.48679108486E+03  0.90751059514E+03  0.50400001928E-02 0.  1.
       -1    1    3    3    0  502  0.20708580894E+03 -0.73737737130E+03  0.25831311329E+03  0.80829176941E+03  0.50400001928E-02 0. -1.
</event>
<event>
 5   0  0.3573262E-04  0.1695410E+04  0.7818609E-02  0.8763986E-01
       -2   -1    0    0    0  501  0.00000000000E+00  0.00000000000E+00  0.17511637752E+04  0.17511637752E+04  0.25500000920E-02 0.  1.
        2   -1    0    0  501    0  0.00000000000E+00  0.00000000000E+00 -0.41035800060E+03  0.41035800061E+03  0.25500000920E-02 0. -1.
    10030    2    1    2    0    0  0.00000000000E+00  0.00000000000E+00  0.13408057746E+04  0.21615217758E+04  0.16954103521E+04 0.  0.
        5    1    3    3  502    0  0.57025222323E+02  0.71958460405E+03  0.10377333066E+03  0.72927695186E+03  0.46999998093E+01 0. -1.
       -5    1    3    3    0  502 -0.57025222323E+02 -0.71958460405E+03  0.12370324439E+04  0.14322448239E+04  0.46999998093E+01 0.  1.
</event>
<event>
 5   0  0.1893284E-04  0.1708472E+04  0.7818609E-02  0.8756547E-01
        1   -1    0    0  501    0  0.00000000000E+00  0.00000000000E+00  0.18595967846E+04  0.18595967846E+04  0.50400001928E-02 0. -1.
       -1   -1    0    0    0  501  0.00000000000E+00  0.00000000000E+00 -0.39240723798E+03  0.39240723801E+03  0.50400001928E-02 0.  1.
    10030    2    1    2    0    0  0.00000000000E+00  0.00000000000E+00  0.14671895466E+04  0.22520040226E+04  0.17084721104E+04 0.  0.
        2    1    3    3  502    0  0.68549039191E+03 -0.47530962622E+03  0.97630038591E+03  0.12841256799E+04  0.25500000920E-02 0.  1.
       -2    1    3    3    0  502 -0.68549039191E+03  0.47530962622E+03  0.49088916067E+03  0.96787834269E+03  0.25500000920E-02 0. -1.
</event>
<event>
 5   0  0.1824538E-04  0.1661910E+04  0.7818609E-02  0.8783392E-01
        1   -1    0    0  501    0  0.00000000000E+00  0.00000000000E+00  0.13107673337E+04  0.13107673337E+04  0.50400001928E-02 0. -1.
       -1   -1    0    0    0  501  0.00000000000E+00  0.00000000000E+00 -0.52678017121E+03  0.52678017124E+03  0.50400001928E-02 0.  1.
    10030    2    1    2    0    0  0.00000000000E+00  0.00000000000E+00  0.78398716250E+03  0.18375475050E+04  0.16619100343E+04 0.  0.
        3    1    3    3  502    0  0.68984678371E+03  0.46234452816E+03  0.36003983513E+03  0.90514072983E+03  0.10100000352E+00 0.  1.
       -3    1    3    3    0  502 -0.68984678371E+03 -0.46234452816E+03  0.42394732738E+03  0.93240677513E+03  0.10100000352E+00 0. -1.
</event>
<event>
 5   0  0.1930116E-04  0.1712694E+04  0.7818609E-02  0.8754157E-01
        1   -1    0    0  501    0  0.00000000000E+00  0.00000000000E+00  0.17641630077E+04  0.17641630077E+04  0.50400001928E-02 0.  1.
       -1   -1    0    0    0  501  0.00000000000E+00  0.00000000000E+00 -0.41568183060E+03  0.41568183063E+03  0.50400001928E-02 0. -1.
    10030    2    1    2    0    0  0.00000000000E+00  0.00000000000E+00  0.13484811771E+04  0.21798448383E+04  0.17126943785E+04 0.  0.
        1    1    3    3  502    0 -0.38084592845E+03 -0.28600765177E+03  0.15800350291E+04  0.16502589770E+04  0.50400001928E-02 0.  1.
       -1    1    3    3    0  502  0.38084592845E+03  0.28600765177E+03 -0.23155385200E+03  0.52958586130E+03  0.50400001928E-02 0. -1.
</event>
<event>
 5   0  0.1893284E-04  0.1512575E+04  0.7818609E-02  0.8876133E-01
       -1   -1    0    0    0  501  0.00000000000E+00  0.00000000000E+00  0.34919347167E+03  0.34919347170E+03  0.50400001928E-02 0. -1.
        1   -1    0    0  501    0  0.00000000000E+00  0.00000000000E+00 -0.16379772906E+04  0.16379772906E+04  0.50400001928E-02 0.  1.
    10030    2    1    2    0    0  0.00000000000E+00  0.00000000000E+00 -0.12887838189E+04  0.19871707623E+04  0.15125752565E+04 0.  0.
        2    1    3    3  502    0 -0.35909614097E+03 -0.48133471186E+03 -0.40433792606E+02  0.60188706157E+03  0.25500000920E-02 0. -1.
       -2    1    3    3    0  502  0.35909614097E+03  0.48133471186E+03 -0.12483500263E+04  0.13852837007E+04  0.25500000920E-02 0.  1.
</event>
<event>
 5   0  0.3574092E-04  0.1724253E+04  0.7818609E-02  0.8747652E-01
        2   -1    0    0  501    0  0.00000000000E+00  0.00000000000E+00  0.67563430378E+03  0.67563430379E+03  0.25500000920E-02 0.  1.
       -2   -1    0    0    0  501  0.00000000000E+00  0.00000000000E+00 -0.11000954307E+04  0.11000954307E+04  0.25500000920E-02 0. -1.
    10030    2    1    2    0    0  0.00000000000E+00  0.00000000000E+00 -0.42446112696E+03  0.17757297345E+04  0.17242531258E+04 0.  0.
        3    1    3    3  502    0  0.25594799400E+03 -0.24380601303E+00  0.63560473545E+03  0.68520276196E+03  0.10100000352E+00 0.  1.
       -3    1    3    3    0  502 -0.25594799400E+03  0.24380601303E+00 -0.10600658624E+04  0.10905269726E+04  0.10100000352E+00 0. -1.
</event>
<event>
 5   0  0.1893284E-04  0.1724570E+04  0.7818609E-02  0.8747474E-01
       -1   -1    0    0    0  501  0.00000000000E+00  0.00000000000E+00  0.67142515276E+03  0.67142515278E+03  0.50400001928E-02 0.  1.
        1   -1    0    0  501    0  0.00000000000E+00  0.00000000000E+00 -0.11073991787E+04  0.11073991787E+04  0.50400001928E-02 0. -1.
    10030    2    1    2    0    0  0.00000000000E+00  0.00000000000E+00 -0.43597402590E+03  0.17788243314E+04  0.17245702801E+04 0.  0.
        2    1    3    3  502    0 -0.69667434124E+03  0.10464718258E+03 -0.73085111553E+03  0.10151105968E+04  0.25500000920E-02 0. -1.
       -2    1    3    3    0  502  0.69667434124E+03 -0.10464718258E+03  0.29487708963E+03  0.76371373469E+03  0.25500000920E-02 0.  1.
</event>
<event>
 5   0  0.3573262E-04  0.1698451E+04  0.7818609E-02  0.8762248E-01
        2   -1    0    0  501    0  0.00000000000E+00  0.00000000000E+00  0.11971758220E+04  0.11971758220E+04  0.25500000920E-02 0.  1.
       -2   -1    0    0    0  501  0.00000000000E+00  0.00000000000E+00 -0.60240442407E+03  0.60240442407E+03  0.25500000920E-02 0. -1.
    10030    2    1    2    0    0  0.00000000000E+00  0.00000000000E+00  0.59477139793E+03  0.17995802461E+04  0.16984510727E+04 0.  0.
        5    1    3    3  502    0 -0.71198478596E+03 -0.44727981724E+03  0.42355731639E+03  0.94149055259E+03  0.46999998093E+01 0. -1.
       -5    1    3    3    0  502  0.71198478596E+03  0.44727981724E+03  0.17121408154E+03  0.85808969348E+03  0.46999998093E+01 0.  1.
</event>
<event>
 5   0  0.3516723E-04  0.1703486E+04  0.7818609E-02  0.8759379E-01
        2   -1    0    0  501    0  0.00000000000E+00  0.00000000000E+00  0.10411685428E+04  0.10411685428E+04  0.25500000920E-02 0.  1.
       -2   -1    0    0    0  501  0.00000000000E+00  0.00000000000E+00 -0.69678060813E+03  0.69678060813E+03  0.25500000920E-02 0. -1.
    10030    2    1    2    0    0  0.00000000000E+00  0.00000000000E+00  0.34438793464E+03  0.17379491509E+04  0.17034858971E+04 0.  0.
        1    1    3    3  502    0 -0.24581711233E+03 -0.67808391727E+03  0.63439600155E+03  0.96056344839E+03  0.50400001928E-02 0. -1.
       -1    1    3    3    0  502  0.24581711233E+03  0.67808391727E+03 -0.29000806691E+03  0.77738570251E+03  0.50400001928E-02 0.  1.
</event>
<event>
 5   0  0.1815663E-04  0.1707210E+04  0.7818609E-02  0.8757263E-01
       -1   -1    0    0    0  501  0.00000000000E+00  0.00000000000E+00  0.44038605724E+03  0.44038605727E+03  0.50400001928E-02 0. -1.
        1   -1    0    0  501    0  0.00000000000E+00  0.00000000000E+00 -0.16545517211E+04  0.16545517211E+04  0.50400001928E-02 0.  1.
    10030    2    1    2    0    0  0.00000000000E+00  0.00000000000E+00 -0.12141656639E+04  0.20949377784E+04  0.17072100152E+04 0.  0.
        5    1    3    3  502    0  0.16214993908E+03 -0.79116358349E+03 -0.26793120334E+03  0.85090636283E+03  0.46999998093E+01 0.  1.
       -5    1    3    3    0  502 -0.16214993908E+03  0.79116358349E+03 -0.94623446053E+03  0.12440314155E+04  0.46999998093E+01 0. -1.
</event>
<event>
 5   0  0.1824538E-04  0.1698435E+04  0.7818609E-02  0.8762257E-01
        1   -1    0    0  501    0  0.00000000000E+00  0.00000000000E+00  0.45489337772E+03  0.45489337775E+03  0.50400001928E-02 0. -1.
       -1   -1    0    0    0  501  0.00000000000E+00  0.00000000000E+00 -0.15853612325E+04  0.15853612325E+04  0.50400001928E-02 0.  1.
    10030    2    1    2    0    0  0.00000000000E+00  0.00000000000E+00 -0.11304678547E+04  0.20402546102E+04  0.16984349572E+04 0.  0.
        3    1    3    3  502    0  0.29988131516E+03 -0.38092343986E+03 -0.14027933149E+04  0.14842036803E+04  0.10100000352E+00 0.  1.
       -3    1    3    3    0  502 -0.29988131516E+03  0.38092343986E+03  0.27232546012E+03  0.55605092991E+03  0.10100000352E+00 0. -1.
</event>
<event>
 5   0  0.1930116E-04  0.1648662E+04  0.7818609E-02  0.8791198E-01
       -1   -1    0    0    0  501  0.00000000000E+00  0.00000000000E+00  0.57704557548E+03  0.57704557551E+03  0.50400001928E-02 0.  1.
        1   -1    0    0  501    0  0.00000000000E+00  0.00000000000E+00 -0.11775873622E+04  0.11775873622E+04  0.50400001928E-02 0. -1.
    10030    2    1    2    0    0  0.00000000000E+00  0.00000000000E+00 -0.60054178669E+03  0.17546329377E+04  0.16486619752E+04 0.  0.
        1    1    3    3  502    0  0.16807735796E+03  0.79873900802E+03 -0.17758982897E+03  0.83532756962E+03  0.50400001928E-02 0.  1.
       -1    1    3    3    0  502 -0.16807735796E+03 -0.79873900802E+03 -0.42295195772E+03  0.91930536807E+03  0.50400001928E-02 0. -1.
</event>
<event>
 5   0  0.1815663E-04  0.1706562E+04  0.7818609E-02  0.8757631E-01
        1   -1    0    0  501    0  0.00000000000E+00  0.00000000000E+00  0.84094209159E+03  0.84094209160E+03  0.50400001928E-02 0.  1.
       -1   -1    0    0    0  501  0.00000000000E+00  0.00000000000E+00 -0.86580082371E+03  0.86580082373E+03  0.50400001928E-02 0. -1.
    10030    2    1    2    0    0  0.00000000000E+00  0.00000000000E+00 -0.24858732124E+02  0.17067429153E+04  0.17065618719E+04 0.  0.
        5    1    3    3  502    0 -0.43563195751E+03 -0.14415418701E+03  0.70702907010E+03  0.84289253645E+03  0.46999998093E+01 0. -1.
       -5    1    3    3    0  502  0.43563195751E+03  0.14415418701E+03 -0.73188780223E+03  0.86385037888E+03  0.46999998093E+01 0.  1.
</event>
<event>
 5   0  0.3678896E-04  0.1694627E+04  0.7818609E-02  0.8764434E-01
        2   -1    0    0  501    0  0.00000000000E+00  0.00000000000E+00  0.12137879607E+04  0.12137879607E+04  0.25500000920E-02 0.  1.
       -2   -1    0    0    0  501  0.00000000000E+00  0.00000000000E+00 -0.59148765155E+03  0.59148765156E+03  0.25500000920E-02 0. -1.
    10030    2    1    2    0    0  0.00000000000E+00  0.00000000000E+00  0.62230030914E+03  0.18052756123E+04  0.16946274993E+04 0.  0.
        2    1    3    3  502    0  0.22132472721E+03  0.75448723468E+03  0.64752821746E+03  0.10185913875E+04  0.25500000920E-02 0.  1.
       -2    1    3    3    0  502 -0.22132472721E+03 -0.75448723468E+03 -0.25227908325E+02  0.78668422480E+03  0.25500000920E-02 0. -1.
</event>
<event>
 5   0  0.1893284E-04  0.1675322E+04  0.7818609E-02  0.8775566E-01
       -1   -1    0    0    0  501  0.00000000000E+00  0.00000000000E+00  0.55431363481E+03  0.55431363484E+03  0.50400001928E-02 0. -1.
        1   -1    0    0  501    0  0.00000000000E+00  0.00000000000E+00 -0.12658463097E+04  0.12658463098E+04  0.50400001928E-02 0.  1.
    10030    2    1    2    0    0  0.00000000000E+00  0.00000000000E+00 -0.71153267493E+03  0.18201599446E+04  0.16753219023E+04 0.  0.
        2    1    3    3  502    0 -0.12607502742E+03  0.46346271721E+03 -0.11013802881E+04  0.12015536366E+04  0.25500000920E-02 0.  1.
       -2    1    3    3    0  502  0.12607502742E+03 -0.46346271721E+03  0.38984761312E+03  0.61860630796E+03  0.25500000920E-02 0. -1.
</event>
<event>
 5   0  0.3573262E-04  0.1743912E+04  0.7818609E-02  0.8736709E-01
        2   -1    0    0  501    0  0.00000000000E+00  0.00000000000E+00  0.26422759813E+04  0.26422759813E+04  0.25500000920E-02 0.  1.
       -2   -1    0    0    0  501  0.00000000000E+00  0.00000000000E+00 -0.28774709695E+03  0.28774709696E+03  0.25500000920E-02 0. -1.
    10030    2    1    2    0    0  0.00000000000E+00  0.00000000000E+00  0.23545288843E+04  0.29300230782E+04  0.17439119737E+04 0.  0.
        5    1    3    3  502    0  0.68611023559E+03 -0.13326964152E+03  0.20531611859E+04  0.21688709040E+04  0.46999998093E+01 0.  1.
       -5    1    3    3    0  502 -0.68611023559E+03  0.13326964152E+03  0.30136769838E+03  0.76115217424E+03  0.46999998093E+01 0. -1.
</event>
<event>
 5   0  0.1930116E-04  0.1732844E+04  0.7818609E-02  0.8742851E-01
        1   -1    0    0  501    0  0.00000000000E+00  0.00000000000E+00  0.11956779741E+04  0.11956779741E+04  0.50400001928E-02 0.  1.
       -1   -1    0    0    0  501  0.00000000000E+00  0.00000000000E+00 -0.62783406481E+03  0.62783406483E+03  0.50400001928E-02 0. -1.
    10030    2    1    2    0    0  0.00000000000E+00  0.00000000000E+00  0.56784390931E+03  0.18235120390E+04  0.17328443239E+04 0.  0.
        1    1    3    3  502    0 -0.45126385513E+03 -0.71980936537E+03  0.10495656373E+03  0.85602597491E+03  0.50400001928E-02 0.  1.
       -1    1    3    3    0  502  0.45126385513E+03  0.71980936537E+03  0.46288734557E+03  0.96748606405E+03  0.50400001928E-02 0. -1.
</event>
<event>
 5   0  0.3574092E-04  0.1697290E+04  0.7818609E-02  0.8762912E-01
       -2   -1    0    0    0  501  0.00000000000E+00  0.00000000000E+00  0.43241228780E+03  0.43241228781E+03  0.25500000920E-02 0. -1.
        2   -1    0    0  501    0  0.00000000000E+00  0.00000000000E+00 -0.16655357196E+04  0.16655357196E+04  0.25500000920E-02 0.  1.
    10030    2    1    2    0    0  0.00000000000E+00  0.00000000000E+00 -0.12331234318E+04  0.20979480075E+04  0.16972897348E+04 0.  0.
        3    1    3    3  502    0 -0.33163696156E+03 -0.47499846470E+03  0.14998489653E+03  0.59841632258E+03  0.10100000352E+00 0. -1.
       -3    1    3    3    0  502  0.33163696156E+03  0.47499846470E+03 -0.13831083284E+04  0.14995316849E+04  0.10100000352E+00 0.  1.
</event>
<event>
 5   0  0.3573262E-04  0.1694733E+04  0.7818609E-02  0.8764374E-01
       -2   -1    0    0    0  501  0.00000000000E+00  0.00000000000E+00  0.37418206651E+03  0.37418206652E+03  0.25500000920E-02 0.  1.
        2   -1    0    0  501    0  0.00000000000E+00  0.00000000000E+00 -0.19189321382E+04  0.19189321382E+04  0.25500000920E-02 0. -1.
    10030    2    1    2    0    0  0.00000000000E+00  0.00000000000E+00 -0.15447500717E+04  0.22931142047E+04  0.16947330090E+04 0.  0.
        5    1    3    3  502    0 -0.39314669906E+03 -0.10614304629E+03 -0.17778323620E+04  0.18238806624E+04  0.46999998093E+01 0. -1.
       -5    1    3    3    0  502  0.39314669906E+03  0.10614304629E+03  0.23308229027E+03  0.46923354237E+03  0.46999998093E+01 0.  1.
</event>
<event>
 5   0  0.3573262E-04  0.1689502E+04  0.7818609E-02  0.8767375E-01
        2   -1    0    0  501    0  0.00000000000E+00  0.00000000000E+00  0.14437182877E+04  0.14437182877E+04  0.25500000920E-02 0.  1.
       -2   -1    0    0    0  501  0.00000000000E+00  0.00000000000E+00 -0.49428207439E+03  0.49428207440E+03  0.25500000920E-02 0. -1.
    10030    2    1    2    0    0  0.00000000000E+00  0.00000000000E+00  0.94943621326E+03  0.19380003621E+04  0.16895017846E+04 0.  0.
        5    1    3    3  502    0  0.53574833295E+03 -0.65297963497E+03  0.48981872185E+03  0.97639804906E+03  0.46999998093E+01 0. -1.
       -5    1    3    3    0  502 -0.53574833295E+03  0.65297963497E+03  0.45961749141E+03  0.96160231299E+03  0.46999998093E+01 0.  1.
</event>
<event>
 5   0  0.3574092E-04  0.1698686E+04  0.7818609E-02  0.8762114E-01
       -2   -1    0    0    0  501  0.00000000000E+00  0.00000000000E+00  0.70251969712E+03  0.70251969713E+03  0.25500000920E-02 0. -1.
        2   -1    0    0  501    0  0.00000000000E+00  0.00000000000E+00 -0.10268511954E+04  0.10268511954E+04  0.25500000920E-02 0.  1.
    10030    2    1    2    0    0  0.00000000000E+00  0.00000000000E+00 -0.32433149827E+03  0.17293708925E+04  0.16986855987E+04 0.  0.
        3    1    3    3  502    0  0.60395666646E+03 -0.21982993850E+03 -0.72743830965E+03  0.97069838847E+03  0.10100000352E+00 0.  1.
       -3    1    3    3    0  502 -0.60395666646E+03  0.21982993850E+03  0.40310681138E+03  0.75867250405E+03  0.10100000352E+00 0. -1.
</event>
<event>
 5   0  0.1930116E-04  0.1695062E+04  0.7818609E-02  0.8764186E-01
       -1   -1    0    0    0  501  0.00000000000E+00  0.00000000000E+00  0.54167433513E+03  0.54167433516E+03  0.50400001928E-02 0. -1.
        1   -1    0    0  501    0  0.00000000000E+00  0.00000000000E+00 -0.13260890810E+04  0.13260890810E+04  0.50400001928E-02 0.  1.
    10030    2    1    2    0    0  0.00000000000E+00  0.00000000000E+00 -0.78441474582E+03  0.18677634161E+04  0.16950615579E+04 0.  0.
        1    1    3    3  502    0 -0.15285336500E+03  0.34744807728E+03  0.44277459989E+03  0.58320979410E+03  0.50400001928E-02 0. -1.
       -1    1    3    3    0  502  0.15285336500E+03 -0.34744807728E+03 -0.12271893457E+04  0.12845536220E+04  0.50400001928E-02 0.  1.
</event>
<event>
 5   0  0.1920289E-04  0.1692125E+04  0.7818609E-02  0.8765869E-01
        1   -1    0    0  501    0  0.00000000000E+00  0.00000000000E+00  0.15546729180E+04  0.15546729180E+04  0.50400001928E-02 0. -1.
       -1   -1    0    0    0  501  0.00000000000E+00  0.00000000000E+00 -0.46043215008E+03  0.46043215011E+03  0.50400001928E-02 0.  1.
    10030    2    1    2    0    0  0.00000000000E+00  0.00000000000E+00  0.10942407679E+04  0.20151050681E+04  0.16921245750E+04 0.  0.
        4    1    3    3  502    0 -0.15811301369E+03  0.13966494915E+03 -0.42860619732E+03  0.47771425393E+03  0.12699999809E+01 0.  1.
       -4    1    3    3    0  502  0.15811301369E+03 -0.13966494915E+03  0.15228469652E+04  0.15373908142E+04  0.12699999809E+01 0. -1.
</event>
<event>
 5   0  0.1815663E-04  0.1719551E+04  0.7818609E-02  0.8750291E-01
        1   -1    0    0  501    0  0.00000000000E+00  0.00000000000E+00  0.15661547797E+04  0.15661547797E+04  0.50400001928E-02 0.  1.
       -1   -1    0    0    0  501  0.00000000000E+00  0.00000000000E+00 -0.47199301984E+03  0.47199301987E+03  0.50400001928E-02 0. -1.
    10030    2    1    2    0    0  0.00000000000E+00  0.00000000000E+00  0.10941617598E+04  0.20381477995E+04  0.17195512485E+04 0.  0.
        5    1    3    3  502    0 -0.68682069222E+03 -0.99434010899E+02  0.11486402769E+04  0.13420157829E+04  0.46999998093E+01 0.  1.
       -5    1    3    3    0  502  0.68682069222E+03  0.99434010899E+02 -0.54478517094E+02  0.69613201665E+03  0.46999998093E+01 0. -1.
</event>
<event>
 5   0  0.3678896E-04  0.1685388E+04  0.7818609E-02  0.8769742E-01
       -2   -1    0    0    0  501  0.00000000000E+00  0.00000000000E+00  0.49038113842E+03  0.49038113843E+03  0.25500000920E-02 0.  1.
        2   -1    0    0  501    0  0.00000000000E+00  0.00000000000E+00 -0.14481257143E+04  0.14481257143E+04  0.25500000920E-02 0. -1.
    10030    2    1    2    0    0  0.00000000000E+00  0.00000000000E+00 -0.95774457585E+03  0.19385068527E+04  0.16853884257E+04 0.  0.
        2    1    3    3  502    0 -0.71135115861E+03 -0.28687145599E+03 -0.88031425193E+03  0.11675910608E+04  0.25500000920E-02 0.  1.
       -2    1    3    3    0  502  0.71135115861E+03  0.28687145599E+03 -0.77430323918E+02  0.77091579189E+03  0.25500000920E-02 0. -1.
</event>
<event>
 5   0  0.1824538E-04  0.1713023E+04  0.7818609E-02  0.8753972E-01
        1   -1    0    0  501    0  0.00000000000E+00  0.00000000000E+00  0.77497104972E+03  0.77497104973E+03  0.50400001928E-02 0.  1.
       -1   -1    0    0    0  501  0.00000000000E+00  0.00000000000E+00 -0.94663147296E+03  0.94663147297E+03  0.50400001928E-02 0. -1.
    10030    2    1    2    0    0  0.00000000000E+00  0.00000000000E+00 -0.17166042324E+03  0.17216025227E+04  0.17130230428E+04 0.  0.
        3    1    3    3  502    0 -0.45121395162E+03 -0.32242247911E+03  0.57017294439E+03  0.79539140169E+03  0.10100000352E+00 0.  1.
       -3    1    3    3    0  502  0.45121395162E+03  0.32242247911E+03 -0.74183336763E+03  0.92621112102E+03  0.10100000352E+00 0. -1.
</event>
<event>
 5   0  0.1920289E-04  0.1707511E+04  0.7818609E-02  0.8757092E-01
        1   -1    0    0  501    0  0.00000000000E+00  0.00000000000E+00  0.14222628743E+04  0.14222628743E+04  0.50400001928E-02 0. -1.
       -1   -1    0    0    0  501  0.00000000000E+00  0.00000000000E+00 -0.51249210683E+03  0.51249210685E+03  0.50400001928E-02 0.  1.
    10030    2    1    2    0    0  0.00000000000E+00  0.00000000000E+00  0.90977076748E+03  0.19347549812E+04  0.17075110506E+04 0.  0.
        4    1    3    3  502    0 -0.27622112192E+03  0.55155208207E+03 -0.21391223066E+03  0.65289192272E+03  0.12699999809E+01 0.  1.
       -4    1    3    3    0  502  0.27622112192E+03 -0.55155208207E+03  0.11236829981E+04  0.12818630585E+04  0.12699999809E+01 0. -1.
</event>
<event>
 5   0  0.3605571E-04  0.1699777E+04  0.7818609E-02  0.8761491E-01
        2   -1    0    0  501    0  0.00000000000E+00  0.00000000000E+00  0.11237745763E+04  0.11237745763E+04  0.25500000920E-02 0. -1.
       -2   -1    0    0    0  501  0.00000000000E+00  0.00000000000E+00 -0.64275416835E+03  0.64275416836E+03  0.25500000920E-02 0.  1.
    10030    2    1    2    0    0  0.00000000000E+00  0.00000000000E+00  0.48102040797E+03  0.17665287447E+04  0.16997773892E+04 0.  0.
        4    1    3    3  502    0  0.53349773681E+02 -0.13939754675E+03 -0.62902544531E+03  0.64649245791E+03  0.12699999809E+01 0.  1.
       -4    1    3    3    0  502 -0.53349773681E+02  0.13939754675E+03  0.11100458533E+04  0.11200362868E+04  0.12699999809E+01 0. -1.
</event>
<event>
 5   0  0.1920289E-04  0.1693415E+04  0.7818609E-02  0.8765129E-01
        1   -1    0    0  501    0  0.00000000000E+00  0.00000000000E+00  0.98174964813E+03  0.98174964815E+03  0.50400001928E-02 0.  1.
       -1   -1    0    0    0  501  0.00000000000E+00  0.00000000000E+00 -0.73024086373E+03  0.73024086375E+03  0.50400001928E-02 0. -1.
    10030    2    1    2    0    0  0.00000000000E+00  0.00000000000E+00  0.25150878441E+03  0.17119905119E+04  0.16934151423E+04 0.  0.
        4    1    3    3  502    0  0.59724990247E+03 -0.55205450704E+03 -0.11228639598E+03  0.82102464784E+03  0.12699999809E+01 0. -1.
       -4    1    3    3    0  502 -0.59724990247E+03  0.55205450704E+03  0.36379518039E+03  0.89096586405E+03  0.12699999809E+01 0.  1.
</event>
<event>
 5   0  0.1920289E-04  0.1693493E+04  0.7818609E-02  0.8765084E-01
       -1   -1    0    0    0  501  0.00000000000E+00  0.00000000000E+00  0.65272301638E+03  0.65272301640E+03  0.50400001928E-02 0.  1.
        1   -1    0    0  501    0  0.00000000000E+00  0.00000000000E+00 -0.10984441295E+04  0.10984441296E+04  0.50400001928E-02 0. -1.
    10030    2    1    2    0    0  0.00000000000E+00  0.00000000000E+00 -0.44572111317E+03  0.17511671460E+04  0.16934931539E+04 0.  0.
        4    1    3    3  502    0  0.71813974233E+03  0.12121659631E+03 -0.66949624450E+03  0.98926487203E+03  0.12699999809E+01 0. -1.
       -4    1    3    3    0  502 -0.71813974233E+03 -0.12121659631E+03  0.22377513133E+03  0.76190227394E+03  0.12699999809E+01 0.  1.
</event>
<event>
 5   0  0.1930116E-04  0.1703659E+04  0.7818609E-02  0.8759280E-01
       -1   -1    0    0    0  501  0.00000000000E+00  0.00000000000E+00  0.62736559214E+03  0.62736559216E+03  0.50400001928E-02 0.  1.
        1   -1    0    0  501    0  0.00000000000E+00  0.00000000000E+00 -0.11566039785E+04  0.11566039785E+04  0.50400001928E-02 0. -1.
    10030    2    1    2    0    0  0.00000000000E+00  0.00000000000E+00 -0.52923838632E+03  0.17839695706E+04  0.17036590502E+04 0.  0.
        1    1    3    3  502    0 -0.28993023254E+02  0.19254047330E+03 -0.11329888117E+04  0.11495982240E+04  0.50400001928E-02 0. -1.
       -1    1    3    3    0  502  0.28993023254E+02 -0.19254047330E+03  0.60375042536E+03  0.63437134662E+03  0.50400001928E-02 0.  1.
</event>
<event>
 5   0  0.3516723E-04  0.1707768E+04  0.7818609E-02  0.8756946E-01
       -2   -1    0    0    0  501  0.00000000000E+00  0.00000000000E+00  0.11710339917E+04  0.11710339917E+04  0.25500000920E-02 0.  1.
        2   -1    0    0  501    0  0.00000000000E+00  0.00000000000E+00 -0.62262776426E+03  0.62262776426E+03  0.25500000920E-02 0. -1.
    10030    2    1    2    0    0  0.00000000000E+00  0.00000000000E+00  0.54840622746E+03  0.17936617560E+04  0.17077684575E+04 0.  0.
        1    1    3    3  502    0 -0.14196608257E+03 -0.56806082662E+02  0.11565370771E+04  0.11666016074E+04  0.50400001928E-02 0.  1.
       -1    1    3    3    0  502  0.14196608257E+03  0.56806082662E+02 -0.60813084965E+03  0.62706014859E+03  0.50400001928E-02 0. -1.
</event>
<event>
 5   0  0.1824538E-04  0.1662919E+04  0.7818609E-02  0.8782800E-01
       -1   -1    0    0    0  501  0.00000000000E+00  0.00000000000E+00  0.73437344980E+03  0.73437344982E+03  0.50400001928E-02 0. -1.
        1   -1    0    0  501    0  0.00000000000E+00  0.00000000000E+00 -0.94138029181E+03  0.94138029183E+03  0.50400001928E-02 0.  1.
    10030    2    1    2    0    0  0.00000000000E+00  0.00000000000E+00 -0.20700684201E+03  0.16757537416E+04  0.16629187503E+04 0.  0.
        3    1    3    3  502    0 -0.54724314956E+03  0.34354395785E+03 -0.63082729483E+03  0.90301749807E+03  0.10100000352E+00 0.  1.
       -3    1    3    3    0  502  0.54724314956E+03 -0.34354395785E+03  0.42382045282E+03  0.77273624358E+03  0.10100000352E+00 0. -1.
</event>
<event>
 5   0  0.3678896E-04  0.1693671E+04  0.7818609E-02  0.8764982E-01
       -2   -1    0    0    0  501  0.00000000000E+00  0.00000000000E+00  0.10309629843E+04  0.10309629843E+04  0.25500000920E-02 0.  1.
        2   -1    0    0  501    0  0.00000000000E+00  0.00000000000E+00 -0.69559282379E+03  0.69559282380E+03  0.25500000920E-02 0. -1.
    10030    2    1    2    0    0  0.00000000000E+00  0.00000000000E+00  0.33537016049E+03  0.17265558081E+04  0.16936711056E+04 0.  0.
        2    1    3    3  502    0  0.39653638103E+02  0.71114061487E+02 -0.69159320710E+03  0.69636971852E+03  0.25500000920E-02 0. -1.
       -2    1    3    3    0  502 -0.39653638103E+02 -0.71114061487E+02  0.10269633676E+04  0.10301860896E+04  0.25500000920E-02 0.  1.
</event>
<event>
 5   0  0.3574092E-04  0.1812941E+04  0.7818609E-02  0.8699448E-01
       -2   -1    0    0    0  501  0.00000000000E+00  0.00000000000E+00  0.80141898977E+03  0.80141898977E+03  0.25500000920E-02 0.  1.
        2   -1    0    0  501    0  0.00000000000E+00  0.00000000000E+00 -0.10252918552E+04  0.10252918552E+04  0.25500000920E-02 0. -1.
    10030    2    1    2    0    0  0.00000000000E+00  0.00000000000E+00 -0.22387286545E+03  0.18267108450E+04  0.18129405537E+04 0.  0.
        3    1    3    3  502    0 -0.50582602193E+03 -0.45228412871E+02 -0.86849429043E+03  0.10060755024E+04  0.10100000352E+00 0. -1.
       -3    1    3    3    0  502  0.50582602193E+03  0.45228412871E+02  0.64462142498E+03  0.82063534261E+03  0.10100000352E+00 0.  1.
</event>
<event>
 5   0  0.1815663E-04  0.1708813E+04  0.7818609E-02  0.8756354E-01
        1   -1    0    0  501    0  0.00000000000E+00  0.00000000000E+00  0.25921924849E+04  0.25921924849E+04  0.50400001928E-02 0.  1.
       -1   -1    0    0    0  501  0.00000000000E+00  0.00000000000E+00 -0.28161893914E+03  0.28161893919E+03  0.50400001928E-02 0. -1.
    10030    2    1    2    0    0  0.00000000000E+00  0.00000000000E+00  0.23105735457E+04  0.28738114241E+04  0.17088130357E+04 0.  0.
        5    1    3    3  502    0 -0.45921495259E+03  0.72040728698E+03  0.11739668605E+04  0.14519246920E+04  0.46999998093E+01 0. -1.
       -5    1    3    3    0  502  0.45921495259E+03 -0.72040728698E+03  0.11366066853E+04  0.14218867320E+04  0.46999998093E+01 0.  1.
</event>
<event>
 5   0  0.3605571E-04  0.1702311E+04  0.7818609E-02  0.8760048E-01
       -2   -1    0    0    0  501  0.00000000000E+00  0.00000000000E+00  0.40147327249E+03  0.40147327250E+03  0.25500000920E-02 0.  1.
        2   -1    0    0  501    0  0.00000000000E+00  0.00000000000E+00 -0.18045169593E+04  0.18045169593E+04  0.25500000920E-02 0. -1.
    10030    2    1    2    0    0  0.00000000000E+00  0.00000000000E+00 -0.14030436868E+04  0.22059902318E+04  0.17023105814E+04 0.  0.
        4    1    3    3  502    0 -0.95305798474E+02 -0.29582479790E+03  0.32530930319E+03  0.44991472738E+03  0.12699999809E+01 0.  1.
       -4    1    3    3    0  502  0.95305798474E+02  0.29582479790E+03 -0.17283529900E+04  0.17560755044E+04  0.12699999809E+01 0. -1.
</event>
<event>
 5   0  0.3605571E-04  0.1591623E+04  0.7818609E-02  0.8825711E-01
       -2   -1    0    0    0  501  0.00000000000E+00  0.00000000000E+00  0.50709325044E+03  0.50709325045E+03  0.25500000920E-02 0.  1.
        2   -1    0    0  501    0  0.00000000000E+00  0.00000000000E+00 -0.12489134596E+04  0.12489134596E+04  0.25500000920E-02 0. -1.
    10030    2    1    2    0    0  0.00000000000E+00  0.00000000000E+00 -0.74182020920E+03  0.17560067101E+04  0.15916225505E+04 0.  0.
        4    1    3    3  502    0 -0.42795648353E+03  0.67089080387E+03 -0.36149979975E+03  0.87402799762E+03  0.12699999809E+01 0.  1.
       -4    1    3    3    0  502  0.42795648353E+03 -0.67089080387E+03 -0.38032040945E+03  0.88197871247E+03  0.12699999809E+01 0. -1.
</event>
<event>
 5   0  0.3678896E-04  0.1722936E+04  0.7818609E-02  0.8748390E-01
       -2   -1    0    0    0  501  0.00000000000E+00  0.00000000000E+00  0.43722545761E+03  0.43722545761E+03  0.25500000920E-02 0. -1.
        2   -1    0    0  501    0  0.00000000000E+00  0.00000000000E+00 -0.16973552602E+04  0.16973552603E+04  0.25500000920E-02 0.  1.
    10030    2    1    2    0    0  0.00000000000E+00  0.00000000000E+00 -0.12601298026E+04  0.21345807179E+04  0.17229357857E+04 0.  0.
        2    1    3    3  502    0  0.26010426890E+03 -0.42085611107E+02  0.38607776923E+03  0.46742001804E+03  0.25500000920E-02 0. -1.
       -2    1    3    3    0  502 -0.26010426890E+03  0.42085611107E+02 -0.16462075719E+04  0.16671606998E+04  0.25500000920E-02 0.  1.
</event>
<event>
 5   0  0.1815663E-04  0.1525535E+04  0.7818609E-02  0.8867648E-01
        1   -1    0    0  501    0  0.00000000000E+00  0.00000000000E+00  0.13205204493E+04  0.13205204493E+04  0.50400001928E-02 0. -1.
       -1   -1    0    0    0  501  0.00000000000E+00  0.00000000000E+00 -0.44059481845E+03  0.44059481848E+03  0.50400001928E-02 0.  1.
    10030    2    1    2    0    0  0.00000000000E+00  0.00000000000E+00  0.87992563086E+03  0.17611152678E+04  0.15255352735E+04 0.  0.
        5    1    3    3  502    0  0.17651451747E+03  0.28334997026E+03 -0.35176350948E+03  0.48497859450E+03  0.46999998093E+01 0.  1.
       -5    1    3    3    0  502 -0.17651451747E+03 -0.28334997026E+03  0.12316891403E+04  0.12761366733E+04  0.46999998093E+01 0. -1.
</event>
<event>
 5   0  0.3574092E-04  0.1683413E+04  0.7818609E-02  0.8770881E-01
        2   -1    0    0  501    0  0.00000000000E+00  0.00000000000E+00  0.15851551064E+04  0.15851551064E+04  0.25500000920E-02 0.  1.
       -2   -1    0    0    0  501  0.00000000000E+00  0.00000000000E+00 -0.44694059762E+03  0.44694059763E+03  0.25500000920E-02 0. -1.
    10030    2    1    2    0    0  0.00000000000E+00  0.00000000000E+00  0.11382145087E+04  0.20320957040E+04  0.16834134021E+04 0.  0.
        3    1    3    3  502    0  0.12573186710E+03 -0.25786623457E+03 -0.38610161956E+03  0.48101763809E+03  0.10100000352E+00 0. -1.
       -3    1    3    3    0  502 -0.12573186710E+03  0.25786623457E+03  0.15243161283E+04  0.15510780659E+04  0.10100000352E+00 0.  1.
</event>
<event>
 5   0  0.1317625E-04  0.1668977E+04  0.7818609E-02  0.8779259E-01
       -3   -1    0    0    0  501  0.00000000000E+00  0.00000000000E+00  0.41901395503E+03  0.41901396721E+03  0.10100000352E+00 0. -1.
        3   -1    0    0  501    0  0.00000000000E+00  0.00000000000E+00 -0.16619272589E+04  0.16619272620E+04  0.10100000352E+00 0.  1.
    10030    2    1    2    0    0  0.00000000000E+00  0.00000000000E+00 -0.12429133039E+04  0.20809412292E+04  0.16689766081E+04 0.  0.
        1    1    3    3  502    0  0.56646582094E+03  0.19513901290E+03  0.10279122847E+03  0.60788880342E+03  0.50400001928E-02 0. -1.
       -1    1    3    3    0  502 -0.56646582094E+03 -0.19513901290E+03 -0.13457045323E+04  0.14730524257E+04  0.50400001928E-02 0.  1.
</event>
<event>
 5   0  0.1824538E-04  0.1696053E+04  0.7818609E-02  0.8763619E-01
        1   -1    0    0  501    0  0.00000000000E+00  0.00000000000E+00  0.23345548946E+04  0.23345548946E+04  0.50400001928E-02 0. -1.
       -1   -1    0    0    0  501  0.00000000000E+00  0.00000000000E+00 -0.30804531401E+03  0.30804531405E+03  0.50400001928E-02 0.  1.
    10030    2    1    2    0    0  0.00000000000E+00  0.00000000000E+00  0.20265095806E+04  0.26426002087E+04  0.16960527063E+04 0.  0.
        3    1    3    3  502    0  0.26326082654E+03  0.78031316777E+03  0.69794378270E+03  0.10795000864E+04  0.10100000352E+00 0.  1.
       -3    1    3    3    0  502 -0.26326082654E+03 -0.78031316777E+03  0.13285657979E+04  0.15631001222E+04  0.10100000352E+00 0. -1.
</event>
<event>
 5   0  0.1317625E-04  0.1732320E+04  0.7818609E-02  0.8743143E-01
       -3   -1    0    0    0  501  0.00000000000E+00  0.00000000000E+00  0.60413146261E+03  0.60413147105E+03  0.10100000352E+00 0. -1.
        3   -1    0    0  501    0  0.00000000000E+00  0.00000000000E+00 -0.12418370183E+04  0.12418370224E+04  0.10100000352E+00 0.  1.
    10030    2    1    2    0    0  0.00000000000E+00  0.00000000000E+00 -0.63770555572E+03  0.18459684935E+04  0.17323196308E+04 0.  0.
        3    1    3    3  502    0  0.44930744900E+03  0.49468936162E+03 -0.90603698553E+03  0.11258320379E+04  0.10100000352E+00 0.  1.
       -3    1    3    3    0  502 -0.44930744900E+03 -0.49468936162E+03  0.26833142981E+03  0.72013645558E+03  0.10100000352E+00 0. -1.
</event>
<event>
 5   0  0.3605571E-04  0.1706192E+04  0.7818609E-02  0.8757841E-01
       -2   -1    0    0    0  501  0.00000000000E+00  0.00000000000E+00  0.82649274327E+03  0.82649274328E+03  0.25500000920E-02 0. -1.
        2   -1    0    0  501    0  0.00000000000E+00  0.00000000000E+00 -0.88055508961E+03  0.88055508961E+03  0.25500000920E-02 0.  1.
    10030    2    1    2    0    0  0.00000000000E+00  0.00000000000E+00 -0.54062346335E+02  0.17070478329E+04  0.17061915386E+04 0.  0.
        4    1    3    3  502    0 -0.83006520206E+03  0.19287496342E+03 -0.66570464598E+02  0.85477612908E+03  0.12699999809E+01 0.  1.
       -4    1    3    3    0  502  0.83006520206E+03 -0.19287496342E+03  0.12508118263E+02  0.85227170381E+03  0.12699999809E+01 0. -1.
</event>
<event>
 5   0  0.1920289E-04  0.1690777E+04  0.7818609E-02  0.8766642E-01
        1   -1    0    0  501    0  0.00000000000E+00  0.00000000000E+00  0.78670814165E+03  0.78670814166E+03  0.50400001928E-02 0. -1.
       -1   -1    0    0    0  501  0.00000000000E+00  0.00000000000E+00 -0.90844592863E+03  0.90844592864E+03  0.50400001928E-02 0.  1.
    10030    2    1    2    0    0  0.00000000000E+00  0.00000000000E+00 -0.12173778698E+03  0.16951540703E+04  0.16907771093E+04 0.  0.
        4    1    3    3  502    0 -0.15606447204E+03  0.51901072528E+03 -0.71135657493E+03  0.89429192213E+03  0.12699999809E+01 0.  1.
       -4    1    3    3    0  502  0.15606447204E+03 -0.51901072528E+03  0.58961878795E+03  0.80086214818E+03  0.12699999809E+01 0. -1.
</event>
<event>
 5   0  0.1824538E-04  0.1697360E+04  0.7818609E-02  0.8762872E-01
        1   -1    0    0  501    0  0.00000000000E+00  0.00000000000E+00  0.23375078515E+03  0.23375078520E+03  0.50400001928E-02 0.  1.
       -1   -1    0    0    0  501  0.00000000000E+00  0.00000000000E+00 -0.30813057410E+04  0.30813057410E+04  0.50400001928E-02 0. -1.
    10030    2    1    2    0    0  0.00000000000E+00  0.00000000000E+00 -0.28475549559E+04  0.33150565262E+04  0.16973598750E+04 0.  0.
        3    1    3    3  502    0 -0.37255412373E+03  0.57917599180E+03 -0.23924988443E+04  0.24896369484E+04  0.10100000352E+00 0. -1.
       -3    1    3    3    0  502  0.37255412373E+03 -0.57917599180E+03 -0.45505611155E+03  0.82541957782E+03  0.10100000352E+00 0.  1.
</event>
<event>
 5   0  0.3678896E-04  0.1602560E+04  0.7818609E-02  0.8818977E-01
        2   -1    0    0  501    0  0.00000000000E+00  0.00000000000E+00  0.10666558888E+04  0.10666558888E+04  0.25500000920E-02 0.  1.
       -2   -1    0    0    0  501  0.00000000000E+00  0.00000000000E+00 -0.60192766843E+03  0.60192766843E+03  0.25500000920E-02 0. -1.
    10030    2    1    2    0    0  0.00000000000E+00  0.00000000000E+00  0.46472822034E+03  0.16685835572E+04  0.16025600671E+04 0.  0.
        2    1    3    3  502    0 -0.28001282832E+03  0.66440183329E+03  0.59635610606E+03  0.93566959198E+03  0.25500000920E-02 0.  1.
       -2    1    3    3    0  502  0.28001282832E+03 -0.66440183329E+03 -0.13162788572E+03  0.73291396522E+03  0.25500000920E-02 0. -1.
</event>
<event>
 5   0  0.1824538E-04  0.1707534E+04  0.7818609E-02  0.8757079E-01
       -1   -1    0    0    0  501  0.00000000000E+00  0.00000000000E+00  0.86843211719E+03  0.86843211721E+03  0.50400001928E-02 0.  1.
        1   -1    0    0  501    0  0.00000000000E+00  0.00000000000E+00 -0.83934969852E+03  0.83934969853E+03  0.50400001928E-02 0. -1.
    10030    2    1    2    0    0  0.00000000000E+00  0.00000000000E+00  0.29082418676E+02  0.17077818157E+04  0.17075341704E+04 0.  0.
        3    1    3    3  502    0  0.33375448175E+03 -0.58197752450E+03  0.54265977161E+03  0.86288442507E+03  0.10100000352E+00 0. -1.
       -3    1    3    3    0  502 -0.33375448175E+03  0.58197752450E+03 -0.51357735294E+03  0.84489739067E+03  0.10100000352E+00 0.  1.
</event>
<event>
 5   0  0.3605571E-04  0.1764786E+04  0.7818609E-02  0.8725253E-01
        2   -1    0    0  501    0  0.00000000000E+00  0.00000000000E+00  0.23151181350E+04  0.23151181350E+04  0.25500000920E-02 0. -1.
       -2   -1    0    0    0  501  0.00000000000E+00  0.00000000000E+00 -0.33631877224E+03  0.33631877225E+03  0.25500000920E-02 0.  1.
    10030    2    1    2    0    0  0.00000000000E+00  0.00000000000E+00  0.19787993627E+04  0.26514369072E+04  0.17647863199E+04 0.  0.
        4    1    3    3  502    0 -0.25076503797E+03 -0.84594324686E+03  0.10053701690E+04  0.13376374213E+04  0.12699999809E+01 0. -1.
       -4    1    3    3    0  502  0.25076503797E+03  0.84594324686E+03  0.97342919373E+03  0.13137994860E+04  0.12699999809E+01 0.  1.
</event>
<event>
 5   0  0.3516723E-04  0.1700497E+04  0.7818609E-02  0.8761081E-01
        2   -1    0    0  501    0  0.00000000000E+00  0.00000000000E+00  0.51379080877E+03  0.51379080878E+03  0.25500000920E-02 0.  1.
       -2   -1    0    0    0  501  0.00000000000E+00  0.00000000000E+00 -0.14070371136E+04  0.14070371136E+04  0.25500000920E-02 0. -1.
    10030    2    1    2    0    0  0.00000000000E+00  0.00000000000E+00 -0.89324630480E+03  0.19208279224E+04  0.17004972644E+04 0.  0.
        1    1    3    3  502    0 -0.26658991096E+03 -0.48465152878E+03  0.28277147282E+03  0.62122217510E+03  0.50400001928E-02 0.  1.
       -1    1    3    3    0  502  0.26658991096E+03  0.48465152878E+03 -0.11760177776E+04  0.12996057472E+04  0.50400001928E-02 0. -1.
</event>
<event>
 5   0  0.3574092E-04  0.1699812E+04  0.7818609E-02  0.8761472E-01
       -2   -1    0    0    0  501  0.00000000000E+00  0.00000000000E+00  0.77269561619E+03  0.77269561620E+03  0.25500000920E-02 0.  1.
        2   -1    0    0  501    0  0.00000000000E+00  0.00000000000E+00 -0.93483102308E+03  0.93483102309E+03  0.25500000920E-02 0. -1.
    10030    2    1    2    0    0  0.00000000000E+00  0.00000000000E+00 -0.16213540689E+03  0.17075266393E+04  0.16998115583E+04 0.  0.
        3    1    3    3  502    0  0.55887156122E+03  0.26943754841E+03 -0.66457056128E+03  0.90916888176E+03  0.10100000352E+00 0. -1.
       -3    1    3    3    0  502 -0.55887156122E+03 -0.26943754841E+03  0.50243515439E+03  0.79835775752E+03  0.10100000352E+00 0.  1.
</event>
<event>
 5   0  0.3574092E-04  0.1708968E+04  0.7818609E-02  0.8756266E-01
       -2   -1    0    0    0  501  0.00000000000E+00  0.00000000000E+00  0.13758944869E+04  0.13758944869E+04  0.25500000920E-02 0.  1.
        2   -1    0    0  501    0  0.00000000000E+00  0.00000000000E+00 -0.53066808152E+03  0.53066808152E+03  0.25500000920E-02 0. -1.
    10030    2    1    2    0    0  0.00000000000E+00  0.00000000000E+00  0.84522640534E+03  0.19065625684E+04  0.17089684464E+04 0.  0.
        3    1    3    3  502    0  0.40707474164E+01  0.83602579393E+03  0.22559432281E+03  0.86593793530E+03  0.10100000352E+00 0.  1.
       -3    1    3    3    0  502 -0.40707474164E+01 -0.83602579393E+03  0.61963208253E+03  0.10406246331E+04  0.10100000352E+00 0. -1.
</event>
<event>
 5   0  0.3573262E-04  0.1690904E+04  0.7818609E-02  0.8766569E-01
       -2   -1    0    0    0  501  0.00000000000E+00  0.00000000000E+00  0.29414132347E+03  0.29414132348E+03  0.25500000920E-02 0. -1.
        2   -1    0    0  501    0  0.00000000000E+00  0.00000000000E+00 -0.24300878180E+04  0.24300878180E+04  0.25500000920E-02 0.  1.
    10030    2    1    2    0    0  0.00000000000E+00  0.00000000000E+00 -0.21359464945E+04  0.27242291415E+04  0.16909041924E+04 0.  0.
        5    1    3    3  502    0 -0.56686083188E+03  0.59470612674E+03 -0.74671745053E+03  0.11102322373E+04  0.46999998093E+01 0. -1.
       -5    1    3    3    0  502  0.56686083188E+03 -0.59470612674E+03 -0.13892290440E+04  0.16139969041E+04  0.46999998093E+01 0.  1.
</event>
<event>
 5   0  0.1824538E-04  0.1704436E+04  0.7818609E-02  0.8758839E-01
       -1   -1    0    0    0  501  0.00000000000E+00  0.00000000000E+00  0.11884159194E+04  0.11884159195E+04  0.50400001928E-02 0.  1.
        1   -1    0    0  501    0  0.00000000000E+00  0.00000000000E+00 -0.61112886094E+03  0.61112886097E+03  0.50400001928E-02 0. -1.
    10030    2    1    2    0    0  0.00000000000E+00  0.00000000000E+00  0.57728705850E+03  0.17995447804E+04  0.17044357039E+04 0.  0.
        3    1    3    3  502    0 -0.30602403739E+03  0.86835439468E+02  0.11233836335E+04  0.11675538117E+04  0.10100000352E+00 0.  1.
       -3    1    3    3    0  502  0.30602403739E+03 -0.86835439468E+02 -0.54609657504E+03  0.63199096867E+03  0.10100000352E+00 0. -1.
</event>
<event>
 5   0  0.1920289E-04  0.1703230E+04  0.7818609E-02  0.8759524E-01
       -1   -1    0    0    0  501  0.00000000000E+00  0.00000000000E+00  0.81667065389E+03  0.81667065390E+03  0.50400001928E-02 0.  1.
        1   -1    0    0  501    0  0.00000000000E+00  0.00000000000E+00 -0.88805447154E+03  0.88805447155E+03  0.50400001928E-02 0. -1.
    10030    2    1    2    0    0  0.00000000000E+00  0.00000000000E+00 -0.71383817651E+02  0.17047251255E+04  0.17032299034E+04 0.  0.
        4    1    3    3  502    0  0.34000523944E+03 -0.14380869285E+03 -0.80380416184E+03  0.88452656629E+03  0.12699999809E+01 0. -1.
       -4    1    3    3    0  502 -0.34000523944E+03  0.14380869285E+03  0.73242034419E+03  0.82019855917E+03  0.12699999809E+01 0.  1.
</event>
<event>
 5   0  0.3605571E-04  0.1638831E+04  0.7818609E-02  0.8797042E-01
       -2   -1    0    0    0  501  0.00000000000E+00  0.00000000000E+00  0.54403467696E+03  0.54403467696E+03  0.25500000920E-02 0. -1.
        2   -1    0    0  501    0  0.00000000000E+00  0.00000000000E+00 -0.12341890297E+04  0.12341890297E+04  0.25500000920E-02 0.  1.
    10030    2    1    2    0    0  0.00000000000E+00  0.00000000000E+00 -0.69015435275E+03  0.17782237067E+04  0.16388308395E+04 0.  0.
        4    1    3    3  502    0 -0.41468925605E+03  0.14385520362E+03 -0.10958691069E+04  0.11805050661E+04  0.12699999809E+01 0.  1.
       -4    1    3    3    0  502  0.41468925605E+03 -0.14385520362E+03  0.40571475414E+03  0.59771864060E+03  0.12699999809E+01 0. -1.
</event>
<event>
 5   0  0.1824538E-04  0.1709373E+04  0.7818609E-02  0.8756037E-01
        1   -1    0    0  501    0  0.00000000000E+00  0.00000000000E+00  0.78888747497E+03  0.78888747498E+03  0.50400001928E-02 0. -1.
       -1   -1    0    0    0  501  0.00000000000E+00  0.00000000000E+00 -0.92597356550E+03  0.92597356552E+03  0.50400001928E-02 0.  1.
    10030    2    1    2    0    0  0.00000000000E+00  0.00000000000E+00 -0.13708609054E+03  0.17148610405E+04  0.17093729236E+04 0.  0.
        3    1    3    3  502    0  0.37147667930E+03  0.29354265821E+03  0.64530789798E+03  0.80036523465E+03  0.10100000352E+00 0. -1.
       -3    1    3    3    0  502 -0.37147667930E+03 -0.29354265821E+03 -0.78239398851E+03  0.91449580585E+03  0.10100000352E+00 0.  1.
</event>
<event>
 5   0  0.1893284E-04  0.1696713E+04  0.7818609E-02  0.8763242E-01
        1   -1    0    0  501    0  0.00000000000E+00  0.00000000000E+00  0.81048738718E+03  0.81048738719E+03  0.50400001928E-02 0.  1.
       -1   -1    0    0    0  501  0.00000000000E+00  0.00000000000E+00 -0.88799451144E+03  0.88799451146E+03  0.50400001928E-02 0. -1.
    10030    2    1    2    0    0  0.00000000000E+00  0.00000000000E+00 -0.77507124267E+02  0.16984818987E+04  0.16967125289E+04 0.  0.
        2    1    3    3  502    0  0.28118025623E+02  0.83366772775E+03  0.11605520292E+03  0.84217653363E+03  0.25500000920E-02 0. -1.
       -2    1    3    3    0  502 -0.28118025623E+02 -0.83366772775E+03 -0.19356232719E+03  0.85630536503E+03  0.25500000920E-02 0.  1.
</event>
<event>
 5   0  0.1815663E-04  0.1691765E+04  0.7818609E-02  0.8766075E-01
       -1   -1    0    0    0  501  0.00000000000E+00  0.00000000000E+00  0.62214024781E+03  0.62214024783E+03  0.50400001928E-02 0.  1.
        1   -1    0    0  501    0  0.00000000000E+00  0.00000000000E+00 -0.11500895692E+04  0.11500895692E+04  0.50400001928E-02 0. -1.
    10030    2    1    2    0    0  0.00000000000E+00  0.00000000000E+00 -0.52794932136E+03  0.17722298170E+04  0.16917647704E+04 0.  0.
        5    1    3    3  502    0 -0.78613100444E+03  0.28382725291E+03 -0.40029898528E+03  0.92672608318E+03  0.46999998093E+01 0.  1.
       -5    1    3    3    0  502  0.78613100444E+03 -0.28382725291E+03 -0.12765033608E+03  0.84550373384E+03  0.46999998093E+01 0. -1.
</event>
<event>
 5   0  0.1824538E-04  0.1640393E+04  0.7818609E-02  0.8796110E-01
       -1   -1    0    0    0  501  0.00000000000E+00  0.00000000000E+00  0.41435685210E+03  0.41435685213E+03  0.50400001928E-02 0.  1.
        1   -1    0    0  501    0  0.00000000000E+00  0.00000000000E+00 -0.16235342833E+04  0.16235342833E+04  0.50400001928E-02 0. -1.
    10030    2    1    2    0    0  0.00000000000E+00  0.00000000000E+00 -0.12091774312E+04  0.20378911354E+04  0.16403933125E+04 0.  0.
        3    1    3    3  502    0  0.22520834266E+03  0.41986814313E+02  0.37380391923E+03  0.43841882990E+03  0.10100000352E+00 0.  1.
       -3    1    3    3    0  502 -0.22520834266E+03 -0.41986814313E+02 -0.15829813504E+04  0.15994723055E+04  0.10100000352E+00 0. -1.
</event>
<event>
 5   0  0.1815663E-04  0.1640568E+04  0.7818609E-02  0.8796006E-01
        1   -1    0    0  501    0  0.00000000000E+00  0.00000000000E+00  0.91537017610E+03  0.91537017611E+03  0.50400001928E-02 0. -1.
       -1   -1    0    0    0  501  0.00000000000E+00  0.00000000000E+00 -0.73507498309E+03  0.73507498311E+03  0.50400001928E-02 0.  1.
    10030    2    1    2    0    0  0.00000000000E+00  0.00000000000E+00  0.18029519301E+03  0.16504451592E+04  0.16405678489E+04 0.  0.
        5    1    3    3  502    0  0.57506430111E+03  0.40780744041E+03 -0.33170719189E+03  0.77913901842E+03  0.46999998093E+01 0.  1.
       -5    1    3    3    0  502 -0.57506430111E+03 -0.40780744041E+03  0.51200238490E+03  0.87130614081E+03  0.46999998093E+01 0. -1.
</event>
<event>
 5   0  0.1893284E-04  0.1697763E+04  0.7818609E-02  0.8762641E-01
        1   -1    0    0  501    0  0.00000000000E+00  0.00000000000E+00  0.14639911910E+04  0.14639911911E+04  0.50400001928E-02 0. -1.
       -1   -1    0    0    0  501  0.00000000000E+00  0.00000000000E+00 -0.49221605152E+03  0.49221605155E+03  0.50400001928E-02 0.  1.
    10030    2    1    2    0    0  0.00000000000E+00  0.00000000000E+00  0.97177513953E+03  0.19562072426E+04  0.16977631914E+04 0.  0.
        2    1    3    3  502    0  0.54216531818E+03 -0.54279559944E+03  0.67215956978E+02  0.77012224997E+03  0.25500000920E-02 0.  1.
       -2    1    3    3    0  502 -0.54216531818E+03  0.54279559944E+03  0.90455918255E+03  0.11860849926E+04  0.25500000920E-02 0. -1.
</event>
<event>
 5   0  0.1893284E-04  0.1527718E+04  0.7818609E-02  0.8866227E-01
        1   -1    0    0  501    0  0.00000000000E+00  0.00000000000E+00  0.12087865582E+04  0.12087865582E+04  0.50400001928E-02 0.  1.
       -1   -1    0    0    0  501  0.00000000000E+00  0.00000000000E+00 -0.48269919474E+03  0.48269919477E+03  0.50400001928E-02 0. -1.
    10030    2    1    2    0    0  0.00000000000E+00  0.00000000000E+00  0.72608736347E+03  0.16914857530E+04  0.15277176418E+04 0.  0.
        2    1    3    3  502    0 -0.42350490811E+03  0.46877146922E+03 -0.11237786311E+03  0.64166337099E+03  0.25500000920E-02 0. -1.
       -2    1    3    3    0  502  0.42350490811E+03 -0.46877146922E+03  0.83846522658E+03  0.10498223820E+04  0.25500000920E-02 0.  1.
</event>
<event>
 5   0  0.3573262E-04  0.1694577E+04  0.7818609E-02  0.8764463E-01
        2   -1    0    0  501    0  0.00000000000E+00  0.00000000000E+00  0.20931320252E+04  0.20931320252E+04  0.25500000920E-02 0. -1.
       -2   -1    0    0    0  501  0.00000000000E+00  0.00000000000E+00 -0.34297797677E+03  0.34297797678E+03  0.25500000920E-02 0.  1.
    10030    2    1    2    0    0  0.00000000000E+00  0.00000000000E+00  0.17501540484E+04  0.24361100019E+04  0.16945774542E+04 0.  0.
        5    1    3    3  502    0  0.74664785453E+03 -0.14624097717E+03  0.33909124475E+03  0.83299123905E+03  0.46999998093E+01 0.  1.
       -5    1    3    3    0  502 -0.74664785453E+03  0.14624097717E+03  0.14110628036E+04  0.16031187629E+04  0.46999998093E+01 0. -1.
</event>
<event>
 5   0  0.1824538E-04  0.1801003E+04  0.7818609E-02  0.8705766E-01
       -1   -1    0    0    0  501  0.00000000000E+00  0.00000000000E+00  0.30977113414E+03  0.30977113418E+03  0.50400001928E-02 0.  1.
        1   -1    0    0  501    0  0.00000000000E+00  0.00000000000E+00 -0.26177500392E+04  0.26177500392E+04  0.50400001928E-02 0. -1.
    10030    2    1    2    0    0  0.00000000000E+00  0.00000000000E+00 -0.23079789050E+04  0.29275211734E+04  0.18010034965E+04 0.  0.
        3    1    3    3  502    0  0.65042033810E+03  0.27195273534E+03 -0.20646994340E+04  0.21817398263E+04  0.10100000352E+00 0. -1.
       -3    1    3    3    0  502 -0.65042033810E+03 -0.27195273534E+03 -0.24327947103E+03  0.74578134711E+03  0.10100000352E+00 0.  1.
</event>
<event>
 5   0  0.3573262E-04  0.1693805E+04  0.7818609E-02  0.8764905E-01
       -2   -1    0    0    0  501  0.00000000000E+00  0.00000000000E+00  0.14908033862E+04  0.14908033862E+04  0.25500000920E-02 0. -1.
        2   -1    0    0  501    0  0.00000000000E+00  0.00000000000E+00 -0.48111255526E+03  0.48111255526E+03  0.25500000920E-02 0.  1.
    10030    2    1    2    0    0  0.00000000000E+00  0.00000000000E+00  0.10096908309E+04  0.19719159414E+04  0.16938054511E+04 0.  0.
        5    1    3    3  502    0 -0.22423370353E+03 -0.39743006185E+00  0.14556004923E+04  0.14727782572E+04  0.46999998093E+01 0. -1.
       -5    1    3    3    0  502  0.22423370353E+03  0.39743006185E+00 -0.44590966135E+03  0.49913768425E+03  0.46999998093E+01 0.  1.
</event>
<event>
 5   0  0.1824538E-04  0.1715649E+04  0.7818609E-02  0.8752489E-01
       -1   -1    0    0    0  501  0.00000000000E+00  0.00000000000E+00  0.73550845203E+03  0.73550845204E+03  0.50400001928E-02 0. -1.
        1   -1    0    0  501    0  0.00000000000E+00  0.00000000000E+00 -0.10004818565E+04  0.10004818565E+04  0.50400001928E-02 0.  1.
    10030    2    1    2    0    0  0.00000000000E+00  0.00000000000E+00 -0.26497340444E+03  0.17359903085E+04  0.17156489869E+04 0.  0.
        3    1    3    3  502    0 -0.79308393895E+03 -0.30487557552E+03 -0.25191833390E+03  0.88622463739E+03  0.10100000352E+00 0. -1.
       -3    1    3    3    0  502  0.79308393895E+03  0.30487557552E+03 -0.13055070538E+02  0.84976567113E+03  0.10100000352E+00 0.  1.
</event>
<event>
 5   0  0.3605571E-04  0.1696436E+04  0.7818609E-02  0.8763400E-01
        2   -1    0    0  501    0  0.00000000000E+00  0.00000000000E+00  0.12916880007E+04  0.12916880007E+04  0.25500000920E-02 0. -1.
       -2   -1    0    0    0  501  0.00000000000E+00  0.00000000000E+00 -0.55700249478E+03  0.55700249479E+03  0.25500000920E-02 0.  1.
    10030    2    1    2    0    0  0.00000000000E+00  0.00000000000E+00  0.73468550588E+03  0.18486904955E+04  0.16964356031E+04 0.  0.
        4    1    3    3  502    0  0.32578446156E+03  0.64749210290E+03  0.84743946462E+03  0.11151398109E+04  0.12699999809E+01 0. -1.
       -4    1    3    3    0  502 -0.32578446156E+03 -0.64749210290E+03 -0.11275395875E+03  0.73355068457E+03  0.12699999809E+01 0.  1.
</event>
<event>
 5   0  0.1920289E-04  0.1700612E+04  0.7818609E-02  0.8761016E-01
        1   -1    0    0  501    0  0.00000000000E+00  0.00000000000E+00  0.14063382356E+04  0.14063382356E+04  0.50400001928E-02 0. -1.
       -1   -1    0    0    0  501  0.00000000000E+00  0.00000000000E+00 -0.51411527197E+03  0.51411527200E+03  0.50400001928E-02 0.  1.
    10030    2    1    2    0    0  0.00000000000E+00  0.00000000000E+00  0.89222296365E+03  0.19204535076E+04  0.17006116130E+04 0.  0.
        4    1    3    3  502    0  0.21310957057E+03 -0.20141476474E+03  0.13474339989E+04  0.13789719326E+04  0.12699999809E+01 0. -1.
       -4    1    3    3    0  502 -0.21310957057E+03  0.20141476474E+03 -0.45521103530E+03  0.54148157501E+03  0.12699999809E+01 0.  1.
</event>
<event>
 5   0  0.3605571E-04  0.1721535E+04  0.7818609E-02  0.8749177E-01
       -2   -1    0    0    0  501  0.00000000000E+00  0.00000000000E+00  0.14158224492E+04  0.14158224492E+04  0.25500000920E-02 0. -1.
        2   -1    0    0  501    0  0.00000000000E+00  0.00000000000E+00 -0.52331455825E+03  0.52331455826E+03  0.25500000920E-02 0.  1.
    10030    2    1    2    0    0  0.00000000000E+00  0.00000000000E+00  0.89250789091E+03  0.19391370074E+04  0.17215347798E+04 0.  0.
        4    1    3    3  502    0  0.27788805767E+03 -0.67769941158E+03 -0.63024207164E+02  0.73516795948E+03  0.12699999809E+01 0.  1.
       -4    1    3    3    0  502 -0.27788805767E+03  0.67769941158E+03  0.95553209807E+03  0.12039690479E+04  0.12699999809E+01 0. -1.
</event>
<event>
 5   0  0.3678896E-04  0.1699102E+04  0.7818609E-02  0.8761876E-01
        2   -1    0    0  501    0  0.00000000000E+00  0.00000000000E+00  0.17428474148E+04  0.17428474148E+04  0.25500000920E-02 0. -1.
       -2   -1    0    0    0  501  0.00000000000E+00  0.00000000000E+00 -0.41411386241E+03  0.41411386241E+03  0.25500000920E-02 0.  1.
    10030    2    1    2    0    0  0.00000000000E+00  0.00000000000E+00  0.13287335524E+04  0.21569612773E+04  0.16991024390E+04 0.  0.
        2    1    3    3  502    0 -0.29120320602E+03  0.76047320249E+03  0.35701194399E+03  0.88914359193E+03  0.25500000920E-02 0.  1.
       -2    1    3    3    0  502  0.29120320602E+03 -0.76047320249E+03  0.97172160845E+03  0.12678176853E+04  0.25500000920E-02 0. -1.
</event>
<event>
 5   0  0.1930116E-04  0.1430333E+04  0.7818609E-02  0.8932150E-01
       -1   -1    0    0    0  501  0.00000000000E+00  0.00000000000E+00  0.58817865190E+03  0.58817865192E+03  0.50400001928E-02 0.  1.
        1   -1    0    0  501    0  0.00000000000E+00  0.00000000000E+00 -0.86957070330E+03  0.86957070331E+03  0.50400001928E-02 0. -1.
    10030    2    1    2    0    0  0.00000000000E+00  0.00000000000E+00 -0.28139205140E+03  0.14577493552E+04  0.14303327222E+04 0.  0.
        1    1    3    3  502    0 -0.32689024808E+03 -0.51580936966E+03 -0.52004890196E+03  0.80210186422E+03  0.50400001928E-02 0. -1.
       -1    1    3    3    0  502  0.32689024808E+03  0.51580936966E+03  0.23865685057E+03  0.65564749101E+03  0.50400001928E-02 0.  1.
</event>
<event>
 5   0  0.1317625E-04  0.1715194E+04  0.7818609E-02  0.8752746E-01
       -3   -1    0    0    0  501  0.00000000000E+00  0.00000000000E+00  0.94518603903E+03  0.94518604443E+03  0.10100000352E+00 0. -1.
        3   -1    0    0  501    0  0.00000000000E+00  0.00000000000E+00 -0.77812470748E+03  0.77812471404E+03  0.10100000352E+00 0.  1.
    10030    2    1    2    0    0  0.00000000000E+00  0.00000000000E+00  0.16706133155E+03  0.17233107585E+04  0.17151940070E+04 0.  0.
        3    1    3    3  502    0  0.20705735840E+03  0.21087277153E+02  0.91942635919E+03  0.94268884745E+03  0.10100000352E+00 0. -1.
       -3    1    3    3    0  502 -0.20705735840E+03 -0.21087277153E+02 -0.75236502765E+03  0.78062191101E+03  0.10100000352E+00 0.  1.
</event>
<event>
 5   0  0.1930116E-04  0.1736662E+04  0.7818609E-02  0.8740727E-01
       -1   -1    0    0    0  501  0.00000000000E+00  0.00000000000E+00  0.87430639039E+03  0.87430639041E+03  0.50400001928E-02 0.  1.
        1   -1    0    0  501    0  0.00000000000E+00  0.00000000000E+00 -0.86239618772E+03  0.86239618774E+03  0.50400001928E-02 0. -1.
    10030    2    1    2    0    0  0.00000000000E+00  0.00000000000E+00  0.11910202668E+02  0.17367025781E+04  0.17366617379E+04 0.  0.
        1    1    3    3  502    0 -0.40581919952E+03 -0.55155332990E+03  0.53991353486E+03  0.87201314415E+03  0.50400001928E-02 0.  1.
       -1    1    3    3    0  502  0.40581919952E+03  0.55155332990E+03 -0.52800333219E+03  0.86468943399E+03  0.50400001928E-02 0. -1.
</event>
<event>
 5   0  0.3573262E-04  0.1711903E+04  0.7818609E-02  0.8754604E-01
       -2   -1    0    0    0  501  0.00000000000E+00  0.00000000000E+00  0.62152634615E+03  0.62152634616E+03  0.25500000920E-02 0.  1.
        2   -1    0    0  501    0  0.00000000000E+00  0.00000000000E+00 -0.11787968363E+04  0.11787968363E+04  0.25500000920E-02 0. -1.
    10030    2    1    2    0    0  0.00000000000E+00  0.00000000000E+00 -0.55727049017E+03  0.18003231825E+04  0.17119033741E+04 0.  0.
        5    1    3    3  502    0 -0.38545335125E+03 -0.17388575501E+03 -0.10612640026E+04  0.11424158240E+04  0.46999998093E+01 0. -1.
       -5    1    3    3    0  502  0.38545335125E+03  0.17388575501E+03  0.50399351241E+03  0.65790735847E+03  0.46999998093E+01 0.  1.
</event>
<event>
 5   0  0.3574092E-04  0.1698165E+04  0.7818609E-02  0.8762412E-01
        2   -1    0    0  501    0  0.00000000000E+00  0.00000000000E+00  0.16792672971E+04  0.16792672971E+04  0.25500000920E-02 0. -1.
       -2   -1    0    0    0  501  0.00000000000E+00  0.00000000000E+00 -0.42931864913E+03  0.42931864914E+03  0.25500000920E-02 0.  1.
    10030    2    1    2    0    0  0.00000000000E+00  0.00000000000E+00  0.12499486480E+04  0.21085859463E+04  0.16981646181E+04 0.  0.
        3    1    3    3  502    0  0.15147270489E+01 -0.71362360086E+03  0.11962572542E+04  0.13929437773E+04  0.10100000352E+00 0.  1.
       -3    1    3    3    0  502 -0.15147270489E+01  0.71362360086E+03  0.53691393767E+02  0.71564216901E+03  0.10100000352E+00 0. -1.
</event>
<event>
 5   0  0.3573262E-04  0.1689980E+04  0.7818609E-02  0.8767100E-01
        2   -1    0    0  501    0  0.00000000000E+00  0.00000000000E+00  0.13501908630E+04  0.13501908630E+04  0.25500000920E-02 0. -1.
       -2   -1    0    0    0  501  0.00000000000E+00  0.00000000000E+00 -0.52882002018E+03  0.52882002019E+03  0.25500000920E-02 0.  1.
    10030    2    1    2    0    0  0.00000000000E+00  0.00000000000E+00  0.82137084285E+03  0.18790108832E+04  0.16899798335E+04 0.  0.
        5    1    3    3  502    0 -0.55838654702E+02  0.63412256096E+03  0.10284966854E+04  0.12095688900E+04  0.46999998093E+01 0. -1.
       -5    1    3    3    0  502  0.55838654702E+02 -0.63412256096E+03 -0.20712584257E+03  0.66944199325E+03  0.46999998093E+01 0.  1.
</event>
<event>
 5   0  0.1893284E-04  0.1701878E+04  0.7818609E-02  0.8760294E-01
       -1   -1    0    0    0  501  0.00000000000E+00  0.00000000000E+00  0.58612490882E+03  0.58612490885E+03  0.50400001928E-02 0. -1.
        1   -1    0    0  501    0  0.00000000000E+00  0.00000000000E+00 -0.12353979876E+04  0.12353979876E+04  0.50400001928E-02 0.  1.
    10030    2    1    2    0    0  0.00000000000E+00  0.00000000000E+00 -0.64927307875E+03  0.18215228964E+04  0.17018784126E+04 0.  0.
        2    1    3    3  502    0 -0.32058896604E+03 -0.26286786826E+03 -0.11199941820E+04  0.11942628559E+04  0.25500000920E-02 0.  1.
       -2    1    3    3    0  502  0.32058896604E+03  0.26286786826E+03  0.47072110328E+03  0.62726004048E+03  0.25500000920E-02 0. -1.
</event>
<event>
 5   0  0.3605571E-04  0.1486597E+04  0.7818609E-02  0.8893415E-01
        2   -1    0    0  501    0  0.00000000000E+00  0.00000000000E+00  0.87367663754E+03  0.87367663754E+03  0.25500000920E-02 0. -1.
       -2   -1    0    0    0  501  0.00000000000E+00  0.00000000000E+00 -0.63237642124E+03  0.63237642125E+03  0.25500000920E-02 0.  1.
    10030    2    1    2    0    0  0.00000000000E+00  0.00000000000E+00  0.24130021630E+03  0.15060530588E+04  0.14865967918E+04 0.  0.
        4    1    3    3  502    0 -0.23475077652E+03 -0.21931819004E+03 -0.55840783103E+03  0.64422768818E+03  0.12699999809E+01 0.  1.
       -4    1    3    3    0  502  0.23475077652E+03  0.21931819004E+03  0.79970804733E+03  0.86182537061E+03  0.12699999809E+01 0. -1.
</event>
<event>
 5   0  0.1824538E-04  0.1683695E+04  0.7818609E-02  0.8770719E-01
       -1   -1    0    0    0  501  0.00000000000E+00  0.00000000000E+00  0.67997401939E+03  0.67997401940E+03  0.50400001928E-02 0. -1.
        1   -1    0    0  501    0  0.00000000000E+00  0.00000000000E+00 -0.10422558411E+04  0.10422558412E+04  0.50400001928E-02 0.  1.
    10030    2    1    2    0    0  0.00000000000E+00  0.00000000000E+00 -0.36228182176E+03  0.17222298606E+04  0.16836946202E+04 0.  0.
        3    1    3    3  502    0 -0.11398851139E+03  0.82470473174E+02  0.66786302677E+03  0.68252164244E+03  0.10100000352E+00 0. -1.
       -3    1    3    3    0  502  0.11398851139E+03 -0.82470473174E+02 -0.10301448485E+04  0.10397082181E+04  0.10100000352E+00 0.  1.
</event>
<event>
 5   0  0.3574092E-04  0.1695951E+04  0.7818609E-02  0.8763677E-01
       -2   -1    0    0    0  501  0.00000000000E+00  0.00000000000E+00  0.51160817459E+03  0.51160817459E+03  0.25500000920E-02 0.  1.
        2   -1    0    0  501    0  0.00000000000E+00  0.00000000000E+00 -0.14054946701E+04  0.14054946701E+04  0.25500000920E-02 0. -1.
    10030    2    1    2    0    0  0.00000000000E+00  0.00000000000E+00 -0.89388649549E+03  0.19171028447E+04  0.16959511344E+04 0.  0.
        3    1    3    3  502    0  0.28323464008E+03 -0.53141583551E+02  0.45455798278E+03  0.53820893634E+03  0.10100000352E+00 0.  1.
       -3    1    3    3    0  502 -0.28323464008E+03  0.53141583551E+02 -0.13484444783E+04  0.13788939083E+04  0.10100000352E+00 0. -1.
</event>
<event>
 5   0  0.1930116E-04  0.1713713E+04  0.7818609E-02  0.8753582E-01
       -1   -1    0    0    0  501  0.00000000000E+00  0.00000000000E+00  0.11169142720E+04  0.11169142721E+04  0.50400001928E-02 0. -1.
        1   -1    0    0  501    0  0.00000000000E+00  0.00000000000E+00 -0.65734939313E+03  0.65734939315E+03  0.50400001928E-02 0.  1.
    10030    2    1    2    0    0  0.00000000000E+00  0.00000000000E+00  0.45956487891E+03  0.17742636652E+04  0.17137128335E+04 0.  0.
        1    1    3    3  502    0 -0.44760105247E+03  0.46947330116E+03 -0.34986639203E+03  0.73699279167E+03  0.50400001928E-02 0.  1.
       -1    1    3    3    0  502  0.44760105247E+03 -0.46947330116E+03  0.80943127094E+03  0.10372708735E+04  0.50400001928E-02 0. -1.
</event>
<event>
 5   0  0.3573262E-04  0.1729756E+04  0.7818609E-02  0.8744573E-01
       -2   -1    0    0    0  501  0.00000000000E+00  0.00000000000E+00  0.71890955136E+03  0.71890955137E+03  0.25500000920E-02 0. -1.
        2   -1    0    0  501    0  0.00000000000E+00  0.00000000000E+00 -0.10404845587E+04  0.10404845587E+04  0.25500000920E-02 0.  1.
    10030    2    1    2    0    0  0.00000000000E+00  0.00000000000E+00 -0.32157500732E+03  0.17593941101E+04  0.17297563843E+04 0.  0.
        5    1    3    3  502    0 -0.49415463312E+03  0.87915872717E+02 -0.87718079421E+03  0.10106365508E+04  0.46999998093E+01 0.  1.
       -5    1    3    3    0  502  0.49415463312E+03 -0.87915872717E+02  0.55560578689E+03  0.74875755924E+03  0.46999998093E+01 0. -1.
</event>
<event>
 5   0  0.1317625E-04  0.1714779E+04  0.7818609E-02  0.8752980E-01
        3   -1    0    0  501    0  0.00000000000E+00  0.00000000000E+00  0.10877105988E+04  0.10877106035E+04  0.10100000352E+00 0. -1.
       -3   -1    0    0    0  501  0.00000000000E+00  0.00000000000E+00 -0.67583890672E+03  0.67583891427E+03  0.10100000352E+00 0.  1.
    10030    2    1    2    0    0  0.00000000000E+00  0.00000000000E+00  0.41187169206E+03  0.17635495177E+04  0.17147794642E+04 0.  0.
        5    1    3    3  502    0  0.23518161188E+03  0.57354106687E+03  0.81509536794E+03  0.10240421353E+04  0.46999998093E+01 0. -1.
       -5    1    3    3    0  502 -0.23518161188E+03 -0.57354106687E+03 -0.40322367587E+03  0.73950738248E+03  0.46999998093E+01 0.  1.
</event>
<event>
 5   0  0.1920289E-04  0.1723980E+04  0.7818609E-02  0.8747805E-01
       -1   -1    0    0    0  501  0.00000000000E+00  0.00000000000E+00  0.85845586479E+03  0.85845586481E+03  0.50400001928E-02 0. -1.
        1   -1    0    0  501    0  0.00000000000E+00  0.00000000000E+00 -0.86553887429E+03  0.86553887431E+03  0.50400001928E-02 0.  1.
    10030    2    1    2    0    0  0.00000000000E+00  0.00000000000E+00 -0.70830095013E+01  0.17239947391E+04  0.17239801888E+04 0.  0.
        4    1    3    3  502    0  0.13005061217E+02 -0.29925557074E+03  0.80473648545E+03  0.85867657016E+03  0.12699999809E+01 0. -1.
       -4    1    3    3    0  502 -0.13005061217E+02  0.29925557074E+03 -0.81181949495E+03  0.86531816895E+03  0.12699999809E+01 0.  1.
</event>
<event>
 5   0  0.3678896E-04  0.1713080E+04  0.7818609E-02  0.8753940E-01
        2   -1    0    0  501    0  0.00000000000E+00  0.00000000000E+00  0.22159944986E+04  0.22159944986E+04  0.25500000920E-02 0.  1.
       -2   -1    0    0    0  501  0.00000000000E+00  0.00000000000E+00 -0.33107503680E+03  0.33107503681E+03  0.25500000920E-02 0. -1.
    10030    2    1    2    0    0  0.00000000000E+00  0.00000000000E+00  0.18849194618E+04  0.25470695354E+04  0.17130796364E+04 0.  0.
        2    1    3    3  502    0  0.37526136255E+03  0.27461835008E+03  0.20119740134E+04  0.20650122903E+04  0.25500000920E-02 0.  1.
       -2    1    3    3    0  502 -0.37526136255E+03 -0.27461835008E+03 -0.12705455166E+03  0.48205724507E+03  0.25500000920E-02 0. -1.
</event>
<event>
 5   0  0.3574092E-04  0.1580878E+04  0.7818609E-02  0.8832382E-01
       -2   -1    0    0    0  501  0.00000000000E+00  0.00000000000E+00  0.44688608006E+03  0.44688608007E+03  0.25500000920E-02 0.  1.
        2   -1    0    0  501    0  0.00000000000E+00  0.00000000000E+00 -0.13981059489E+04  0.13981059489E+04  0.25500000920E-02 0. -1.
    10030    2    1    2    0    0  0.00000000000E+00  0.00000000000E+00 -0.95121986880E+03  0.18449920289E+04  0.15808783470E+04 0.  0.
        3    1    3    3  502    0  0.13561770332E+03 -0.76669461839E+03 -0.63469661775E+03  0.10045161054E+04  0.10100000352E+00 0. -1.
       -3    1    3    3    0  502 -0.13561770332E+03  0.76669461839E+03 -0.31652325105E+03  0.84047592350E+03  0.10100000352E+00 0.  1.
</event>
<event>
 5   0  0.1815663E-04  0.1540045E+04  0.7818609E-02  0.8858252E-01
        1   -1    0    0  501    0  0.00000000000E+00  0.00000000000E+00  0.54560115219E+03  0.54560115222E+03  0.50400001928E-02 0. -1.
       -1   -1    0    0    0  501  0.00000000000E+00  0.00000000000E+00 -0.10867549548E+04  0.10867549548E+04  0.50400001928E-02 0.  1.
    10030    2    1    2    0    0  0.00000000000E+00  0.00000000000E+00 -0.54115380262E+03  0.16323561070E+04  0.15400451364E+04 0.  0.
        5    1    3    3  502    0 -0.11433112355E+02  0.76905202122E+03 -0.23176313121E+03  0.80331062883E+03  0.46999998093E+01 0.  1.
       -5    1    3    3    0  502  0.11433112355E+02 -0.76905202122E+03 -0.30939067142E+03  0.82904547822E+03  0.46999998093E+01 0. -1.
</event>
<event>
 5   0  0.1317625E-04  0.1704098E+04  0.7818609E-02  0.8759030E-01
        4   -1    0    0  501    0  0.00000000000E+00  0.00000000000E+00  0.15480428449E+04  0.15480433659E+04  0.12699999809E+01 0. -1.
       -4   -1    0    0    0  501  0.00000000000E+00  0.00000000000E+00 -0.46896994763E+03  0.46897166725E+03  0.12699999809E+01 0.  1.
    10030    2    1    2    0    0  0.00000000000E+00  0.00000000000E+00  0.10790728973E+04  0.20170150331E+04  0.17040983910E+04 0.  0.
        4    1    3    3  502    0  0.82612051220E+03  0.47786991100E+02  0.29920639587E+03  0.87993453019E+03  0.12699999809E+01 0.  1.
       -4    1    3    3    0  502 -0.82612051220E+03 -0.47786991100E+02  0.77986650142E+03  0.11370805029E+04  0.12699999809E+01 0. -1.
</event>
<event>
 5   0  0.3516723E-04  0.1703218E+04  0.7818609E-02  0.8759531E-01
        2   -1    0    0  501    0  0.00000000000E+00  0.00000000000E+00  0.16020014088E+04  0.16020014088E+04  0.25500000920E-02 0. -1.
       -2   -1    0    0    0  501  0.00000000000E+00  0.00000000000E+00 -0.45270721356E+03  0.45270721357E+03  0.25500000920E-02 0.  1.
    10030    2    1    2    0    0  0.00000000000E+00  0.00000000000E+00  0.11492941952E+04  0.20547086224E+04  0.17032176536E+04 0.  0.
        1    1    3    3  502    0 -0.94621542570E+02 -0.38062558249E+03 -0.33726599428E+03  0.51727886221E+03  0.50400001928E-02 0.  1.
       -1    1    3    3    0  502  0.94621542570E+02  0.38062558249E+03  0.14865601895E+04  0.15374297602E+04  0.50400001928E-02 0. -1.
</event>
<event>
 5   0  0.3678896E-04  0.1646770E+04  0.7818609E-02  0.8792320E-01
       -2   -1    0    0    0  501  0.00000000000E+00  0.00000000000E+00  0.34872055057E+03  0.34872055058E+03  0.25500000920E-02 0.  1.
        2   -1    0    0  501    0  0.00000000000E+00  0.00000000000E+00 -0.19441434695E+04  0.19441434695E+04  0.25500000920E-02 0. -1.
    10030    2    1    2    0    0  0.00000000000E+00  0.00000000000E+00 -0.15954229189E+04  0.22928640201E+04  0.16467699063E+04 0.  0.
        2    1    3    3  502    0  0.74782579729E+03 -0.13043901749E+03 -0.35367710358E+03  0.83746358367E+03  0.25500000920E-02 0. -1.
       -2    1    3    3    0  502 -0.74782579729E+03  0.13043901749E+03 -0.12417458154E+04  0.14554004364E+04  0.25500000920E-02 0.  1.
</event>
<event>
 5   0  0.1893284E-04  0.1680060E+04  0.7818609E-02  0.8772819E-01
        1   -1    0    0  501    0  0.00000000000E+00  0.00000000000E+00  0.96064315217E+03  0.96064315218E+03  0.50400001928E-02 0.  1.
       -1   -1    0    0    0  501  0.00000000000E+00  0.00000000000E+00 -0.73456052868E+03  0.73456052870E+03  0.50400001928E-02 0. -1.
    10030    2    1    2    0    0  0.00000000000E+00  0.00000000000E+00  0.22608262348E+03  0.16952036809E+04  0.16800601677E+04 0.  0.
        2    1    3    3  502    0 -0.57103686883E+03  0.47447342121E+03 -0.28349260031E+03  0.79471767782E+03  0.25500000920E-02 0.  1.
       -2    1    3    3    0  502  0.57103686883E+03 -0.47447342121E+03  0.50957522380E+03  0.90048600306E+03  0.25500000920E-02 0. -1.
</event>
<event>
 5   0  0.3605571E-04  0.1706023E+04  0.7818609E-02  0.8757936E-01
        2   -1    0    0  501    0  0.00000000000E+00  0.00000000000E+00  0.12313901147E+04  0.12313901147E+04  0.25500000920E-02 0. -1.
       -2   -1    0    0    0  501  0.00000000000E+00  0.00000000000E+00 -0.59090039380E+03  0.59090039381E+03  0.25500000920E-02 0.  1.
    10030    2    1    2    0    0  0.00000000000E+00  0.00000000000E+00  0.64048972095E+03  0.18222905086E+04  0.17060233336E+04 0.  0.
        4    1    3    3  502    0 -0.75594500462E+03 -0.24581307621E+03 -0.10279049891E+02  0.79497433306E+03  0.12699999809E+01 0.  1.
       -4    1    3    3    0  502  0.75594500462E+03  0.24581307621E+03  0.65076877084E+03  0.10273161755E+04  0.12699999809E+01 0. -1.
</event>
<event>
 5   0  0.3573262E-04  0.1699088E+04  0.7818609E-02  0.8761884E-01
       -2   -1    0    0    0  501  0.00000000000E+00  0.00000000000E+00  0.47289504928E+03  0.47289504929E+03  0.25500000920E-02 0. -1.
        2   -1    0    0  501    0  0.00000000000E+00  0.00000000000E+00 -0.15261851318E+04  0.15261851318E+04  0.25500000920E-02 0.  1.
    10030    2    1    2    0    0  0.00000000000E+00  0.00000000000E+00 -0.10532900825E+04  0.19990801811E+04  0.16990884534E+04 0.  0.
        5    1    3    3  502    0  0.79540642662E+03  0.39448335253E+02 -0.17866201664E+03  0.81619223278E+03  0.46999998093E+01 0. -1.
       -5    1    3    3    0  502 -0.79540642662E+03 -0.39448335253E+02 -0.87462806590E+03  0.11828879483E+04  0.46999998093E+01 0.  1.
</event>
<event>
 5   0  0.3605571E-04  0.1714114E+04  0.7818609E-02  0.8753355E-01
       -2   -1    0    0    0  501  0.00000000000E+00  0.00000000000E+00  0.85461254912E+03  0.85461254913E+03  0.25500000920E-02 0. -1.
        2   -1    0    0  501    0  0.00000000000E+00  0.00000000000E+00 -0.85950854946E+03  0.85950854947E+03  0.25500000920E-02 0.  1.
    10030    2    1    2    0    0  0.00000000000E+00  0.00000000000E+00 -0.48960003414E+01  0.17141210986E+04  0.17141141064E+04 0.  0.
        4    1    3    3  502    0  0.16294744231E+01  0.69448179002E+03  0.49978663179E+03  0.85562602934E+03  0.12699999809E+01 0. -1.
       -4    1    3    3    0  502 -0.16294744231E+01 -0.69448179002E+03 -0.50468263214E+03  0.85849506926E+03  0.12699999809E+01 0.  1.
</event>
<event>
 5   0  0.3678896E-04  0.1708305E+04  0.7818609E-02  0.8756642E-01
       -2   -1    0    0    0  501  0.00000000000E+00  0.00000000000E+00  0.89941338005E+03  0.89941338005E+03  0.25500000920E-02 0. -1.
        2   -1    0    0  501    0  0.00000000000E+00  0.00000000000E+00 -0.81116973974E+03  0.81116973974E+03  0.25500000920E-02 0.  1.
    10030    2    1    2    0    0  0.00000000000E+00  0.00000000000E+00  0.88243640311E+02  0.17105831198E+04  0.17083054966E+04 0.  0.
        2    1    3    3  502    0  0.40542584427E+03 -0.25774088027E+03  0.75130449061E+03  0.89177290505E+03  0.25500000920E-02 0. -1.
       -2    1    3    3    0  502 -0.40542584427E+03  0.25774088027E+03 -0.66306085030E+03  0.81881021475E+03  0.25500000920E-02 0.  1.
</event>
<event>
 5   0  0.3573262E-04  0.1709148E+04  0.7818609E-02  0.8756164E-01
        2   -1    0    0  501    0  0.00000000000E+00  0.00000000000E+00  0.13381089139E+04  0.13381089139E+04  0.25500000920E-02 0. -1.
       -2   -1    0    0    0  501  0.00000000000E+00  0.00000000000E+00 -0.54576771896E+03  0.54576771897E+03  0.25500000920E-02 0.  1.
    10030    2    1    2    0    0  0.00000000000E+00  0.00000000000E+00  0.79234119495E+03  0.18838766329E+04  0.17091479160E+04 0.  0.
        5    1    3    3  502    0 -0.97001089581E+02  0.15034389759E+03  0.13172181066E+04  0.13293224324E+04  0.46999998093E+01 0. -1.
       -5    1    3    3    0  502  0.97001089581E+02 -0.15034389759E+03 -0.52487691164E+03  0.55455420050E+03  0.46999998093E+01 0.  1.
</event>
<event>
 5   0  0.1930116E-04  0.1690910E+04  0.7818609E-02  0.8766566E-01
        1   -1    0    0  501    0  0.00000000000E+00  0.00000000000E+00  0.91938899304E+03  0.91938899305E+03  0.50400001928E-02 0.  1.
       -1   -1    0    0    0  501  0.00000000000E+00  0.00000000000E+00 -0.77746605846E+03  0.77746605847E+03  0.50400001928E-02 0. -1.
    10030    2    1    2    0    0  0.00000000000E+00  0.00000000000E+00  0.14192293458E+03  0.16968550515E+04  0.16909095028E+04 0.  0.
        1    1    3    3  502    0  0.76590188236E+03  0.29894813479E+03 -0.12675428496E+03  0.83189081584E+03  0.50400001928E-02 0. -1.
       -1    1    3    3    0  502 -0.76590188236E+03 -0.29894813479E+03  0.26867721954E+03  0.86496423569E+03  0.50400001928E-02 0.  1.
</event>
<event>
 5   0  0.3574092E-04  0.1712762E+04  0.7818609E-02  0.8754119E-01
       -2   -1    0    0    0  501  0.00000000000E+00  0.00000000000E+00  0.65533126905E+03  0.65533126905E+03  0.25500000920E-02 0. -1.
        2   -1    0    0  501    0  0.00000000000E+00  0.00000000000E+00 -0.11191108734E+04  0.11191108734E+04  0.25500000920E-02 0.  1.
    10030    2    1    2    0    0  0.00000000000E+00  0.00000000000E+00 -0.46377960437E+03  0.17744421425E+04  0.17127619203E+04 0.  0.
        3    1    3    3  502    0  0.50015349931E+03  0.68594326523E+03 -0.11506064332E+03  0.85668585131E+03  0.10100000352E+00 0.  1.
       -3    1    3    3    0  502 -0.50015349931E+03 -0.68594326523E+03 -0.34871896105E+03  0.91775629117E+03  0.10100000352E+00 0. -1.
</event>
<event>
 5   0  0.1930116E-04  0.1691173E+04  0.7818609E-02  0.8766415E-01
       -1   -1    0    0    0  501  0.00000000000E+00  0.00000000000E+00  0.61851030471E+03  0.61851030473E+03  0.50400001928E-02 0.  1.
        1   -1    0    0  501    0  0.00000000000E+00  0.00000000000E+00 -0.11560302401E+04  0.11560302401E+04  0.50400001928E-02 0. -1.
    10030    2    1    2    0    0  0.00000000000E+00  0.00000000000E+00 -0.53751993538E+03  0.17745405448E+04  0.16911731030E+04 0.  0.
        1    1    3    3  502    0  0.43713131621E+03 -0.50487303850E+03  0.27549587185E+03  0.72241161954E+03  0.50400001928E-02 0.  1.
       -1    1    3    3    0  502 -0.43713131621E+03  0.50487303850E+03 -0.81301580724E+03  0.10521289253E+04  0.50400001928E-02 0. -1.
</event>
<event>
 5   0  0.3678896E-04  0.1708607E+04  0.7818609E-02  0.8756471E-01
       -2   -1    0    0    0  501  0.00000000000E+00  0.00000000000E+00  0.40804269341E+03  0.40804269342E+03  0.25500000920E-02 0. -1.
        2   -1    0    0  501    0  0.00000000000E+00  0.00000000000E+00 -0.17886231617E+04  0.17886231617E+04  0.25500000920E-02 0.  1.
    10030    2    1    2    0    0  0.00000000000E+00  0.00000000000E+00 -0.13805804683E+04  0.21966658551E+04  0.17086071665E+04 0.  0.
        2    1    3    3  502    0 -0.55652087883E+03 -0.10518314194E+03 -0.15125574275E+04  0.16151188667E+04  0.25500000920E-02 0.  1.
       -2    1    3    3    0  502  0.55652087883E+03  0.10518314194E+03  0.13197695928E+03  0.58154698840E+03  0.25500000920E-02 0. -1.
</event>
<event>
 5   0  0.3573262E-04  0.1681460E+04  0.7818609E-02  0.8772009E-01
       -2   -1    0    0    0  501  0.00000000000E+00  0.00000000000E+00  0.33929915957E+03  0.33929915958E+03  0.25500000920E-02 0.  1.
        2   -1    0    0  501    0  0.00000000000E+00  0.00000000000E+00 -0.20831980397E+04  0.20831980397E+04  0.25500000920E-02 0. -1.
    10030    2    1    2    0    0  0.00000000000E+00  0.00000000000E+00 -0.17438988801E+04  0.24224971992E+04  0.16814604891E+04 0.  0.
        5    1    3    3  502    0 -0.15683431505E+03  0.68865789197E+03 -0.21494997314E+03  0.73829010253E+03  0.46999998093E+01 0.  1.
       -5    1    3    3    0  502  0.15683431505E+03 -0.68865789197E+03 -0.15289489069E+04  0.16842070967E+04  0.46999998093E+01 0. -1.
</event>
<event>
 5   0  0.1824538E-04  0.1832978E+04  0.7818609E-02  0.8688956E-01
       -1   -1    0    0    0  501  0.00000000000E+00  0.00000000000E+00  0.14063416070E+04  0.14063416070E+04  0.50400001928E-02 0.  1.
        1   -1    0    0  501    0  0.00000000000E+00  0.00000000000E+00 -0.59726025467E+03  0.59726025469E+03  0.50400001928E-02 0. -1.
    10030    2    1    2    0    0  0.00000000000E+00  0.00000000000E+00  0.80908135235E+03  0.20036018617E+04  0.18329778464E+04 0.  0.
        3    1    3    3  502    0  0.17664512763E+03 -0.26797456555E+01  0.13875531053E+04  0.13987545576E+04  0.10100000352E+00 0.  1.
       -3    1    3    3    0  502 -0.17664512763E+03  0.26797456555E+01 -0.57847175295E+03  0.60484730413E+03  0.10100000352E+00 0. -1.
</event>
<event>
 5   0  0.1930116E-04  0.1704843E+04  0.7818609E-02  0.8758607E-01
        1   -1    0    0  501    0  0.00000000000E+00  0.00000000000E+00  0.17787580488E+04  0.17787580489E+04  0.50400001928E-02 0. -1.
       -1   -1    0    0    0  501  0.00000000000E+00  0.00000000000E+00 -0.40849998700E+03  0.40849998703E+03  0.50400001928E-02 0.  1.
    10030    2    1    2    0    0  0.00000000000E+00  0.00000000000E+00  0.13702580618E+04  0.21872580359E+04  0.17048432654E+04 0.  0.
        1    1    3    3  502    0  0.32851599659E+03  0.73222320805E+03  0.10537428489E+04  0.13245556153E+04  0.50400001928E-02 0. -1.
       -1    1    3    3    0  502 -0.32851599659E+03 -0.73222320805E+03  0.31651521297E+03  0.86270242059E+03  0.50400001928E-02 0.  1.
</event>
<event>
 5   0  0.1815663E-04  0.1712476E+04  0.7818609E-02  0.8754281E-01
       -1   -1    0    0    0  501  0.00000000000E+00  0.00000000000E+00  0.41598536794E+03  0.41598536797E+03  0.50400001928E-02 0. -1.
        1   -1    0    0  501    0  0.00000000000E+00  0.00000000000E+00 -0.17624252771E+04  0.17624252771E+04  0.50400001928E-02 0.  1.
    10030    2    1    2    0    0  0.00000000000E+00  0.00000000000E+00 -0.13464399091E+04  0.21784106451E+04  0.17124755501E+04 0.  0.
        5    1    3    3  502    0  0.58972773215E+03 -0.26893079901E+02  0.11569600006E+03  0.60158930363E+03  0.46999998093E+01 0. -1.
       -5    1    3    3    0  502 -0.58972773215E+03  0.26893079901E+02 -0.14621359092E+04  0.15768213414E+04  0.46999998093E+01 0.  1.
</event>
<event>
 5   0  0.1317625E-04  0.1692977E+04  0.7818609E-02  0.8765380E-01
       -3   -1    0    0    0  501  0.00000000000E+00  0.00000000000E+00  0.10460505662E+04  0.10460505711E+04  0.10100000352E+00 0. -1.
        3   -1    0    0  501    0  0.00000000000E+00  0.00000000000E+00 -0.68499843077E+03  0.68499843822E+03  0.10100000352E+00 0.  1.
    10030    2    1    2    0    0  0.00000000000E+00  0.00000000000E+00  0.36105213542E+03  0.17310490093E+04  0.16929772674E+04 0.  0.
        5    1    3    3  502    0  0.40208746520E+03  0.22761438882E+03  0.90572766757E+03  0.10167828369E+04  0.46999998093E+01 0. -1.
       -5    1    3    3    0  502 -0.40208746520E+03 -0.22761438882E+03 -0.54467553215E+03  0.71426617237E+03  0.46999998093E+01 0.  1.
</event>
<event>
 5   0  0.1317625E-04  0.1694138E+04  0.7818609E-02  0.8764715E-01
        3   -1    0    0  501    0  0.00000000000E+00  0.00000000000E+00  0.64507120356E+03  0.64507121147E+03  0.10100000352E+00 0. -1.
       -3   -1    0    0    0  501  0.00000000000E+00  0.00000000000E+00 -0.11123201491E+04  0.11123201537E+04  0.10100000352E+00 0.  1.
    10030    2    1    2    0    0  0.00000000000E+00  0.00000000000E+00 -0.46724894559E+03  0.17573913652E+04  0.16941377846E+04 0.  0.
        1    1    3    3  502    0  0.28596613067E+03  0.58116216971E+03  0.33265081501E+03  0.72813642962E+03  0.50400001928E-02 0. -1.
       -1    1    3    3    0  502 -0.28596613067E+03 -0.58116216971E+03 -0.79989976060E+03  0.10292549356E+04  0.50400001928E-02 0.  1.
</event>
<event>
 5   0  0.1824538E-04  0.1716764E+04  0.7818609E-02  0.8751860E-01
       -1   -1    0    0    0  501  0.00000000000E+00  0.00000000000E+00  0.79756490993E+03  0.79756490995E+03  0.50400001928E-02 0. -1.
        1   -1    0    0  501    0  0.00000000000E+00  0.00000000000E+00 -0.92383689710E+03  0.92383689712E+03  0.50400001928E-02 0.  1.
    10030    2    1    2    0    0  0.00000000000E+00  0.00000000000E+00 -0.12627198717E+03  0.17214018071E+04  0.17167642723E+04 0.  0.
        3    1    3    3  502    0 -0.26966027848E+03 -0.45269809490E+03 -0.74258556596E+03  0.91054135759E+03  0.10100000352E+00 0.  1.
       -3    1    3    3    0  502  0.26966027848E+03  0.45269809490E+03  0.61631357879E+03  0.81086044947E+03  0.10100000352E+00 0. -1.
</event>
<event>
 5   0  0.3573262E-04  0.1710624E+04  0.7818609E-02  0.8755328E-01
       -2   -1    0    0    0  501  0.00000000000E+00  0.00000000000E+00  0.68567529185E+03  0.68567529185E+03  0.25500000920E-02 0.  1.
        2   -1    0    0  501    0  0.00000000000E+00  0.00000000000E+00 -0.10669174228E+04  0.10669174228E+04  0.25500000920E-02 0. -1.
    10030    2    1    2    0    0  0.00000000000E+00  0.00000000000E+00 -0.38124213099E+03  0.17525927147E+04  0.17106243483E+04 0.  0.
        5    1    3    3  502    0 -0.13394933352E+03  0.41686774970E+03  0.56212605115E+03  0.71255100314E+03  0.46999998093E+01 0.  1.
       -5    1    3    3    0  502  0.13394933352E+03 -0.41686774970E+03 -0.94336818214E+03  0.10400417116E+04  0.46999998093E+01 0. -1.
</event>
<event>
 5   0  0.1317625E-04  0.1718526E+04  0.7818609E-02  0.8750868E-01
       -3   -1    0    0    0  501  0.00000000000E+00  0.00000000000E+00  0.71436921690E+03  0.71436922404E+03  0.10100000352E+00 0. -1.
        3   -1    0    0  501    0  0.00000000000E+00  0.00000000000E+00 -0.10335455029E+04  0.10335455078E+04  0.10100000352E+00 0.  1.
    10030    2    1    2    0    0  0.00000000000E+00  0.00000000000E+00 -0.31917628598E+03  0.17479147319E+04  0.17185262315E+04 0.  0.
        1    1    3    3  502    0  0.75662968370E+03 -0.91835182684E+02  0.24394713699E+03  0.80027019482E+03  0.50400001928E-02 0. -1.
       -1    1    3    3    0  502 -0.75662968370E+03  0.91835182684E+02 -0.56312342298E+03  0.94764453703E+03  0.50400001928E-02 0.  1.
</event>
<event>
 5   0  0.3573262E-04  0.1691542E+04  0.7818609E-02  0.8766203E-01
       -2   -1    0    0    0  501  0.00000000000E+00  0.00000000000E+00  0.81541291973E+03  0.81541291973E+03  0.25500000920E-02 0.  1.
        2   -1    0    0  501    0  0.00000000000E+00  0.00000000000E+00 -0.87725949591E+03  0.87725949592E+03  0.25500000920E-02 0. -1.
    10030    2    1    2    0    0  0.00000000000E+00  0.00000000000E+00 -0.61846576188E+02  0.16926724156E+04  0.16915421685E+04 0.  0.
        5    1    3    3  502    0  0.65173867059E+02 -0.35556070486E+03  0.73420227585E+03  0.81838018039E+03  0.46999998093E+01 0.  1.
       -5    1    3    3    0  502 -0.65173867059E+02  0.35556070486E+03 -0.79604885204E+03  0.87429223525E+03  0.46999998093E+01 0. -1.
</event>
<event>
 5   0  0.1930116E-04  0.1691814E+04  0.7818609E-02  0.8766047E-01
       -1   -1    0    0    0  501  0.00000000000E+00  0.00000000000E+00  0.59876700597E+03  0.59876700599E+03  0.50400001928E-02 0.  1.
        1   -1    0    0  501    0  0.00000000000E+00  0.00000000000E+00 -0.11950538927E+04  0.11950538927E+04  0.50400001928E-02 0. -1.
    10030    2    1    2    0    0  0.00000000000E+00  0.00000000000E+00 -0.59628688674E+03  0.17938208987E+04  0.16918142231E+04 0.  0.
        1    1    3    3  502    0 -0.29309592028E+03  0.30222690777E+03  0.47979215920E+03  0.63831562594E+03  0.50400001928E-02 0.  1.
       -1    1    3    3    0  502  0.29309592028E+03 -0.30222690777E+03 -0.10760790459E+04  0.11555052728E+04  0.50400001928E-02 0. -1.
</event>
<event>
 5   0  0.1815663E-04  0.1686755E+04  0.7818609E-02  0.8768954E-01
       -1   -1    0    0    0  501  0.00000000000E+00  0.00000000000E+00  0.11977969846E+04  0.11977969846E+04  0.50400001928E-02 0.  1.
        1   -1    0    0  501    0  0.00000000000E+00  0.00000000000E+00 -0.59382844389E+03  0.59382844392E+03  0.50400001928E-02 0. -1.
    10030    2    1    2    0    0  0.00000000000E+00  0.00000000000E+00  0.60396854066E+03  0.17916254285E+04  0.16867553699E+04 0.  0.
        5    1    3    3  502    0 -0.74663827589E+03 -0.20673140343E+03  0.65595598279E+03  0.10151388720E+04  0.46999998093E+01 0. -1.
       -5    1    3    3    0  502  0.74663827589E+03  0.20673140343E+03 -0.51987442128E+02  0.77648655643E+03  0.46999998093E+01 0.  1.
</event>
<event>
 5   0  0.3574092E-04  0.1698158E+04  0.7818609E-02  0.8762416E-01
       -2   -1    0    0    0  501  0.00000000000E+00  0.00000000000E+00  0.57038631996E+03  0.57038631997E+03  0.25500000920E-02 0. -1.
        2   -1    0    0  501    0  0.00000000000E+00  0.00000000000E+00 -0.12639413962E+04  0.12639413962E+04  0.25500000920E-02 0.  1.
    10030    2    1    2    0    0  0.00000000000E+00  0.00000000000E+00 -0.69355507626E+03  0.18343277162E+04  0.16981576860E+04 0.  0.
        3    1    3    3  502    0  0.31823859567E+03  0.34449671691E+02 -0.11962690337E+04  0.12383546321E+04  0.10100000352E+00 0.  1.
       -3    1    3    3    0  502 -0.31823859567E+03 -0.34449671691E+02  0.50271395749E+03  0.59597308405E+03  0.10100000352E+00 0. -1.
</event>
<event>
 5   0  0.3573262E-04  0.1721307E+04  0.7818609E-02  0.8749305E-01
       -2   -1    0    0    0  501  0.00000000000E+00  0.00000000000E+00  0.30299771504E+03  0.30299771505E+03  0.25500000920E-02 0.  1.
        2   -1    0    0  501    0  0.00000000000E+00  0.00000000000E+00 -0.24446540498E+04  0.24446540498E+04  0.25500000920E-02 0. -1.
    10030    2    1    2    0    0  0.00000000000E+00  0.00000000000E+00 -0.21416563347E+04  0.27476517648E+04  0.17213071674E+04 0.  0.
        5    1    3    3  502    0 -0.14137793917E+03 -0.80386261516E+03 -0.63507676856E+03  0.10341795868E+04  0.46999998093E+01 0.  1.
       -5    1    3    3    0  502  0.14137793917E+03  0.80386261516E+03 -0.15065795661E+04  0.17134721780E+04  0.46999998093E+01 0. -1.
</event>
<event>
 5   0  0.1317625E-04  0.1711507E+04  0.7818609E-02  0.8754828E-01
       -3   -1    0    0    0  501  0.00000000000E+00  0.00000000000E+00  0.12037427132E+04  0.12037427174E+04  0.10100000352E+00 0.  1.
        3   -1    0    0  501    0  0.00000000000E+00  0.00000000000E+00 -0.60836459304E+03  0.60836460143E+03  0.10100000352E+00 0. -1.
    10030    2    1    2    0    0  0.00000000000E+00  0.00000000000E+00  0.59537812016E+03  0.18121073189E+04  0.17115074727E+04 0.  0.
        3    1    3    3  502    0  0.84274811908E+03 -0.14587837230E+03  0.26756396733E+03  0.89615588964E+03  0.10100000352E+00 0. -1.
       -3    1    3    3    0  502 -0.84274811908E+03  0.14587837230E+03  0.32781415283E+03  0.91595142923E+03  0.10100000352E+00 0.  1.
</event>
<event>
 5   0  0.3605571E-04  0.1700295E+04  0.7818609E-02  0.8761196E-01
       -2   -1    0    0    0  501  0.00000000000E+00  0.00000000000E+00  0.65753901012E+03  0.65753901013E+03  0.25500000920E-02 0. -1.
        2   -1    0    0  501    0  0.00000000000E+00  0.00000000000E+00 -0.10991753876E+04  0.10991753876E+04  0.25500000920E-02 0.  1.
    10030    2    1    2    0    0  0.00000000000E+00  0.00000000000E+00 -0.44163637744E+03  0.17567143977E+04  0.17002949112E+04 0.  0.
        4    1    3    3  502    0  0.57091595988E+02  0.62578165878E+02 -0.10948033564E+04  0.10980762630E+04  0.12699999809E+01 0.  1.
       -4    1    3    3    0  502 -0.57091595988E+02 -0.62578165878E+02  0.65316697898E+03  0.65863813472E+03  0.12699999809E+01 0. -1.
</event>
<event>
 5   0  0.1824538E-04  0.1680769E+04  0.7818609E-02  0.8772409E-01
        1   -1    0    0  501    0  0.00000000000E+00  0.00000000000E+00  0.14253050718E+04  0.14253050718E+04  0.50400001928E-02 0. -1.
       -1   -1    0    0    0  501  0.00000000000E+00  0.00000000000E+00 -0.49550533848E+03  0.49550533850E+03  0.50400001928E-02 0.  1.
    10030    2    1    2    0    0  0.00000000000E+00  0.00000000000E+00  0.92979973328E+03  0.19208104103E+04  0.16807691954E+04 0.  0.
        3    1    3    3  502    0 -0.64737363583E+03  0.25682253421E+03 -0.72583318517E+02  0.70022766782E+03  0.10100000352E+00 0.  1.
       -3    1    3    3    0  502  0.64737363583E+03 -0.25682253421E+03  0.10023830518E+04  0.12205827425E+04  0.10100000352E+00 0. -1.
</event>
<event>
 5   0  0.1920289E-04  0.1593418E+04  0.7818609E-02  0.8824602E-01
       -1   -1    0    0    0  501  0.00000000000E+00  0.00000000000E+00  0.39184764068E+03  0.39184764072E+03  0.50400001928E-02 0.  1.
        1   -1    0    0  501    0  0.00000000000E+00  0.00000000000E+00 -0.16198784999E+04  0.16198784999E+04  0.50400001928E-02 0. -1.
    10030    2    1    2    0    0  0.00000000000E+00  0.00000000000E+00 -0.12280308592E+04  0.20117261406E+04  0.15934184239E+04 0.  0.
        4    1    3    3  502    0  0.34238735455E+03 -0.36401906490E+03  0.16936405833E+03  0.52765971736E+03  0.12699999809E+01 0.  1.
       -4    1    3    3    0  502 -0.34238735455E+03  0.36401906490E+03 -0.13973949176E+04  0.14840664233E+04  0.12699999809E+01 0. -1.
</event>
<event>
 5   0  0.1920289E-04  0.1703599E+04  0.7818609E-02  0.8759315E-01
       -1   -1    0    0    0  501  0.00000000000E+00  0.00000000000E+00  0.46309218325E+03  0.46309218328E+03  0.50400001928E-02 0. -1.
        1   -1    0    0  501    0  0.00000000000E+00  0.00000000000E+00 -0.15667767621E+04  0.15667767621E+04  0.50400001928E-02 0.  1.
    10030    2    1    2    0    0  0.00000000000E+00  0.00000000000E+00 -0.11036845788E+04  0.20298689454E+04  0.17035986281E+04 0.  0.
        4    1    3    3  502    0 -0.15939281752E+03  0.24720240292E+03 -0.15043457468E+04  0.15328316402E+04  0.12699999809E+01 0.  1.
       -4    1    3    3    0  502  0.15939281752E+03 -0.24720240292E+03  0.40066116800E+03  0.49703730517E+03  0.12699999809E+01 0. -1.
</event>
<event>
 5   0  0.1920289E-04  0.1700189E+04  0.7818609E-02  0.8761257E-01
        1   -1    0    0  501    0  0.00000000000E+00  0.00000000000E+00  0.80824646777E+03  0.80824646779E+03  0.50400001928E-02 0. -1.
       -1   -1    0    0    0  501  0.00000000000E+00  0.00000000000E+00 -0.89410880727E+03  0.89410880729E+03  0.50400001928E-02 0.  1.
    10030    2    1    2    0    0  0.00000000000E+00  0.00000000000E+00 -0.85862339501E+02  0.17023552751E+04  0.17001885605E+04 0.  0.
        4    1    3    3  502    0  0.41347745065E+03  0.24482105850E+03  0.65921689651E+03  0.81576312887E+03  0.12699999809E+01 0. -1.
       -4    1    3    3    0  502 -0.41347745065E+03 -0.24482105850E+03 -0.74507923601E+03  0.88659214620E+03  0.12699999809E+01 0.  1.
</event>
<event>
 5   0  0.1930116E-04  0.1685605E+04  0.7818609E-02  0.8769617E-01
       -1   -1    0    0    0  501  0.00000000000E+00  0.00000000000E+00  0.11919718927E+04  0.11919718927E+04  0.50400001928E-02 0. -1.
        1   -1    0    0  501    0  0.00000000000E+00  0.00000000000E+00 -0.59591702026E+03  0.59591702028E+03  0.50400001928E-02 0.  1.
    10030    2    1    2    0    0  0.00000000000E+00  0.00000000000E+00  0.59605487241E+03  0.17878889130E+04  0.16856053376E+04 0.  0.
        1    1    3    3  502    0 -0.28030151067E+03  0.73332237474E+03  0.62320121294E+03  0.10023524300E+04  0.50400001928E-02 0. -1.
       -1    1    3    3    0  502  0.28030151067E+03 -0.73332237474E+03 -0.27146340525E+02  0.78553648293E+03  0.50400001928E-02 0.  1.
</event>
<event>
 5   0  0.1815663E-04  0.1664903E+04  0.7818609E-02  0.8781638E-01
       -1   -1    0    0    0  501  0.00000000000E+00  0.00000000000E+00  0.55299253913E+03  0.55299253916E+03  0.50400001928E-02 0.  1.
        1   -1    0    0  501    0  0.00000000000E+00  0.00000000000E+00 -0.12531378194E+04  0.12531378195E+04  0.50400001928E-02 0. -1.
    10030    2    1    2    0    0  0.00000000000E+00  0.00000000000E+00 -0.70014528031E+03  0.18061303586E+04  0.16649034383E+04 0.  0.
        5    1    3    3  502    0  0.28926789771E+03 -0.38929714112E+03 -0.10840161609E+04  0.11875779165E+04  0.46999998093E+01 0. -1.
       -5    1    3    3    0  502 -0.28926789771E+03  0.38929714112E+03  0.38387088055E+03  0.61855244212E+03  0.46999998093E+01 0.  1.
</event>
<event>
 5   0  0.3605571E-04  0.1696391E+04  0.7818609E-02  0.8763425E-01
        2   -1    0    0  501    0  0.00000000000E+00  0.00000000000E+00  0.10539109824E+04  0.10539109824E+04  0.25500000920E-02 0. -1.
       -2   -1    0    0    0  501  0.00000000000E+00  0.00000000000E+00 -0.68263412384E+03  0.68263412384E+03  0.25500000920E-02 0.  1.
    10030    2    1    2    0    0  0.00000000000E+00  0.00000000000E+00  0.37127685855E+03  0.17365451062E+04  0.16963909928E+04 0.  0.
        4    1    3    3  502    0 -0.32682427209E+03  0.53850956026E+03 -0.39580931709E+03  0.74395784807E+03  0.12699999809E+01 0.  1.
       -4    1    3    3    0  502  0.32682427209E+03 -0.53850956026E+03  0.76708617564E+03  0.99258725816E+03  0.12699999809E+01 0. -1.
</event>
<event>
 5   0  0.1815663E-04  0.1703898E+04  0.7818609E-02  0.8759144E-01
       -1   -1    0    0    0  501  0.00000000000E+00  0.00000000000E+00  0.60588734213E+03  0.60588734215E+03  0.50400001928E-02 0. -1.
        1   -1    0    0  501    0  0.00000000000E+00  0.00000000000E+00 -0.11979406184E+04  0.11979406184E+04  0.50400001928E-02 0.  1.
    10030    2    1    2    0    0  0.00000000000E+00  0.00000000000E+00 -0.59205327629E+03  0.18038279606E+04  0.17038979516E+04 0.  0.
        5    1    3    3  502    0  0.80168118415E+03 -0.27755266546E+03 -0.21356915162E+03  0.87484974461E+03  0.46999998093E+01 0. -1.
       -5    1    3    3    0  502 -0.80168118415E+03  0.27755266546E+03 -0.37848412467E+03  0.92897821597E+03  0.46999998093E+01 0.  1.
</event>
<event>
 5   0  0.3605571E-04  0.1701934E+04  0.7818609E-02  0.8760262E-01
        2   -1    0    0  501    0  0.00000000000E+00  0.00000000000E+00  0.53262966224E+03  0.53262966225E+03  0.25500000920E-02 0.  1.
       -2   -1    0    0    0  501  0.00000000000E+00  0.00000000000E+00 -0.13595646713E+04  0.13595646713E+04  0.25500000920E-02 0. -1.
    10030    2    1    2    0    0  0.00000000000E+00  0.00000000000E+00 -0.82693500909E+03  0.18921943336E+04  0.17019335730E+04 0.  0.
        4    1    3    3  502    0  0.87721342417E+01 -0.83453117808E+03 -0.59825111040E+03  0.10268521030E+04  0.12699999809E+01 0. -1.
       -4    1    3    3    0  502 -0.87721342417E+01  0.83453117808E+03 -0.22868389868E+03  0.86534223053E+03  0.12699999809E+01 0.  1.
</event>
<event>
 5   0  0.1930116E-04  0.1714184E+04  0.7818609E-02  0.8753316E-01
        1   -1    0    0  501    0  0.00000000000E+00  0.00000000000E+00  0.47311558359E+03  0.47311558361E+03  0.50400001928E-02 0. -1.
       -1   -1    0    0    0  501  0.00000000000E+00  0.00000000000E+00 -0.15527004960E+04  0.15527004960E+04  0.50400001928E-02 0.  1.
    10030    2    1    2    0    0  0.00000000000E+00  0.00000000000E+00 -0.10795849124E+04  0.20258160796E+04  0.17141841224E+04 0.  0.
        1    1    3    3  502    0 -0.58293471521E+03 -0.62461215914E+03 -0.45917378038E+03  0.96994525215E+03  0.50400001928E-02 0. -1.
       -1    1    3    3    0  502  0.58293471521E+03  0.62461215914E+03 -0.62041113203E+03  0.10558708275E+04  0.50400001928E-02 0.  1.
</event>
<event>
 5   0  0.3516723E-04  0.1704595E+04  0.7818609E-02  0.8758748E-01
        2   -1    0    0  501    0  0.00000000000E+00  0.00000000000E+00  0.90799467419E+03  0.90799467420E+03  0.25500000920E-02 0. -1.
       -2   -1    0    0    0  501  0.00000000000E+00  0.00000000000E+00 -0.80001697439E+03  0.80001697439E+03  0.25500000920E-02 0.  1.
    10030    2    1    2    0    0  0.00000000000E+00  0.00000000000E+00  0.10797769980E+03  0.17080116486E+04  0.17045951449E+04 0.  0.
        1    1    3    3  502    0 -0.40179530762E+03 -0.74104559320E+03  0.18003091964E+03  0.86197399757E+03  0.50400001928E-02 0. -1.
       -1    1    3    3    0  502  0.40179530762E+03  0.74104559320E+03 -0.72053219839E+02  0.84603765102E+03  0.50400001928E-02 0.  1.
</event>
<event>
 5   0  0.1824538E-04  0.1697242E+04  0.7818609E-02  0.8762939E-01
        1   -1    0    0  501    0  0.00000000000E+00  0.00000000000E+00  0.64759626215E+03  0.64759626217E+03  0.50400001928E-02 0. -1.
       -1   -1    0    0    0  501  0.00000000000E+00  0.00000000000E+00 -0.11120477751E+04  0.11120477751E+04  0.50400001928E-02 0.  1.
    10030    2    1    2    0    0  0.00000000000E+00  0.00000000000E+00 -0.46445151295E+03  0.17596440373E+04  0.16972424488E+04 0.  0.
        3    1    3    3  502    0  0.79217559960E+03  0.30426667324E+03 -0.22586983981E+03  0.87814439803E+03  0.10100000352E+00 0.  1.
       -3    1    3    3    0  502 -0.79217559960E+03 -0.30426667324E+03 -0.23858167314E+03  0.88149963926E+03  0.10100000352E+00 0. -1.
</event>
<event>
 5   0  0.3678896E-04  0.1706415E+04  0.7818609E-02  0.8757714E-01
       -2   -1    0    0    0  501  0.00000000000E+00  0.00000000000E+00  0.91550069845E+03  0.91550069846E+03  0.25500000920E-02 0.  1.
        2   -1    0    0  501    0  0.00000000000E+00  0.00000000000E+00 -0.79515311432E+03  0.79515311433E+03  0.25500000920E-02 0. -1.
    10030    2    1    2    0    0  0.00000000000E+00  0.00000000000E+00  0.12034758413E+03  0.17106538128E+04  0.17064152268E+04 0.  0.
        2    1    3    3  502    0 -0.43552871237E+03  0.60549418730E+03  0.47551530366E+03  0.88454693159E+03  0.25500000920E-02 0.  1.
       -2    1    3    3    0  502  0.43552871237E+03 -0.60549418730E+03 -0.35516771953E+03  0.82610688120E+03  0.25500000920E-02 0. -1.
</event>
<event>
 5   0  0.1930116E-04  0.1686514E+04  0.7818609E-02  0.8769093E-01
       -1   -1    0    0    0  501  0.00000000000E+00  0.00000000000E+00  0.95117429210E+03  0.95117429211E+03  0.50400001928E-02 0.  1.
        1   -1    0    0  501    0  0.00000000000E+00  0.00000000000E+00 -0.74758401040E+03  0.74758401042E+03  0.50400001928E-02 0. -1.
    10030    2    1    2    0    0  0.00000000000E+00  0.00000000000E+00  0.20359028170E+03  0.16987583025E+04  0.16865143840E+04 0.  0.
        1    1    3    3  502    0 -0.60724214166E+03  0.17634075978E+03 -0.46014721066E+03  0.78203231242E+03  0.50400001928E-02 0. -1.
       -1    1    3    3    0  502  0.60724214166E+03 -0.17634075978E+03  0.66373749235E+03  0.91672599011E+03  0.50400001928E-02 0.  1.
</event>
<event>
 5   0  0.1824538E-04  0.1698125E+04  0.7818609E-02  0.8762435E-01
       -1   -1    0    0    0  501  0.00000000000E+00  0.00000000000E+00  0.10734060385E+04  0.10734060385E+04  0.50400001928E-02 0.  1.
        1   -1    0    0  501    0  0.00000000000E+00  0.00000000000E+00 -0.67160681740E+03  0.67160681742E+03  0.50400001928E-02 0. -1.
    10030    2    1    2    0    0  0.00000000000E+00  0.00000000000E+00  0.40179922112E+03  0.17450128560E+04  0.16981246283E+04 0.  0.
        3    1    3    3  502    0 -0.15852795546E+03 -0.93182711714E+02 -0.65089861051E+03  0.67637500086E+03  0.10100000352E+00 0. -1.
       -3    1    3    3    0  502  0.15852795546E+03  0.93182711714E+02  0.10526978316E+04  0.10686378551E+04  0.10100000352E+00 0.  1.
</event>
<event>
 5   0  0.1930116E-04  0.1677125E+04  0.7818609E-02  0.8774520E-01
        1   -1    0    0  501    0  0.00000000000E+00  0.00000000000E+00  0.47271185795E+03  0.47271185797E+03  0.50400001928E-02 0. -1.
       -1   -1    0    0    0  501  0.00000000000E+00  0.00000000000E+00 -0.14875587715E+04  0.14875587715E+04  0.50400001928E-02 0.  1.
    10030    2    1    2    0    0  0.00000000000E+00  0.00000000000E+00 -0.10148469135E+04  0.19602706295E+04  0.16771245281E+04 0.  0.
        1    1    3    3  502    0 -0.68998029405E+03  0.13939272965E+03 -0.10400855020E+04  0.12558984795E+04  0.50400001928E-02 0.  1.
       -1    1    3    3    0  502  0.68998029405E+03 -0.13939272965E+03  0.25238588503E+02  0.70437214995E+03  0.50400001928E-02 0. -1.
</event>
<event>
 5   0  0.3573262E-04  0.1687557E+04  0.7818609E-02  0.8768493E-01
        2   -1    0    0  501    0  0.00000000000E+00  0.00000000000E+00  0.20681175478E+04  0.20681175478E+04  0.25500000920E-02 0. -1.
       -2   -1    0    0    0  501  0.00000000000E+00  0.00000000000E+00 -0.34425615048E+03  0.34425615049E+03  0.25500000920E-02 0.  1.
    10030    2    1    2    0    0  0.00000000000E+00  0.00000000000E+00  0.17238613973E+04  0.24123736983E+04  0.16875570340E+04 0.  0.
        5    1    3    3  502    0 -0.11075612084E+03  0.14690715050E+03  0.20390765187E+04  0.20473650794E+04  0.46999998093E+01 0. -1.
       -5    1    3    3    0  502  0.11075612084E+03 -0.14690715050E+03 -0.31521512135E+03  0.36500861893E+03  0.46999998093E+01 0.  1.
</event>
<event>
 5   0  0.3574092E-04  0.1633895E+04  0.7818609E-02  0.8799992E-01
       -2   -1    0    0    0  501  0.00000000000E+00  0.00000000000E+00  0.87762639672E+03  0.87762639672E+03  0.25500000920E-02 0. -1.
        2   -1    0    0  501    0  0.00000000000E+00  0.00000000000E+00 -0.76046370148E+03  0.76046370149E+03  0.25500000920E-02 0.  1.
    10030    2    1    2    0    0  0.00000000000E+00  0.00000000000E+00  0.11716269524E+03  0.16380900982E+04  0.16338947557E+04 0.  0.
        3    1    3    3  502    0 -0.30950083901E+03  0.15622346955E+03  0.80021480963E+03  0.87208961325E+03  0.10100000352E+00 0. -1.
       -3    1    3    3    0  502  0.30950083901E+03 -0.15622346955E+03 -0.68305211439E+03  0.76600048496E+03  0.10100000352E+00 0.  1.
</event>
<event>
 5   0  0.3516723E-04  0.1703618E+04  0.7818609E-02  0.8759304E-01
        2   -1    0    0  501    0  0.00000000000E+00  0.00000000000E+00  0.40275109866E+03  0.40275109867E+03  0.25500000920E-02 0.  1.
       -2   -1    0    0    0  501  0.00000000000E+00  0.00000000000E+00 -0.18015557036E+04  0.18015557036E+04  0.25500000920E-02 0. -1.
    10030    2    1    2    0    0  0.00000000000E+00  0.00000000000E+00 -0.13988046050E+04  0.22043068023E+04  0.17036179606E+04 0.  0.
        1    1    3    3  502    0  0.11792800104E+03 -0.26363089164E+03 -0.17362737883E+04  0.17601292363E+04  0.50400001928E-02 0. -1.
       -1    1    3    3    0  502 -0.11792800104E+03  0.26363089164E+03  0.33746918331E+03  0.44417756604E+03  0.50400001928E-02 0.  1.
</event>
<event>
 5   0  0.1893284E-04  0.1550543E+04  0.7818609E-02  0.8851521E-01
       -1   -1    0    0    0  501  0.00000000000E+00  0.00000000000E+00  0.31645245675E+03  0.31645245679E+03  0.50400001928E-02 0.  1.
        1   -1    0    0  501    0  0.00000000000E+00  0.00000000000E+00 -0.18993252040E+04  0.18993252040E+04  0.50400001928E-02 0. -1.
    10030    2    1    2    0    0  0.00000000000E+00  0.00000000000E+00 -0.15828727472E+04  0.22157776608E+04  0.15505432945E+04 0.  0.
        2    1    3    3  502    0 -0.65488606227E+02 -0.21633154882E+03  0.26832248695E+03  0.35083479527E+03  0.25500000920E-02 0.  1.
       -2    1    3    3    0  502  0.65488606227E+02  0.21633154882E+03 -0.18511952342E+04  0.18649428655E+04  0.25500000920E-02 0. -1.
</event>
<event>
 5   0  0.1930116E-04  0.1700647E+04  0.7818609E-02  0.8760996E-01
       -1   -1    0    0    0  501  0.00000000000E+00  0.00000000000E+00  0.92493126886E+03  0.92493126887E+03  0.50400001928E-02 0. -1.
        1   -1    0    0  501    0  0.00000000000E+00  0.00000000000E+00 -0.78173348586E+03  0.78173348588E+03  0.50400001928E-02 0.  1.
    10030    2    1    2    0    0  0.00000000000E+00  0.00000000000E+00  0.14319778300E+03  0.17066647548E+04  0.17006466359E+04 0.  0.
        1    1    3    3  502    0 -0.57485506428E+03 -0.62622586310E+03  0.50727012434E+02  0.85158112142E+03  0.50400001928E-02 0. -1.
       -1    1    3    3    0  502  0.57485506428E+03  0.62622586310E+03  0.92470770562E+02  0.85508363333E+03  0.50400001928E-02 0.  1.
</event>
<event>
 5   0  0.3573262E-04  0.1707599E+04  0.7818609E-02  0.8757042E-01
       -2   -1    0    0    0  501  0.00000000000E+00  0.00000000000E+00  0.90602559282E+03  0.90602559283E+03  0.25500000920E-02 0. -1.
        2   -1    0    0  501    0  0.00000000000E+00  0.00000000000E+00 -0.80458400836E+03  0.80458400836E+03  0.25500000920E-02 0.  1.
    10030    2    1    2    0    0  0.00000000000E+00  0.00000000000E+00  0.10144158446E+03  0.17106096012E+04  0.17075991370E+04 0.  0.
        5    1    3    3  502    0 -0.31316792332E+03 -0.74808534307E+03 -0.21666884064E+03  0.83944821473E+03  0.46999998093E+01 0.  1.
       -5    1    3    3    0  502  0.31316792332E+03  0.74808534307E+03  0.31811042510E+03  0.87116138646E+03  0.46999998093E+01 0. -1.
</event>
<event>
 5   0  0.1815663E-04  0.1700390E+04  0.7818609E-02  0.8761142E-01
        1   -1    0    0  501    0  0.00000000000E+00  0.00000000000E+00  0.11352604052E+04  0.11352604052E+04  0.50400001928E-02 0. -1.
       -1   -1    0    0    0  501  0.00000000000E+00  0.00000000000E+00 -0.63671016019E+03  0.63671016021E+03  0.50400001928E-02 0.  1.
    10030    2    1    2    0    0  0.00000000000E+00  0.00000000000E+00  0.49855024499E+03  0.17719705654E+04  0.17003903487E+04 0.  0.
        5    1    3    3  502    0 -0.13120373667E+03 -0.30362759933E+02  0.11240611133E+04  0.11321094444E+04  0.46999998093E+01 0. -1.
       -5    1    3    3    0  502  0.13120373667E+03  0.30362759933E+02 -0.62551086834E+03  0.63986112096E+03  0.46999998093E+01 0.  1.
</event>
<event>
 5   0  0.1920289E-04  0.1710399E+04  0.7818609E-02  0.8755455E-01
       -1   -1    0    0    0  501  0.00000000000E+00  0.00000000000E+00  0.83910908170E+03  0.83910908171E+03  0.50400001928E-02 0.  1.
        1   -1    0    0  501    0  0.00000000000E+00  0.00000000000E+00 -0.87159887482E+03  0.87159887484E+03  0.50400001928E-02 0. -1.
    10030    2    1    2    0    0  0.00000000000E+00  0.00000000000E+00 -0.32489793128E+02  0.17107079566E+04  0.17103994054E+04 0.  0.
        4    1    3    3  502    0 -0.66869375046E+03  0.39494604965E+03  0.34191355134E+03  0.84855182725E+03  0.12699999809E+01 0.  1.
       -4    1    3    3    0  502  0.66869375046E+03 -0.39494604965E+03 -0.37440334447E+03  0.86215612930E+03  0.12699999809E+01 0. -1.
</event>
<event>
 5   0  0.3573262E-04  0.1707510E+04  0.7818609E-02  0.8757093E-01
       -2   -1    0    0    0  501  0.00000000000E+00  0.00000000000E+00  0.46074921732E+03  0.46074921733E+03  0.25500000920E-02 0.  1.
        2   -1    0    0  501    0  0.00000000000E+00  0.00000000000E+00 -0.15819835463E+04  0.15819835463E+04  0.25500000920E-02 0. -1.
    10030    2    1    2    0    0  0.00000000000E+00  0.00000000000E+00 -0.11212343290E+04  0.20427327636E+04  0.17075100946E+04 0.  0.
        5    1    3    3  502    0  0.34071931684E+03  0.71107057878E+02 -0.14932345646E+04  0.15332701724E+04  0.46999998093E+01 0. -1.
       -5    1    3    3    0  502 -0.34071931684E+03 -0.71107057878E+02  0.37200023565E+03  0.50946259124E+03  0.46999998093E+01 0.  1.
</event>
<event>
 5   0  0.1317625E-04  0.1723314E+04  0.7818609E-02  0.8748178E-01
       -3   -1    0    0    0  501  0.00000000000E+00  0.00000000000E+00  0.17169668745E+04  0.17169668774E+04  0.10100000352E+00 0.  1.
        3   -1    0    0  501    0  0.00000000000E+00  0.00000000000E+00 -0.43242119071E+03  0.43242120251E+03  0.10100000352E+00 0. -1.
    10030    2    1    2    0    0  0.00000000000E+00  0.00000000000E+00  0.12845456837E+04  0.21493880799E+04  0.17233141050E+04 0.  0.
        2    1    3    3  502    0  0.23042932172E+03  0.26259270744E+03  0.16246683856E+04  0.16618062359E+04  0.25500000920E-02 0.  1.
       -2    1    3    3    0  502 -0.23042932172E+03 -0.26259270744E+03 -0.34012270189E+03  0.48758184406E+03  0.25500000920E-02 0. -1.
</event>
<event>
 5   0  0.3573262E-04  0.1714749E+04  0.7818609E-02  0.8752997E-01
       -2   -1    0    0    0  501  0.00000000000E+00  0.00000000000E+00  0.37883294548E+03  0.37883294549E+03  0.25500000920E-02 0. -1.
        2   -1    0    0  501    0  0.00000000000E+00  0.00000000000E+00 -0.19404105429E+04  0.19404105429E+04  0.25500000920E-02 0.  1.
    10030    2    1    2    0    0  0.00000000000E+00  0.00000000000E+00 -0.15615775974E+04  0.23192434884E+04  0.17147494761E+04 0.  0.
        5    1    3    3  502    0  0.75962662397E+03 -0.26742604284E+03 -0.11786247816E+04  0.14274900217E+04  0.46999998093E+01 0.  1.
       -5    1    3    3    0  502 -0.75962662397E+03  0.26742604284E+03 -0.38295281581E+03  0.89175346670E+03  0.46999998093E+01 0. -1.
</event>
<event>
 5   0  0.3605571E-04  0.1706077E+04  0.7818609E-02  0.8757906E-01
       -2   -1    0    0    0  501  0.00000000000E+00  0.00000000000E+00  0.57404680801E+03  0.57404680802E+03  0.25500000920E-02 0.  1.
        2   -1    0    0  501    0  0.00000000000E+00  0.00000000000E+00 -0.12676224976E+04  0.12676224976E+04  0.25500000920E-02 0. -1.
    10030    2    1    2    0    0  0.00000000000E+00  0.00000000000E+00 -0.69357568955E+03  0.18416693056E+04  0.17060769602E+04 0.  0.
        4    1    3    3  502    0 -0.55524821070E+03  0.32034379877E+03  0.26074942862E+03  0.69203511639E+03  0.12699999809E+01 0.  1.
       -4    1    3    3    0  502  0.55524821070E+03 -0.32034379877E+03 -0.95432511816E+03  0.11496341892E+04  0.12699999809E+01 0. -1.
</event>
<event>
 5   0  0.3516723E-04  0.1701514E+04  0.7818609E-02  0.8760501E-01
       -2   -1    0    0    0  501  0.00000000000E+00  0.00000000000E+00  0.43528480507E+03  0.43528480508E+03  0.25500000920E-02 0.  1.
        2   -1    0    0  501    0  0.00000000000E+00  0.00000000000E+00 -0.16627911385E+04  0.16627911385E+04  0.25500000920E-02 0. -1.
    10030    2    1    2    0    0  0.00000000000E+00  0.00000000000E+00 -0.12275063334E+04  0.20980759436E+04  0.17015142863E+04 0.  0.
        1    1    3    3  502    0  0.79674989087E+03 -0.26435657786E+03 -0.44337188989E+03  0.94935421295E+03  0.50400001928E-02 0.  1.
       -1    1    3    3    0  502 -0.79674989087E+03  0.26435657786E+03 -0.78413444353E+03  0.11487217306E+04  0.50400001928E-02 0. -1.
</event>
<event>
 5   0  0.3516723E-04  0.1701528E+04  0.7818609E-02  0.8760493E-01
        2   -1    0    0  501    0  0.00000000000E+00  0.00000000000E+00  0.41271962297E+03  0.41271962298E+03  0.25500000920E-02 0.  1.
       -2   -1    0    0    0  501  0.00000000000E+00  0.00000000000E+00 -0.17537316803E+04  0.17537316803E+04  0.25500000920E-02 0. -1.
    10030    2    1    2    0    0  0.00000000000E+00  0.00000000000E+00 -0.13410120574E+04  0.21664513033E+04  0.17015281107E+04 0.  0.
        1    1    3    3  502    0  0.45458226632E+03  0.34390366480E+03 -0.14746494216E+04  0.15809825060E+04  0.50400001928E-02 0. -1.
       -1    1    3    3    0  502 -0.45458226632E+03 -0.34390366480E+03  0.13363736424E+03  0.58546879734E+03  0.50400001928E-02 0.  1.
</event>
<event>
 5   0  0.1893284E-04  0.1689667E+04  0.7818609E-02  0.8767280E-01
       -1   -1    0    0    0  501  0.00000000000E+00  0.00000000000E+00  0.92062576505E+03  0.92062576507E+03  0.50400001928E-02 0. -1.
        1   -1    0    0  501    0  0.00000000000E+00  0.00000000000E+00 -0.77528103900E+03  0.77528103901E+03  0.50400001928E-02 0.  1.
    10030    2    1    2    0    0  0.00000000000E+00  0.00000000000E+00  0.14534472606E+03  0.16959068041E+04  0.16896670674E+04 0.  0.
        2    1    3    3  502    0 -0.26044311206E+03 -0.74742955898E+03 -0.22382017743E+03  0.82254302750E+03  0.25500000920E-02 0.  1.
       -2    1    3    3    0  502  0.26044311206E+03  0.74742955898E+03  0.36916490349E+03  0.87336377658E+03  0.25500000920E-02 0. -1.
</event>
<event>
 5   0  0.3516723E-04  0.1677501E+04  0.7818609E-02  0.8774301E-01
       -2   -1    0    0    0  501  0.00000000000E+00  0.00000000000E+00  0.76222425887E+03  0.76222425888E+03  0.25500000920E-02 0.  1.
        2   -1    0    0  501    0  0.00000000000E+00  0.00000000000E+00 -0.92295988818E+03  0.92295988818E+03  0.25500000920E-02 0. -1.
    10030    2    1    2    0    0  0.00000000000E+00  0.00000000000E+00 -0.16073562930E+03  0.16851841471E+04  0.16775010185E+04 0.  0.
        1    1    3    3  502    0  0.26229263909E+03 -0.71054035263E+03  0.28161209720E+03  0.80806583553E+03  0.50400001928E-02 0.  1.
       -1    1    3    3    0  502 -0.26229263909E+03  0.71054035263E+03 -0.44234772650E+03  0.87711831152E+03  0.50400001928E-02 0. -1.
</event>
<event>
 5   0  0.1815663E-04  0.1666407E+04  0.7818609E-02  0.8780759E-01
        1   -1    0    0  501    0  0.00000000000E+00  0.00000000000E+00  0.13532483337E+04  0.13532483337E+04  0.50400001928E-02 0.  1.
       -1   -1    0    0    0  501  0.00000000000E+00  0.00000000000E+00 -0.51300857901E+03  0.51300857903E+03  0.50400001928E-02 0. -1.
    10030    2    1    2    0    0  0.00000000000E+00  0.00000000000E+00  0.84023975466E+03  0.18662569127E+04  0.16664069188E+04 0.  0.
        5    1    3    3  502    0 -0.20165171668E+03  0.68362728772E+03  0.90337427248E+03  0.11507027633E+04  0.46999998093E+01 0.  1.
       -5    1    3    3    0  502  0.20165171668E+03 -0.68362728772E+03 -0.63134517822E+02  0.71555414938E+03  0.46999998093E+01 0. -1.
</event>
<event>
 5   0  0.1824538E-04  0.1713299E+04  0.7818609E-02  0.8753815E-01
        1   -1    0    0  501    0  0.00000000000E+00  0.00000000000E+00  0.19783179468E+04  0.19783179468E+04  0.50400001928E-02 0. -1.
       -1   -1    0    0    0  501  0.00000000000E+00  0.00000000000E+00 -0.37094582007E+03  0.37094582011E+03  0.50400001928E-02 0.  1.
    10030    2    1    2    0    0  0.00000000000E+00  0.00000000000E+00  0.16073721268E+04  0.23492637669E+04  0.17132994755E+04 0.  0.
        3    1    3    3  502    0  0.29186489097E+02  0.81768068258E+02  0.19722696389E+04  0.19741796795E+04  0.10100000352E+00 0. -1.
       -3    1    3    3    0  502 -0.29186489097E+02 -0.81768068258E+02 -0.36489751212E+03  0.37508408749E+03  0.10100000352E+00 0.  1.
</event>
<event>
 5   0  0.3605571E-04  0.1693897E+04  0.7818609E-02  0.8764853E-01
        2   -1    0    0  501    0  0.00000000000E+00  0.00000000000E+00  0.12931418512E+04  0.12931418512E+04  0.25500000920E-02 0. -1.
       -2   -1    0    0    0  501  0.00000000000E+00  0.00000000000E+00 -0.55471228193E+03  0.55471228194E+03  0.25500000920E-02 0.  1.
    10030    2    1    2    0    0  0.00000000000E+00  0.00000000000E+00  0.73842956926E+03  0.18478541331E+04  0.16938968884E+04 0.  0.
        4    1    3    3  502    0  0.80144969739E+03 -0.20978815207E+03  0.17718302535E+03  0.84718836368E+03  0.12699999809E+01 0. -1.
       -4    1    3    3    0  502 -0.80144969739E+03  0.20978815207E+03  0.56124654392E+03  0.10006657694E+04  0.12699999809E+01 0.  1.
</event>
<event>
 5   0  0.1930116E-04  0.1704156E+04  0.7818609E-02  0.8758998E-01
        1   -1    0    0  501    0  0.00000000000E+00  0.00000000000E+00  0.47916723292E+03  0.47916723295E+03  0.50400001928E-02 0. -1.
       -1   -1    0    0    0  501  0.00000000000E+00  0.00000000000E+00 -0.15152058098E+04  0.15152058098E+04  0.50400001928E-02 0.  1.
    10030    2    1    2    0    0  0.00000000000E+00  0.00000000000E+00 -0.10360385768E+04  0.19943730427E+04  0.17041560670E+04 0.  0.
        1    1    3    3  502    0 -0.55349953341E+03 -0.14201253131E+03  0.22168748913E+03  0.61292302567E+03  0.50400001928E-02 0. -1.
       -1    1    3    3    0  502  0.55349953341E+03  0.14201253131E+03 -0.12577260660E+04  0.13814500170E+04  0.50400001928E-02 0.  1.
</event>
<event>
 5   0  0.3574092E-04  0.1705945E+04  0.7818609E-02  0.8757981E-01
        2   -1    0    0  501    0  0.00000000000E+00  0.00000000000E+00  0.17448287684E+04  0.17448287684E+04  0.25500000920E-02 0. -1.
       -2   -1    0    0    0  501  0.00000000000E+00  0.00000000000E+00 -0.41698208320E+03  0.41698208321E+03  0.25500000920E-02 0.  1.
    10030    2    1    2    0    0  0.00000000000E+00  0.00000000000E+00  0.13278466852E+04  0.21618108516E+04  0.17059452918E+04 0.  0.
        3    1    3    3  502    0 -0.63444023518E+03  0.43417037730E+03  0.11321853225E+04  0.13685254631E+04  0.10100000352E+00 0.  1.
       -3    1    3    3    0  502  0.63444023518E+03 -0.43417037730E+03  0.19566136272E+03  0.79328538850E+03  0.10100000352E+00 0. -1.
</event>
<event>
 5   0  0.3574092E-04  0.1691493E+04  0.7818609E-02  0.8766231E-01
        2   -1    0    0  501    0  0.00000000000E+00  0.00000000000E+00  0.21841296932E+04  0.21841296932E+04  0.25500000920E-02 0. -1.
       -2   -1    0    0    0  501  0.00000000000E+00  0.00000000000E+00 -0.32749284639E+03  0.32749284640E+03  0.25500000920E-02 0.  1.
    10030    2    1    2    0    0  0.00000000000E+00  0.00000000000E+00  0.18566368468E+04  0.25116225396E+04  0.16914926546E+04 0.  0.
        3    1    3    3  502    0  0.52978859292E+03  0.65405411881E+03  0.80565732980E+03  0.11651379690E+04  0.10100000352E+00 0. -1.
       -3    1    3    3    0  502 -0.52978859292E+03 -0.65405411881E+03  0.10509795170E+04  0.13464845706E+04  0.10100000352E+00 0.  1.
</event>
<event>
 5   0  0.3574092E-04  0.1715175E+04  0.7818609E-02  0.8752756E-01
        2   -1    0    0  501    0  0.00000000000E+00  0.00000000000E+00  0.15374474761E+04  0.15374474761E+04  0.25500000920E-02 0.  1.
       -2   -1    0    0    0  501  0.00000000000E+00  0.00000000000E+00 -0.47836199755E+03  0.47836199755E+03  0.25500000920E-02 0. -1.
    10030    2    1    2    0    0  0.00000000000E+00  0.00000000000E+00  0.10590854785E+04  0.20158094736E+04  0.17151751465E+04 0.  0.
        3    1    3    3  502    0 -0.55757243802E+02  0.13239219817E+03  0.15232061892E+04  0.15299652510E+04  0.10100000352E+00 0.  1.
       -3    1    3    3    0  502  0.55757243802E+02 -0.13239219817E+03 -0.46412071066E+03  0.48584422260E+03  0.10100000352E+00 0. -1.
</event>
<event>
 5   0  0.1893284E-04  0.1718133E+04  0.7818609E-02  0.8751090E-01
        1   -1    0    0  501    0  0.00000000000E+00  0.00000000000E+00  0.13813470027E+04  0.13813470027E+04  0.50400001928E-02 0.  1.
       -1   -1    0    0    0  501  0.00000000000E+00  0.00000000000E+00 -0.53425744659E+03  0.53425744661E+03  0.50400001928E-02 0. -1.
    10030    2    1    2    0    0  0.00000000000E+00  0.00000000000E+00  0.84708955610E+03  0.19156044493E+04  0.17181326172E+04 0.  0.
        2    1    3    3  502    0  0.81377184423E+03 -0.27470295039E+03  0.40395880768E+03  0.94914121379E+03  0.25500000920E-02 0. -1.
       -2    1    3    3    0  502 -0.81377184423E+03  0.27470295039E+03  0.44313074842E+03  0.96646323552E+03  0.25500000920E-02 0.  1.
</event>
<event>
 5   0  0.3573262E-04  0.1706277E+04  0.7818609E-02  0.8757793E-01
       -2   -1    0    0    0  501  0.00000000000E+00  0.00000000000E+00  0.44705399403E+03  0.44705399404E+03  0.25500000920E-02 0.  1.
        2   -1    0    0  501    0  0.00000000000E+00  0.00000000000E+00 -0.16280921681E+04  0.16280921681E+04  0.25500000920E-02 0. -1.
    10030    2    1    2    0    0  0.00000000000E+00  0.00000000000E+00 -0.11810381740E+04  0.20751461621E+04  0.17062767729E+04 0.  0.
        5    1    3    3  502    0 -0.68130616832E+03 -0.39713752871E+03 -0.98634292327E+03  0.12628502540E+04  0.46999998093E+01 0. -1.
       -5    1    3    3    0  502  0.68130616832E+03  0.39713752871E+03 -0.19469525077E+03  0.81229590813E+03  0.46999998093E+01 0.  1.
</event>
<event>
 5   0  0.3573262E-04  0.1671976E+04  0.7818609E-02  0.8777511E-01
        2   -1    0    0  501    0  0.00000000000E+00  0.00000000000E+00  0.69408633791E+03  0.69408633792E+03  0.25500000920E-02 0.  1.
       -2   -1    0    0    0  501  0.00000000000E+00  0.00000000000E+00 -0.10069007400E+04  0.10069007400E+04  0.25500000920E-02 0. -1.
    10030    2    1    2    0    0  0.00000000000E+00  0.00000000000E+00 -0.31281440210E+03  0.17009870779E+04  0.16719761329E+04 0.  0.
        5    1    3    3  502    0  0.51943122617E+03  0.54241436173E+03  0.21715862252E+03  0.78179415185E+03  0.46999998093E+01 0. -1.
       -5    1    3    3    0  502 -0.51943122617E+03 -0.54241436173E+03 -0.52997302462E+03  0.91919292608E+03  0.46999998093E+01 0.  1.
</event>
<event>
 5   0  0.3605571E-04  0.1667592E+04  0.7818609E-02  0.8780067E-01
       -2   -1    0    0    0  501  0.00000000000E+00  0.00000000000E+00  0.39617296505E+03  0.39617296506E+03  0.25500000920E-02 0. -1.
        2   -1    0    0  501    0  0.00000000000E+00  0.00000000000E+00 -0.17548297466E+04  0.17548297466E+04  0.25500000920E-02 0.  1.
    10030    2    1    2    0    0  0.00000000000E+00  0.00000000000E+00 -0.13586567815E+04  0.21510027116E+04  0.16675924009E+04 0.  0.
        4    1    3    3  502    0  0.57289108238E+02 -0.82624563605E+03 -0.80338958384E+03  0.11538632195E+04  0.12699999809E+01 0. -1.
       -4    1    3    3    0  502 -0.57289108238E+02  0.82624563605E+03 -0.55526719769E+03  0.99713949212E+03  0.12699999809E+01 0.  1.
</event>
<event>
 5   0  0.3605571E-04  0.1628685E+04  0.7818609E-02  0.8803117E-01
        2   -1    0    0  501    0  0.00000000000E+00  0.00000000000E+00  0.86972320287E+03  0.86972320287E+03  0.25500000920E-02 0. -1.
       -2   -1    0    0    0  501  0.00000000000E+00  0.00000000000E+00 -0.76248835566E+03  0.76248835566E+03  0.25500000920E-02 0.  1.
    10030    2    1    2    0    0  0.00000000000E+00  0.00000000000E+00  0.10723484721E+03  0.16322115585E+04  0.16286851321E+04 0.  0.
        4    1    3    3  502    0  0.76171736964E+02  0.81026007255E+03  0.24768235293E+02  0.81421041326E+03  0.12699999809E+01 0.  1.
       -4    1    3    3    0  502 -0.76171736964E+02 -0.81026007255E+03  0.82466611918E+02  0.81800114527E+03  0.12699999809E+01 0. -1.
</event>
<event>
 5   0  0.1893284E-04  0.1704970E+04  0.7818609E-02  0.8758535E-01
       -1   -1    0    0    0  501  0.00000000000E+00  0.00000000000E+00  0.70069522860E+03  0.70069522862E+03  0.50400001928E-02 0. -1.
        1   -1    0    0  501    0  0.00000000000E+00  0.00000000000E+00 -0.10371565361E+04  0.10371565361E+04  0.50400001928E-02 0.  1.
    10030    2    1    2    0    0  0.00000000000E+00  0.00000000000E+00 -0.33646130747E+03  0.17378517647E+04  0.17049699542E+04 0.  0.
        2    1    3    3  502    0 -0.39339285521E+03 -0.67273183424E+03  0.18398324208E+03  0.80073459567E+03  0.25500000920E-02 0. -1.
       -2    1    3    3    0  502  0.39339285521E+03  0.67273183424E+03 -0.52044454956E+03  0.93711716903E+03  0.25500000920E-02 0.  1.
</event>
<event>
 5   0  0.3574092E-04  0.1673003E+04  0.7818609E-02  0.8776913E-01
       -2   -1    0    0    0  501  0.00000000000E+00  0.00000000000E+00  0.39044285424E+03  0.39044285425E+03  0.25500000920E-02 0. -1.
        2   -1    0    0  501    0  0.00000000000E+00  0.00000000000E+00 -0.17921570935E+04  0.17921570935E+04  0.25500000920E-02 0.  1.
    10030    2    1    2    0    0  0.00000000000E+00  0.00000000000E+00 -0.14017142393E+04  0.21825999478E+04  0.16730032049E+04 0.  0.
        3    1    3    3  502    0 -0.13138313288E+03  0.27490308088E+03 -0.17171913213E+04  0.17440124070E+04  0.10100000352E+00 0.  1.
       -3    1    3    3    0  502  0.13138313288E+03 -0.27490308088E+03  0.31547708202E+03  0.43858754082E+03  0.10100000352E+00 0. -1.
</event>
<event>
 5   0  0.1920289E-04  0.1706483E+04  0.7818609E-02  0.8757675E-01
       -1   -1    0    0    0  501  0.00000000000E+00  0.00000000000E+00  0.55649241922E+03  0.55649241925E+03  0.50400001928E-02 0. -1.
        1   -1    0    0  501    0  0.00000000000E+00  0.00000000000E+00 -0.13082323394E+04  0.13082323395E+04  0.50400001928E-02 0.  1.
    10030    2    1    2    0    0  0.00000000000E+00  0.00000000000E+00 -0.75173992022E+03  0.18647247587E+04  0.17064833776E+04 0.  0.
        4    1    3    3  502    0  0.17921076390E+01  0.85145121252E+03 -0.43619207055E+03  0.95668046612E+03  0.12699999809E+01 0. -1.
       -4    1    3    3    0  502 -0.17921076390E+01 -0.85145121252E+03 -0.31554784967E+03  0.90804429257E+03  0.12699999809E+01 0.  1.
</event>
<event>
 5   0  0.3516723E-04  0.1721343E+04  0.7818609E-02  0.8749285E-01
       -2   -1    0    0    0  501  0.00000000000E+00  0.00000000000E+00  0.32647597086E+03  0.32647597087E+03  0.25500000920E-02 0.  1.
        2   -1    0    0  501    0  0.00000000000E+00  0.00000000000E+00 -0.22689423062E+04  0.22689423062E+04  0.25500000920E-02 0. -1.
    10030    2    1    2    0    0  0.00000000000E+00  0.00000000000E+00 -0.19424663353E+04  0.25954182771E+04  0.17213426646E+04 0.  0.
        1    1    3    3  502    0 -0.12498860075E+03  0.20494127438E+03  0.27498007297E+03  0.36501659800E+03  0.50400001928E-02 0.  1.
       -1    1    3    3    0  502  0.12498860075E+03 -0.20494127438E+03 -0.22174464083E+04  0.22304016791E+04  0.50400001928E-02 0. -1.
</event>
<event>
 5   0  0.3678896E-04  0.1702457E+04  0.7818609E-02  0.8759964E-01
       -2   -1    0    0    0  501  0.00000000000E+00  0.00000000000E+00  0.76663814919E+03  0.76663814920E+03  0.25500000920E-02 0. -1.
        2   -1    0    0  501    0  0.00000000000E+00  0.00000000000E+00 -0.94515247767E+03  0.94515247767E+03  0.25500000920E-02 0.  1.
    10030    2    1    2    0    0  0.00000000000E+00  0.00000000000E+00 -0.17851432848E+03  0.17117906269E+04  0.17024569847E+04 0.  0.
        2    1    3    3  502    0  0.21217441099E+03 -0.44757632219E+03 -0.78532950955E+03  0.92848531676E+03  0.25500000920E-02 0.  1.
       -2    1    3    3    0  502 -0.21217441099E+03  0.44757632219E+03  0.60681518107E+03  0.78330531011E+03  0.25500000920E-02 0. -1.
</event>
<event>
 5   0  0.1920289E-04  0.1650862E+04  0.7818609E-02  0.8789897E-01
       -1   -1    0    0    0  501  0.00000000000E+00  0.00000000000E+00  0.16252102227E+04  0.16252102227E+04  0.50400001928E-02 0. -1.
        1   -1    0    0  501    0  0.00000000000E+00  0.00000000000E+00 -0.41922976378E+03  0.41922976381E+03  0.50400001928E-02 0.  1.
    10030    2    1    2    0    0  0.00000000000E+00  0.00000000000E+00  0.12059804589E+04  0.20444399865E+04  0.16508621963E+04 0.  0.
        4    1    3    3  502    0 -0.72323496885E+03 -0.39202848172E+03  0.51918257567E+03  0.97278328030E+03  0.12699999809E+01 0. -1.
       -4    1    3    3    0  502  0.72323496885E+03  0.39202848172E+03  0.68679788323E+03  0.10716567062E+04  0.12699999809E+01 0.  1.
</event>
<event>
 5   0  0.1893284E-04  0.1644907E+04  0.7818609E-02  0.8793425E-01
       -1   -1    0    0    0  501  0.00000000000E+00  0.00000000000E+00  0.54159318209E+03  0.54159318212E+03  0.50400001928E-02 0.  1.
        1   -1    0    0  501    0  0.00000000000E+00  0.00000000000E+00 -0.12489623347E+04  0.12489623347E+04  0.50400001928E-02 0. -1.
    10030    2    1    2    0    0  0.00000000000E+00  0.00000000000E+00 -0.70736915259E+03  0.17905555168E+04  0.16449066663E+04 0.  0.
        2    1    3    3  502    0  0.64798249639E+03 -0.35945449045E+03  0.34760877046E+02  0.74182017020E+03  0.25500000920E-02 0.  1.
       -2    1    3    3    0  502 -0.64798249639E+03  0.35945449045E+03 -0.74213002964E+03  0.10487353466E+04  0.25500000920E-02 0. -1.
</event>
<event>
 5   0  0.3605571E-04  0.1705390E+04  0.7818609E-02  0.8758296E-01
        2   -1    0    0  501    0  0.00000000000E+00  0.00000000000E+00  0.91623612535E+03  0.91623612536E+03  0.25500000920E-02 0. -1.
       -2   -1    0    0    0  501  0.00000000000E+00  0.00000000000E+00 -0.79356003733E+03  0.79356003734E+03  0.25500000920E-02 0.  1.
    10030    2    1    2    0    0  0.00000000000E+00  0.00000000000E+00  0.12267608802E+03  0.17097961627E+04  0.17053895436E+04 0.  0.
        4    1    3    3  502    0 -0.78285408862E+03 -0.20111689873E+03 -0.21098529159E+03  0.83535916658E+03  0.12699999809E+01 0.  1.
       -4    1    3    3    0  502  0.78285408862E+03  0.20111689873E+03  0.33366137961E+03  0.87443699611E+03  0.12699999809E+01 0. -1.
</event>
<event>
 5   0  0.3605571E-04  0.1711410E+04  0.7818609E-02  0.8754883E-01
        2   -1    0    0  501    0  0.00000000000E+00  0.00000000000E+00  0.23010198450E+04  0.23010198450E+04  0.25500000920E-02 0.  1.
       -2   -1    0    0    0  501  0.00000000000E+00  0.00000000000E+00 -0.31822020994E+03  0.31822020995E+03  0.25500000920E-02 0. -1.
    10030    2    1    2    0    0  0.00000000000E+00  0.00000000000E+00  0.19827996350E+04  0.26192400549E+04  0.17114099663E+04 0.  0.
        4    1    3    3  502    0  0.15215967822E+03  0.79540588359E+03  0.14144441513E+04  0.16298702271E+04  0.12699999809E+01 0.  1.
       -4    1    3    3    0  502 -0.15215967822E+03 -0.79540588359E+03  0.56835548379E+03  0.98936982781E+03  0.12699999809E+01 0. -1.
</event>
<event>
 5   0  0.1920289E-04  0.1701692E+04  0.7818609E-02  0.8760400E-01
       -1   -1    0    0    0  501  0.00000000000E+00  0.00000000000E+00  0.53942835307E+03  0.53942835309E+03  0.50400001928E-02 0.  1.
        1   -1    0    0  501    0  0.00000000000E+00  0.00000000000E+00 -0.13420479783E+04  0.13420479783E+04  0.50400001928E-02 0. -1.
    10030    2    1    2    0    0  0.00000000000E+00  0.00000000000E+00 -0.80261962525E+03  0.18814763314E+04  0.17016917826E+04 0.  0.
        4    1    3    3  502    0 -0.78005069748E+03 -0.31294993879E+03 -0.54765869409E+03  0.10031691846E+04  0.12699999809E+01 0. -1.
       -4    1    3    3    0  502  0.78005069748E+03  0.31294993879E+03 -0.25496093116E+03  0.87830714682E+03  0.12699999809E+01 0.  1.
</event>
<event>
 5   0  0.1893284E-04  0.1732749E+04  0.7818609E-02  0.8742904E-01
        1   -1    0    0  501    0  0.00000000000E+00  0.00000000000E+00  0.10467482232E+04  0.10467482232E+04  0.50400001928E-02 0.  1.
       -1   -1    0    0    0  501  0.00000000000E+00  0.00000000000E+00 -0.71708238780E+03  0.71708238782E+03  0.50400001928E-02 0. -1.
    10030    2    1    2    0    0  0.00000000000E+00  0.00000000000E+00  0.32966583537E+03  0.17638306110E+04  0.17327489320E+04 0.  0.
        2    1    3    3  502    0  0.81402883221E+03 -0.28981224361E+03  0.22897623902E+03  0.89390390661E+03  0.25500000920E-02 0. -1.
       -2    1    3    3    0  502 -0.81402883221E+03  0.28981224361E+03  0.10068959636E+03  0.86992670440E+03  0.25500000920E-02 0.  1.
</event>
<event>
 5   0  0.3573262E-04  0.1741939E+04  0.7818609E-02  0.8737800E-01
       -2   -1    0    0    0  501  0.00000000000E+00  0.00000000000E+00  0.43050234210E+03  0.43050234211E+03  0.25500000920E-02 0.  1.
        2   -1    0    0  501    0  0.00000000000E+00  0.00000000000E+00 -0.17620986992E+04  0.17620986992E+04  0.25500000920E-02 0. -1.
    10030    2    1    2    0    0  0.00000000000E+00  0.00000000000E+00 -0.13315963571E+04  0.21926010413E+04  0.17419387097E+04 0.  0.
        5    1    3    3  502    0  0.69264433715E+03  0.41917337951E+03 -0.10699666707E+04  0.13417575289E+04  0.46999998093E+01 0. -1.
       -5    1    3    3    0  502 -0.69264433715E+03 -0.41917337951E+03 -0.26162968639E+03  0.85084351244E+03  0.46999998093E+01 0.  1.
</event>
<event>
 5   0  0.3573262E-04  0.1698130E+04  0.7818609E-02  0.8762432E-01
       -2   -1    0    0    0  501  0.00000000000E+00  0.00000000000E+00  0.85860345184E+03  0.85860345185E+03  0.25500000920E-02 0.  1.
        2   -1    0    0  501    0  0.00000000000E+00  0.00000000000E+00 -0.83963240156E+03  0.83963240156E+03  0.25500000920E-02 0. -1.
    10030    2    1    2    0    0  0.00000000000E+00  0.00000000000E+00  0.18971050284E+02  0.16982358534E+04  0.16981298870E+04 0.  0.
        5    1    3    3  502    0 -0.64698066231E+03 -0.12000613324E+03  0.54608562896E+03  0.85511230465E+03  0.46999998093E+01 0.  1.
       -5    1    3    3    0  502  0.64698066231E+03  0.12000613324E+03 -0.52711457867E+03  0.84312354876E+03  0.46999998093E+01 0. -1.
</event>
<event>
 5   0  0.1815663E-04  0.1715651E+04  0.7818609E-02  0.8752488E-01
        1   -1    0    0  501    0  0.00000000000E+00  0.00000000000E+00  0.79043848138E+03  0.79043848140E+03  0.50400001928E-02 0.  1.
       -1   -1    0    0    0  501  0.00000000000E+00  0.00000000000E+00 -0.93095787782E+03  0.93095787784E+03  0.50400001928E-02 0. -1.
    10030    2    1    2    0    0  0.00000000000E+00  0.00000000000E+00 -0.14051939644E+03  0.17213963592E+04  0.17156513996E+04 0.  0.
        5    1    3    3  502    0 -0.22618751247E+03 -0.59972695528E+03 -0.64226485689E+03  0.90739156271E+03  0.46999998093E+01 0. -1.
       -5    1    3    3    0  502  0.22618751247E+03  0.59972695528E+03  0.50174546045E+03  0.81400479653E+03  0.46999998093E+01 0.  1.
</event>
<event>
 5   0  0.3678896E-04  0.1701538E+04  0.7818609E-02  0.8760488E-01
       -2   -1    0    0    0  501  0.00000000000E+00  0.00000000000E+00  0.56190265657E+03  0.56190265658E+03  0.25500000920E-02 0.  1.
        2   -1    0    0  501    0  0.00000000000E+00  0.00000000000E+00 -0.12881370515E+04  0.12881370515E+04  0.25500000920E-02 0. -1.
    10030    2    1    2    0    0  0.00000000000E+00  0.00000000000E+00 -0.72623439492E+03  0.18500397081E+04  0.17015376943E+04 0.  0.
        2    1    3    3  502    0  0.16956306960E+03  0.51201192939E+03 -0.10784912083E+04  0.12058404276E+04  0.25500000920E-02 0. -1.
       -2    1    3    3    0  502 -0.16956306960E+03 -0.51201192939E+03  0.35225681337E+03  0.64419928049E+03  0.25500000920E-02 0.  1.
</event>
<event>
 5   0  0.1920289E-04  0.1687486E+04  0.7818609E-02  0.8768534E-01
       -1   -1    0    0    0  501  0.00000000000E+00  0.00000000000E+00  0.92521437552E+03  0.92521437553E+03  0.50400001928E-02 0.  1.
        1   -1    0    0  501    0  0.00000000000E+00  0.00000000000E+00 -0.76944616137E+03  0.76944616139E+03  0.50400001928E-02 0. -1.
    10030    2    1    2    0    0  0.00000000000E+00  0.00000000000E+00  0.15576821415E+03  0.16946605369E+04  0.16874864737E+04 0.  0.
        4    1    3    3  502    0  0.54469197295E+03  0.31343118983E+03 -0.48751258566E+03  0.79536066676E+03  0.12699999809E+01 0. -1.
       -4    1    3    3    0  502 -0.54469197295E+03 -0.31343118983E+03  0.64328079981E+03  0.89929987015E+03  0.12699999809E+01 0.  1.
</event>
<event>
 5   0  0.3574092E-04  0.1701330E+04  0.7818609E-02  0.8760606E-01
        2   -1    0    0  501    0  0.00000000000E+00  0.00000000000E+00  0.63576750720E+03  0.63576750720E+03  0.25500000920E-02 0. -1.
       -2   -1    0    0    0  501  0.00000000000E+00  0.00000000000E+00 -0.11382007319E+04  0.11382007319E+04  0.25500000920E-02 0.  1.
    10030    2    1    2    0    0  0.00000000000E+00  0.00000000000E+00 -0.50243322473E+03  0.17739682391E+04  0.17013301173E+04 0.  0.
        3    1    3    3  502    0  0.42798066014E+02  0.23650076260E+03  0.59962929336E+03  0.64600277462E+03  0.10100000352E+00 0. -1.
       -3    1    3    3    0  502 -0.42798066014E+02 -0.23650076260E+03 -0.11020625181E+04  0.11279654645E+04  0.10100000352E+00 0.  1.
</event>
<event>
 5   0  0.1317625E-04  0.1706587E+04  0.7818609E-02  0.8757616E-01
       -4   -1    0    0    0  501  0.00000000000E+00  0.00000000000E+00  0.10254413652E+04  0.10254421517E+04  0.12699999809E+01 0.  1.
        4   -1    0    0  501    0  0.00000000000E+00  0.00000000000E+00 -0.71004399582E+03  0.71004513160E+03  0.12699999809E+01 0. -1.
    10030    2    1    2    0    0  0.00000000000E+00  0.00000000000E+00  0.31539736941E+03  0.17354872833E+04  0.17065874164E+04 0.  0.
        4    1    3    3  502    0 -0.13916647909E+03  0.75601012415E+02 -0.69496644560E+03  0.71278523792E+03  0.12699999809E+01 0. -1.
       -4    1    3    3    0  502  0.13916647909E+03 -0.75601012415E+02  0.10103638150E+04  0.10227020454E+04  0.12699999809E+01 0.  1.
</event>
<event>
 5   0  0.3678896E-04  0.1695793E+04  0.7818609E-02  0.8763767E-01
       -2   -1    0    0    0  501  0.00000000000E+00  0.00000000000E+00  0.66993605688E+03  0.66993605688E+03  0.25500000920E-02 0.  1.
        2   -1    0    0  501    0  0.00000000000E+00  0.00000000000E+00 -0.10731305214E+04  0.10731305214E+04  0.25500000920E-02 0. -1.
    10030    2    1    2    0    0  0.00000000000E+00  0.00000000000E+00 -0.40319446453E+03  0.17430665783E+04  0.16957934191E+04 0.  0.
        2    1    3    3  502    0  0.80121613846E+03  0.72947891627E+02 -0.47675377246E+03  0.93518065366E+03  0.25500000920E-02 0.  1.
       -2    1    3    3    0  502 -0.80121613846E+03 -0.72947891627E+02  0.73559307924E+02  0.80788592463E+03  0.25500000920E-02 0. -1.
</event>
<event>
 5   0  0.1824538E-04  0.1697687E+04  0.7818609E-02  0.8762685E-01
        1   -1    0    0  501    0  0.00000000000E+00  0.00000000000E+00  0.13136575370E+04  0.13136575370E+04  0.50400001928E-02 0. -1.
       -1   -1    0    0    0  501  0.00000000000E+00  0.00000000000E+00 -0.54849539223E+03  0.54849539225E+03  0.50400001928E-02 0.  1.
    10030    2    1    2    0    0  0.00000000000E+00  0.00000000000E+00  0.76516214477E+03  0.18621529293E+04  0.16976867862E+04 0.  0.
        3    1    3    3  502    0 -0.47607723114E+03  0.75454390791E+02  0.11489770110E+04  0.12459899988E+04  0.10100000352E+00 0. -1.
       -3    1    3    3    0  502  0.47607723114E+03 -0.75454390791E+02 -0.38381486625E+03  0.61616293045E+03  0.10100000352E+00 0.  1.
</event>
<event>
 5   0  0.3678896E-04  0.1692136E+04  0.7818609E-02  0.8765862E-01
        2   -1    0    0  501    0  0.00000000000E+00  0.00000000000E+00  0.99268825681E+03  0.99268825682E+03  0.25500000920E-02 0. -1.
       -2   -1    0    0    0  501  0.00000000000E+00  0.00000000000E+00 -0.72110357487E+03  0.72110357488E+03  0.25500000920E-02 0.  1.
    10030    2    1    2    0    0  0.00000000000E+00  0.00000000000E+00  0.27158468194E+03  0.17137918317E+04  0.16921359883E+04 0.  0.
        2    1    3    3  502    0  0.23929105229E+03 -0.81141515502E+03  0.12234502251E+03  0.85476491858E+03  0.25500000920E-02 0.  1.
       -2    1    3    3    0  502 -0.23929105229E+03  0.81141515502E+03  0.14923965943E+03  0.85902691311E+03  0.25500000920E-02 0. -1.
</event>
<event>
 5   0  0.1815663E-04  0.1633368E+04  0.7818609E-02  0.8800307E-01
       -1   -1    0    0    0  501  0.00000000000E+00  0.00000000000E+00  0.71178634288E+03  0.71178634289E+03  0.50400001928E-02 0. -1.
        1   -1    0    0  501    0  0.00000000000E+00  0.00000000000E+00 -0.93704084851E+03  0.93704084852E+03  0.50400001928E-02 0.  1.
    10030    2    1    2    0    0  0.00000000000E+00  0.00000000000E+00 -0.22525450563E+03  0.16488271914E+04  0.16333681504E+04 0.  0.
        5    1    3    3  502    0 -0.59692500789E+03  0.55307273299E+03 -0.18214027020E+03  0.83391011569E+03  0.46999998093E+01 0.  1.
       -5    1    3    3    0  502  0.59692500789E+03 -0.55307273299E+03 -0.43114235430E+02  0.81491707573E+03  0.46999998093E+01 0. -1.
</event>
<event>
 5   0  0.1920289E-04  0.1674980E+04  0.7818609E-02  0.8775764E-01
       -1   -1    0    0    0  501  0.00000000000E+00  0.00000000000E+00  0.34025467290E+03  0.34025467294E+03  0.50400001928E-02 0. -1.
        1   -1    0    0  501    0  0.00000000000E+00  0.00000000000E+00 -0.20613673355E+04  0.20613673355E+04  0.50400001928E-02 0.  1.
    10030    2    1    2    0    0  0.00000000000E+00  0.00000000000E+00 -0.17211126626E+04  0.24016220085E+04  0.16749804399E+04 0.  0.
        4    1    3    3  502    0  0.58102176266E+03  0.20589509620E+03 -0.47680799955E+02  0.61826705468E+03  0.12699999809E+01 0. -1.
       -4    1    3    3    0  502 -0.58102176266E+03 -0.20589509620E+03 -0.16734318627E+04  0.17833549538E+04  0.12699999809E+01 0.  1.
</event>
<event>
 5   0  0.3574092E-04  0.1681653E+04  0.7818609E-02  0.8771898E-01
       -2   -1    0    0    0  501  0.00000000000E+00  0.00000000000E+00  0.56716784569E+03  0.56716784570E+03  0.25500000920E-02 0. -1.
        2   -1    0    0  501    0  0.00000000000E+00  0.00000000000E+00 -0.12465259235E+04  0.12465259235E+04  0.25500000920E-02 0.  1.
    10030    2    1    2    0    0  0.00000000000E+00  0.00000000000E+00 -0.67935807778E+03  0.18136937692E+04  0.16816532611E+04 0.  0.
        3    1    3    3  502    0  0.14189655077E+03  0.51478962175E+03 -0.10401734821E+04  0.11692321706E+04  0.10100000352E+00 0.  1.
       -3    1    3    3    0  502 -0.14189655077E+03 -0.51478962175E+03  0.36081540432E+03  0.64446159853E+03  0.10100000352E+00 0. -1.
</event>
<event>
 5   0  0.1824538E-04  0.1677529E+04  0.7818609E-02  0.8774285E-01
       -1   -1    0    0    0  501  0.00000000000E+00  0.00000000000E+00  0.43806701408E+03  0.43806701411E+03  0.50400001928E-02 0. -1.
        1   -1    0    0  501    0  0.00000000000E+00  0.00000000000E+00 -0.16059771883E+04  0.16059771883E+04  0.50400001928E-02 0.  1.
    10030    2    1    2    0    0  0.00000000000E+00  0.00000000000E+00 -0.11679101742E+04  0.20440442024E+04  0.16775286962E+04 0.  0.
        3    1    3    3  502    0 -0.61499123063E+03  0.44851317186E+03 -0.10132829144E+04  0.12673281161E+04  0.10100000352E+00 0.  1.
       -3    1    3    3    0  502  0.61499123063E+03 -0.44851317186E+03 -0.15462725986E+03  0.77671608634E+03  0.10100000352E+00 0. -1.
</event>
<event>
 5   0  0.1893284E-04  0.1700047E+04  0.7818609E-02  0.8761338E-01
       -1   -1    0    0    0  501  0.00000000000E+00  0.00000000000E+00  0.71375198665E+03  0.71375198667E+03  0.50400001928E-02 0.  1.
        1   -1    0    0  501    0  0.00000000000E+00  0.00000000000E+00 -0.10123123886E+04  0.10123123886E+04  0.50400001928E-02 0. -1.
    10030    2    1    2    0    0  0.00000000000E+00  0.00000000000E+00 -0.29856040197E+03  0.17260643753E+04  0.17000470329E+04 0.  0.
        2    1    3    3  502    0 -0.40909952809E+03 -0.19109630591E+03  0.58192172802E+03  0.73655489922E+03  0.25500000920E-02 0.  1.
       -2    1    3    3    0  502  0.40909952809E+03  0.19109630591E+03 -0.88048213000E+03  0.98950947609E+03  0.25500000920E-02 0. -1.
</event>
<event>
 5   0  0.1893284E-04  0.1708816E+04  0.7818609E-02  0.8756352E-01
        1   -1    0    0  501    0  0.00000000000E+00  0.00000000000E+00  0.11836140958E+04  0.11836140958E+04  0.50400001928E-02 0. -1.
       -1   -1    0    0    0  501  0.00000000000E+00  0.00000000000E+00 -0.61676615650E+03  0.61676615652E+03  0.50400001928E-02 0.  1.
    10030    2    1    2    0    0  0.00000000000E+00  0.00000000000E+00  0.56684793929E+03  0.18003802523E+04  0.17088161009E+04 0.  0.
        2    1    3    3  502    0  0.76568001828E+03  0.26267435352E+02 -0.11507192038E+03  0.77472408987E+03  0.25500000920E-02 0. -1.
       -2    1    3    3    0  502 -0.76568001828E+03 -0.26267435352E+02  0.68191985967E+03  0.10256561625E+04  0.25500000920E-02 0.  1.
</event>
<event>
 5   0  0.3605571E-04  0.1687301E+04  0.7818609E-02  0.8768640E-01
       -2   -1    0    0    0  501  0.00000000000E+00  0.00000000000E+00  0.29365111842E+03  0.29365111843E+03  0.25500000920E-02 0.  1.
        2   -1    0    0  501    0  0.00000000000E+00  0.00000000000E+00 -0.24237811595E+04  0.24237811595E+04  0.25500000920E-02 0. -1.
    10030    2    1    2    0    0  0.00000000000E+00  0.00000000000E+00 -0.21301300411E+04  0.27174322779E+04  0.16873008603E+04 0.  0.
        4    1    3    3  502    0  0.32878681185E+03  0.50495195069E+03 -0.20160458141E+04  0.21041671934E+04  0.12699999809E+01 0. -1.
       -4    1    3    3    0  502 -0.32878681185E+03 -0.50495195069E+03 -0.11408422692E+03  0.61326508451E+03  0.12699999809E+01 0.  1.
</event>
<event>
 5   0  0.1930116E-04  0.1683649E+04  0.7818609E-02  0.8770745E-01
       -1   -1    0    0    0  501  0.00000000000E+00  0.00000000000E+00  0.60112003235E+03  0.60112003237E+03  0.50400001928E-02 0.  1.
        1   -1    0    0  501    0  0.00000000000E+00  0.00000000000E+00 -0.11789131866E+04  0.11789131866E+04  0.50400001928E-02 0. -1.
    10030    2    1    2    0    0  0.00000000000E+00  0.00000000000E+00 -0.57779315427E+03  0.17800332190E+04  0.16836488148E+04 0.  0.
        1    1    3    3  502    0  0.57596546991E+03  0.52699364310E+03  0.44110841166E+02  0.78192345452E+03  0.50400001928E-02 0.  1.
       -1    1    3    3    0  502 -0.57596546991E+03 -0.52699364310E+03 -0.62190399544E+03  0.99810976449E+03  0.50400001928E-02 0. -1.
</event>
<event>
 5   0  0.1930116E-04  0.1708356E+04  0.7818609E-02  0.8756613E-01
        1   -1    0    0  501    0  0.00000000000E+00  0.00000000000E+00  0.93841062987E+03  0.93841062989E+03  0.50400001928E-02 0.  1.
       -1   -1    0    0    0  501  0.00000000000E+00  0.00000000000E+00 -0.77750655887E+03  0.77750655889E+03  0.50400001928E-02 0. -1.
    10030    2    1    2    0    0  0.00000000000E+00  0.00000000000E+00  0.16090407100E+03  0.17159171888E+04  0.17083564261E+04 0.  0.
        1    1    3    3  502    0 -0.72167359984E+03  0.34152179663E+03 -0.22448754923E+03  0.82936396236E+03  0.50400001928E-02 0. -1.
       -1    1    3    3    0  502  0.72167359984E+03 -0.34152179663E+03  0.38539162024E+03  0.88655322641E+03  0.50400001928E-02 0.  1.
</event>
<event>
 5   0  0.3573262E-04  0.1824759E+04  0.7818609E-02  0.8693243E-01
       -2   -1    0    0    0  501  0.00000000000E+00  0.00000000000E+00  0.56479576432E+03  0.56479576432E+03  0.25500000920E-02 0. -1.
        2   -1    0    0  501    0  0.00000000000E+00  0.00000000000E+00 -0.14738710157E+04  0.14738710157E+04  0.25500000920E-02 0.  1.
    10030    2    1    2    0    0  0.00000000000E+00  0.00000000000E+00 -0.90907525135E+03  0.20386667800E+04  0.18247587312E+04 0.  0.
        5    1    3    3  502    0  0.81482047031E+03  0.36607652695E+03 -0.24711368427E+03  0.92683962225E+03  0.46999998093E+01 0. -1.
       -5    1    3    3    0  502 -0.81482047031E+03 -0.36607652695E+03 -0.66196156708E+03  0.11118271577E+04  0.46999998093E+01 0.  1.
</event>
<event>
 5   0  0.3516723E-04  0.1706582E+04  0.7818609E-02  0.8757619E-01
       -2   -1    0    0    0  501  0.00000000000E+00  0.00000000000E+00  0.73529530648E+03  0.73529530648E+03  0.25500000920E-02 0. -1.
        2   -1    0    0  501    0  0.00000000000E+00  0.00000000000E+00 -0.99022152168E+03  0.99022152168E+03  0.25500000920E-02 0.  1.
    10030    2    1    2    0    0  0.00000000000E+00  0.00000000000E+00 -0.25492621521E+03  0.17255168282E+04  0.17065816561E+04 0.  0.
        1    1    3    3  502    0  0.16870002505E+03 -0.36164246136E+03 -0.89005981728E+03  0.97542372673E+03  0.50400001928E-02 0.  1.
       -1    1    3    3    0  502 -0.16870002505E+03  0.36164246136E+03  0.63513360207E+03  0.75009310143E+03  0.50400001928E-02 0. -1.
</event>
<event>
 5   0  0.3516723E-04  0.1700267E+04  0.7818609E-02  0.8761212E-01
       -2   -1    0    0    0  501  0.00000000000E+00  0.00000000000E+00  0.96870400108E+03  0.96870400108E+03  0.25500000920E-02 0.  1.
        2   -1    0    0  501    0  0.00000000000E+00  0.00000000000E+00 -0.74607642300E+03  0.74607642300E+03  0.25500000920E-02 0. -1.
    10030    2    1    2    0    0  0.00000000000E+00  0.00000000000E+00  0.22262757808E+03  0.17147804241E+04  0.17002672920E+04 0.  0.
        1    1    3    3  502    0 -0.77975244255E+03  0.31954346026E+03  0.22454555433E+03  0.87209093600E+03  0.50400001928E-02 0.  1.
       -1    1    3    3    0  502  0.77975244255E+03 -0.31954346026E+03 -0.19179762470E+01  0.84268948808E+03  0.50400001928E-02 0. -1.
</event>
<event>
 5   0  0.1824538E-04  0.1700791E+04  0.7818609E-02  0.8760914E-01
        1   -1    0    0  501    0  0.00000000000E+00  0.00000000000E+00  0.10187399188E+04  0.10187399188E+04  0.50400001928E-02 0. -1.
       -1   -1    0    0    0  501  0.00000000000E+00  0.00000000000E+00 -0.70986938236E+03  0.70986938238E+03  0.50400001928E-02 0.  1.
    10030    2    1    2    0    0  0.00000000000E+00  0.00000000000E+00  0.30887053647E+03  0.17286093012E+04  0.17007907302E+04 0.  0.
        3    1    3    3  502    0 -0.43754807813E+03  0.69347606925E+03 -0.74673362382E+02  0.82336717238E+03  0.10100000352E+00 0.  1.
       -3    1    3    3    0  502  0.43754807813E+03 -0.69347606925E+03  0.38354389885E+03  0.90524212885E+03  0.10100000352E+00 0. -1.
</event>
<event>
 5   0  0.3573262E-04  0.1708919E+04  0.7818609E-02  0.8756294E-01
       -2   -1    0    0    0  501  0.00000000000E+00  0.00000000000E+00  0.12648486934E+04  0.12648486934E+04  0.25500000920E-02 0. -1.
        2   -1    0    0  501    0  0.00000000000E+00  0.00000000000E+00 -0.57722429087E+03  0.57722429088E+03  0.25500000920E-02 0.  1.
    10030    2    1    2    0    0  0.00000000000E+00  0.00000000000E+00  0.68762440255E+03  0.18420729843E+04  0.17089194131E+04 0.  0.
        5    1    3    3  502    0  0.21214063232E+03  0.72270743936E+03 -0.91070277526E+02  0.75869992503E+03  0.46999998093E+01 0.  1.
       -5    1    3    3    0  502 -0.21214063232E+03 -0.72270743936E+03  0.77869468008E+03  0.10833730593E+04  0.46999998093E+01 0. -1.
</event>
<event>
 5   0  0.3678896E-04  0.1665310E+04  0.7818609E-02  0.8781400E-01
       -2   -1    0    0    0  501  0.00000000000E+00  0.00000000000E+00  0.49786419191E+03  0.49786419191E+03  0.25500000920E-02 0. -1.
        2   -1    0    0  501    0  0.00000000000E+00  0.00000000000E+00 -0.13925779426E+04  0.13925779426E+04  0.25500000920E-02 0.  1.
    10030    2    1    2    0    0  0.00000000000E+00  0.00000000000E+00 -0.89471375068E+03  0.18904421345E+04  0.16653104120E+04 0.  0.
        2    1    3    3  502    0 -0.69295367322E+03 -0.24876907565E+03 -0.88883282253E+03  0.11541640406E+04  0.25500000920E-02 0.  1.
       -2    1    3    3    0  502  0.69295367322E+03  0.24876907565E+03 -0.58809281477E+01  0.73627809389E+03  0.25500000920E-02 0. -1.
</event>
<event>
 5   0  0.1815663E-04  0.1699413E+04  0.7818609E-02  0.8761699E-01
       -1   -1    0    0    0  501  0.00000000000E+00  0.00000000000E+00  0.64139885443E+03  0.64139885445E+03  0.50400001928E-02 0. -1.
        1   -1    0    0  501    0  0.00000000000E+00  0.00000000000E+00 -0.11256667770E+04  0.11256667770E+04  0.50400001928E-02 0.  1.
    10030    2    1    2    0    0  0.00000000000E+00  0.00000000000E+00 -0.48426792259E+03  0.17670656315E+04  0.16994132885E+04 0.  0.
        5    1    3    3  502    0 -0.64773637513E+03  0.54751566486E+03 -0.18867243122E+03  0.86888157492E+03  0.46999998093E+01 0. -1.
       -5    1    3    3    0  502  0.64773637513E+03 -0.54751566486E+03 -0.29559549137E+03  0.89818405656E+03  0.46999998093E+01 0.  1.
</event>
<event>
 5   0  0.3516723E-04  0.1730685E+04  0.7818609E-02  0.8744055E-01
       -2   -1    0    0    0  501  0.00000000000E+00  0.00000000000E+00  0.40597491228E+03  0.40597491228E+03  0.25500000920E-02 0. -1.
        2   -1    0    0  501    0  0.00000000000E+00  0.00000000000E+00 -0.18444919774E+04  0.18444919774E+04  0.25500000920E-02 0.  1.
    10030    2    1    2    0    0  0.00000000000E+00  0.00000000000E+00 -0.14385170651E+04  0.22504668897E+04  0.17306847994E+04 0.  0.
        1    1    3    3  502    0  0.64056442650E+03  0.16253457324E+03  0.71579109132E+01  0.66090204094E+03  0.50400001928E-02 0. -1.
       -1    1    3    3    0  502 -0.64056442650E+03 -0.16253457324E+03 -0.14456749760E+04  0.15895648487E+04  0.50400001928E-02 0.  1.
</event>
<event>
 5   0  0.3605571E-04  0.1674403E+04  0.7818609E-02  0.8776099E-01
        2   -1    0    0  501    0  0.00000000000E+00  0.00000000000E+00  0.83944975155E+03  0.83944975155E+03  0.25500000920E-02 0. -1.
       -2   -1    0    0    0  501  0.00000000000E+00  0.00000000000E+00 -0.83495933001E+03  0.83495933001E+03  0.25500000920E-02 0.  1.
    10030    2    1    2    0    0  0.00000000000E+00  0.00000000000E+00  0.44904215407E+01  0.16744090816E+04  0.16744030604E+04 0.  0.
        4    1    3    3  502    0  0.41425999418E+03  0.68358449848E+03  0.25125550343E+03  0.83787233529E+03  0.12699999809E+01 0.  1.
       -4    1    3    3    0  502 -0.41425999418E+03 -0.68358449848E+03 -0.24676508189E+03  0.83653674628E+03  0.12699999809E+01 0. -1.
</event>
<event>
 5   0  0.3516723E-04  0.1698537E+04  0.7818609E-02  0.8762199E-01
        2   -1    0    0  501    0  0.00000000000E+00  0.00000000000E+00  0.94938752960E+03  0.94938752961E+03  0.25500000920E-02 0. -1.
       -2   -1    0    0    0  501  0.00000000000E+00  0.00000000000E+00 -0.75970795568E+03  0.75970795568E+03  0.25500000920E-02 0.  1.
    10030    2    1    2    0    0  0.00000000000E+00  0.00000000000E+00  0.18967957393E+03  0.17090954853E+04  0.16985373228E+04 0.  0.
        1    1    3    3  502    0  0.51188281308E+03  0.67565728853E+03  0.42357412928E+02  0.84872312112E+03  0.50400001928E-02 0. -1.
       -1    1    3    3    0  502 -0.51188281308E+03 -0.67565728853E+03  0.14732216100E+03  0.86037236417E+03  0.50400001928E-02 0.  1.
</event>
<event>
 5   0  0.3678896E-04  0.1710534E+04  0.7818609E-02  0.8755379E-01
       -2   -1    0    0    0  501  0.00000000000E+00  0.00000000000E+00  0.52812024450E+03  0.52812024451E+03  0.25500000920E-02 0. -1.
        2   -1    0    0  501    0  0.00000000000E+00  0.00000000000E+00 -0.13850671317E+04  0.13850671317E+04  0.25500000920E-02 0.  1.
    10030    2    1    2    0    0  0.00000000000E+00  0.00000000000E+00 -0.85694688723E+03  0.19131873762E+04  0.17105344104E+04 0.  0.
        2    1    3    3  502    0 -0.42439324313E+03 -0.68615630928E+03 -0.11101235173E+03  0.81439784370E+03  0.25500000920E-02 0. -1.
       -2    1    3    3    0  502  0.42439324313E+03  0.68615630928E+03 -0.74593453550E+03  0.10987895325E+04  0.25500000920E-02 0.  1.
</event>
<event>
 5   0  0.1893284E-04  0.1692436E+04  0.7818609E-02  0.8765690E-01
       -1   -1    0    0    0  501  0.00000000000E+00  0.00000000000E+00  0.13368775231E+04  0.13368775231E+04  0.50400001928E-02 0. -1.
        1   -1    0    0  501    0  0.00000000000E+00  0.00000000000E+00 -0.53563973724E+03  0.53563973727E+03  0.50400001928E-02 0.  1.
    10030    2    1    2    0    0  0.00000000000E+00  0.00000000000E+00  0.80123778583E+03  0.18725172603E+04  0.16924357893E+04 0.  0.
        2    1    3    3  502    0 -0.42281222574E+03  0.48416121231E+03 -0.20830783133E+03  0.67570290094E+03  0.25500000920E-02 0.  1.
       -2    1    3    3    0  502  0.42281222574E+03 -0.48416121231E+03  0.10095456172E+04  0.11968143594E+04  0.25500000920E-02 0. -1.
</event>
<event>
 5   0  0.1893284E-04  0.1729102E+04  0.7818609E-02  0.8744939E-01
       -1   -1    0    0    0  501  0.00000000000E+00  0.00000000000E+00  0.97956544870E+03  0.97956544872E+03  0.50400001928E-02 0. -1.
        1   -1    0    0  501    0  0.00000000000E+00  0.00000000000E+00 -0.76304045944E+03  0.76304045946E+03  0.50400001928E-02 0.  1.
    10030    2    1    2    0    0  0.00000000000E+00  0.00000000000E+00  0.21652498926E+03  0.17426059082E+04  0.17291015818E+04 0.  0.
        2    1    3    3  502    0 -0.54640245528E+03 -0.48899657745E+03  0.56985133992E+03  0.92865701177E+03  0.25500000920E-02 0. -1.
       -2    1    3    3    0  502  0.54640245528E+03  0.48899657745E+03 -0.35332635065E+03  0.81394889641E+03  0.25500000920E-02 0.  1.
</event>
<event>
 5   0  0.3516723E-04  0.1708343E+04  0.7818609E-02  0.8756620E-01
        2   -1    0    0  501    0  0.00000000000E+00  0.00000000000E+00  0.99623490765E+03  0.99623490765E+03  0.25500000920E-02 0. -1.
       -2   -1    0    0    0  501  0.00000000000E+00  0.00000000000E+00 -0.73236680357E+03  0.73236680357E+03  0.25500000920E-02 0.  1.
    10030    2    1    2    0    0  0.00000000000E+00  0.00000000000E+00  0.26386810408E+03  0.17286017112E+04  0.17083434958E+04 0.  0.
        1    1    3    3  502    0 -0.47484938674E+03 -0.34852190377E+03  0.75786471441E+03  0.95984810406E+03  0.50400001928E-02 0. -1.
       -1    1    3    3    0  502  0.47484938674E+03  0.34852190377E+03 -0.49399661032E+03  0.76875360716E+03  0.50400001928E-02 0.  1.
</event>
<event>
 5   0  0.1930116E-04  0.1693169E+04  0.7818609E-02  0.8765270E-01
       -1   -1    0    0    0  501  0.00000000000E+00  0.00000000000E+00  0.72100600968E+03  0.72100600970E+03  0.50400001928E-02 0. -1.
        1   -1    0    0  501    0  0.00000000000E+00  0.00000000000E+00 -0.99403479775E+03  0.99403479776E+03  0.50400001928E-02 0.  1.
    10030    2    1    2    0    0  0.00000000000E+00  0.00000000000E+00 -0.27302878806E+03  0.17150408075E+04  0.16931687016E+04 0.  0.
        1    1    3    3  502    0 -0.45323462310E+03 -0.45426557304E+03  0.42282011843E+03  0.76847621108E+03  0.50400001928E-02 0. -1.
       -1    1    3    3    0  502  0.45323462310E+03  0.45426557304E+03 -0.69584890650E+03  0.94656459638E+03  0.50400001928E-02 0.  1.
</event>
<event>
 5   0  0.1815663E-04  0.1691314E+04  0.7818609E-02  0.8766334E-01
        1   -1    0    0  501    0  0.00000000000E+00  0.00000000000E+00  0.79573166397E+03  0.79573166399E+03  0.50400001928E-02 0. -1.
       -1   -1    0    0    0  501  0.00000000000E+00  0.00000000000E+00 -0.89871426291E+03  0.89871426292E+03  0.50400001928E-02 0.  1.
    10030    2    1    2    0    0  0.00000000000E+00  0.00000000000E+00 -0.10298259894E+03  0.16944459269E+04  0.16913135675E+04 0.  0.
        5    1    3    3  502    0 -0.78089370089E+03 -0.32452043924E+03 -0.49292168918E+02  0.84708930786E+03  0.46999998093E+01 0.  1.
       -5    1    3    3    0  502  0.78089370089E+03  0.32452043924E+03 -0.53690430019E+02  0.84735661905E+03  0.46999998093E+01 0. -1.
</event>
<event>
 5   0  0.3574092E-04  0.1696580E+04  0.7818609E-02  0.8763318E-01
       -2   -1    0    0    0  501  0.00000000000E+00  0.00000000000E+00  0.15465868378E+04  0.15465868378E+04  0.25500000920E-02 0.  1.
        2   -1    0    0  501    0  0.00000000000E+00  0.00000000000E+00 -0.46527980896E+03  0.46527980897E+03  0.25500000920E-02 0. -1.
    10030    2    1    2    0    0  0.00000000000E+00  0.00000000000E+00  0.10813070288E+04  0.20118666468E+04  0.16965796515E+04 0.  0.
        3    1    3    3  502    0  0.81082228973E+03  0.23797691740E+03  0.62883560999E+03  0.10533280749E+04  0.10100000352E+00 0. -1.
       -3    1    3    3    0  502 -0.81082228973E+03 -0.23797691740E+03  0.45247141884E+03  0.95853857189E+03  0.10100000352E+00 0.  1.
</event>
<event>
 5   0  0.1920289E-04  0.1682558E+04  0.7818609E-02  0.8771375E-01
       -1   -1    0    0    0  501  0.00000000000E+00  0.00000000000E+00  0.10302490910E+04  0.10302490910E+04  0.50400001928E-02 0.  1.
        1   -1    0    0  501    0  0.00000000000E+00  0.00000000000E+00 -0.68697036672E+03  0.68697036674E+03  0.50400001928E-02 0. -1.
    10030    2    1    2    0    0  0.00000000000E+00  0.00000000000E+00  0.34327872424E+03  0.17172194577E+04  0.16825582853E+04 0.  0.
        4    1    3    3  502    0  0.20581648830E+03  0.15955702408E+03  0.98807500549E+03  0.10218183303E+04  0.12699999809E+01 0.  1.
       -4    1    3    3    0  502 -0.20581648830E+03 -0.15955702408E+03 -0.64479628124E+03  0.69540112740E+03  0.12699999809E+01 0. -1.
</event>
<event>
 5   0  0.3678896E-04  0.1648403E+04  0.7818609E-02  0.8791352E-01
       -2   -1    0    0    0  501  0.00000000000E+00  0.00000000000E+00  0.46874646762E+03  0.46874646763E+03  0.25500000920E-02 0.  1.
        2   -1    0    0  501    0  0.00000000000E+00  0.00000000000E+00 -0.14492013527E+04  0.14492013527E+04  0.25500000920E-02 0. -1.
    10030    2    1    2    0    0  0.00000000000E+00  0.00000000000E+00 -0.98045488512E+03  0.19179478204E+04  0.16484028816E+04 0.  0.
        2    1    3    3  502    0  0.38771661305E+03  0.22620782816E+02 -0.13360601452E+04  0.13913635699E+04  0.25500000920E-02 0. -1.
       -2    1    3    3    0  502 -0.38771661305E+03 -0.22620782816E+02  0.35560526012E+03  0.52658425050E+03  0.25500000920E-02 0.  1.
</event>
<event>
 5   0  0.1920289E-04  0.1737866E+04  0.7818609E-02  0.8740058E-01
       -1   -1    0    0    0  501  0.00000000000E+00  0.00000000000E+00  0.10746791827E+04  0.10746791827E+04  0.50400001928E-02 0.  1.
        1   -1    0    0  501    0  0.00000000000E+00  0.00000000000E+00 -0.70257634258E+03  0.70257634260E+03  0.50400001928E-02 0. -1.
    10030    2    1    2    0    0  0.00000000000E+00  0.00000000000E+00  0.37210284011E+03  0.17772555253E+04  0.17378655525E+04 0.  0.
        4    1    3    3  502    0 -0.82634752179E+03 -0.17024401451E+03 -0.26528549873E+02  0.84412003181E+03  0.12699999809E+01 0.  1.
       -4    1    3    3    0  502  0.82634752179E+03  0.17024401451E+03  0.39863138998E+03  0.93313549349E+03  0.12699999809E+01 0. -1.
</event>
<event>
 5   0  0.1930116E-04  0.1740531E+04  0.7818609E-02  0.8738580E-01
       -1   -1    0    0    0  501  0.00000000000E+00  0.00000000000E+00  0.39017940750E+03  0.39017940754E+03  0.50400001928E-02 0.  1.
        1   -1    0    0  501    0  0.00000000000E+00  0.00000000000E+00 -0.19410613871E+04  0.19410613871E+04  0.50400001928E-02 0. -1.
    10030    2    1    2    0    0  0.00000000000E+00  0.00000000000E+00 -0.15508819796E+04  0.23312407947E+04  0.17405311626E+04 0.  0.
        1    1    3    3  502    0  0.39572176656E+03 -0.60780511410E+03 -0.14196549645E+04  0.15941903874E+04  0.50400001928E-02 0. -1.
       -1    1    3    3    0  502 -0.39572176656E+03  0.60780511410E+03 -0.13122701515E+03  0.73705040722E+03  0.50400001928E-02 0.  1.
</event>
<event>
 5   0  0.3573262E-04  0.1716408E+04  0.7818609E-02  0.8752061E-01
       -2   -1    0    0    0  501  0.00000000000E+00  0.00000000000E+00  0.73801041838E+03  0.73801041839E+03  0.25500000920E-02 0. -1.
        2   -1    0    0  501    0  0.00000000000E+00  0.00000000000E+00 -0.99797194676E+03  0.99797194677E+03  0.25500000920E-02 0.  1.
    10030    2    1    2    0    0  0.00000000000E+00  0.00000000000E+00 -0.25996152838E+03  0.17359823652E+04  0.17164075203E+04 0.  0.
        5    1    3    3  502    0  0.30082131797E+03  0.44728332361E+03 -0.80538076054E+03  0.96913161974E+03  0.46999998093E+01 0.  1.
       -5    1    3    3    0  502 -0.30082131797E+03 -0.44728332361E+03  0.54541923216E+03  0.76685074541E+03  0.46999998093E+01 0. -1.
</event>
<event>
 5   0  0.1824538E-04  0.1702876E+04  0.7818609E-02  0.8759726E-01
       -1   -1    0    0    0  501  0.00000000000E+00  0.00000000000E+00  0.34910185709E+03  0.34910185713E+03  0.50400001928E-02 0.  1.
        1   -1    0    0  501    0  0.00000000000E+00  0.00000000000E+00 -0.20766050658E+04  0.20766050658E+04  0.50400001928E-02 0. -1.
    10030    2    1    2    0    0  0.00000000000E+00  0.00000000000E+00 -0.17275032087E+04  0.24257069230E+04  0.17028760201E+04 0.  0.
        3    1    3    3  502    0 -0.40848884409E+03  0.21224294797E+03  0.15655199156E+03  0.48622910338E+03  0.10100000352E+00 0.  1.
       -3    1    3    3    0  502  0.40848884409E+03 -0.21224294797E+03 -0.18840552003E+04  0.19394778196E+04  0.10100000352E+00 0. -1.
</event>
<event>
 5   0  0.1815663E-04  0.1655441E+04  0.7818609E-02  0.8787194E-01
       -1   -1    0    0    0  501  0.00000000000E+00  0.00000000000E+00  0.63033168232E+03  0.63033168234E+03  0.50400001928E-02 0. -1.
        1   -1    0    0  501    0  0.00000000000E+00  0.00000000000E+00 -0.10869218186E+04  0.10869218186E+04  0.50400001928E-02 0.  1.
    10030    2    1    2    0    0  0.00000000000E+00  0.00000000000E+00 -0.45659013625E+03  0.17172535009E+04  0.16554410391E+04 0.  0.
        5    1    3    3  502    0 -0.31439659818E+03  0.73168062441E+03 -0.46232345579E+03  0.92085114153E+03  0.46999998093E+01 0.  1.
       -5    1    3    3    0  502  0.31439659818E+03 -0.73168062441E+03  0.57333195366E+01  0.79640235939E+03  0.46999998093E+01 0. -1.
</event>
<event>
 5   0  0.3678896E-04  0.1712057E+04  0.7818609E-02  0.8754517E-01
       -2   -1    0    0    0  501  0.00000000000E+00  0.00000000000E+00  0.11416207649E+04  0.11416207649E+04  0.25500000920E-02 0. -1.
        2   -1    0    0  501    0  0.00000000000E+00  0.00000000000E+00 -0.64188126047E+03  0.64188126047E+03  0.25500000920E-02 0.  1.
    10030    2    1    2    0    0  0.00000000000E+00  0.00000000000E+00  0.49973950439E+03  0.17835020253E+04  0.17120572135E+04 0.  0.
        2    1    3    3  502    0 -0.73421723018E+02  0.61736659650E+03  0.86285768430E+03  0.10635110001E+04  0.25500000920E-02 0. -1.
       -2    1    3    3    0  502  0.73421723018E+02 -0.61736659650E+03 -0.36311817991E+03  0.71999102527E+03  0.25500000920E-02 0.  1.
</event>
<event>
 5   0  0.3605571E-04  0.1681142E+04  0.7818609E-02  0.8772193E-01
        2   -1    0    0  501    0  0.00000000000E+00  0.00000000000E+00  0.74465269319E+03  0.74465269320E+03  0.25500000920E-02 0.  1.
       -2   -1    0    0    0  501  0.00000000000E+00  0.00000000000E+00 -0.94884475919E+03  0.94884475920E+03  0.25500000920E-02 0. -1.
    10030    2    1    2    0    0  0.00000000000E+00  0.00000000000E+00 -0.20419206600E+03  0.16934974524E+04  0.16811422371E+04 0.  0.
        4    1    3    3  502    0  0.29579314224E+03  0.50495815008E+03 -0.70992251597E+03  0.92003690573E+03  0.12699999809E+01 0. -1.
       -4    1    3    3    0  502 -0.29579314224E+03 -0.50495815008E+03  0.50573044997E+03  0.77346054667E+03  0.12699999809E+01 0.  1.
</event>
<event>
 5   0  0.1824538E-04  0.1686680E+04  0.7818609E-02  0.8768998E-01
        1   -1    0    0  501    0  0.00000000000E+00  0.00000000000E+00  0.16349604882E+04  0.16349604882E+04  0.50400001928E-02 0. -1.
       -1   -1    0    0    0  501  0.00000000000E+00  0.00000000000E+00 -0.43500884130E+03  0.43500884133E+03  0.50400001928E-02 0.  1.
    10030    2    1    2    0    0  0.00000000000E+00  0.00000000000E+00  0.11999516469E+04  0.20699693296E+04  0.16866798956E+04 0.  0.
        3    1    3    3  502    0  0.56030037877E+03 -0.60782647727E+03  0.80471881283E+03  0.11536732288E+04  0.10100000352E+00 0. -1.
       -3    1    3    3    0  502 -0.56030037877E+03  0.60782647727E+03  0.39523283407E+03  0.91629610075E+03  0.10100000352E+00 0.  1.
</event>
<event>
 5   0  0.3678896E-04  0.1701851E+04  0.7818609E-02  0.8760309E-01
        2   -1    0    0  501    0  0.00000000000E+00  0.00000000000E+00  0.14545038110E+04  0.14545038110E+04  0.25500000920E-02 0. -1.
       -2   -1    0    0    0  501  0.00000000000E+00  0.00000000000E+00 -0.49781537556E+03  0.49781537557E+03  0.25500000920E-02 0.  1.
    10030    2    1    2    0    0  0.00000000000E+00  0.00000000000E+00  0.95668843548E+03  0.19523191866E+04  0.17018511815E+04 0.  0.
        2    1    3    3  502    0  0.23341269098E+03  0.64244054257E+02  0.14141636088E+04  0.14347360368E+04  0.25500000920E-02 0. -1.
       -2    1    3    3    0  502 -0.23341269098E+03 -0.64244054257E+02 -0.45747517329E+03  0.51758314984E+03  0.25500000920E-02 0.  1.
</event>
<event>
 5   0  0.3605571E-04  0.1694233E+04  0.7818609E-02  0.8764660E-01
       -2   -1    0    0    0  501  0.00000000000E+00  0.00000000000E+00  0.39505994125E+03  0.39505994126E+03  0.25500000920E-02 0.  1.
        2   -1    0    0  501    0  0.00000000000E+00  0.00000000000E+00 -0.18164489215E+04  0.18164489215E+04  0.25500000920E-02 0. -1.
    10030    2    1    2    0    0  0.00000000000E+00  0.00000000000E+00 -0.14213889803E+04  0.22115088628E+04  0.16942328107E+04 0.  0.
        4    1    3    3  502    0 -0.17002839456E+03  0.37848941985E+03  0.25333288125E+03  0.48615127021E+03  0.12699999809E+01 0.  1.
       -4    1    3    3    0  502  0.17002839456E+03 -0.37848941985E+03 -0.16747218615E+04  0.17253575926E+04  0.12699999809E+01 0. -1.
</event>
<event>
 5   0  0.3574092E-04  0.1712092E+04  0.7818609E-02  0.8754498E-01
        2   -1    0    0  501    0  0.00000000000E+00  0.00000000000E+00  0.21088814407E+04  0.21088814407E+04  0.25500000920E-02 0. -1.
       -2   -1    0    0    0  501  0.00000000000E+00  0.00000000000E+00 -0.34748965329E+03  0.34748965330E+03  0.25500000920E-02 0.  1.
    10030    2    1    2    0    0  0.00000000000E+00  0.00000000000E+00  0.17613917874E+04  0.24563710940E+04  0.17120916806E+04 0.  0.
        3    1    3    3  502    0 -0.35782378908E+03  0.56431817404E+03  0.16484002782E+04  0.17786838823E+04  0.10100000352E+00 0. -1.
       -3    1    3    3    0  502  0.35782378908E+03 -0.56431817404E+03  0.11299150916E+03  0.67768721172E+03  0.10100000352E+00 0.  1.
</event>
<event>
 5   0  0.1815663E-04  0.1748491E+04  0.7818609E-02  0.8734181E-01
       -1   -1    0    0    0  501  0.00000000000E+00  0.00000000000E+00  0.93274709029E+03  0.93274709031E+03  0.50400001928E-02 0. -1.
        1   -1    0    0  501    0  0.00000000000E+00  0.00000000000E+00 -0.81941299123E+03  0.81941299124E+03  0.50400001928E-02 0.  1.
    10030    2    1    2    0    0  0.00000000000E+00  0.00000000000E+00  0.11333409906E+03  0.17521600815E+04  0.17484908731E+04 0.  0.
        5    1    3    3  502    0  0.31783020274E+03  0.31040063101E+03  0.81118693471E+03  0.92488427522E+03  0.46999998093E+01 0. -1.
       -5    1    3    3    0  502 -0.31783020274E+03 -0.31040063101E+03 -0.69785283565E+03  0.82727580633E+03  0.46999998093E+01 0.  1.
</event>
<event>
 5   0  0.3678896E-04  0.1701385E+04  0.7818609E-02  0.8760575E-01
       -2   -1    0    0    0  501  0.00000000000E+00  0.00000000000E+00  0.59189917865E+03  0.59189917865E+03  0.25500000920E-02 0.  1.
        2   -1    0    0  501    0  0.00000000000E+00  0.00000000000E+00 -0.12226366370E+04  0.12226366370E+04  0.25500000920E-02 0. -1.
    10030    2    1    2    0    0  0.00000000000E+00  0.00000000000E+00 -0.63073745831E+03  0.18145358156E+04  0.17013848726E+04 0.  0.
        2    1    3    3  502    0  0.46098430902E+03  0.28750955607E+03  0.38277224164E+03  0.66459225618E+03  0.25500000920E-02 0.  1.
       -2    1    3    3    0  502 -0.46098430902E+03 -0.28750955607E+03 -0.10135097000E+04  0.11499435594E+04  0.25500000920E-02 0. -1.
</event>
<event>
 5   0  0.1317625E-04  0.1707507E+04  0.7818609E-02  0.8757094E-01
        3   -1    0    0  501    0  0.00000000000E+00  0.00000000000E+00  0.65325169990E+03  0.65325170771E+03  0.10100000352E+00 0.  1.
       -3   -1    0    0    0  501  0.00000000000E+00  0.00000000000E+00 -0.11157953024E+04  0.11157953070E+04  0.10100000352E+00 0. -1.
    10030    2    1    2    0    0  0.00000000000E+00  0.00000000000E+00 -0.46254360255E+03  0.17690470147E+04  0.17075071760E+04 0.  0.
        4    1    3    3  502    0 -0.85816146510E+02 -0.83032156672E+03 -0.45663544003E+02  0.83599347325E+03  0.12699999809E+01 0.  1.
       -4    1    3    3    0  502  0.85816146510E+02  0.83032156672E+03 -0.41688005854E+03  0.93305354148E+03  0.12699999809E+01 0. -1.
</event>
<event>
 5   0  0.1920289E-04  0.1652181E+04  0.7818609E-02  0.8789118E-01
       -1   -1    0    0    0  501  0.00000000000E+00  0.00000000000E+00  0.35487620666E+03  0.35487620670E+03  0.50400001928E-02 0. -1.
        1   -1    0    0  501    0  0.00000000000E+00  0.00000000000E+00 -0.19229949791E+04  0.19229949791E+04  0.50400001928E-02 0.  1.
    10030    2    1    2    0    0  0.00000000000E+00  0.00000000000E+00 -0.15681187725E+04  0.22778711858E+04  0.16521805757E+04 0.  0.
        4    1    3    3  502    0  0.82547521582E+03  0.28880092605E+02 -0.76555393204E+03  0.11261961763E+04  0.12699999809E+01 0.  1.
       -4    1    3    3    0  502 -0.82547521582E+03 -0.28880092605E+02 -0.80256484043E+03  0.11516750096E+04  0.12699999809E+01 0. -1.
</event>
<event>
 5   0  0.3678896E-04  0.1699620E+04  0.7818609E-02  0.8761581E-01
        2   -1    0    0  501    0  0.00000000000E+00  0.00000000000E+00  0.11616639736E+04  0.11616639736E+04  0.25500000920E-02 0. -1.
       -2   -1    0    0    0  501  0.00000000000E+00  0.00000000000E+00 -0.62167497230E+03  0.62167497231E+03  0.25500000920E-02 0.  1.
    10030    2    1    2    0    0  0.00000000000E+00  0.00000000000E+00  0.53998900125E+03  0.17833389459E+04  0.16996204501E+04 0.  0.
        2    1    3    3  502    0 -0.19040788168E+03  0.79672940870E+03  0.32703404583E+02  0.81981853161E+03  0.25500000920E-02 0.  1.
       -2    1    3    3    0  502  0.19040788168E+03 -0.79672940870E+03  0.50728559666E+03  0.96352041425E+03  0.25500000920E-02 0. -1.
</event>
<event>
 5   0  0.1815663E-04  0.1701179E+04  0.7818609E-02  0.8760692E-01
       -1   -1    0    0    0  501  0.00000000000E+00  0.00000000000E+00  0.86327560427E+03  0.86327560429E+03  0.50400001928E-02 0. -1.
        1   -1    0    0  501    0  0.00000000000E+00  0.00000000000E+00 -0.83809017359E+03  0.83809017360E+03  0.50400001928E-02 0.  1.
    10030    2    1    2    0    0  0.00000000000E+00  0.00000000000E+00  0.25185430688E+02  0.17013657779E+04  0.17011793569E+04 0.  0.
        5    1    3    3  502    0  0.11023194850E+03  0.45279471683E+02  0.85487227526E+03  0.86315120925E+03  0.46999998093E+01 0. -1.
       -5    1    3    3    0  502 -0.11023194850E+03 -0.45279471683E+02 -0.82968684457E+03  0.83821456864E+03  0.46999998093E+01 0.  1.
</event>
<event>
 5   0  0.1815663E-04  0.1698009E+04  0.7818609E-02  0.8762501E-01
       -1   -1    0    0    0  501  0.00000000000E+00  0.00000000000E+00  0.69954920206E+03  0.69954920208E+03  0.50400001928E-02 0.  1.
        1   -1    0    0  501    0  0.00000000000E+00  0.00000000000E+00 -0.10303904879E+04  0.10303904879E+04  0.50400001928E-02 0. -1.
    10030    2    1    2    0    0  0.00000000000E+00  0.00000000000E+00 -0.33084128584E+03  0.17299396900E+04  0.16980092387E+04 0.  0.
        5    1    3    3  502    0 -0.32149491294E+03  0.72960920074E+03  0.13178090862E+03  0.80813171125E+03  0.46999998093E+01 0.  1.
       -5    1    3    3    0  502  0.32149491294E+03 -0.72960920074E+03 -0.46262219446E+03  0.92180797874E+03  0.46999998093E+01 0. -1.
</event>
<event>
 5   0  0.1824538E-04  0.1689662E+04  0.7818609E-02  0.8767282E-01
       -1   -1    0    0    0  501  0.00000000000E+00  0.00000000000E+00  0.50468274013E+03  0.50468274015E+03  0.50400001928E-02 0. -1.
        1   -1    0    0  501    0  0.00000000000E+00  0.00000000000E+00 -0.14142341273E+04  0.14142341273E+04  0.50400001928E-02 0.  1.
    10030    2    1    2    0    0  0.00000000000E+00  0.00000000000E+00 -0.90955138713E+03  0.19189168674E+04  0.16896621610E+04 0.  0.
        3    1    3    3  502    0 -0.53358626780E+03 -0.50615259383E+03  0.17365470288E+02  0.73566726391E+03  0.10100000352E+00 0. -1.
       -3    1    3    3    0  502  0.53358626780E+03  0.50615259383E+03 -0.92691685742E+03  0.11832496035E+04  0.10100000352E+00 0.  1.
</event>
<event>
 5   0  0.1893284E-04  0.1716068E+04  0.7818609E-02  0.8752253E-01
        1   -1    0    0  501    0  0.00000000000E+00  0.00000000000E+00  0.81880751289E+03  0.81880751291E+03  0.50400001928E-02 0.  1.
       -1   -1    0    0    0  501  0.00000000000E+00  0.00000000000E+00 -0.89914004838E+03  0.89914004840E+03  0.50400001928E-02 0. -1.
    10030    2    1    2    0    0  0.00000000000E+00  0.00000000000E+00 -0.80332535495E+02  0.17179475613E+04  0.17160683282E+04 0.  0.
        2    1    3    3  502    0  0.43345037915E+03  0.27431656601E+03  0.64840510563E+03  0.82677565916E+03  0.25500000920E-02 0.  1.
       -2    1    3    3    0  502 -0.43345037915E+03 -0.27431656601E+03 -0.72873764113E+03  0.89117190214E+03  0.25500000920E-02 0. -1.
</event>
<event>
 5   0  0.3573262E-04  0.1701462E+04  0.7818609E-02  0.8760531E-01
        2   -1    0    0  501    0  0.00000000000E+00  0.00000000000E+00  0.16386957469E+04  0.16386957469E+04  0.25500000920E-02 0. -1.
       -2   -1    0    0    0  501  0.00000000000E+00  0.00000000000E+00 -0.44165817289E+03  0.44165817290E+03  0.25500000920E-02 0.  1.
    10030    2    1    2    0    0  0.00000000000E+00  0.00000000000E+00  0.11970375740E+04  0.20803539198E+04  0.17014621589E+04 0.  0.
        5    1    3    3  502    0  0.21526011604E+03 -0.13863038454E+03 -0.39341491345E+03  0.46941738910E+03  0.46999998093E+01 0.  1.
       -5    1    3    3    0  502 -0.21526011604E+03  0.13863038454E+03  0.15904524875E+04  0.16109365307E+04  0.46999998093E+01 0. -1.
</event>
<event>
 5   0  0.1920289E-04  0.1689736E+04  0.7818609E-02  0.8767240E-01
       -1   -1    0    0    0  501  0.00000000000E+00  0.00000000000E+00  0.12742372120E+04  0.12742372121E+04  0.50400001928E-02 0.  1.
        1   -1    0    0  501    0  0.00000000000E+00  0.00000000000E+00 -0.56017986797E+03  0.56017986799E+03  0.50400001928E-02 0. -1.
    10030    2    1    2    0    0  0.00000000000E+00  0.00000000000E+00  0.71405734407E+03  0.18344170800E+04  0.16897361134E+04 0.  0.
        4    1    3    3  502    0  0.27653729883E+03  0.68926623514E+03 -0.80249332567E+02  0.74699557484E+03  0.12699999809E+01 0. -1.
       -4    1    3    3    0  502 -0.27653729883E+03 -0.68926623514E+03  0.79430667664E+03  0.10874215052E+04  0.12699999809E+01 0.  1.
</event>
<event>
 5   0  0.1815663E-04  0.1689940E+04  0.7818609E-02  0.8767123E-01
        1   -1    0    0  501    0  0.00000000000E+00  0.00000000000E+00  0.71532511119E+03  0.71532511121E+03  0.50400001928E-02 0.  1.
       -1   -1    0    0    0  501  0.00000000000E+00  0.00000000000E+00 -0.99811209860E+03  0.99811209861E+03  0.50400001928E-02 0. -1.
    10030    2    1    2    0    0  0.00000000000E+00  0.00000000000E+00 -0.28278698741E+03  0.17134372098E+04  0.16899404107E+04 0.  0.
        5    1    3    3  502    0 -0.29055579034E+02 -0.64765371606E+03 -0.69082558282E+03  0.94739729706E+03  0.46999998093E+01 0. -1.
       -5    1    3    3    0  502  0.29055579034E+02  0.64765371606E+03  0.40803859541E+03  0.76603991276E+03  0.46999998093E+01 0.  1.
</event>
<event>
 5   0  0.3678896E-04  0.1728250E+04  0.7818609E-02  0.8745415E-01
        2   -1    0    0  501    0  0.00000000000E+00  0.00000000000E+00  0.17631572898E+04  0.17631572898E+04  0.25500000920E-02 0.  1.
       -2   -1    0    0    0  501  0.00000000000E+00  0.00000000000E+00 -0.42350827923E+03  0.42350827924E+03  0.25500000920E-02 0. -1.
    10030    2    1    2    0    0  0.00000000000E+00  0.00000000000E+00  0.13396490105E+04  0.21866655690E+04  0.17282496461E+04 0.  0.
        2    1    3    3  502    0  0.16351106146E+03 -0.25307653948E+03  0.16945416696E+04  0.17211202957E+04  0.25500000920E-02 0.  1.
       -2    1    3    3    0  502 -0.16351106146E+03  0.25307653948E+03 -0.35489265909E+03  0.46554527335E+03  0.25500000920E-02 0. -1.
</event>
<event>
 5   0  0.1893284E-04  0.1732440E+04  0.7818609E-02  0.8743076E-01
        1   -1    0    0  501    0  0.00000000000E+00  0.00000000000E+00  0.90550483049E+03  0.90550483051E+03  0.50400001928E-02 0.  1.
       -1   -1    0    0    0  501  0.00000000000E+00  0.00000000000E+00 -0.82863923217E+03  0.82863923218E+03  0.50400001928E-02 0. -1.
    10030    2    1    2    0    0  0.00000000000E+00  0.00000000000E+00  0.76865598325E+02  0.17341440627E+04  0.17324396988E+04 0.  0.
        2    1    3    3  502    0  0.36781355107E+03 -0.42950848004E+03 -0.61839296978E+03  0.83795835687E+03  0.25500000920E-02 0. -1.
       -2    1    3    3    0  502 -0.36781355107E+03  0.42950848004E+03  0.69525856811E+03  0.89618570581E+03  0.25500000920E-02 0.  1.
</event>
<event>
 5   0  0.3573262E-04  0.1697679E+04  0.7818609E-02  0.8762689E-01
       -2   -1    0    0    0  501  0.00000000000E+00  0.00000000000E+00  0.40735966042E+03  0.40735966043E+03  0.25500000920E-02 0. -1.
        2   -1    0    0  501    0  0.00000000000E+00  0.00000000000E+00 -0.17687766889E+04  0.17687766889E+04  0.25500000920E-02 0.  1.
    10030    2    1    2    0    0  0.00000000000E+00  0.00000000000E+00 -0.13614170285E+04  0.21761363493E+04  0.16976787345E+04 0.  0.
        5    1    3    3  502    0 -0.52675566568E+02  0.69558155056E+02 -0.17629964295E+04  0.17651604892E+04  0.46999998093E+01 0.  1.
       -5    1    3    3    0  502  0.52675566568E+02 -0.69558155056E+02  0.40157940104E+03  0.41097586010E+03  0.46999998093E+01 0. -1.
</event>
<event>
 5   0  0.1930116E-04  0.1721181E+04  0.7818609E-02  0.8749376E-01
       -1   -1    0    0    0  501  0.00000000000E+00  0.00000000000E+00  0.29616853909E+03  0.29616853913E+03  0.50400001928E-02 0. -1.
        1   -1    0    0  501    0  0.00000000000E+00  0.00000000000E+00 -0.25006565846E+04  0.25006565846E+04  0.50400001928E-02 0.  1.
    10030    2    1    2    0    0  0.00000000000E+00  0.00000000000E+00 -0.22044880455E+04  0.27968251237E+04  0.17211807662E+04 0.  0.
        1    1    3    3  502    0 -0.73298692608E+03 -0.14868499938E+03 -0.41046983905E+03  0.85314861053E+03  0.50400001928E-02 0. -1.
       -1    1    3    3    0  502  0.73298692608E+03  0.14868499938E+03 -0.17940182065E+04  0.19436765132E+04  0.50400001928E-02 0.  1.
</event>
<event>
 5   0  0.3574092E-04  0.1687227E+04  0.7818609E-02  0.8768683E-01
       -2   -1    0    0    0  501  0.00000000000E+00  0.00000000000E+00  0.14615678286E+04  0.14615678286E+04  0.25500000920E-02 0. -1.
        2   -1    0    0  501    0  0.00000000000E+00  0.00000000000E+00 -0.48693173151E+03  0.48693173152E+03  0.25500000920E-02 0.  1.
    10030    2    1    2    0    0  0.00000000000E+00  0.00000000000E+00  0.97463609704E+03  0.19484995601E+04  0.16872270191E+04 0.  0.
        3    1    3    3  502    0 -0.17726016956E+03 -0.71381637072E+03  0.96449574819E+03  0.12129332370E+04  0.10100000352E+00 0.  1.
       -3    1    3    3    0  502  0.17726016956E+03  0.71381637072E+03  0.10140348846E+02  0.73556632311E+03  0.10100000352E+00 0. -1.
</event>
<event>
 5   0  0.3573262E-04  0.1710255E+04  0.7818609E-02  0.8755537E-01
       -2   -1    0    0    0  501  0.00000000000E+00  0.00000000000E+00  0.11068535989E+04  0.11068535989E+04  0.25500000920E-02 0.  1.
        2   -1    0    0  501    0  0.00000000000E+00  0.00000000000E+00 -0.66065047371E+03  0.66065047371E+03  0.25500000920E-02 0. -1.
    10030    2    1    2    0    0  0.00000000000E+00  0.00000000000E+00  0.44620312521E+03  0.17675040726E+04  0.17102553663E+04 0.  0.
        5    1    3    3  502    0 -0.33449047680E+03  0.25957509616E+03 -0.54470627054E+03  0.68992037278E+03  0.46999998093E+01 0. -1.
       -5    1    3    3    0  502  0.33449047680E+03 -0.25957509616E+03  0.99090939575E+03  0.10775836999E+04  0.46999998093E+01 0.  1.
</event>
<event>
 5   0  0.1930116E-04  0.1606749E+04  0.7818609E-02  0.8816413E-01
       -1   -1    0    0    0  501  0.00000000000E+00  0.00000000000E+00  0.86429809338E+03  0.86429809339E+03  0.50400001928E-02 0. -1.
        1   -1    0    0  501    0  0.00000000000E+00  0.00000000000E+00 -0.74674523739E+03  0.74674523740E+03  0.50400001928E-02 0.  1.
    10030    2    1    2    0    0  0.00000000000E+00  0.00000000000E+00  0.11755285599E+03  0.16110433308E+04  0.16067488726E+04 0.  0.
        1    1    3    3  502    0 -0.33351391398E+03 -0.61879472308E+03 -0.33120017889E+03  0.77706627687E+03  0.50400001928E-02 0.  1.
       -1    1    3    3    0  502  0.33351391398E+03  0.61879472308E+03  0.44875303488E+03  0.83397705392E+03  0.50400001928E-02 0. -1.
</event>
<event>
 5   0  0.3678896E-04  0.1687577E+04  0.7818609E-02  0.8768482E-01
        2   -1    0    0  501    0  0.00000000000E+00  0.00000000000E+00  0.20609138964E+04  0.20609138964E+04  0.25500000920E-02 0.  1.
       -2   -1    0    0    0  501  0.00000000000E+00  0.00000000000E+00 -0.34546751369E+03  0.34546751370E+03  0.25500000920E-02 0. -1.
    10030    2    1    2    0    0  0.00000000000E+00  0.00000000000E+00  0.17154463828E+04  0.24063814102E+04  0.16875767239E+04 0.  0.
        2    1    3    3  502    0 -0.54162559312E+03 -0.59619882171E+03  0.49933992901E+03  0.94770864871E+03  0.25500000920E-02 0.  1.
       -2    1    3    3    0  502  0.54162559312E+03  0.59619882171E+03  0.12161064537E+04  0.14586727614E+04  0.25500000920E-02 0. -1.
</event>
<event>
 5   0  0.3573262E-04  0.1702079E+04  0.7818609E-02  0.8760179E-01
       -2   -1    0    0    0  501  0.00000000000E+00  0.00000000000E+00  0.46707774902E+03  0.46707774903E+03  0.25500000920E-02 0.  1.
        2   -1    0    0  501    0  0.00000000000E+00  0.00000000000E+00 -0.15506381298E+04  0.15506381298E+04  0.25500000920E-02 0. -1.
    10030    2    1    2    0    0  0.00000000000E+00  0.00000000000E+00 -0.10835603808E+04  0.20177158788E+04  0.17020793956E+04 0.  0.
        5    1    3    3  502    0  0.17367923700E+03 -0.57632622219E+03 -0.12549493267E+04  0.13918463616E+04  0.46999998093E+01 0. -1.
       -5    1    3    3    0  502 -0.17367923700E+03  0.57632622219E+03  0.17138894596E+03  0.62586951719E+03  0.46999998093E+01 0.  1.
</event>
<event>
 5   0  0.1893284E-04  0.1709721E+04  0.7818609E-02  0.8755840E-01
       -1   -1    0    0    0  501  0.00000000000E+00  0.00000000000E+00  0.71030116700E+03  0.71030116702E+03  0.50400001928E-02 0.  1.
        1   -1    0    0  501    0  0.00000000000E+00  0.00000000000E+00 -0.10288399607E+04  0.10288399607E+04  0.50400001928E-02 0. -1.
    10030    2    1    2    0    0  0.00000000000E+00  0.00000000000E+00 -0.31853879366E+03  0.17391411277E+04  0.17097207079E+04 0.  0.
        2    1    3    3  502    0 -0.10460684596E+03 -0.83293245210E+03  0.49621318966E+01  0.83949013379E+03  0.25500000920E-02 0. -1.
       -2    1    3    3    0  502  0.10460684596E+03  0.83293245210E+03 -0.32350092556E+03  0.89965099390E+03  0.25500000920E-02 0.  1.
</event>
<event>
 5   0  0.3573262E-04  0.1714463E+04  0.7818609E-02  0.8753158E-01
       -2   -1    0    0    0  501  0.00000000000E+00  0.00000000000E+00  0.10236148804E+04  0.10236148804E+04  0.25500000920E-02 0. -1.
        2   -1    0    0  501    0  0.00000000000E+00  0.00000000000E+00 -0.71789288059E+03  0.71789288060E+03  0.25500000920E-02 0.  1.
    10030    2    1    2    0    0  0.00000000000E+00  0.00000000000E+00  0.30572199981E+03  0.17415077610E+04  0.17144629889E+04 0.  0.
        5    1    3    3  502    0  0.38468730750E+03 -0.53416945177E+03 -0.40489300747E+03  0.77284006446E+03  0.46999998093E+01 0.  1.
       -5    1    3    3    0  502 -0.38468730750E+03  0.53416945177E+03  0.71061500728E+03  0.96866769654E+03  0.46999998093E+01 0. -1.
</event>
<event>
 5   0  0.1920289E-04  0.1681189E+04  0.7818609E-02  0.8772166E-01
       -1   -1    0    0    0  501  0.00000000000E+00  0.00000000000E+00  0.34712257329E+03  0.34712257333E+03  0.50400001928E-02 0. -1.
        1   -1    0    0  501    0  0.00000000000E+00  0.00000000000E+00 -0.20355902601E+04  0.20355902601E+04  0.50400001928E-02 0.  1.
    10030    2    1    2    0    0  0.00000000000E+00  0.00000000000E+00 -0.16884676868E+04  0.23827128334E+04  0.16811892568E+04 0.  0.
        4    1    3    3  502    0  0.57029825147E+03 -0.20677941340E+03 -0.19529071672E+02  0.60694383511E+03  0.12699999809E+01 0. -1.
       -4    1    3    3    0  502 -0.57029825147E+03  0.20677941340E+03 -0.16689386151E+04  0.17757689983E+04  0.12699999809E+01 0.  1.
</event>
<event>
 5   0  0.1815663E-04  0.1699676E+04  0.7818609E-02  0.8761549E-01
        1   -1    0    0  501    0  0.00000000000E+00  0.00000000000E+00  0.11782743718E+04  0.11782743718E+04  0.50400001928E-02 0.  1.
       -1   -1    0    0    0  501  0.00000000000E+00  0.00000000000E+00 -0.61295100872E+03  0.61295100875E+03  0.50400001928E-02 0. -1.
    10030    2    1    2    0    0  0.00000000000E+00  0.00000000000E+00  0.56532336310E+03  0.17912253806E+04  0.16996758100E+04 0.  0.
        5    1    3    3  502    0  0.14728322698E+03  0.46455585524E+03 -0.45104031741E+03  0.66405116483E+03  0.46999998093E+01 0. -1.
       -5    1    3    3    0  502 -0.14728322698E+03 -0.46455585524E+03  0.10163636805E+04  0.11271742157E+04  0.46999998093E+01 0.  1.
</event>
<event>
 5   0  0.1815663E-04  0.1459023E+04  0.7818609E-02  0.8912169E-01
       -1   -1    0    0    0  501  0.00000000000E+00  0.00000000000E+00  0.45208820809E+03  0.45208820812E+03  0.50400001928E-02 0. -1.
        1   -1    0    0  501    0  0.00000000000E+00  0.00000000000E+00 -0.11771750654E+04  0.11771750654E+04  0.50400001928E-02 0.  1.
    10030    2    1    2    0    0  0.00000000000E+00  0.00000000000E+00 -0.72508685734E+03  0.16292632736E+04  0.14590229141E+04 0.  0.
        5    1    3    3  502    0 -0.28295052272E+03  0.37671898217E+03  0.25938546213E+03  0.53784858260E+03  0.46999998093E+01 0. -1.
       -5    1    3    3    0  502  0.28295052272E+03 -0.37671898217E+03 -0.98447231947E+03  0.10914146910E+04  0.46999998093E+01 0.  1.
</event>
<event>
 5   0  0.1317625E-04  0.1396931E+04  0.7818609E-02  0.8956043E-01
        3   -1    0    0  501    0  0.00000000000E+00  0.00000000000E+00  0.29013211230E+03  0.29013212988E+03  0.10100000352E+00 0. -1.
       -3   -1    0    0    0  501  0.00000000000E+00  0.00000000000E+00 -0.16814883696E+04  0.16814883726E+04  0.10100000352E+00 0.  1.
    10030    2    1    2    0    0  0.00000000000E+00  0.00000000000E+00 -0.13913562573E+04  0.19716205025E+04  0.13969306250E+04 0.  0.
        1    1    3    3  502    0 -0.94684973951E+02  0.67091264617E+03 -0.45630304797E+03  0.81688523961E+03  0.50400001928E-02 0. -1.
       -1    1    3    3    0  502  0.94684973951E+02 -0.67091264617E+03 -0.93505320932E+03  0.11547352629E+04  0.50400001928E-02 0.  1.
</event>
<event>
 5   0  0.3574092E-04  0.1701556E+04  0.7818609E-02  0.8760478E-01
       -2   -1    0    0    0  501  0.00000000000E+00  0.00000000000E+00  0.65108391474E+03  0.65108391475E+03  0.25500000920E-02 0. -1.
        2   -1    0    0  501    0  0.00000000000E+00  0.00000000000E+00 -0.11117196969E+04  0.11117196969E+04  0.25500000920E-02 0.  1.
    10030    2    1    2    0    0  0.00000000000E+00  0.00000000000E+00 -0.46063578218E+03  0.17628036117E+04  0.17015555382E+04 0.  0.
        3    1    3    3  502    0  0.82955513612E+03 -0.13503537969E+03 -0.36707918272E+03  0.91713871046E+03  0.10100000352E+00 0.  1.
       -3    1    3    3    0  502 -0.82955513612E+03  0.13503537969E+03 -0.93556599456E+02  0.84566490121E+03  0.10100000352E+00 0. -1.
</event>
<event>
 5   0  0.1815663E-04  0.1738837E+04  0.7818609E-02  0.8739519E-01
       -1   -1    0    0    0  501  0.00000000000E+00  0.00000000000E+00  0.38047073083E+03  0.38047073087E+03  0.50400001928E-02 0.  1.
        1   -1    0    0  501    0  0.00000000000E+00  0.00000000000E+00 -0.19867191639E+04  0.19867191639E+04  0.50400001928E-02 0. -1.
    10030    2    1    2    0    0  0.00000000000E+00  0.00000000000E+00 -0.16062484330E+04  0.23671898947E+04  0.17388369588E+04 0.  0.
        5    1    3    3  502    0  0.55949169583E+03  0.66527585420E+03 -0.82436683353E+03  0.11980090509E+04  0.46999998093E+01 0.  1.
       -5    1    3    3    0  502 -0.55949169583E+03 -0.66527585420E+03 -0.78188159951E+03  0.11691808438E+04  0.46999998093E+01 0. -1.
</event>
<event>
 5   0  0.1815663E-04  0.1702503E+04  0.7818609E-02  0.8759938E-01
       -1   -1    0    0    0  501  0.00000000000E+00  0.00000000000E+00  0.10514899730E+04  0.10514899730E+04  0.50400001928E-02 0.  1.
        1   -1    0    0  501    0  0.00000000000E+00  0.00000000000E+00 -0.68914542325E+03  0.68914542327E+03  0.50400001928E-02 0. -1.
    10030    2    1    2    0    0  0.00000000000E+00  0.00000000000E+00  0.36234454978E+03  0.17406353963E+04  0.17025034538E+04 0.  0.
        5    1    3    3  502    0 -0.20348803338E+03  0.76391551591E+03  0.50388914483E+03  0.93749701623E+03  0.46999998093E+01 0.  1.
       -5    1    3    3    0  502  0.20348803338E+03 -0.76391551591E+03 -0.14154459505E+03  0.80313838008E+03  0.46999998093E+01 0. -1.
</event>
<event>
 5   0  0.3574092E-04  0.1707911E+04  0.7818609E-02  0.8756865E-01
       -2   -1    0    0    0  501  0.00000000000E+00  0.00000000000E+00  0.38331115666E+03  0.38331115667E+03  0.25500000920E-02 0.  1.
        2   -1    0    0  501    0  0.00000000000E+00  0.00000000000E+00 -0.19024743840E+04  0.19024743840E+04  0.25500000920E-02 0. -1.
    10030    2    1    2    0    0  0.00000000000E+00  0.00000000000E+00 -0.15191632274E+04  0.22857855407E+04  0.17079106027E+04 0.  0.
        3    1    3    3  502    0 -0.33595955435E+03  0.78202214790E+03 -0.85242297103E+03  0.12045963613E+04  0.10100000352E+00 0.  1.
       -3    1    3    3    0  502  0.33595955435E+03 -0.78202214790E+03 -0.66674025634E+03  0.10811891794E+04  0.10100000352E+00 0. -1.
</event>
<event>
 5   0  0.3516723E-04  0.1602038E+04  0.7818609E-02  0.8819297E-01
        2   -1    0    0  501    0  0.00000000000E+00  0.00000000000E+00  0.47344336456E+03  0.47344336457E+03  0.25500000920E-02 0.  1.
       -2   -1    0    0    0  501  0.00000000000E+00  0.00000000000E+00 -0.13552437861E+04  0.13552437861E+04  0.25500000920E-02 0. -1.
    10030    2    1    2    0    0  0.00000000000E+00  0.00000000000E+00 -0.88180042152E+03  0.18286871506E+04  0.16020376748E+04 0.  0.
        1    1    3    3  502    0  0.14375944518E+03 -0.30221434221E+03  0.38981725601E+03  0.51376821605E+03  0.50400001928E-02 0.  1.
       -1    1    3    3    0  502 -0.14375944518E+03  0.30221434221E+03 -0.12716176775E+04  0.13149189346E+04  0.50400001928E-02 0. -1.
</event>
<event>
 5   0  0.3605571E-04  0.1706184E+04  0.7818609E-02  0.8757845E-01
        2   -1    0    0  501    0  0.00000000000E+00  0.00000000000E+00  0.16777822811E+04  0.16777822811E+04  0.25500000920E-02 0. -1.
       -2   -1    0    0    0  501  0.00000000000E+00  0.00000000000E+00 -0.43376660184E+03  0.43376660185E+03  0.25500000920E-02 0.  1.
    10030    2    1    2    0    0  0.00000000000E+00  0.00000000000E+00  0.12440156792E+04  0.21115488829E+04  0.17061839510E+04 0.  0.
        4    1    3    3  502    0  0.61801164926E+03 -0.42667452689E+03  0.12116811627E+03  0.76070551189E+03  0.12699999809E+01 0.  1.
       -4    1    3    3    0  502 -0.61801164926E+03  0.42667452689E+03  0.11228475630E+04  0.13508433710E+04  0.12699999809E+01 0. -1.
</event>
<event>
 5   0  0.1893284E-04  0.1703052E+04  0.7818609E-02  0.8759625E-01
       -1   -1    0    0    0  501  0.00000000000E+00  0.00000000000E+00  0.67876092535E+03  0.67876092537E+03  0.50400001928E-02 0.  1.
        1   -1    0    0  501    0  0.00000000000E+00  0.00000000000E+00 -0.10682655079E+04  0.10682655079E+04  0.50400001928E-02 0. -1.
    10030    2    1    2    0    0  0.00000000000E+00  0.00000000000E+00 -0.38950458250E+03  0.17470264332E+04  0.17030524180E+04 0.  0.
        2    1    3    3  502    0 -0.71576436215E+03  0.32353027453E+03 -0.53203743443E+03  0.94871191217E+03  0.25500000920E-02 0. -1.
       -2    1    3    3    0  502  0.71576436215E+03 -0.32353027453E+03  0.14253285192E+03  0.79831452106E+03  0.25500000920E-02 0.  1.
</event>
<event>
 5   0  0.3573262E-04  0.1416782E+04  0.7818609E-02  0.8941760E-01
        2   -1    0    0  501    0  0.00000000000E+00  0.00000000000E+00  0.22379465909E+03  0.22379465911E+03  0.25500000920E-02 0. -1.
       -2   -1    0    0    0  501  0.00000000000E+00  0.00000000000E+00 -0.22423126548E+04  0.22423126548E+04  0.25500000920E-02 0.  1.
    10030    2    1    2    0    0  0.00000000000E+00  0.00000000000E+00 -0.20185179957E+04  0.24661073140E+04  0.14167816998E+04 0.  0.
        5    1    3    3  502    0 -0.19325704676E+03 -0.37692750806E+03 -0.19975578206E+04  0.20419799140E+04  0.46999998093E+01 0.  1.
       -5    1    3    3    0  502  0.19325704676E+03  0.37692750806E+03 -0.20960175138E+02  0.42412739996E+03  0.46999998093E+01 0. -1.
</event>
<event>
 5   0  0.1920289E-04  0.1704470E+04  0.7818609E-02  0.8758819E-01
       -1   -1    0    0    0  501  0.00000000000E+00  0.00000000000E+00  0.17714417648E+04  0.17714417648E+04  0.50400001928E-02 0. -1.
        1   -1    0    0  501    0  0.00000000000E+00  0.00000000000E+00 -0.41000750137E+03  0.41000750140E+03  0.50400001928E-02 0.  1.
    10030    2    1    2    0    0  0.00000000000E+00  0.00000000000E+00  0.13614342634E+04  0.21814492662E+04  0.17044699022E+04 0.  0.
        4    1    3    3  502    0 -0.60534506428E+02 -0.54586933123E+03  0.15147420726E+04  0.16112364546E+04  0.12699999809E+01 0. -1.
       -4    1    3    3    0  502  0.60534506428E+02  0.54586933123E+03 -0.15330780918E+03  0.57021281159E+03  0.12699999809E+01 0.  1.
</event>
<event>
 5   0  0.3516723E-04  0.1702879E+04  0.7818609E-02  0.8759724E-01
        2   -1    0    0  501    0  0.00000000000E+00  0.00000000000E+00  0.11165842386E+04  0.11165842386E+04  0.25500000920E-02 0.  1.
       -2   -1    0    0    0  501  0.00000000000E+00  0.00000000000E+00 -0.64925593933E+03  0.64925593933E+03  0.25500000920E-02 0. -1.
    10030    2    1    2    0    0  0.00000000000E+00  0.00000000000E+00  0.46732829925E+03  0.17658401779E+04  0.17028786788E+04 0.  0.
        1    1    3    3  502    0  0.52812815304E+03  0.41258289778E+03 -0.31092466664E+03  0.73879506084E+03  0.50400001928E-02 0. -1.
       -1    1    3    3    0  502 -0.52812815304E+03 -0.41258289778E+03  0.77825296589E+03  0.10270451171E+04  0.50400001928E-02 0.  1.
</event>
<event>
 5   0  0.3573262E-04  0.1673374E+04  0.7818609E-02  0.8776698E-01
       -2   -1    0    0    0  501  0.00000000000E+00  0.00000000000E+00  0.10125333160E+04  0.10125333161E+04  0.25500000920E-02 0.  1.
        2   -1    0    0  501    0  0.00000000000E+00  0.00000000000E+00 -0.69137979316E+03  0.69137979316E+03  0.25500000920E-02 0. -1.
    10030    2    1    2    0    0  0.00000000000E+00  0.00000000000E+00  0.32115352289E+03  0.17039131092E+04  0.16733739267E+04 0.  0.
        5    1    3    3  502    0 -0.57350115787E+02 -0.61649844439E+03 -0.41242179830E+03  0.74395779277E+03  0.46999998093E+01 0. -1.
       -5    1    3    3    0  502  0.57350115787E+02  0.61649844439E+03  0.73357532119E+03  0.95995531645E+03  0.46999998093E+01 0.  1.
</event>
<event>
 5   0  0.3678896E-04  0.1721258E+04  0.7818609E-02  0.8749332E-01
       -2   -1    0    0    0  501  0.00000000000E+00  0.00000000000E+00  0.36985955134E+03  0.36985955135E+03  0.25500000920E-02 0. -1.
        2   -1    0    0  501    0  0.00000000000E+00  0.00000000000E+00 -0.20026041741E+04  0.20026041741E+04  0.25500000920E-02 0.  1.
    10030    2    1    2    0    0  0.00000000000E+00  0.00000000000E+00 -0.16327446228E+04  0.23724637255E+04  0.17212580066E+04 0.  0.
        2    1    3    3  502    0 -0.62094950442E+03  0.40379659462E+03 -0.21233555219E+03  0.77052992388E+03  0.25500000920E-02 0. -1.
       -2    1    3    3    0  502  0.62094950442E+03 -0.40379659462E+03 -0.14204090706E+04  0.16019338016E+04  0.25500000920E-02 0.  1.
</event>
<event>
 5   0  0.1930116E-04  0.1757657E+04  0.7818609E-02  0.8729147E-01
        1   -1    0    0  501    0  0.00000000000E+00  0.00000000000E+00  0.10339559197E+04  0.10339559197E+04  0.50400001928E-02 0. -1.
       -1   -1    0    0    0  501  0.00000000000E+00  0.00000000000E+00 -0.74697496422E+03  0.74697496424E+03  0.50400001928E-02 0.  1.
    10030    2    1    2    0    0  0.00000000000E+00  0.00000000000E+00  0.28698095549E+03  0.17809308840E+04  0.17576566060E+04 0.  0.
        1    1    3    3  502    0 -0.47704281380E+03  0.23262035541E+03 -0.56625409923E+03  0.77609650230E+03  0.50400001928E-02 0.  1.
       -1    1    3    3    0  502  0.47704281380E+03 -0.23262035541E+03  0.85323505472E+03  0.10048343817E+04  0.50400001928E-02 0. -1.
</event>
<event>
 5   0  0.1920289E-04  0.1703470E+04  0.7818609E-02  0.8759388E-01
        1   -1    0    0  501    0  0.00000000000E+00  0.00000000000E+00  0.34325475007E+03  0.34325475011E+03  0.50400001928E-02 0.  1.
       -1   -1    0    0    0  501  0.00000000000E+00  0.00000000000E+00 -0.21134514309E+04  0.21134514309E+04  0.50400001928E-02 0. -1.
    10030    2    1    2    0    0  0.00000000000E+00  0.00000000000E+00 -0.17701966808E+04  0.24567061810E+04  0.17034696859E+04 0.  0.
        4    1    3    3  502    0  0.48920416828E+02  0.21034722441E+03  0.30311218287E+03  0.37217975537E+03  0.12699999809E+01 0.  1.
       -4    1    3    3    0  502 -0.48920416828E+02 -0.21034722441E+03 -0.20733088637E+04  0.20845264256E+04  0.12699999809E+01 0. -1.
</event>
<event>
 5   0  0.3678896E-04  0.1674427E+04  0.7818609E-02  0.8776086E-01
       -2   -1    0    0    0  501  0.00000000000E+00  0.00000000000E+00  0.30799062014E+03  0.30799062015E+03  0.25500000920E-02 0.  1.
        2   -1    0    0  501    0  0.00000000000E+00  0.00000000000E+00 -0.22758042833E+04  0.22758042833E+04  0.25500000920E-02 0. -1.
    10030    2    1    2    0    0  0.00000000000E+00  0.00000000000E+00 -0.19678136631E+04  0.25837949034E+04  0.16744269139E+04 0.  0.
        2    1    3    3  502    0  0.81493988979E+03 -0.11306219152E+03 -0.12230427406E+04  0.14740229402E+04  0.25500000920E-02 0. -1.
       -2    1    3    3    0  502 -0.81493988979E+03  0.11306219152E+03 -0.74477092255E+03  0.11097719632E+04  0.25500000920E-02 0.  1.
</event>
<event>
 5   0  0.3573262E-04  0.1695757E+04  0.7818609E-02  0.8763788E-01
       -2   -1    0    0    0  501  0.00000000000E+00  0.00000000000E+00  0.54515485833E+03  0.54515485834E+03  0.25500000920E-02 0. -1.
        2   -1    0    0  501    0  0.00000000000E+00  0.00000000000E+00 -0.13187047922E+04  0.13187047922E+04  0.25500000920E-02 0.  1.
    10030    2    1    2    0    0  0.00000000000E+00  0.00000000000E+00 -0.77354993383E+03  0.18638596505E+04  0.16957574404E+04 0.  0.
        5    1    3    3  502    0 -0.81297577100E+03 -0.19684839953E+03 -0.23448546165E+03  0.86872574404E+03  0.46999998093E+01 0. -1.
       -5    1    3    3    0  502  0.81297577100E+03  0.19684839953E+03 -0.53906447218E+03  0.99513390646E+03  0.46999998093E+01 0.  1.
</event>
<event>
 5   0  0.1920289E-04  0.1819759E+04  0.7818609E-02  0.8695862E-01
        1   -1    0    0  501    0  0.00000000000E+00  0.00000000000E+00  0.78279199890E+03  0.78279199891E+03  0.50400001928E-02 0. -1.
       -1   -1    0    0    0  501  0.00000000000E+00  0.00000000000E+00 -0.10575997327E+04  0.10575997327E+04  0.50400001928E-02 0.  1.
    10030    2    1    2    0    0  0.00000000000E+00  0.00000000000E+00 -0.27480773381E+03  0.18403917316E+04  0.18197588948E+04 0.  0.
        4    1    3    3  502    0  0.35149931731E+03  0.49355121521E+03 -0.82387416877E+03  0.10226997756E+04  0.12699999809E+01 0.  1.
       -4    1    3    3    0  502 -0.35149931731E+03 -0.49355121521E+03  0.54906643496E+03  0.81769195606E+03  0.12699999809E+01 0. -1.
</event>
<event>
 5   0  0.1893284E-04  0.1712032E+04  0.7818609E-02  0.8754532E-01
        1   -1    0    0  501    0  0.00000000000E+00  0.00000000000E+00  0.31510754027E+03  0.31510754031E+03  0.50400001928E-02 0. -1.
       -1   -1    0    0    0  501  0.00000000000E+00  0.00000000000E+00 -0.23254396435E+04  0.23254396435E+04  0.50400001928E-02 0.  1.
    10030    2    1    2    0    0  0.00000000000E+00  0.00000000000E+00 -0.20103321032E+04  0.26405471838E+04  0.17120322031E+04 0.  0.
        2    1    3    3  502    0  0.11938663292E+02  0.79694888635E+03 -0.14867476117E+04  0.16869168682E+04  0.25500000920E-02 0.  1.
       -2    1    3    3    0  502 -0.11938663292E+02 -0.79694888635E+03 -0.52358449150E+03  0.95363031563E+03  0.25500000920E-02 0. -1.
</event>
<event>
 5   0  0.3605571E-04  0.1699221E+04  0.7818609E-02  0.8761809E-01
        2   -1    0    0  501    0  0.00000000000E+00  0.00000000000E+00  0.13476478323E+04  0.13476478323E+04  0.25500000920E-02 0. -1.
       -2   -1    0    0    0  501  0.00000000000E+00  0.00000000000E+00 -0.53562831239E+03  0.53562831240E+03  0.25500000920E-02 0.  1.
    10030    2    1    2    0    0  0.00000000000E+00  0.00000000000E+00  0.81201951988E+03  0.18832761447E+04  0.16992213912E+04 0.  0.
        4    1    3    3  502    0  0.49269681006E+03  0.68710918662E+03  0.49852297641E+03  0.98152735667E+03  0.12699999809E+01 0. -1.
       -4    1    3    3    0  502 -0.49269681006E+03 -0.68710918662E+03  0.31349654346E+03  0.90174878799E+03  0.12699999809E+01 0.  1.
</event>
<event>
 5   0  0.1317625E-04  0.1699309E+04  0.7818609E-02  0.8761758E-01
        3   -1    0    0  501    0  0.00000000000E+00  0.00000000000E+00  0.66753973988E+03  0.66753974752E+03  0.10100000352E+00 0. -1.
       -3   -1    0    0    0  501  0.00000000000E+00  0.00000000000E+00 -0.10814533762E+04  0.10814533809E+04  0.10100000352E+00 0.  1.
    10030    2    1    2    0    0  0.00000000000E+00  0.00000000000E+00 -0.41391363632E+03  0.17489931284E+04  0.16993094082E+04 0.  0.
        2    1    3    3  502    0  0.47688091034E+02  0.63916716315E+03  0.36711819977E+03  0.73863698059E+03  0.25500000920E-02 0. -1.
       -2    1    3    3    0  502 -0.47688091034E+02 -0.63916716315E+03 -0.78103183610E+03  0.10103561478E+04  0.25500000920E-02 0.  1.
</event>
<event>
 5   0  0.3605571E-04  0.1671809E+04  0.7818609E-02  0.8777608E-01
       -2   -1    0    0    0  501  0.00000000000E+00  0.00000000000E+00  0.43104386736E+03  0.43104386736E+03  0.25500000920E-02 0.  1.
        2   -1    0    0  501    0  0.00000000000E+00  0.00000000000E+00 -0.16210338282E+04  0.16210338282E+04  0.25500000920E-02 0. -1.
    10030    2    1    2    0    0  0.00000000000E+00  0.00000000000E+00 -0.11899899608E+04  0.20520776955E+04  0.16718094274E+04 0.  0.
        4    1    3    3  502    0 -0.29410761847E+03  0.56470191595E+03  0.69816100749E+02  0.64051810743E+03  0.12699999809E+01 0.  1.
       -4    1    3    3    0  502  0.29410761847E+03 -0.56470191595E+03 -0.12598060616E+04  0.14115595881E+04  0.12699999809E+01 0. -1.
</event>
<event>
 5   0  0.3605571E-04  0.1739854E+04  0.7818609E-02  0.8738955E-01
       -2   -1    0    0    0  501  0.00000000000E+00  0.00000000000E+00  0.10827786964E+04  0.10827786964E+04  0.25500000920E-02 0.  1.
        2   -1    0    0  501    0  0.00000000000E+00  0.00000000000E+00 -0.69891760591E+03  0.69891760592E+03  0.25500000920E-02 0. -1.
    10030    2    1    2    0    0  0.00000000000E+00  0.00000000000E+00  0.38386109053E+03  0.17816963024E+04  0.17398541252E+04 0.  0.
        4    1    3    3  502    0  0.27455312875E+03  0.87162807772E+02  0.10325213571E+04  0.10719509044E+04  0.12699999809E+01 0.  1.
       -4    1    3    3    0  502 -0.27455312875E+03 -0.87162807772E+02 -0.64866026661E+03  0.70974539797E+03  0.12699999809E+01 0. -1.
</event>
<event>
 5   0  0.3574092E-04  0.1734533E+04  0.7818609E-02  0.8741910E-01
        2   -1    0    0  501    0  0.00000000000E+00  0.00000000000E+00  0.22699297878E+04  0.22699297878E+04  0.25500000920E-02 0.  1.
       -2   -1    0    0    0  501  0.00000000000E+00  0.00000000000E+00 -0.33135430091E+03  0.33135430092E+03  0.25500000920E-02 0. -1.
    10030    2    1    2    0    0  0.00000000000E+00  0.00000000000E+00  0.19385754869E+04  0.26012840887E+04  0.17345327878E+04 0.  0.
        3    1    3    3  502    0  0.18839557393E+03  0.40612580501E+03  0.20832349415E+04  0.21307977129E+04  0.10100000352E+00 0.  1.
       -3    1    3    3    0  502 -0.18839557393E+03 -0.40612580501E+03 -0.14465945462E+03  0.47048637577E+03  0.10100000352E+00 0. -1.
</event>
<event>
 5   0  0.1893284E-04  0.1719202E+04  0.7818609E-02  0.8750488E-01
       -1   -1    0    0    0  501  0.00000000000E+00  0.00000000000E+00  0.89743219454E+03  0.89743219456E+03  0.50400001928E-02 0. -1.
        1   -1    0    0  501    0  0.00000000000E+00  0.00000000000E+00 -0.82336504728E+03  0.82336504729E+03  0.50400001928E-02 0.  1.
    10030    2    1    2    0    0  0.00000000000E+00  0.00000000000E+00  0.74067147268E+02  0.17207972419E+04  0.17192024911E+04 0.  0.
        2    1    3    3  502    0 -0.83765086100E+03 -0.18705402506E+03 -0.10614450475E+02  0.85834773827E+03  0.25500000920E-02 0.  1.
       -2    1    3    3    0  502  0.83765086100E+03  0.18705402506E+03  0.84681597742E+02  0.86244950358E+03  0.25500000920E-02 0. -1.
</event>
<event>
 5   0  0.1930116E-04  0.1777443E+04  0.7818609E-02  0.8718388E-01
        1   -1    0    0  501    0  0.00000000000E+00  0.00000000000E+00  0.10854828671E+04  0.10854828671E+04  0.50400001928E-02 0. -1.
       -1   -1    0    0    0  501  0.00000000000E+00  0.00000000000E+00 -0.72762603790E+03  0.72762603792E+03  0.50400001928E-02 0.  1.
    10030    2    1    2    0    0  0.00000000000E+00  0.00000000000E+00  0.35785682916E+03  0.18131089050E+04  0.17774426548E+04 0.  0.
        1    1    3    3  502    0  0.29798009957E+03 -0.28678777232E+03 -0.62348580045E+03  0.74818039903E+03  0.50400001928E-02 0.  1.
       -1    1    3    3    0  502 -0.29798009957E+03  0.28678777232E+03  0.98134262961E+03  0.10649285060E+04  0.50400001928E-02 0. -1.
</event>
<event>
 5   0  0.1815663E-04  0.1669038E+04  0.7818609E-02  0.8779223E-01
       -1   -1    0    0    0  501  0.00000000000E+00  0.00000000000E+00  0.41527373102E+03  0.41527373105E+03  0.50400001928E-02 0.  1.
        1   -1    0    0  501    0  0.00000000000E+00  0.00000000000E+00 -0.16770183727E+04  0.16770183727E+04  0.50400001928E-02 0. -1.
    10030    2    1    2    0    0  0.00000000000E+00  0.00000000000E+00 -0.12617446417E+04  0.20922921038E+04  0.16690376588E+04 0.  0.
        5    1    3    3  502    0 -0.13299664809E+03 -0.52742838573E+03  0.16249466858E+03  0.56771068141E+03  0.46999998093E+01 0.  1.
       -5    1    3    3    0  502  0.13299664809E+03  0.52742838573E+03 -0.14242393103E+04  0.15245814223E+04  0.46999998093E+01 0. -1.
</event>
<event>
 5   0  0.3516723E-04  0.1718897E+04  0.7818609E-02  0.8750659E-01
        2   -1    0    0  501    0  0.00000000000E+00  0.00000000000E+00  0.60855585518E+03  0.60855585519E+03  0.25500000920E-02 0.  1.
       -2   -1    0    0    0  501  0.00000000000E+00  0.00000000000E+00 -0.12137785205E+04  0.12137785205E+04  0.25500000920E-02 0. -1.
    10030    2    1    2    0    0  0.00000000000E+00  0.00000000000E+00 -0.60522266532E+03  0.18223343757E+04  0.17188973507E+04 0.  0.
        1    1    3    3  502    0 -0.31623661049E+03 -0.11078350633E+03  0.53645210041E+03  0.63250251790E+03  0.50400001928E-02 0.  1.
       -1    1    3    3    0  502  0.31623661049E+03  0.11078350633E+03 -0.11416747657E+04  0.11898318578E+04  0.50400001928E-02 0. -1.
</event>
<event>
 5   0  0.3573262E-04  0.1705830E+04  0.7818609E-02  0.8758046E-01
        2   -1    0    0  501    0  0.00000000000E+00  0.00000000000E+00  0.16081559647E+04  0.16081559647E+04  0.25500000920E-02 0.  1.
       -2   -1    0    0    0  501  0.00000000000E+00  0.00000000000E+00 -0.45235907491E+03  0.45235907491E+03  0.25500000920E-02 0. -1.
    10030    2    1    2    0    0  0.00000000000E+00  0.00000000000E+00  0.11557968897E+04  0.20605150396E+04  0.17058299382E+04 0.  0.
        5    1    3    3  502    0 -0.72772727592E+03  0.42229522595E+03  0.74666945749E+03  0.11249256041E+04  0.46999998093E+01 0.  1.
       -5    1    3    3    0  502  0.72772727592E+03 -0.42229522595E+03  0.40912743226E+03  0.93558943549E+03  0.46999998093E+01 0. -1.
</event>
<event>
 5   0  0.3605571E-04  0.1678868E+04  0.7818609E-02  0.8773509E-01
        2   -1    0    0  501    0  0.00000000000E+00  0.00000000000E+00  0.95060855980E+03  0.95060855980E+03  0.25500000920E-02 0. -1.
       -2   -1    0    0    0  501  0.00000000000E+00  0.00000000000E+00 -0.74126121430E+03  0.74126121431E+03  0.25500000920E-02 0.  1.
    10030    2    1    2    0    0  0.00000000000E+00  0.00000000000E+00  0.20934734550E+03  0.16918697741E+04  0.16788677796E+04 0.  0.
        4    1    3    3  502    0  0.72863311452E+03  0.40827103200E+03  0.20021987009E+02  0.83546031864E+03  0.12699999809E+01 0.  1.
       -4    1    3    3    0  502 -0.72863311452E+03 -0.40827103200E+03  0.18932535849E+03  0.85640945547E+03  0.12699999809E+01 0. -1.
</event>
<event>
 5   0  0.1815663E-04  0.1700667E+04  0.7818609E-02  0.8760984E-01
        1   -1    0    0  501    0  0.00000000000E+00  0.00000000000E+00  0.94589153905E+03  0.94589153906E+03  0.50400001928E-02 0.  1.
       -1   -1    0    0    0  501  0.00000000000E+00  0.00000000000E+00 -0.76442914719E+03  0.76442914721E+03  0.50400001928E-02 0. -1.
    10030    2    1    2    0    0  0.00000000000E+00  0.00000000000E+00  0.18146239185E+03  0.17103206863E+04  0.17006670016E+04 0.  0.
        5    1    3    3  502    0 -0.26675035374E+03 -0.47941152452E+03 -0.56261320978E+03  0.78584150748E+03  0.46999998093E+01 0. -1.
       -5    1    3    3    0  502  0.26675035374E+03  0.47941152452E+03  0.74407560164E+03  0.92447917879E+03  0.46999998093E+01 0.  1.
</event>
<event>
 5   0  0.1824538E-04  0.1718088E+04  0.7818609E-02  0.8751115E-01
       -1   -1    0    0    0  501  0.00000000000E+00  0.00000000000E+00  0.42611415938E+03  0.42611415941E+03  0.50400001928E-02 0. -1.
        1   -1    0    0  501    0  0.00000000000E+00  0.00000000000E+00 -0.17318281943E+04  0.17318281943E+04  0.50400001928E-02 0.  1.
    10030    2    1    2    0    0  0.00000000000E+00  0.00000000000E+00 -0.13057140349E+04  0.21579423537E+04  0.17180879084E+04 0.  0.
        3    1    3    3  502    0 -0.35798649464E+03  0.48135185862E+02  0.32609701769E+03  0.48663189539E+03  0.10100000352E+00 0. -1.
       -3    1    3    3    0  502  0.35798649464E+03 -0.48135185862E+02 -0.16318110526E+04  0.16713104583E+04  0.10100000352E+00 0.  1.
</event>
<event>
 5   0  0.1893284E-04  0.1678383E+04  0.7818609E-02  0.8773790E-01
        1   -1    0    0  501    0  0.00000000000E+00  0.00000000000E+00  0.11176289145E+04  0.11176289145E+04  0.50400001928E-02 0. -1.
       -1   -1    0    0    0  501  0.00000000000E+00  0.00000000000E+00 -0.63012162697E+03  0.63012162699E+03  0.50400001928E-02 0.  1.
    10030    2    1    2    0    0  0.00000000000E+00  0.00000000000E+00  0.48750728752E+03  0.17477505415E+04  0.16783827334E+04 0.  0.
        2    1    3    3  502    0  0.37869792213E+03 -0.32900873854E+02 -0.53533082976E+03  0.65656201613E+03  0.25500000920E-02 0.  1.
       -2    1    3    3    0  502 -0.37869792213E+03  0.32900873854E+02  0.10228381173E+04  0.10911885254E+04  0.25500000920E-02 0. -1.
</event>
<event>
 5   0  0.1893284E-04  0.1727239E+04  0.7818609E-02  0.8745980E-01
        1   -1    0    0  501    0  0.00000000000E+00  0.00000000000E+00  0.11074511858E+04  0.11074511858E+04  0.50400001928E-02 0.  1.
       -1   -1    0    0    0  501  0.00000000000E+00  0.00000000000E+00 -0.67347320711E+03  0.67347320713E+03  0.50400001928E-02 0. -1.
    10030    2    1    2    0    0  0.00000000000E+00  0.00000000000E+00  0.43397797870E+03  0.17809243929E+04  0.17272390707E+04 0.  0.
        2    1    3    3  502    0 -0.51680650111E+03 -0.40203208846E+03 -0.36364814281E+03  0.74897178286E+03  0.25500000920E-02 0. -1.
       -2    1    3    3    0  502  0.51680650111E+03  0.40203208846E+03  0.79762612151E+03  0.10319526101E+04  0.25500000920E-02 0.  1.
</event>
<event>
 5   0  0.1815663E-04  0.1711378E+04  0.7818609E-02  0.8754902E-01
       -1   -1    0    0    0  501  0.00000000000E+00  0.00000000000E+00  0.50875306876E+03  0.50875306879E+03  0.50400001928E-02 0.  1.
        1   -1    0    0  501    0  0.00000000000E+00  0.00000000000E+00 -0.14392120044E+04  0.14392120045E+04  0.50400001928E-02 0. -1.
    10030    2    1    2    0    0  0.00000000000E+00  0.00000000000E+00 -0.93045893568E+03  0.19479650732E+04  0.17113778354E+04 0.  0.
        5    1    3    3  502    0 -0.51800078779E+03  0.62461274860E+03 -0.15618941818E+03  0.82636742810E+03  0.46999998093E+01 0.  1.
       -5    1    3    3    0  502  0.51800078779E+03 -0.62461274860E+03 -0.77426951750E+03  0.11215976451E+04  0.46999998093E+01 0. -1.
</event>
<event>
 5   0  0.3516723E-04  0.1682415E+04  0.7818609E-02  0.8771458E-01
       -2   -1    0    0    0  501  0.00000000000E+00  0.00000000000E+00  0.40182356207E+03  0.40182356208E+03  0.25500000920E-02 0. -1.
        2   -1    0    0  501    0  0.00000000000E+00  0.00000000000E+00 -0.17610474251E+04  0.17610474251E+04  0.25500000920E-02 0.  1.
    10030    2    1    2    0    0  0.00000000000E+00  0.00000000000E+00 -0.13592238631E+04  0.21628709872E+04  0.16824153463E+04 0.  0.
        1    1    3    3  502    0 -0.71841752013E+03 -0.43475639379E+03 -0.61541687725E+03  0.10410930737E+04  0.50400001928E-02 0. -1.
       -1    1    3    3    0  502  0.71841752013E+03  0.43475639379E+03 -0.74380698581E+03  0.11217779136E+04  0.50400001928E-02 0.  1.
</event>
<event>
 5   0  0.1893284E-04  0.1700988E+04  0.7818609E-02  0.8760801E-01
        1   -1    0    0  501    0  0.00000000000E+00  0.00000000000E+00  0.69366569905E+03  0.69366569907E+03  0.50400001928E-02 0. -1.
       -1   -1    0    0    0  501  0.00000000000E+00  0.00000000000E+00 -0.10427794193E+04  0.10427794193E+04  0.50400001928E-02 0.  1.
    10030    2    1    2    0    0  0.00000000000E+00  0.00000000000E+00 -0.34911372026E+03  0.17364451184E+04  0.17009883185E+04 0.  0.
        2    1    3    3  502    0  0.31443175935E+03 -0.78641012307E+03 -0.95271305942E+02  0.85228213327E+03  0.25500000920E-02 0.  1.
       -2    1    3    3    0  502 -0.31443175935E+03  0.78641012307E+03 -0.25384241431E+03  0.88416298512E+03  0.25500000920E-02 0. -1.
</event>
<event>
 5   0  0.1930116E-04  0.1688909E+04  0.7818609E-02  0.8767716E-01
        1   -1    0    0  501    0  0.00000000000E+00  0.00000000000E+00  0.10589238305E+04  0.10589238305E+04  0.50400001928E-02 0. -1.
       -1   -1    0    0    0  501  0.00000000000E+00  0.00000000000E+00 -0.67342238821E+03  0.67342238823E+03  0.50400001928E-02 0.  1.
    10030    2    1    2    0    0  0.00000000000E+00  0.00000000000E+00  0.38550144230E+03  0.17323462187E+04  0.16889085409E+04 0.  0.
        1    1    3    3  502    0  0.11735821661E+03  0.82830603264E+03  0.74729771075E+02  0.83990974124E+03  0.50400001928E-02 0. -1.
       -1    1    3    3    0  502 -0.11735821661E+03 -0.82830603264E+03  0.31077167123E+03  0.89243647751E+03  0.50400001928E-02 0.  1.
</event>
<event>
 5   0  0.3605571E-04  0.1698126E+04  0.7818609E-02  0.8762434E-01
        2   -1    0    0  501    0  0.00000000000E+00  0.00000000000E+00  0.55240593563E+03  0.55240593563E+03  0.25500000920E-02 0.  1.
       -2   -1    0    0    0  501  0.00000000000E+00  0.00000000000E+00 -0.13050328897E+04  0.13050328897E+04  0.25500000920E-02 0. -1.
    10030    2    1    2    0    0  0.00000000000E+00  0.00000000000E+00 -0.75262695405E+03  0.18574388253E+04  0.16981259252E+04 0.  0.
        4    1    3    3  502    0 -0.27506954129E+03  0.65043358633E+03 -0.89189378900E+03  0.11376305404E+04  0.12699999809E+01 0. -1.
       -4    1    3    3    0  502  0.27506954129E+03 -0.65043358633E+03  0.13926683495E+03  0.71980828488E+03  0.12699999809E+01 0.  1.
</event>
<event>
 5   0  0.1815663E-04  0.1709121E+04  0.7818609E-02  0.8756179E-01
        1   -1    0    0  501    0  0.00000000000E+00  0.00000000000E+00  0.98741886108E+03  0.98741886109E+03  0.50400001928E-02 0.  1.
       -1   -1    0    0    0  501  0.00000000000E+00  0.00000000000E+00 -0.73957880982E+03  0.73957880984E+03  0.50400001928E-02 0. -1.
    10030    2    1    2    0    0  0.00000000000E+00  0.00000000000E+00  0.24784005125E+03  0.17269976709E+04  0.17091214891E+04 0.  0.
        5    1    3    3  502    0  0.26183558376E+03  0.16106571697E+03  0.92960017516E+03  0.97912134782E+03  0.46999998093E+01 0.  1.
       -5    1    3    3    0  502 -0.26183558376E+03 -0.16106571697E+03 -0.68176012391E+03  0.74787632310E+03  0.46999998093E+01 0. -1.
</event>
<event>
 5   0  0.1815663E-04  0.1695324E+04  0.7818609E-02  0.8764036E-01
        1   -1    0    0  501    0  0.00000000000E+00  0.00000000000E+00  0.18729232583E+04  0.18729232583E+04  0.50400001928E-02 0.  1.
       -1   -1    0    0    0  501  0.00000000000E+00  0.00000000000E+00 -0.38364122346E+03  0.38364122349E+03  0.50400001928E-02 0. -1.
    10030    2    1    2    0    0  0.00000000000E+00  0.00000000000E+00  0.14892820348E+04  0.22565644818E+04  0.16953236509E+04 0.  0.
        5    1    3    3  502    0 -0.46309153494E+02  0.70909748095E+03  0.13597322420E+04  0.15342286776E+04  0.46999998093E+01 0.  1.
       -5    1    3    3    0  502  0.46309153494E+02 -0.70909748095E+03  0.12954979280E+03  0.72233580418E+03  0.46999998093E+01 0. -1.
</event>
<event>
 5   0  0.1893284E-04  0.1695717E+04  0.7818609E-02  0.8763811E-01
        1   -1    0    0  501    0  0.00000000000E+00  0.00000000000E+00  0.14708269934E+04  0.14708269934E+04  0.50400001928E-02 0. -1.
       -1   -1    0    0    0  501  0.00000000000E+00  0.00000000000E+00 -0.48874841445E+03  0.48874841448E+03  0.50400001928E-02 0.  1.
    10030    2    1    2    0    0  0.00000000000E+00  0.00000000000E+00  0.98207857898E+03  0.19595754079E+04  0.16957173833E+04 0.  0.
        2    1    3    3  502    0  0.26473153287E+03 -0.36257596450E+03 -0.34012762282E+03  0.56323255796E+03  0.25500000920E-02 0.  1.
       -2    1    3    3    0  502 -0.26473153287E+03  0.36257596450E+03  0.13222062018E+04  0.13963428500E+04  0.25500000920E-02 0. -1.
</event>
<event>
 5   0  0.3516723E-04  0.1702656E+04  0.7818609E-02  0.8759851E-01
       -2   -1    0    0    0  501  0.00000000000E+00  0.00000000000E+00  0.95913752484E+03  0.95913752484E+03  0.25500000920E-02 0. -1.
        2   -1    0    0  501    0  0.00000000000E+00  0.00000000000E+00 -0.75563662066E+03  0.75563662066E+03  0.25500000920E-02 0.  1.
    10030    2    1    2    0    0  0.00000000000E+00  0.00000000000E+00  0.20350090418E+03  0.17147741455E+04  0.17026560874E+04 0.  0.
        1    1    3    3  502    0  0.19816668024E+03  0.17846565604E+03  0.91598421629E+03  0.95401630387E+03  0.50400001928E-02 0. -1.
       -1    1    3    3    0  502 -0.19816668024E+03 -0.17846565604E+03 -0.71248331211E+03  0.76075784163E+03  0.50400001928E-02 0.  1.
</event>
<event>
 5   0  0.1920289E-04  0.1679762E+04  0.7818609E-02  0.8772992E-01
       -1   -1    0    0    0  501  0.00000000000E+00  0.00000000000E+00  0.57935704075E+03  0.57935704078E+03  0.50400001928E-02 0.  1.
        1   -1    0    0  501    0  0.00000000000E+00  0.00000000000E+00 -0.12175565597E+04  0.12175565597E+04  0.50400001928E-02 0. -1.
    10030    2    1    2    0    0  0.00000000000E+00  0.00000000000E+00 -0.63819951893E+03  0.17969136005E+04  0.16797618467E+04 0.  0.
        4    1    3    3  502    0  0.62277215126E+03  0.18124348167E+03 -0.88988964388E+03  0.11011809766E+04  0.12699999809E+01 0.  1.
       -4    1    3    3    0  502 -0.62277215126E+03 -0.18124348167E+03  0.25169012495E+03  0.69573262388E+03  0.12699999809E+01 0. -1.
</event>
<event>
 5   0  0.3516723E-04  0.1691653E+04  0.7818609E-02  0.8766139E-01
        2   -1    0    0  501    0  0.00000000000E+00  0.00000000000E+00  0.10714727762E+04  0.10714727762E+04  0.25500000920E-02 0. -1.
       -2   -1    0    0    0  501  0.00000000000E+00  0.00000000000E+00 -0.66769996757E+03  0.66769996757E+03  0.25500000920E-02 0.  1.
    10030    2    1    2    0    0  0.00000000000E+00  0.00000000000E+00  0.40377280868E+03  0.17391727438E+04  0.16916528461E+04 0.  0.
        1    1    3    3  502    0  0.35470380239E+03  0.62249447169E+03  0.66407947048E+03  0.97689083211E+03  0.50400001928E-02 0.  1.
       -1    1    3    3    0  502 -0.35470380239E+03 -0.62249447169E+03 -0.26030666181E+03  0.76228191171E+03  0.50400001928E-02 0. -1.
</event>
<event>
 5   0  0.3574092E-04  0.1702339E+04  0.7818609E-02  0.8760031E-01
        2   -1    0    0  501    0  0.00000000000E+00  0.00000000000E+00  0.19391200815E+04  0.19391200815E+04  0.25500000920E-02 0.  1.
       -2   -1    0    0    0  501  0.00000000000E+00  0.00000000000E+00 -0.37361775072E+03  0.37361775073E+03  0.25500000920E-02 0. -1.
    10030    2    1    2    0    0  0.00000000000E+00  0.00000000000E+00  0.15655023308E+04  0.23127378323E+04  0.17023391945E+04 0.  0.
        3    1    3    3  502    0 -0.69201098488E+03 -0.11393554072E+02  0.14558656631E+04  0.16120030569E+04  0.10100000352E+00 0.  1.
       -3    1    3    3    0  502  0.69201098488E+03  0.11393554072E+02  0.10963666770E+03  0.70073477535E+03  0.10100000352E+00 0. -1.
</event>
<event>
 5   0  0.3574092E-04  0.1595952E+04  0.7818609E-02  0.8823039E-01
        2   -1    0    0  501    0  0.00000000000E+00  0.00000000000E+00  0.62163585615E+03  0.62163585615E+03  0.25500000920E-02 0.  1.
       -2   -1    0    0    0  501  0.00000000000E+00  0.00000000000E+00 -0.10243384464E+04  0.10243384464E+04  0.25500000920E-02 0. -1.
    10030    2    1    2    0    0  0.00000000000E+00  0.00000000000E+00 -0.40270259021E+03  0.16459743025E+04  0.15959517625E+04 0.  0.
        3    1    3    3  502    0 -0.31819607869E+03  0.73176350115E+03 -0.19491627552E+03  0.82141276516E+03  0.10100000352E+00 0. -1.
       -3    1    3    3    0  502  0.31819607869E+03 -0.73176350115E+03 -0.20778631469E+03  0.82456153735E+03  0.10100000352E+00 0.  1.
</event>
<event>
 5   0  0.1930116E-04  0.1584058E+04  0.7818609E-02  0.8830402E-01
        1   -1    0    0  501    0  0.00000000000E+00  0.00000000000E+00  0.97978470854E+03  0.97978470855E+03  0.50400001928E-02 0. -1.
       -1   -1    0    0    0  501  0.00000000000E+00  0.00000000000E+00 -0.64025323346E+03  0.64025323348E+03  0.50400001928E-02 0.  1.
    10030    2    1    2    0    0  0.00000000000E+00  0.00000000000E+00  0.33953147507E+03  0.16200379420E+04  0.15840584936E+04 0.  0.
        1    1    3    3  502    0 -0.31834814439E+03 -0.72594689615E+02  0.90774743463E+03  0.96468696223E+03  0.50400001928E-02 0. -1.
       -1    1    3    3    0  502  0.31834814439E+03  0.72594689615E+02 -0.56821595956E+03  0.65535097980E+03  0.50400001928E-02 0.  1.
</event>
<event>
 5   0  0.1815663E-04  0.1707876E+04  0.7818609E-02  0.8756885E-01
        1   -1    0    0  501    0  0.00000000000E+00  0.00000000000E+00  0.10886134151E+04  0.10886134151E+04  0.50400001928E-02 0.  1.
       -1   -1    0    0    0  501  0.00000000000E+00  0.00000000000E+00 -0.66985246222E+03  0.66985246224E+03  0.50400001928E-02 0. -1.
    10030    2    1    2    0    0  0.00000000000E+00  0.00000000000E+00  0.41876095290E+03  0.17584658774E+04  0.17078763147E+04 0.  0.
        5    1    3    3  502    0 -0.28590710859E+03 -0.64182678287E+03 -0.29028170814E+03  0.76024341762E+03  0.46999998093E+01 0. -1.
       -5    1    3    3    0  502  0.28590710859E+03  0.64182678287E+03  0.70904266104E+03  0.99822245974E+03  0.46999998093E+01 0.  1.
</event>
<event>
 5   0  0.3574092E-04  0.1696481E+04  0.7818609E-02  0.8763374E-01
       -2   -1    0    0    0  501  0.00000000000E+00  0.00000000000E+00  0.41775399747E+03  0.41775399748E+03  0.25500000920E-02 0. -1.
        2   -1    0    0  501    0  0.00000000000E+00  0.00000000000E+00 -0.17223344477E+04  0.17223344477E+04  0.25500000920E-02 0.  1.
    10030    2    1    2    0    0  0.00000000000E+00  0.00000000000E+00 -0.13045804502E+04  0.21400884452E+04  0.16964811824E+04 0.  0.
        3    1    3    3  502    0  0.98033056466E+02  0.37880826620E+03 -0.16016843998E+04  0.16487871632E+04  0.10100000352E+00 0.  1.
       -3    1    3    3    0  502 -0.98033056466E+02 -0.37880826620E+03  0.29710394953E+03  0.49130128204E+03  0.10100000352E+00 0. -1.
</event>
<event>
 5   0  0.1815663E-04  0.1689286E+04  0.7818609E-02  0.8767499E-01
       -1   -1    0    0    0  501  0.00000000000E+00  0.00000000000E+00  0.42638907523E+03  0.42638907526E+03  0.50400001928E-02 0.  1.
        1   -1    0    0  501    0  0.00000000000E+00  0.00000000000E+00 -0.16731707017E+04  0.16731707017E+04  0.50400001928E-02 0. -1.
    10030    2    1    2    0    0  0.00000000000E+00  0.00000000000E+00 -0.12467816265E+04  0.20995597769E+04  0.16892858944E+04 0.  0.
        5    1    3    3  502    0  0.62454331398E+03  0.10507973475E+03 -0.13179568218E+04  0.14622340360E+04  0.46999998093E+01 0. -1.
       -5    1    3    3    0  502 -0.62454331398E+03 -0.10507973475E+03  0.71175195385E+02  0.63732574099E+03  0.46999998093E+01 0.  1.
</event>
<event>
 5   0  0.3678896E-04  0.1732579E+04  0.7818609E-02  0.8742999E-01
        2   -1    0    0  501    0  0.00000000000E+00  0.00000000000E+00  0.11329735346E+04  0.11329735347E+04  0.25500000920E-02 0. -1.
       -2   -1    0    0    0  501  0.00000000000E+00  0.00000000000E+00 -0.66237848485E+03  0.66237848486E+03  0.25500000920E-02 0.  1.
    10030    2    1    2    0    0  0.00000000000E+00  0.00000000000E+00  0.47059504980E+03  0.17953520195E+04  0.17325787639E+04 0.  0.
        2    1    3    3  502    0  0.54645965157E+03 -0.46207901424E+02  0.93019380922E+03  0.10798212091E+04  0.25500000920E-02 0. -1.
       -2    1    3    3    0  502 -0.54645965157E+03  0.46207901424E+02 -0.45959875942E+03  0.71553081039E+03  0.25500000920E-02 0.  1.
</event>
<event>
 5   0  0.1824538E-04  0.1652830E+04  0.7818609E-02  0.8788734E-01
       -1   -1    0    0    0  501  0.00000000000E+00  0.00000000000E+00  0.45938503439E+03  0.45938503442E+03  0.50400001928E-02 0. -1.
        1   -1    0    0  501    0  0.00000000000E+00  0.00000000000E+00 -0.14866876394E+04  0.14866876394E+04  0.50400001928E-02 0.  1.
    10030    2    1    2    0    0  0.00000000000E+00  0.00000000000E+00 -0.10273026050E+04  0.19460726738E+04  0.16528303632E+04 0.  0.
        3    1    3    3  502    0 -0.53798797855E+03 -0.59749794773E+03 -0.73868048476E+03  0.10918258704E+04  0.10100000352E+00 0. -1.
       -3    1    3    3    0  502  0.53798797855E+03  0.59749794773E+03 -0.28862212026E+03  0.85424680340E+03  0.10100000352E+00 0.  1.
</event>
<event>
 5   0  0.1930116E-04  0.1672803E+04  0.7818609E-02  0.8777029E-01
        1   -1    0    0  501    0  0.00000000000E+00  0.00000000000E+00  0.46048478557E+03  0.46048478560E+03  0.50400001928E-02 0. -1.
       -1   -1    0    0    0  501  0.00000000000E+00  0.00000000000E+00 -0.15191981885E+04  0.15191981885E+04  0.50400001928E-02 0.  1.
    10030    2    1    2    0    0  0.00000000000E+00  0.00000000000E+00 -0.10587134029E+04  0.19796829741E+04  0.16728032187E+04 0.  0.
        1    1    3    3  502    0  0.44413687033E+03  0.46747755033E+03  0.10107454544E+03  0.65269356011E+03  0.50400001928E-02 0. -1.
       -1    1    3    3    0  502 -0.44413687033E+03 -0.46747755033E+03 -0.11597879483E+04  0.13269894140E+04  0.50400001928E-02 0.  1.
</event>
<event>
 5   0  0.1920289E-04  0.1694375E+04  0.7818609E-02  0.8764579E-01
       -1   -1    0    0    0  501  0.00000000000E+00  0.00000000000E+00  0.75553667781E+03  0.75553667783E+03  0.50400001928E-02 0. -1.
        1   -1    0    0  501    0  0.00000000000E+00  0.00000000000E+00 -0.94995633716E+03  0.94995633717E+03  0.50400001928E-02 0.  1.
    10030    2    1    2    0    0  0.00000000000E+00  0.00000000000E+00 -0.19441965935E+03  0.17054930150E+04  0.16943752301E+04 0.  0.
        4    1    3    3  502    0  0.43181148883E+03 -0.44004444669E+03 -0.68207751591E+03  0.91941917946E+03  0.12699999809E+01 0.  1.
       -4    1    3    3    0  502 -0.43181148883E+03  0.44004444669E+03  0.48765785656E+03  0.78607383554E+03  0.12699999809E+01 0. -1.
</event>
<event>
 5   0  0.3605571E-04  0.1697801E+04  0.7818609E-02  0.8762620E-01
       -2   -1    0    0    0  501  0.00000000000E+00  0.00000000000E+00  0.44836995958E+03  0.44836995958E+03  0.25500000920E-02 0. -1.
        2   -1    0    0  501    0  0.00000000000E+00  0.00000000000E+00 -0.16072264486E+04  0.16072264486E+04  0.25500000920E-02 0.  1.
    10030    2    1    2    0    0  0.00000000000E+00  0.00000000000E+00 -0.11588564891E+04  0.20555964082E+04  0.16978009987E+04 0.  0.
        4    1    3    3  502    0  0.26042324805E+03  0.35547705693E+02  0.39786250048E+03  0.47684388398E+03  0.12699999809E+01 0. -1.
       -4    1    3    3    0  502 -0.26042324805E+03 -0.35547705693E+02 -0.15567189895E+04  0.15787525242E+04  0.12699999809E+01 0.  1.
</event>
<event>
 5   0  0.1824538E-04  0.1717736E+04  0.7818609E-02  0.8751313E-01
        1   -1    0    0  501    0  0.00000000000E+00  0.00000000000E+00  0.70002305716E+03  0.70002305718E+03  0.50400001928E-02 0.  1.
       -1   -1    0    0    0  501  0.00000000000E+00  0.00000000000E+00 -0.10537564970E+04  0.10537564970E+04  0.50400001928E-02 0. -1.
    10030    2    1    2    0    0  0.00000000000E+00  0.00000000000E+00 -0.35373343986E+03  0.17537795542E+04  0.17177355379E+04 0.  0.
        3    1    3    3  502    0  0.73763509924E+03 -0.43204549502E+02  0.27013478437E+03  0.78673056675E+03  0.10100000352E+00 0.  1.
       -3    1    3    3    0  502 -0.73763509924E+03  0.43204549502E+02 -0.62386822423E+03  0.96704898746E+03  0.10100000352E+00 0. -1.
</event>
<event>
 5   0  0.1815663E-04  0.1702591E+04  0.7818609E-02  0.8759888E-01
        1   -1    0    0  501    0  0.00000000000E+00  0.00000000000E+00  0.11301235740E+04  0.11301235740E+04  0.50400001928E-02 0.  1.
       -1   -1    0    0    0  501  0.00000000000E+00  0.00000000000E+00 -0.64126111917E+03  0.64126111919E+03  0.50400001928E-02 0. -1.
    10030    2    1    2    0    0  0.00000000000E+00  0.00000000000E+00  0.48886245483E+03  0.17713846932E+04  0.17025913284E+04 0.  0.
        5    1    3    3  502    0 -0.18087436767E+03  0.71329888948E+02  0.11066996935E+04  0.11236591082E+04  0.46999998093E+01 0.  1.
       -5    1    3    3    0  502  0.18087436767E+03 -0.71329888948E+02 -0.61783723866E+03  0.64772558496E+03  0.46999998093E+01 0. -1.
</event>
<event>
 5   0  0.1920289E-04  0.1687645E+04  0.7818609E-02  0.8768443E-01
        1   -1    0    0  501    0  0.00000000000E+00  0.00000000000E+00  0.91601650272E+03  0.91601650273E+03  0.50400001928E-02 0.  1.
       -1   -1    0    0    0  501  0.00000000000E+00  0.00000000000E+00 -0.77731791474E+03  0.77731791476E+03  0.50400001928E-02 0. -1.
    10030    2    1    2    0    0  0.00000000000E+00  0.00000000000E+00  0.13869858798E+03  0.16933344175E+04  0.16876445571E+04 0.  0.
        4    1    3    3  502    0 -0.10370856620E+02  0.10271063070E+03 -0.77095703657E+03  0.77783892514E+03  0.12699999809E+01 0. -1.
       -4    1    3    3    0  502  0.10370856620E+02 -0.10271063070E+03  0.90965562455E+03  0.91549549234E+03  0.12699999809E+01 0.  1.
</event>
<event>
 5   0  0.3678896E-04  0.1652758E+04  0.7818609E-02  0.8788777E-01
        2   -1    0    0  501    0  0.00000000000E+00  0.00000000000E+00  0.69655336984E+03  0.69655336984E+03  0.25500000920E-02 0. -1.
       -2   -1    0    0    0  501  0.00000000000E+00  0.00000000000E+00 -0.98040140797E+03  0.98040140798E+03  0.25500000920E-02 0.  1.
    10030    2    1    2    0    0  0.00000000000E+00  0.00000000000E+00 -0.28384803814E+03  0.16769547778E+04  0.16527575800E+04 0.  0.
        2    1    3    3  502    0 -0.13615189330E+03  0.14871058985E+03 -0.95506183280E+03  0.97611233066E+03  0.25500000920E-02 0.  1.
       -2    1    3    3    0  502  0.13615189330E+03 -0.14871058985E+03  0.67121379467E+03  0.70084244716E+03  0.25500000920E-02 0. -1.
</event>
<event>
 5   0  0.3605571E-04  0.1704067E+04  0.7818609E-02  0.8759048E-01
        2   -1    0    0  501    0  0.00000000000E+00  0.00000000000E+00  0.64113591414E+03  0.64113591415E+03  0.25500000920E-02 0.  1.
       -2   -1    0    0    0  501  0.00000000000E+00  0.00000000000E+00 -0.11323042166E+04  0.11323042167E+04  0.25500000920E-02 0. -1.
    10030    2    1    2    0    0  0.00000000000E+00  0.00000000000E+00 -0.49116830250E+03  0.17734401308E+04  0.17040667816E+04 0.  0.
        4    1    3    3  502    0 -0.82618742919E+02  0.71339370700E+03 -0.72272787926E+03  0.10188688032E+04  0.12699999809E+01 0. -1.
       -4    1    3    3    0  502  0.82618742919E+02 -0.71339370700E+03  0.23155957676E+03  0.75457132755E+03  0.12699999809E+01 0.  1.
</event>
<event>
 5   0  0.3605571E-04  0.1690598E+04  0.7818609E-02  0.8766745E-01
        2   -1    0    0  501    0  0.00000000000E+00  0.00000000000E+00  0.14324723779E+04  0.14324723779E+04  0.25500000920E-02 0.  1.
       -2   -1    0    0    0  501  0.00000000000E+00  0.00000000000E+00 -0.49880913842E+03  0.49880913843E+03  0.25500000920E-02 0. -1.
    10030    2    1    2    0    0  0.00000000000E+00  0.00000000000E+00  0.93366323949E+03  0.19312815163E+04  0.16905978974E+04 0.  0.
        4    1    3    3  502    0 -0.66996154351E+01 -0.67607724878E+03 -0.11274702178E+03  0.68544790829E+03  0.12699999809E+01 0. -1.
       -4    1    3    3    0  502  0.66996154351E+01  0.67607724878E+03  0.10464102613E+04  0.12458336080E+04  0.12699999809E+01 0.  1.
</event>
<event>
 5   0  0.1920289E-04  0.1654109E+04  0.7818609E-02  0.8787979E-01
        1   -1    0    0  501    0  0.00000000000E+00  0.00000000000E+00  0.35965199864E+03  0.35965199867E+03  0.50400001928E-02 0.  1.
       -1   -1    0    0    0  501  0.00000000000E+00  0.00000000000E+00 -0.19018923799E+04  0.19018923799E+04  0.50400001928E-02 0. -1.
    10030    2    1    2    0    0  0.00000000000E+00  0.00000000000E+00 -0.15422403813E+04  0.22615443786E+04  0.16541093019E+04 0.  0.
        4    1    3    3  502    0 -0.77587136189E+03  0.53044256093E+02 -0.38628082682E+03  0.86833435575E+03  0.12699999809E+01 0.  1.
       -4    1    3    3    0  502  0.77587136189E+03 -0.53044256093E+02 -0.11559595544E+04  0.13932100228E+04  0.12699999809E+01 0. -1.
</event>
<event>
 5   0  0.3678896E-04  0.1420558E+04  0.7818609E-02  0.8939070E-01
        2   -1    0    0  501    0  0.00000000000E+00  0.00000000000E+00  0.13586251363E+04  0.13586251363E+04  0.25500000920E-02 0.  1.
       -2   -1    0    0    0  501  0.00000000000E+00  0.00000000000E+00 -0.37132877559E+03  0.37132877560E+03  0.25500000920E-02 0. -1.
    10030    2    1    2    0    0  0.00000000000E+00  0.00000000000E+00  0.98729636068E+03  0.17299539119E+04  0.14205584935E+04 0.  0.
        2    1    3    3  502    0  0.61099707539E+03 -0.89663771290E+02  0.66307473284E+02  0.62109073333E+03  0.25500000920E-02 0. -1.
       -2    1    3    3    0  502 -0.61099707539E+03  0.89663771290E+02  0.92098888740E+03  0.11088631785E+04  0.25500000920E-02 0.  1.
</event>
<event>
 5   0  0.3605571E-04  0.1696395E+04  0.7818609E-02  0.8763423E-01
       -2   -1    0    0    0  501  0.00000000000E+00  0.00000000000E+00  0.14454448621E+04  0.14454448621E+04  0.25500000920E-02 0.  1.
        2   -1    0    0  501    0  0.00000000000E+00  0.00000000000E+00 -0.49772869744E+03  0.49772869745E+03  0.25500000920E-02 0. -1.
    10030    2    1    2    0    0  0.00000000000E+00  0.00000000000E+00  0.94771616465E+03  0.19431735595E+04  0.16963954591E+04 0.  0.
        4    1    3    3  502    0 -0.54141686874E+03  0.40457924255E+03 -0.11315714965E+03  0.68529026163E+03  0.12699999809E+01 0. -1.
       -4    1    3    3    0  502  0.54141686874E+03 -0.40457924255E+03  0.10608733143E+04  0.12578832979E+04  0.12699999809E+01 0.  1.
</event>
<event>
 5   0  0.3573262E-04  0.1694916E+04  0.7818609E-02  0.8764269E-01
        2   -1    0    0  501    0  0.00000000000E+00  0.00000000000E+00  0.16430481143E+04  0.16430481143E+04  0.25500000920E-02 0. -1.
       -2   -1    0    0    0  501  0.00000000000E+00  0.00000000000E+00 -0.43710530397E+03  0.43710530397E+03  0.25500000920E-02 0.  1.
    10030    2    1    2    0    0  0.00000000000E+00  0.00000000000E+00  0.12059428104E+04  0.20801534183E+04  0.16949159808E+04 0.  0.
        5    1    3    3  502    0  0.65895831666E+03  0.53189170405E+03  0.56361943684E+03  0.10172628999E+04  0.46999998093E+01 0. -1.
       -5    1    3    3    0  502 -0.65895831666E+03 -0.53189170405E+03  0.64232337352E+03  0.10628905184E+04  0.46999998093E+01 0.  1.
</event>
<event>
 5   0  0.1317625E-04  0.1696177E+04  0.7818609E-02  0.8763548E-01
       -4   -1    0    0    0  501  0.00000000000E+00  0.00000000000E+00  0.13992590589E+04  0.13992596352E+04  0.12699999809E+01 0. -1.
        4   -1    0    0  501    0  0.00000000000E+00  0.00000000000E+00 -0.51402354791E+03  0.51402511681E+03  0.12699999809E+01 0.  1.
    10030    2    1    2    0    0  0.00000000000E+00  0.00000000000E+00  0.88523551098E+03  0.19132847520E+04  0.16961770640E+04 0.  0.
        3    1    3    3  502    0  0.46818273325E+03 -0.17708004618E+03  0.12148655985E+04  0.13139447656E+04  0.10100000352E+00 0. -1.
       -3    1    3    3    0  502 -0.46818273325E+03  0.17708004618E+03 -0.32963008756E+03  0.59933998639E+03  0.10100000352E+00 0.  1.
</event>
<event>
 5   0  0.3573262E-04  0.1707798E+04  0.7818609E-02  0.8756929E-01
        2   -1    0    0  501    0  0.00000000000E+00  0.00000000000E+00  0.12917358772E+04  0.12917358772E+04  0.25500000920E-02 0.  1.
       -2   -1    0    0    0  501  0.00000000000E+00  0.00000000000E+00 -0.56446811980E+03  0.56446811981E+03  0.25500000920E-02 0. -1.
    10030    2    1    2    0    0  0.00000000000E+00  0.00000000000E+00  0.72726775736E+03  0.18562039970E+04  0.17077982573E+04 0.  0.
        5    1    3    3  502    0 -0.70046701561E+03  0.80929149574E+02  0.88706124679E+03  0.11331828241E+04  0.46999998093E+01 0.  1.
       -5    1    3    3    0  502  0.70046701561E+03 -0.80929149574E+02 -0.15979348943E+03  0.72302117290E+03  0.46999998093E+01 0. -1.
</event>
<event>
 5   0  0.1815663E-04  0.1709334E+04  0.7818609E-02  0.8756059E-01
       -1   -1    0    0    0  501  0.00000000000E+00  0.00000000000E+00  0.66374626148E+03  0.66374626149E+03  0.50400001928E-02 0.  1.
        1   -1    0    0  501    0  0.00000000000E+00  0.00000000000E+00 -0.11005042828E+04  0.11005042829E+04  0.50400001928E-02 0. -1.
    10030    2    1    2    0    0  0.00000000000E+00  0.00000000000E+00 -0.43675802136E+03  0.17642505443E+04  0.17093339095E+04 0.  0.
        5    1    3    3  502    0 -0.31664079306E+03  0.67412882578E+03 -0.65103923812E+03  0.98923467648E+03  0.46999998093E+01 0. -1.
       -5    1    3    3    0  502  0.31664079306E+03 -0.67412882578E+03  0.21428121676E+03  0.77501586786E+03  0.46999998093E+01 0.  1.
</event>
<event>
 5   0  0.1893284E-04  0.1691000E+04  0.7818609E-02  0.8766514E-01
        1   -1    0    0  501    0  0.00000000000E+00  0.00000000000E+00  0.13143890336E+04  0.13143890336E+04  0.50400001928E-02 0.  1.
       -1   -1    0    0    0  501  0.00000000000E+00  0.00000000000E+00 -0.54387995387E+03  0.54387995390E+03  0.50400001928E-02 0. -1.
    10030    2    1    2    0    0  0.00000000000E+00  0.00000000000E+00  0.77050907974E+03  0.18582689875E+04  0.16909995234E+04 0.  0.
        2    1    3    3  502    0  0.35036583776E+03 -0.11442381255E+03  0.12214584290E+04  0.12758564664E+04  0.25500000920E-02 0.  1.
       -2    1    3    3    0  502 -0.35036583776E+03  0.11442381255E+03 -0.45094934925E+03  0.58241252110E+03  0.25500000920E-02 0. -1.
</event>
<event>
 5   0  0.3516723E-04  0.1706463E+04  0.7818609E-02  0.8757687E-01
       -2   -1    0    0    0  501  0.00000000000E+00  0.00000000000E+00  0.64733953393E+03  0.64733953394E+03  0.25500000920E-02 0. -1.
        2   -1    0    0  501    0  0.00000000000E+00  0.00000000000E+00 -0.11246087716E+04  0.11246087716E+04  0.25500000920E-02 0.  1.
    10030    2    1    2    0    0  0.00000000000E+00  0.00000000000E+00 -0.47726923770E+03  0.17719483056E+04  0.17064626783E+04 0.  0.
        1    1    3    3  502    0  0.48597854375E+03 -0.46753693889E+03  0.30414637327E+03  0.73977763592E+03  0.50400001928E-02 0. -1.
       -1    1    3    3    0  502 -0.48597854375E+03  0.46753693889E+03 -0.78141561097E+03  0.10321706697E+04  0.50400001928E-02 0.  1.
</event>
<event>
 5   0  0.1920289E-04  0.1682923E+04  0.7818609E-02  0.8771164E-01
        1   -1    0    0  501    0  0.00000000000E+00  0.00000000000E+00  0.14312671454E+04  0.14312671454E+04  0.50400001928E-02 0.  1.
       -1   -1    0    0    0  501  0.00000000000E+00  0.00000000000E+00 -0.49470685346E+03  0.49470685349E+03  0.50400001928E-02 0. -1.
    10030    2    1    2    0    0  0.00000000000E+00  0.00000000000E+00  0.93656029194E+03  0.19259739989E+04  0.16829232496E+04 0.  0.
        4    1    3    3  502    0  0.78001379971E+03 -0.17399941463E+03  0.16688470911E+03  0.81642479327E+03  0.12699999809E+01 0.  1.
       -4    1    3    3    0  502 -0.78001379971E+03  0.17399941463E+03  0.76967558282E+03  0.11095492056E+04  0.12699999809E+01 0. -1.
</event>
<event>
 5   0  0.3574092E-04  0.1700703E+04  0.7818609E-02  0.8760964E-01
        2   -1    0    0  501    0  0.00000000000E+00  0.00000000000E+00  0.90921243872E+03  0.90921243872E+03  0.25500000920E-02 0. -1.
       -2   -1    0    0    0  501  0.00000000000E+00  0.00000000000E+00 -0.79530095613E+03  0.79530095613E+03  0.25500000920E-02 0.  1.
    10030    2    1    2    0    0  0.00000000000E+00  0.00000000000E+00  0.11391148259E+03  0.17045133949E+04  0.17007028216E+04 0.  0.
        3    1    3    3  502    0  0.41443327268E+03  0.21564137634E+02 -0.68691851304E+03  0.80254408183E+03  0.10100000352E+00 0.  1.
       -3    1    3    3    0  502 -0.41443327268E+03 -0.21564137634E+02  0.80082999562E+03  0.90196931302E+03  0.10100000352E+00 0. -1.
</event>
<event>
 5   0  0.1815663E-04  0.1674376E+04  0.7818609E-02  0.8776115E-01
        1   -1    0    0  501    0  0.00000000000E+00  0.00000000000E+00  0.14387218238E+04  0.14387218238E+04  0.50400001928E-02 0. -1.
       -1   -1    0    0    0  501  0.00000000000E+00  0.00000000000E+00 -0.48715731918E+03  0.48715731921E+03  0.50400001928E-02 0.  1.
    10030    2    1    2    0    0  0.00000000000E+00  0.00000000000E+00  0.95156450462E+03  0.19258791430E+04  0.16743761426E+04 0.  0.
        5    1    3    3  502    0  0.33547029874E+03 -0.25676910451E+03  0.13071130692E+04  0.13736947842E+04  0.46999998093E+01 0. -1.
       -5    1    3    3    0  502 -0.33547029874E+03  0.25676910451E+03 -0.35554856459E+03  0.55218435884E+03  0.46999998093E+01 0.  1.
</event>
<event>
 5   0  0.1824538E-04  0.1719917E+04  0.7818609E-02  0.8750086E-01
       -1   -1    0    0    0  501  0.00000000000E+00  0.00000000000E+00  0.26759093908E+03  0.26759093913E+03  0.50400001928E-02 0. -1.
        1   -1    0    0  501    0  0.00000000000E+00  0.00000000000E+00 -0.27636523643E+04  0.27636523643E+04  0.50400001928E-02 0.  1.
    10030    2    1    2    0    0  0.00000000000E+00  0.00000000000E+00 -0.24960614252E+04  0.30312433034E+04  0.17199166626E+04 0.  0.
        3    1    3    3  502    0 -0.11170087406E+03 -0.41997590736E+02  0.25292704727E+03  0.27966584406E+03  0.10100000352E+00 0. -1.
       -3    1    3    3    0  502  0.11170087406E+03  0.41997590736E+02 -0.27489884725E+04  0.27515774594E+04  0.10100000352E+00 0.  1.
</event>
<event>
 5   0  0.1317625E-04  0.1731001E+04  0.7818609E-02  0.8743878E-01
        3   -1    0    0  501    0  0.00000000000E+00  0.00000000000E+00  0.51685944355E+03  0.51685945342E+03  0.10100000352E+00 0.  1.
       -3   -1    0    0    0  501  0.00000000000E+00  0.00000000000E+00 -0.14493132264E+04  0.14493132299E+04  0.10100000352E+00 0. -1.
    10030    2    1    2    0    0  0.00000000000E+00  0.00000000000E+00 -0.93245378283E+03  0.19661726833E+04  0.17310011449E+04 0.  0.
        1    1    3    3  502    0  0.82513176419E+02 -0.25367556294E+03 -0.14014542823E+04  0.14266162136E+04  0.50400001928E-02 0. -1.
       -1    1    3    3    0  502 -0.82513176419E+02  0.25367556294E+03  0.46900049945E+03  0.53955646973E+03  0.50400001928E-02 0.  1.
</event>
<event>
 5   0  0.3678896E-04  0.1705262E+04  0.7818609E-02  0.8758369E-01
        2   -1    0    0  501    0  0.00000000000E+00  0.00000000000E+00  0.10422946205E+04  0.10422946205E+04  0.25500000920E-02 0. -1.
       -2   -1    0    0    0  501  0.00000000000E+00  0.00000000000E+00 -0.69747988360E+03  0.69747988361E+03  0.25500000920E-02 0.  1.
    10030    2    1    2    0    0  0.00000000000E+00  0.00000000000E+00  0.34481473685E+03  0.17397745041E+04  0.17052618926E+04 0.  0.
        2    1    3    3  502    0 -0.25945943217E+03 -0.81184355777E+03  0.19677317044E+03  0.87471643397E+03  0.25500000920E-02 0. -1.
       -2    1    3    3    0  502  0.25945943217E+03  0.81184355777E+03  0.14804156641E+03  0.86505807009E+03  0.25500000920E-02 0.  1.
</event>
<event>
 5   0  0.3573262E-04  0.1752745E+04  0.7818609E-02  0.8731841E-01
        2   -1    0    0  501    0  0.00000000000E+00  0.00000000000E+00  0.11861576484E+04  0.11861576484E+04  0.25500000920E-02 0. -1.
       -2   -1    0    0    0  501  0.00000000000E+00  0.00000000000E+00 -0.64749265756E+03  0.64749265757E+03  0.25500000920E-02 0.  1.
    10030    2    1    2    0    0  0.00000000000E+00  0.00000000000E+00  0.53866499080E+03  0.18336503059E+04  0.17527445542E+04 0.  0.
        5    1    3    3  502    0 -0.22890375530E+02  0.15676631942E+03 -0.63237360090E+03  0.65193412958E+03  0.46999998093E+01 0.  1.
       -5    1    3    3    0  502  0.22890375530E+02 -0.15676631942E+03  0.11710385917E+04  0.11817161763E+04  0.46999998093E+01 0. -1.
</event>
<event>
 5   0  0.1920289E-04  0.1697742E+04  0.7818609E-02  0.8762653E-01
        1   -1    0    0  501    0  0.00000000000E+00  0.00000000000E+00  0.95185782819E+03  0.95185782820E+03  0.50400001928E-02 0.  1.
       -1   -1    0    0    0  501  0.00000000000E+00  0.00000000000E+00 -0.75702703035E+03  0.75702703036E+03  0.50400001928E-02 0. -1.
    10030    2    1    2    0    0  0.00000000000E+00  0.00000000000E+00  0.19483079785E+03  0.17088848586E+04  0.16977421536E+04 0.  0.
        4    1    3    3  502    0  0.55986676032E+03  0.62932175642E+03  0.20338614499E+03  0.86652420583E+03  0.12699999809E+01 0.  1.
       -4    1    3    3    0  502 -0.55986676032E+03 -0.62932175642E+03 -0.85553471395E+01  0.84236065274E+03  0.12699999809E+01 0. -1.
</event>
<event>
 5   0  0.3605571E-04  0.1732202E+04  0.7818609E-02  0.8743209E-01
        2   -1    0    0  501    0  0.00000000000E+00  0.00000000000E+00  0.20263399872E+04  0.20263399872E+04  0.25500000920E-02 0. -1.
       -2   -1    0    0    0  501  0.00000000000E+00  0.00000000000E+00 -0.37018997491E+03  0.37018997492E+03  0.25500000920E-02 0.  1.
    10030    2    1    2    0    0  0.00000000000E+00  0.00000000000E+00  0.16561500123E+04  0.23965299621E+04  0.17322017770E+04 0.  0.
        4    1    3    3  502    0 -0.44622136109E+03  0.31183879230E+03 -0.10389798467E+03  0.55421416401E+03  0.12699999809E+01 0.  1.
       -4    1    3    3    0  502  0.44622136109E+03 -0.31183879230E+03  0.17600479969E+04  0.18423157981E+04  0.12699999809E+01 0. -1.
</event>
<event>
 5   0  0.1815663E-04  0.1706203E+04  0.7818609E-02  0.8757835E-01
        1   -1    0    0  501    0  0.00000000000E+00  0.00000000000E+00  0.74799660058E+03  0.74799660060E+03  0.50400001928E-02 0.  1.
       -1   -1    0    0    0  501  0.00000000000E+00  0.00000000000E+00 -0.97297488863E+03  0.97297488864E+03  0.50400001928E-02 0. -1.
    10030    2    1    2    0    0  0.00000000000E+00  0.00000000000E+00 -0.22497828805E+03  0.17209714892E+04  0.17062026951E+04 0.  0.
        5    1    3    3  502    0  0.64788119130E+03  0.45456042849E+03  0.20867647207E+03  0.81850056884E+03  0.46999998093E+01 0.  1.
       -5    1    3    3    0  502 -0.64788119130E+03 -0.45456042849E+03 -0.43365476012E+03  0.90247092040E+03  0.46999998093E+01 0. -1.
</event>
<event>
 5   0  0.3678896E-04  0.1708912E+04  0.7818609E-02  0.8756298E-01
       -2   -1    0    0    0  501  0.00000000000E+00  0.00000000000E+00  0.56038658105E+03  0.56038658106E+03  0.25500000920E-02 0. -1.
        2   -1    0    0  501    0  0.00000000000E+00  0.00000000000E+00 -0.13028417160E+04  0.13028417160E+04  0.25500000920E-02 0.  1.
    10030    2    1    2    0    0  0.00000000000E+00  0.00000000000E+00 -0.74245513495E+03  0.18632282971E+04  0.17089119520E+04 0.  0.
        2    1    3    3  502    0  0.68388398538E+03  0.40875067802E+03 -0.34607695112E+02  0.79747859834E+03  0.25500000920E-02 0.  1.
       -2    1    3    3    0  502 -0.68388398538E+03 -0.40875067802E+03 -0.70784743983E+03  0.10657496987E+04  0.25500000920E-02 0. -1.
</event>
<event>
 5   0  0.3574092E-04  0.1608044E+04  0.7818609E-02  0.8815622E-01
       -2   -1    0    0    0  501  0.00000000000E+00  0.00000000000E+00  0.32462463563E+03  0.32462463564E+03  0.25500000920E-02 0.  1.
        2   -1    0    0  501    0  0.00000000000E+00  0.00000000000E+00 -0.19913799614E+04  0.19913799614E+04  0.25500000920E-02 0. -1.
    10030    2    1    2    0    0  0.00000000000E+00  0.00000000000E+00 -0.16667553257E+04  0.23160045970E+04  0.16080435248E+04 0.  0.
        3    1    3    3  502    0  0.56696792794E+03  0.38990688459E+02 -0.14226512979E+02  0.56848510005E+03  0.10100000352E+00 0.  1.
       -3    1    3    3    0  502 -0.56696792794E+03 -0.38990688459E+02 -0.16525288127E+04  0.17475194970E+04  0.10100000352E+00 0. -1.
</event>
<event>
 5   0  0.1893284E-04  0.1713044E+04  0.7818609E-02  0.8753960E-01
       -1   -1    0    0    0  501  0.00000000000E+00  0.00000000000E+00  0.60434101091E+03  0.60434101093E+03  0.50400001928E-02 0.  1.
        1   -1    0    0  501    0  0.00000000000E+00  0.00000000000E+00 -0.12139339874E+04  0.12139339874E+04  0.50400001928E-02 0. -1.
    10030    2    1    2    0    0  0.00000000000E+00  0.00000000000E+00 -0.60959297651E+03  0.18182749984E+04  0.17130441829E+04 0.  0.
        2    1    3    3  502    0  0.29899986427E+03  0.46667012300E+03 -0.99794154529E+03  0.11415205869E+04  0.25500000920E-02 0. -1.
       -2    1    3    3    0  502 -0.29899986427E+03 -0.46667012300E+03  0.38834856878E+03  0.67675441144E+03  0.25500000920E-02 0.  1.
</event>
<event>
 5   0  0.1815663E-04  0.1707757E+04  0.7818609E-02  0.8756953E-01
        1   -1    0    0  501    0  0.00000000000E+00  0.00000000000E+00  0.14199889096E+04  0.14199889096E+04  0.50400001928E-02 0. -1.
       -1   -1    0    0    0  501  0.00000000000E+00  0.00000000000E+00 -0.51346057193E+03  0.51346057195E+03  0.50400001928E-02 0.  1.
    10030    2    1    2    0    0  0.00000000000E+00  0.00000000000E+00  0.90652833768E+03  0.19334494816E+04  0.17077567950E+04 0.  0.
        5    1    3    3  502    0  0.77460779906E+03  0.12151350578E+03  0.70495411191E+02  0.78725756107E+03  0.46999998093E+01 0.  1.
       -5    1    3    3    0  502 -0.77460779906E+03 -0.12151350578E+03  0.83603292649E+03  0.11461919205E+04  0.46999998093E+01 0. -1.
</event>
<event>
 5   0  0.3574092E-04  0.1679450E+04  0.7818609E-02  0.8773172E-01
       -2   -1    0    0    0  501  0.00000000000E+00  0.00000000000E+00  0.47731048612E+03  0.47731048612E+03  0.25500000920E-02 0.  1.
        2   -1    0    0  501    0  0.00000000000E+00  0.00000000000E+00 -0.14773153169E+04  0.14773153169E+04  0.25500000920E-02 0. -1.
    10030    2    1    2    0    0  0.00000000000E+00  0.00000000000E+00 -0.10000048308E+04  0.19546258031E+04  0.16794500196E+04 0.  0.
        3    1    3    3  502    0 -0.23365241210E+03  0.14221060619E+03  0.42400903869E+03  0.50458000484E+03  0.10100000352E+00 0.  1.
       -3    1    3    3    0  502  0.23365241210E+03 -0.14221060619E+03 -0.14240138695E+04  0.14500457982E+04  0.10100000352E+00 0. -1.
</event>
<event>
 5   0  0.3574092E-04  0.1687909E+04  0.7818609E-02  0.8768290E-01
       -2   -1    0    0    0  501  0.00000000000E+00  0.00000000000E+00  0.14525534348E+04  0.14525534348E+04  0.25500000920E-02 0. -1.
        2   -1    0    0  501    0  0.00000000000E+00  0.00000000000E+00 -0.49034995856E+03  0.49034995857E+03  0.25500000920E-02 0.  1.
    10030    2    1    2    0    0  0.00000000000E+00  0.00000000000E+00  0.96220347623E+03  0.19429033934E+04  0.16879093774E+04 0.  0.
        3    1    3    3  502    0 -0.26597460347E+03  0.73721746368E+02 -0.43693206988E+03  0.51680463375E+03  0.10100000352E+00 0.  1.
       -3    1    3    3    0  502  0.26597460347E+03 -0.73721746368E+02  0.13991355461E+04  0.14260987596E+04  0.10100000352E+00 0. -1.
</event>
<event>
 5   0  0.3678896E-04  0.1693306E+04  0.7818609E-02  0.8765192E-01
        2   -1    0    0  501    0  0.00000000000E+00  0.00000000000E+00  0.18009717977E+04  0.18009717977E+04  0.25500000920E-02 0.  1.
       -2   -1    0    0    0  501  0.00000000000E+00  0.00000000000E+00 -0.39801899435E+03  0.39801899436E+03  0.25500000920E-02 0. -1.
    10030    2    1    2    0    0  0.00000000000E+00  0.00000000000E+00  0.14029528033E+04  0.21989907920E+04  0.16933056237E+04 0.  0.
        2    1    3    3  502    0  0.68100550240E+03  0.16130378397E+03  0.82700904740E+02  0.70471756376E+03  0.25500000920E-02 0. -1.
       -2    1    3    3    0  502 -0.68100550240E+03 -0.16130378397E+03  0.13202518986E+04  0.14942732283E+04  0.25500000920E-02 0.  1.
</event>
<event>
 5   0  0.1930116E-04  0.1690787E+04  0.7818609E-02  0.8766637E-01
        1   -1    0    0  501    0  0.00000000000E+00  0.00000000000E+00  0.17421521186E+04  0.17421521186E+04  0.50400001928E-02 0.  1.
       -1   -1    0    0    0  501  0.00000000000E+00  0.00000000000E+00 -0.41023392374E+03  0.41023392378E+03  0.50400001928E-02 0. -1.
    10030    2    1    2    0    0  0.00000000000E+00  0.00000000000E+00  0.13319181949E+04  0.21523860424E+04  0.16907866801E+04 0.  0.
        1    1    3    3  502    0  0.58377223160E+03  0.56855502611E+03  0.95244279173E+03  0.12534720211E+04  0.50400001928E-02 0.  1.
       -1    1    3    3    0  502 -0.58377223160E+03 -0.56855502611E+03  0.37947540314E+03  0.89891402131E+03  0.50400001928E-02 0. -1.
</event>
<event>
 5   0  0.3605571E-04  0.1715076E+04  0.7818609E-02  0.8752813E-01
       -2   -1    0    0    0  501  0.00000000000E+00  0.00000000000E+00  0.11313784220E+04  0.11313784220E+04  0.25500000920E-02 0. -1.
        2   -1    0    0  501    0  0.00000000000E+00  0.00000000000E+00 -0.64997799355E+03  0.64997799356E+03  0.25500000920E-02 0.  1.
    10030    2    1    2    0    0  0.00000000000E+00  0.00000000000E+00  0.48140042844E+03  0.17813564156E+04  0.17150755980E+04 0.  0.
        4    1    3    3  502    0 -0.41921396691E+03 -0.32172939101E+03  0.94216647157E+03  0.10802450760E+04  0.12699999809E+01 0. -1.
       -4    1    3    3    0  502  0.41921396691E+03  0.32172939101E+03 -0.46076604313E+03  0.70111133959E+03  0.12699999809E+01 0.  1.
</event>
<event>
 5   0  0.3574092E-04  0.1735144E+04  0.7818609E-02  0.8741571E-01
        2   -1    0    0  501    0  0.00000000000E+00  0.00000000000E+00  0.60755317595E+03  0.60755317595E+03  0.25500000920E-02 0. -1.
       -2   -1    0    0    0  501  0.00000000000E+00  0.00000000000E+00 -0.12388722050E+04  0.12388722050E+04  0.25500000920E-02 0.  1.
    10030    2    1    2    0    0  0.00000000000E+00  0.00000000000E+00 -0.63131902905E+03  0.18464253809E+04  0.17351435016E+04 0.  0.
        3    1    3    3  502    0 -0.57188701881E+03  0.68797108059E+02 -0.10060299386E+04  0.11592601313E+04  0.10100000352E+00 0.  1.
       -3    1    3    3    0  502  0.57188701881E+03 -0.68797108059E+02  0.37471090959E+03  0.68716524966E+03  0.10100000352E+00 0. -1.
</event>
<event>
 5   0  0.1893284E-04  0.1710226E+04  0.7818609E-02  0.8755553E-01
        1   -1    0    0  501    0  0.00000000000E+00  0.00000000000E+00  0.11234393153E+04  0.11234393153E+04  0.50400001928E-02 0.  1.
       -1   -1    0    0    0  501  0.00000000000E+00  0.00000000000E+00 -0.65087475677E+03  0.65087475679E+03  0.50400001928E-02 0. -1.
    10030    2    1    2    0    0  0.00000000000E+00  0.00000000000E+00  0.47256455854E+03  0.17743140721E+04  0.17102260565E+04 0.  0.
        2    1    3    3  502    0 -0.39797582301E+03 -0.43633194866E+03  0.87788050719E+03  0.10580380475E+04  0.25500000920E-02 0.  1.
       -2    1    3    3    0  502  0.39797582301E+03  0.43633194866E+03 -0.40531594866E+03  0.71627602457E+03  0.25500000920E-02 0. -1.
</event>
<event>
 5   0  0.1930116E-04  0.1740674E+04  0.7818609E-02  0.8738500E-01
       -1   -1    0    0    0  501  0.00000000000E+00  0.00000000000E+00  0.70489870373E+03  0.70489870375E+03  0.50400001928E-02 0. -1.
        1   -1    0    0  501    0  0.00000000000E+00  0.00000000000E+00 -0.10746034386E+04  0.10746034386E+04  0.50400001928E-02 0.  1.
    10030    2    1    2    0    0  0.00000000000E+00  0.00000000000E+00 -0.36970473486E+03  0.17795021424E+04  0.17406740889E+04 0.  0.
        1    1    3    3  502    0  0.86115393520E+03  0.12585784547E+03 -0.17691558749E+03  0.88810214643E+03  0.50400001928E-02 0. -1.
       -1    1    3    3    0  502 -0.86115393520E+03 -0.12585784547E+03 -0.19278914737E+03  0.89139999593E+03  0.50400001928E-02 0.  1.
</event>
<event>
 5   0  0.3516723E-04  0.1702257E+04  0.7818609E-02  0.8760078E-01
       -2   -1    0    0    0  501  0.00000000000E+00  0.00000000000E+00  0.65869565824E+03  0.65869565824E+03  0.25500000920E-02 0.  1.
        2   -1    0    0  501    0  0.00000000000E+00  0.00000000000E+00 -0.10997785927E+04  0.10997785927E+04  0.25500000920E-02 0. -1.
    10030    2    1    2    0    0  0.00000000000E+00  0.00000000000E+00 -0.44108293442E+03  0.17584742509E+04  0.17022566011E+04 0.  0.
        1    1    3    3  502    0  0.81685914032E+02 -0.73266964661E+03  0.21887938379E+03  0.76901598442E+03  0.50400001928E-02 0. -1.
       -1    1    3    3    0  502 -0.81685914032E+02  0.73266964661E+03 -0.65996231821E+03  0.98945826648E+03  0.50400001928E-02 0.  1.
</event>
<event>
 5   0  0.1815663E-04  0.1416603E+04  0.7818609E-02  0.8941887E-01
       -1   -1    0    0    0  501  0.00000000000E+00  0.00000000000E+00  0.80781248850E+03  0.80781248851E+03  0.50400001928E-02 0. -1.
        1   -1    0    0  501    0  0.00000000000E+00  0.00000000000E+00 -0.62104909685E+03  0.62104909687E+03  0.50400001928E-02 0.  1.
    10030    2    1    2    0    0  0.00000000000E+00  0.00000000000E+00  0.18676339165E+03  0.14288615854E+04  0.14166032845E+04 0.  0.
        5    1    3    3  502    0  0.70187912794E+03 -0.56774817704E+02  0.17027413820E+03  0.72448123668E+03  0.46999998093E+01 0.  1.
       -5    1    3    3    0  502 -0.70187912794E+03  0.56774817704E+02  0.16489253443E+02  0.70438034870E+03  0.46999998093E+01 0. -1.
</event>
<event>
 5   0  0.1930116E-04  0.1703304E+04  0.7818609E-02  0.8759482E-01
        1   -1    0    0  501    0  0.00000000000E+00  0.00000000000E+00  0.15266338347E+04  0.15266338347E+04  0.50400001928E-02 0.  1.
       -1   -1    0    0    0  501  0.00000000000E+00  0.00000000000E+00 -0.47510466989E+03  0.47510466991E+03  0.50400001928E-02 0. -1.
    10030    2    1    2    0    0  0.00000000000E+00  0.00000000000E+00  0.10515291648E+04  0.20017385046E+04  0.17033036889E+04 0.  0.
        1    1    3    3  502    0  0.49723470875E+03 -0.68674656119E+03  0.43139834697E+03  0.95129791795E+03  0.50400001928E-02 0.  1.
       -1    1    3    3    0  502 -0.49723470875E+03  0.68674656119E+03  0.62013081786E+03  0.10504405867E+04  0.50400001928E-02 0. -1.
</event>
<event>
 5   0  0.3574092E-04  0.1701844E+04  0.7818609E-02  0.8760313E-01
        2   -1    0    0  501    0  0.00000000000E+00  0.00000000000E+00  0.42760947615E+03  0.42760947616E+03  0.25500000920E-02 0. -1.
       -2   -1    0    0    0  501  0.00000000000E+00  0.00000000000E+00 -0.16932935662E+04  0.16932935662E+04  0.25500000920E-02 0.  1.
    10030    2    1    2    0    0  0.00000000000E+00  0.00000000000E+00 -0.12656840900E+04  0.21209030423E+04  0.17018441466E+04 0.  0.
        3    1    3    3  502    0  0.36602004326E+03  0.24887516055E+02  0.32398830529E+03  0.48944712961E+03  0.10100000352E+00 0. -1.
       -3    1    3    3    0  502 -0.36602004326E+03 -0.24887516055E+02 -0.15896723953E+04  0.16314559127E+04  0.10100000352E+00 0.  1.
</event>
<event>
 5   0  0.1930116E-04  0.1660305E+04  0.7818609E-02  0.8784334E-01
       -1   -1    0    0    0  501  0.00000000000E+00  0.00000000000E+00  0.52152932398E+03  0.52152932400E+03  0.50400001928E-02 0. -1.
        1   -1    0    0  501    0  0.00000000000E+00  0.00000000000E+00 -0.13214077404E+04  0.13214077405E+04  0.50400001928E-02 0.  1.
    10030    2    1    2    0    0  0.00000000000E+00  0.00000000000E+00 -0.79987841646E+03  0.18429370645E+04  0.16603046535E+04 0.  0.
        1    1    3    3  502    0 -0.16831662568E+03 -0.61687282880E+03 -0.98760006370E+03  0.11765272879E+04  0.50400001928E-02 0.  1.
       -1    1    3    3    0  502  0.16831662568E+03  0.61687282880E+03  0.18772164723E+03  0.66640977653E+03  0.50400001928E-02 0. -1.
</event>
<event>
 5   0  0.1930116E-04  0.1696380E+04  0.7818609E-02  0.8763432E-01
       -1   -1    0    0    0  501  0.00000000000E+00  0.00000000000E+00  0.82283454210E+03  0.82283454211E+03  0.50400001928E-02 0.  1.
        1   -1    0    0  501    0  0.00000000000E+00  0.00000000000E+00 -0.87432641060E+03  0.87432641062E+03  0.50400001928E-02 0. -1.
    10030    2    1    2    0    0  0.00000000000E+00  0.00000000000E+00 -0.51491868506E+02  0.16971609527E+04  0.16963796412E+04 0.  0.
        1    1    3    3  502    0  0.89642222796E+02 -0.63994334255E+03  0.52392750279E+03  0.83190338260E+03  0.50400001928E-02 0.  1.
       -1    1    3    3    0  502 -0.89642222796E+02  0.63994334255E+03 -0.57541937129E+03  0.86525757013E+03  0.50400001928E-02 0. -1.
</event>
<event>
 5   0  0.1893284E-04  0.1701298E+04  0.7818609E-02  0.8760624E-01
        1   -1    0    0  501    0  0.00000000000E+00  0.00000000000E+00  0.82200636063E+03  0.82200636064E+03  0.50400001928E-02 0.  1.
       -1   -1    0    0    0  501  0.00000000000E+00  0.00000000000E+00 -0.88028980380E+03  0.88028980382E+03  0.50400001928E-02 0. -1.
    10030    2    1    2    0    0  0.00000000000E+00  0.00000000000E+00 -0.58283443175E+02  0.17022961645E+04  0.17012981137E+04 0.  0.
        2    1    3    3  502    0  0.22291793134E+03 -0.12835099311E+03 -0.84044254235E+03  0.87892550796E+03  0.25500000920E-02 0. -1.
       -2    1    3    3    0  502 -0.22291793134E+03  0.12835099311E+03  0.78215909918E+03  0.82337065649E+03  0.25500000920E-02 0.  1.
</event>
<event>
 5   0  0.3516723E-04  0.1694975E+04  0.7818609E-02  0.8764236E-01
        2   -1    0    0  501    0  0.00000000000E+00  0.00000000000E+00  0.10026803630E+04  0.10026803630E+04  0.25500000920E-02 0. -1.
       -2   -1    0    0    0  501  0.00000000000E+00  0.00000000000E+00 -0.71631504845E+03  0.71631504845E+03  0.25500000920E-02 0.  1.
    10030    2    1    2    0    0  0.00000000000E+00  0.00000000000E+00  0.28636531451E+03  0.17189954114E+04  0.16949749647E+04 0.  0.
        1    1    3    3  502    0  0.26081789735E+03 -0.46398146582E+02  0.95961046334E+03  0.99550540178E+03  0.50400001928E-02 0. -1.
       -1    1    3    3    0  502 -0.26081789735E+03  0.46398146582E+02 -0.67324514884E+03  0.72349000964E+03  0.50400001928E-02 0.  1.
</event>
<event>
 5   0  0.1317625E-04  0.1620879E+04  0.7818609E-02  0.8807823E-01
       -3   -1    0    0    0  501  0.00000000000E+00  0.00000000000E+00  0.13798797169E+04  0.13798797206E+04  0.10100000352E+00 0.  1.
        3   -1    0    0  501    0  0.00000000000E+00  0.00000000000E+00 -0.47599224701E+03  0.47599225773E+03  0.10100000352E+00 0. -1.
    10030    2    1    2    0    0  0.00000000000E+00  0.00000000000E+00  0.90388746992E+03  0.18558719784E+04  0.16208788486E+04 0.  0.
        1    1    3    3  502    0  0.55692845439E+02 -0.48655341393E+02  0.13760083556E+04  0.13779942053E+04  0.50400001928E-02 0.  1.
       -1    1    3    3    0  502 -0.55692845439E+02  0.48655341393E+02 -0.47212088564E+03  0.47787777304E+03  0.50400001928E-02 0. -1.
</event>
<event>
 5   0  0.3574092E-04  0.1707079E+04  0.7818609E-02  0.8757337E-01
       -2   -1    0    0    0  501  0.00000000000E+00  0.00000000000E+00  0.40585687367E+03  0.40585687368E+03  0.25500000920E-02 0. -1.
        2   -1    0    0  501    0  0.00000000000E+00  0.00000000000E+00 -0.17950418966E+04  0.17950418966E+04  0.25500000920E-02 0.  1.
    10030    2    1    2    0    0  0.00000000000E+00  0.00000000000E+00 -0.13891850229E+04  0.22008987703E+04  0.17070794853E+04 0.  0.
        3    1    3    3  502    0  0.69086245653E+03 -0.37512311777E+03 -0.11232103963E+04  0.13709886549E+04  0.10100000352E+00 0.  1.
       -3    1    3    3    0  502 -0.69086245653E+03  0.37512311777E+03 -0.26597462656E+03  0.82991011531E+03  0.10100000352E+00 0. -1.
</event>
<event>
 5   0  0.3678896E-04  0.1714383E+04  0.7818609E-02  0.8753204E-01
       -2   -1    0    0    0  501  0.00000000000E+00  0.00000000000E+00  0.16495911092E+04  0.16495911092E+04  0.25500000920E-02 0.  1.
        2   -1    0    0  501    0  0.00000000000E+00  0.00000000000E+00 -0.44542982539E+03  0.44542982540E+03  0.25500000920E-02 0. -1.
    10030    2    1    2    0    0  0.00000000000E+00  0.00000000000E+00  0.12041612838E+04  0.20950209346E+04  0.17143827808E+04 0.  0.
        2    1    3    3  502    0 -0.63721122751E+03 -0.56817242704E+03  0.50806380474E+03  0.99347213600E+03  0.25500000920E-02 0.  1.
       -2    1    3    3    0  502  0.63721122751E+03  0.56817242704E+03  0.69609747905E+03  0.11015487986E+04  0.25500000920E-02 0. -1.
</event>
<event>
 5   0  0.3516723E-04  0.1706413E+04  0.7818609E-02  0.8757715E-01
       -2   -1    0    0    0  501  0.00000000000E+00  0.00000000000E+00  0.90779490995E+03  0.90779490996E+03  0.25500000920E-02 0.  1.
        2   -1    0    0  501    0  0.00000000000E+00  0.00000000000E+00 -0.80190064423E+03  0.80190064423E+03  0.25500000920E-02 0. -1.
    10030    2    1    2    0    0  0.00000000000E+00  0.00000000000E+00  0.10589426572E+03  0.17096955542E+04  0.17064129900E+04 0.  0.
        1    1    3    3  502    0  0.83666858591E+03 -0.43818097238E+02 -0.10869198801E+03  0.84483625430E+03  0.50400001928E-02 0. -1.
       -1    1    3    3    0  502 -0.83666858591E+03  0.43818097238E+02  0.21458625374E+03  0.86485929989E+03  0.50400001928E-02 0.  1.
</event>
<event>
 5   0  0.3574092E-04  0.1678523E+04  0.7818609E-02  0.8773709E-01
       -2   -1    0    0    0  501  0.00000000000E+00  0.00000000000E+00  0.47178258594E+03  0.47178258595E+03  0.25500000920E-02 0.  1.
        2   -1    0    0  501    0  0.00000000000E+00  0.00000000000E+00 -0.14929756205E+04  0.14929756205E+04  0.25500000920E-02 0. -1.
    10030    2    1    2    0    0  0.00000000000E+00  0.00000000000E+00 -0.10211930346E+04  0.19647582064E+04  0.16785230400E+04 0.  0.
        3    1    3    3  502    0  0.16948439699E+03 -0.81555994692E+03 -0.39067079186E+03  0.92004709969E+03  0.10100000352E+00 0. -1.
       -3    1    3    3    0  502 -0.16948439699E+03  0.81555994692E+03 -0.63052224269E+03  0.10447111068E+04  0.10100000352E+00 0.  1.
</event>
<event>
 5   0  0.1930116E-04  0.1700551E+04  0.7818609E-02  0.8761050E-01
       -1   -1    0    0    0  501  0.00000000000E+00  0.00000000000E+00  0.73627250161E+03  0.73627250162E+03  0.50400001928E-02 0.  1.
        1   -1    0    0  501    0  0.00000000000E+00  0.00000000000E+00 -0.98193028493E+03  0.98193028495E+03  0.50400001928E-02 0. -1.
    10030    2    1    2    0    0  0.00000000000E+00  0.00000000000E+00 -0.24565778333E+03  0.17182027866E+04  0.17005508135E+04 0.  0.
        1    1    3    3  502    0 -0.72522151623E+03 -0.52789099112E+02  0.32246723783E+03  0.79543576490E+03  0.50400001928E-02 0.  1.
       -1    1    3    3    0  502  0.72522151623E+03  0.52789099112E+02 -0.56812502115E+03  0.92276702167E+03  0.50400001928E-02 0. -1.
</event>
<event>
 5   0  0.1317625E-04  0.1676671E+04  0.7818609E-02  0.8774783E-01
       -3   -1    0    0    0  501  0.00000000000E+00  0.00000000000E+00  0.74438938660E+03  0.74438939345E+03  0.10100000352E+00 0.  1.
        3   -1    0    0  501    0  0.00000000000E+00  0.00000000000E+00 -0.94413801072E+03  0.94413801612E+03  0.10100000352E+00 0. -1.
    10030    2    1    2    0    0  0.00000000000E+00  0.00000000000E+00 -0.19974862412E+03  0.16885274096E+04  0.16766708979E+04 0.  0.
        4    1    3    3  502    0 -0.41909843482E+03  0.56459335356E+03 -0.55960608377E+03  0.89864883845E+03  0.12699999809E+01 0. -1.
       -4    1    3    3    0  502  0.41909843482E+03 -0.56459335356E+03  0.35985745964E+03  0.78987857112E+03  0.12699999809E+01 0.  1.
</event>
<event>
 5   0  0.3605571E-04  0.1715251E+04  0.7818609E-02  0.8752714E-01
       -2   -1    0    0    0  501  0.00000000000E+00  0.00000000000E+00  0.48090250018E+03  0.48090250019E+03  0.25500000920E-02 0.  1.
        2   -1    0    0  501    0  0.00000000000E+00  0.00000000000E+00 -0.15294600778E+04  0.15294600778E+04  0.25500000920E-02 0. -1.
    10030    2    1    2    0    0  0.00000000000E+00  0.00000000000E+00 -0.10485575776E+04  0.20103625780E+04  0.17152506235E+04 0.  0.
        4    1    3    3  502    0 -0.44904892641E+03  0.72645268258E+03 -0.43243056912E+03  0.95727542972E+03  0.12699999809E+01 0.  1.
       -4    1    3    3    0  502  0.44904892641E+03 -0.72645268258E+03 -0.61612700848E+03  0.10530871482E+04  0.12699999809E+01 0. -1.
</event>
<event>
 5   0  0.3678896E-04  0.1721613E+04  0.7818609E-02  0.8749133E-01
        2   -1    0    0  501    0  0.00000000000E+00  0.00000000000E+00  0.12121859692E+04  0.12121859692E+04  0.25500000920E-02 0.  1.
       -2   -1    0    0    0  501  0.00000000000E+00  0.00000000000E+00 -0.61128248359E+03  0.61128248359E+03  0.25500000920E-02 0. -1.
    10030    2    1    2    0    0  0.00000000000E+00  0.00000000000E+00  0.60090348556E+03  0.18234684527E+04  0.17216132548E+04 0.  0.
        2    1    3    3  502    0 -0.60449543800E+03  0.47763631810E+03 -0.10624032058E+03  0.77771343865E+03  0.25500000920E-02 0. -1.
       -2    1    3    3    0  502  0.60449543800E+03 -0.47763631810E+03  0.70714380614E+03  0.10457550141E+04  0.25500000920E-02 0.  1.
</event>
<event>
 5   0  0.1893284E-04  0.1702814E+04  0.7818609E-02  0.8759761E-01
        1   -1    0    0  501    0  0.00000000000E+00  0.00000000000E+00  0.16168644857E+04  0.16168644857E+04  0.50400001928E-02 0. -1.
       -1   -1    0    0    0  501  0.00000000000E+00  0.00000000000E+00 -0.44833313348E+03  0.44833313351E+03  0.50400001928E-02 0.  1.
    10030    2    1    2    0    0  0.00000000000E+00  0.00000000000E+00  0.11685313522E+04  0.20651976192E+04  0.17028140490E+04 0.  0.
        2    1    3    3  502    0 -0.60160856020E+03  0.51070483609E+03  0.19665494918E+03  0.81328067625E+03  0.25500000920E-02 0. -1.
       -2    1    3    3    0  502  0.60160856020E+03 -0.51070483609E+03  0.97187640305E+03  0.12519169430E+04  0.25500000920E-02 0.  1.
</event>
<event>
 5   0  0.1317625E-04  0.1699180E+04  0.7818609E-02  0.8761832E-01
        4   -1    0    0  501    0  0.00000000000E+00  0.00000000000E+00  0.15391835246E+04  0.15391840485E+04  0.12699999809E+01 0.  1.
       -4   -1    0    0    0  501  0.00000000000E+00  0.00000000000E+00 -0.46895059305E+03  0.46895231274E+03  0.12699999809E+01 0. -1.
    10030    2    1    2    0    0  0.00000000000E+00  0.00000000000E+00  0.10702329315E+04  0.20081363613E+04  0.16991801310E+04 0.  0.
        5    1    3    3  502    0  0.63462267204E+03  0.52521355654E+03  0.28951829020E+03  0.87317704172E+03  0.46999998093E+01 0.  1.
       -5    1    3    3    0  502 -0.63462267204E+03 -0.52521355654E+03  0.78071464133E+03  0.11349593195E+04  0.46999998093E+01 0. -1.
</event>
<event>
 5   0  0.3516723E-04  0.1714691E+04  0.7818609E-02  0.8753030E-01
        2   -1    0    0  501    0  0.00000000000E+00  0.00000000000E+00  0.14209271229E+04  0.14209271229E+04  0.25500000920E-02 0.  1.
       -2   -1    0    0    0  501  0.00000000000E+00  0.00000000000E+00 -0.51729673745E+03  0.51729673746E+03  0.25500000920E-02 0. -1.
    10030    2    1    2    0    0  0.00000000000E+00  0.00000000000E+00  0.90363038544E+03  0.19382238604E+04  0.17146906016E+04 0.  0.
        1    1    3    3  502    0 -0.18953964285E+03  0.39291402769E+03  0.12860926551E+04  0.13580651777E+04  0.50400001928E-02 0.  1.
       -1    1    3    3    0  502  0.18953964285E+03 -0.39291402769E+03 -0.38246226963E+03  0.58015868268E+03  0.50400001928E-02 0. -1.
</event>
<event>
 5   0  0.1930116E-04  0.1682122E+04  0.7818609E-02  0.8771627E-01
        1   -1    0    0  501    0  0.00000000000E+00  0.00000000000E+00  0.69909282589E+03  0.69909282591E+03  0.50400001928E-02 0.  1.
       -1   -1    0    0    0  501  0.00000000000E+00  0.00000000000E+00 -0.10118593119E+04  0.10118593119E+04  0.50400001928E-02 0. -1.
    10030    2    1    2    0    0  0.00000000000E+00  0.00000000000E+00 -0.31276648602E+03  0.17109521378E+04  0.16821219763E+04 0.  0.
        1    1    3    3  502    0 -0.70746434359E+03  0.19192426309E+03  0.26304684691E+03  0.77880316121E+03  0.50400001928E-02 0.  1.
       -1    1    3    3    0  502  0.70746434359E+03 -0.19192426309E+03 -0.57581333293E+03  0.93214897662E+03  0.50400001928E-02 0. -1.
</event>
<event>
 5   0  0.1815663E-04  0.1666176E+04  0.7818609E-02  0.8780894E-01
       -1   -1    0    0    0  501  0.00000000000E+00  0.00000000000E+00  0.83203466343E+03  0.83203466344E+03  0.50400001928E-02 0.  1.
        1   -1    0    0  501    0  0.00000000000E+00  0.00000000000E+00 -0.83414291996E+03  0.83414291998E+03  0.50400001928E-02 0. -1.
    10030    2    1    2    0    0  0.00000000000E+00  0.00000000000E+00 -0.21082565334E+01  0.16661775834E+04  0.16661762496E+04 0.  0.
        5    1    3    3  502    0 -0.37047642492E+03  0.17213894619E+03 -0.72709130324E+03  0.83400746487E+03  0.46999998093E+01 0. -1.
       -5    1    3    3    0  502  0.37047642492E+03 -0.17213894619E+03  0.72498304670E+03  0.83217011856E+03  0.46999998093E+01 0.  1.
</event>
<event>
 5   0  0.1930116E-04  0.1704152E+04  0.7818609E-02  0.8759000E-01
       -1   -1    0    0    0  501  0.00000000000E+00  0.00000000000E+00  0.47372000428E+03  0.47372000431E+03  0.50400001928E-02 0. -1.
        1   -1    0    0  501    0  0.00000000000E+00  0.00000000000E+00 -0.15326217112E+04  0.15326217112E+04  0.50400001928E-02 0.  1.
    10030    2    1    2    0    0  0.00000000000E+00  0.00000000000E+00 -0.10589017070E+04  0.20063417156E+04  0.17041520632E+04 0.  0.
        1    1    3    3  502    0 -0.70208883333E+03  0.45780452396E+03 -0.34889405453E+03  0.90787706952E+03  0.50400001928E-02 0.  1.
       -1    1    3    3    0  502  0.70208883333E+03 -0.45780452396E+03 -0.71000765243E+03  0.10984646460E+04  0.50400001928E-02 0. -1.
</event>
<event>
 5   0  0.1824538E-04  0.1725045E+04  0.7818609E-02  0.8747208E-01
        1   -1    0    0  501    0  0.00000000000E+00  0.00000000000E+00  0.16811382268E+04  0.16811382268E+04  0.50400001928E-02 0.  1.
       -1   -1    0    0    0  501  0.00000000000E+00  0.00000000000E+00 -0.44252454898E+03  0.44252454901E+03  0.50400001928E-02 0. -1.
    10030    2    1    2    0    0  0.00000000000E+00  0.00000000000E+00  0.12386136778E+04  0.21236627758E+04  0.17250448523E+04 0.  0.
        3    1    3    3  502    0 -0.25860580099E+03  0.42858008090E+02  0.16309128463E+04  0.16518445725E+04  0.10100000352E+00 0.  1.
       -3    1    3    3    0  502  0.25860580099E+03 -0.42858008090E+02 -0.39229916852E+03  0.47181820332E+03  0.10100000352E+00 0. -1.
</event>
<event>
 5   0  0.3574092E-04  0.1690062E+04  0.7818609E-02  0.8767052E-01
        2   -1    0    0  501    0  0.00000000000E+00  0.00000000000E+00  0.24494889166E+03  0.24494889167E+03  0.25500000920E-02 0. -1.
       -2   -1    0    0    0  501  0.00000000000E+00  0.00000000000E+00 -0.29152112143E+04  0.29152112143E+04  0.25500000920E-02 0.  1.
    10030    2    1    2    0    0  0.00000000000E+00  0.00000000000E+00 -0.26702623226E+04  0.31601601060E+04  0.16900624319E+04 0.  0.
        3    1    3    3  502    0 -0.44103086126E+03  0.34029175835E+03 -0.14697390746E+03  0.57611460758E+03  0.10100000352E+00 0. -1.
       -3    1    3    3    0  502  0.44103086126E+03 -0.34029175835E+03 -0.25232884152E+04  0.25840454984E+04  0.10100000352E+00 0.  1.
</event>
<event>
 5   0  0.3516723E-04  0.1704294E+04  0.7818609E-02  0.8758919E-01
       -2   -1    0    0    0  501  0.00000000000E+00  0.00000000000E+00  0.11511866405E+04  0.11511866405E+04  0.25500000920E-02 0.  1.
        2   -1    0    0  501    0  0.00000000000E+00  0.00000000000E+00 -0.63078803748E+03  0.63078803749E+03  0.25500000920E-02 0. -1.
    10030    2    1    2    0    0  0.00000000000E+00  0.00000000000E+00  0.52039860306E+03  0.17819746780E+04  0.17042942959E+04 0.  0.
        1    1    3    3  502    0 -0.47441639853E+03 -0.41959921732E+02 -0.47863629926E+03  0.67522163859E+03  0.50400001928E-02 0. -1.
       -1    1    3    3    0  502  0.47441639853E+03  0.41959921732E+02  0.99903490232E+03  0.11067530394E+04  0.50400001928E-02 0.  1.
</event>
<event>
 5   0  0.1317625E-04  0.1652448E+04  0.7818609E-02  0.8788960E-01
       -3   -1    0    0    0  501  0.00000000000E+00  0.00000000000E+00  0.65299681388E+03  0.65299682169E+03  0.10100000352E+00 0.  1.
        3   -1    0    0  501    0  0.00000000000E+00  0.00000000000E+00 -0.10454050110E+04  0.10454050159E+04  0.10100000352E+00 0. -1.
    10030    2    1    2    0    0  0.00000000000E+00  0.00000000000E+00 -0.39240819714E+03  0.16984018376E+04  0.16524480654E+04 0.  0.
        3    1    3    3  502    0  0.36794368295E+03  0.49347077363E+02 -0.95485595087E+03  0.10244840579E+04  0.10100000352E+00 0. -1.
       -3    1    3    3    0  502 -0.36794368295E+03 -0.49347077363E+02  0.56244775373E+03  0.67391777966E+03  0.10100000352E+00 0.  1.
</event>
<event>
 5   0  0.3605571E-04  0.1698294E+04  0.7818609E-02  0.8762338E-01
       -2   -1    0    0    0  501  0.00000000000E+00  0.00000000000E+00  0.10147417570E+04  0.10147417570E+04  0.25500000920E-02 0. -1.
        2   -1    0    0  501    0  0.00000000000E+00  0.00000000000E+00 -0.71057546021E+03  0.71057546022E+03  0.25500000920E-02 0.  1.
    10030    2    1    2    0    0  0.00000000000E+00  0.00000000000E+00  0.30416629679E+03  0.17253172172E+04  0.16982939569E+04 0.  0.
        4    1    3    3  502    0 -0.45483249338E+03  0.37390738550E+03 -0.46951027033E+03  0.75307425717E+03  0.12699999809E+01 0.  1.
       -4    1    3    3    0  502  0.45483249338E+03 -0.37390738550E+03  0.77367656711E+03  0.97224296005E+03  0.12699999809E+01 0. -1.
</event>
<event>
 5   0  0.1893284E-04  0.1854046E+04  0.7818609E-02  0.8678075E-01
        1   -1    0    0  501    0  0.00000000000E+00  0.00000000000E+00  0.15443111249E+04  0.15443111249E+04  0.50400001928E-02 0. -1.
       -1   -1    0    0    0  501  0.00000000000E+00  0.00000000000E+00 -0.55647556700E+03  0.55647556702E+03  0.50400001928E-02 0.  1.
    10030    2    1    2    0    0  0.00000000000E+00  0.00000000000E+00  0.98783555791E+03  0.21007866919E+04  0.18540457480E+04 0.  0.
        2    1    3    3  502    0 -0.27220043006E+03  0.18364903818E+03 -0.48837476075E+03  0.58849804613E+03  0.25500000920E-02 0.  1.
       -2    1    3    3    0  502  0.27220043006E+03 -0.18364903818E+03  0.14762103187E+04  0.15122886458E+04  0.25500000920E-02 0. -1.
</event>
<event>
 5   0  0.3573262E-04  0.1687106E+04  0.7818609E-02  0.8768753E-01
       -2   -1    0    0    0  501  0.00000000000E+00  0.00000000000E+00  0.85567612757E+03  0.85567612757E+03  0.25500000920E-02 0. -1.
        2   -1    0    0  501    0  0.00000000000E+00  0.00000000000E+00 -0.83160122199E+03  0.83160122200E+03  0.25500000920E-02 0.  1.
    10030    2    1    2    0    0  0.00000000000E+00  0.00000000000E+00  0.24074905576E+02  0.16872773496E+04  0.16871055845E+04 0.  0.
        5    1    3    3  502    0  0.36321462815E+03 -0.50802372745E+03  0.57914566686E+03  0.85173045454E+03  0.46999998093E+01 0. -1.
       -5    1    3    3    0  502 -0.36321462815E+03  0.50802372745E+03 -0.55507076129E+03  0.83554689503E+03  0.46999998093E+01 0.  1.
</event>
<event>
 5   0  0.3573262E-04  0.1725702E+04  0.7818609E-02  0.8746840E-01
        2   -1    0    0  501    0  0.00000000000E+00  0.00000000000E+00  0.18325270474E+04  0.18325270474E+04  0.25500000920E-02 0. -1.
       -2   -1    0    0    0  501  0.00000000000E+00  0.00000000000E+00 -0.40627617627E+03  0.40627617627E+03  0.25500000920E-02 0.  1.
    10030    2    1    2    0    0  0.00000000000E+00  0.00000000000E+00  0.14262508711E+04  0.22388032237E+04  0.17257022707E+04 0.  0.
        5    1    3    3  502    0  0.14053195143E+03  0.76579726352E+03  0.11955770729E+04  0.14267520126E+04  0.46999998093E+01 0. -1.
       -5    1    3    3    0  502 -0.14053195143E+03 -0.76579726352E+03  0.23067379818E+03  0.81205121104E+03  0.46999998093E+01 0.  1.
</event>
<event>
 5   0  0.3574092E-04  0.1763455E+04  0.7818609E-02  0.8725979E-01
       -2   -1    0    0    0  501  0.00000000000E+00  0.00000000000E+00  0.10614413189E+04  0.10614413189E+04  0.25500000920E-02 0.  1.
        2   -1    0    0  501    0  0.00000000000E+00  0.00000000000E+00 -0.73244124173E+03  0.73244124174E+03  0.25500000920E-02 0. -1.
    10030    2    1    2    0    0  0.00000000000E+00  0.00000000000E+00  0.32900007718E+03  0.17938825607E+04  0.17634550152E+04 0.  0.
        3    1    3    3  502    0 -0.68356810218E+03  0.46370911211E+03 -0.14928941772E+03  0.83939194147E+03  0.10100000352E+00 0. -1.
       -3    1    3    3    0  502  0.68356810218E+03 -0.46370911211E+03  0.47828949491E+03  0.95449061918E+03  0.10100000352E+00 0.  1.
</event>
<event>
 5   0  0.3573262E-04  0.1662057E+04  0.7818609E-02  0.8783305E-01
       -2   -1    0    0    0  501  0.00000000000E+00  0.00000000000E+00  0.33052230067E+03  0.33052230068E+03  0.25500000920E-02 0. -1.
        2   -1    0    0  501    0  0.00000000000E+00  0.00000000000E+00 -0.20894463167E+04  0.20894463167E+04  0.25500000920E-02 0.  1.
    10030    2    1    2    0    0  0.00000000000E+00  0.00000000000E+00 -0.17589240160E+04  0.24199686173E+04  0.16620572839E+04 0.  0.
        5    1    3    3  502    0 -0.74383780113E+03 -0.31189408537E+03 -0.58820975768E+03  0.99829124203E+03  0.46999998093E+01 0. -1.
       -5    1    3    3    0  502  0.74383780113E+03  0.31189408537E+03 -0.11707142583E+04  0.14216773753E+04  0.46999998093E+01 0.  1.
</event>
<event>
 5   0  0.3678896E-04  0.1703331E+04  0.7818609E-02  0.8759467E-01
        2   -1    0    0  501    0  0.00000000000E+00  0.00000000000E+00  0.11655918204E+04  0.11655918204E+04  0.25500000920E-02 0. -1.
       -2   -1    0    0    0  501  0.00000000000E+00  0.00000000000E+00 -0.62228833852E+03  0.62228833852E+03  0.25500000920E-02 0.  1.
    10030    2    1    2    0    0  0.00000000000E+00  0.00000000000E+00  0.54330348187E+03  0.17878801589E+04  0.17033310862E+04 0.  0.
        2    1    3    3  502    0 -0.17966169130E+03 -0.61755281367E+03  0.85765072462E+03  0.10720142566E+04  0.25500000920E-02 0. -1.
       -2    1    3    3    0  502  0.17966169130E+03  0.61755281367E+03 -0.31434724275E+03  0.71586590227E+03  0.25500000920E-02 0.  1.
</event>
<event>
 5   0  0.3573262E-04  0.1701745E+04  0.7818609E-02  0.8760369E-01
       -2   -1    0    0    0  501  0.00000000000E+00  0.00000000000E+00  0.78660082559E+03  0.78660082559E+03  0.25500000920E-02 0. -1.
        2   -1    0    0  501    0  0.00000000000E+00  0.00000000000E+00 -0.92039619774E+03  0.92039619774E+03  0.25500000920E-02 0.  1.
    10030    2    1    2    0    0  0.00000000000E+00  0.00000000000E+00 -0.13379537215E+03  0.17069970233E+04  0.17017454675E+04 0.  0.
        5    1    3    3  502    0 -0.42761946662E+03 -0.75792747187E+02 -0.80083820641E+03  0.91102517616E+03  0.46999998093E+01 0.  1.
       -5    1    3    3    0  502  0.42761946662E+03  0.75792747187E+02  0.66704283426E+03  0.79597184717E+03  0.46999998093E+01 0. -1.
</event>
<event>
 5   0  0.3678896E-04  0.1691712E+04  0.7818609E-02  0.8766106E-01
       -2   -1    0    0    0  501  0.00000000000E+00  0.00000000000E+00  0.40720286991E+03  0.40720286992E+03  0.25500000920E-02 0. -1.
        2   -1    0    0  501    0  0.00000000000E+00  0.00000000000E+00 -0.17570412069E+04  0.17570412069E+04  0.25500000920E-02 0.  1.
    10030    2    1    2    0    0  0.00000000000E+00  0.00000000000E+00 -0.13498383370E+04  0.21642440769E+04  0.16917118218E+04 0.  0.
        2    1    3    3  502    0  0.36555228557E+03 -0.54562997875E+03  0.70106467702E+01  0.65680263121E+03  0.25500000920E-02 0. -1.
       -2    1    3    3    0  502 -0.36555228557E+03  0.54562997875E+03 -0.13568489838E+04  0.15074414456E+04  0.25500000920E-02 0.  1.
</event>
<event>
 5   0  0.3605571E-04  0.1688037E+04  0.7818609E-02  0.8768217E-01
       -2   -1    0    0    0  501  0.00000000000E+00  0.00000000000E+00  0.59928567954E+03  0.59928567955E+03  0.25500000920E-02 0. -1.
        2   -1    0    0  501    0  0.00000000000E+00  0.00000000000E+00 -0.11886933550E+04  0.11886933550E+04  0.25500000920E-02 0.  1.
    10030    2    1    2    0    0  0.00000000000E+00  0.00000000000E+00 -0.58940767549E+03  0.17879790346E+04  0.16880366170E+04 0.  0.
        4    1    3    3  502    0  0.18697824332E+03  0.78185836292E+03 -0.22378766674E+02  0.80421749871E+03  0.12699999809E+01 0. -1.
       -4    1    3    3    0  502 -0.18697824332E+03 -0.78185836292E+03 -0.56702890882E+03  0.98376153588E+03  0.12699999809E+01 0.  1.
</event>
<event>
 5   0  0.3516723E-04  0.1770720E+04  0.7818609E-02  0.8722027E-01
       -2   -1    0    0    0  501  0.00000000000E+00  0.00000000000E+00  0.84924197470E+03  0.84924197471E+03  0.25500000920E-02 0.  1.
        2   -1    0    0  501    0  0.00000000000E+00  0.00000000000E+00 -0.92301437638E+03  0.92301437638E+03  0.25500000920E-02 0. -1.
    10030    2    1    2    0    0  0.00000000000E+00  0.00000000000E+00 -0.73772401674E+02  0.17722563511E+04  0.17707202508E+04 0.  0.
        1    1    3    3  502    0  0.66254928240E+03 -0.55348369885E+03  0.15961749598E+03  0.87794846179E+03  0.50400001928E-02 0. -1.
       -1    1    3    3    0  502 -0.66254928240E+03  0.55348369885E+03 -0.23338989766E+03  0.89430788930E+03  0.50400001928E-02 0.  1.
</event>
<event>
 5   0  0.1930116E-04  0.1721653E+04  0.7818609E-02  0.8749110E-01
       -1   -1    0    0    0  501  0.00000000000E+00  0.00000000000E+00  0.80478288243E+03  0.80478288245E+03  0.50400001928E-02 0. -1.
        1   -1    0    0  501    0  0.00000000000E+00  0.00000000000E+00 -0.92077322646E+03  0.92077322648E+03  0.50400001928E-02 0.  1.
    10030    2    1    2    0    0  0.00000000000E+00  0.00000000000E+00 -0.11599034403E+03  0.17255561089E+04  0.17216533115E+04 0.  0.
        1    1    3    3  502    0  0.79138755480E+03  0.24256770274E+03 -0.29494000803E+03  0.87870527520E+03  0.50400001928E-02 0.  1.
       -1    1    3    3    0  502 -0.79138755480E+03 -0.24256770274E+03  0.17894966400E+03  0.84685083372E+03  0.50400001928E-02 0. -1.
</event>
<event>
 5   0  0.1815663E-04  0.1695699E+04  0.7818609E-02  0.8763821E-01
        1   -1    0    0  501    0  0.00000000000E+00  0.00000000000E+00  0.10346192129E+04  0.10346192129E+04  0.50400001928E-02 0.  1.
       -1   -1    0    0    0  501  0.00000000000E+00  0.00000000000E+00 -0.69479588217E+03  0.69479588219E+03  0.50400001928E-02 0. -1.
    10030    2    1    2    0    0  0.00000000000E+00  0.00000000000E+00  0.33982333074E+03  0.17294150951E+04  0.16956994648E+04 0.  0.
        5    1    3    3  502    0 -0.73268887250E+03  0.14623787103E+01  0.60499901786E+03  0.95020051781E+03  0.46999998093E+01 0.  1.
       -5    1    3    3    0  502  0.73268887250E+03 -0.14623787103E+01 -0.26517568712E+03  0.77921457730E+03  0.46999998093E+01 0. -1.
</event>
<event>
 5   0  0.1893284E-04  0.1644250E+04  0.7818609E-02  0.8793815E-01
       -1   -1    0    0    0  501  0.00000000000E+00  0.00000000000E+00  0.66145866922E+03  0.66145866924E+03  0.50400001928E-02 0.  1.
        1   -1    0    0  501    0  0.00000000000E+00  0.00000000000E+00 -0.10218171691E+04  0.10218171692E+04  0.50400001928E-02 0. -1.
    10030    2    1    2    0    0  0.00000000000E+00  0.00000000000E+00 -0.36035849992E+03  0.16832758384E+04  0.16442503762E+04 0.  0.
        2    1    3    3  502    0  0.42942916263E+03 -0.19070030715E+03  0.51045378442E+03  0.69378604692E+03  0.25500000920E-02 0.  1.
       -2    1    3    3    0  502 -0.42942916263E+03  0.19070030715E+03 -0.87081228435E+03  0.98948979148E+03  0.25500000920E-02 0. -1.
</event>
<event>
 5   0  0.1815663E-04  0.1702681E+04  0.7818609E-02  0.8759837E-01
       -1   -1    0    0    0  501  0.00000000000E+00  0.00000000000E+00  0.36831698494E+03  0.36831698498E+03  0.50400001928E-02 0.  1.
        1   -1    0    0  501    0  0.00000000000E+00  0.00000000000E+00 -0.19678169701E+04  0.19678169701E+04  0.50400001928E-02 0. -1.
    10030    2    1    2    0    0  0.00000000000E+00  0.00000000000E+00 -0.15994999852E+04  0.23361339551E+04  0.17026807257E+04 0.  0.
        5    1    3    3  502    0 -0.36513836020E+03 -0.51870839125E+03 -0.15787625578E+04  0.17014398964E+04  0.46999998093E+01 0. -1.
       -5    1    3    3    0  502  0.36513836020E+03  0.51870839125E+03 -0.20737427384E+02  0.63469405869E+03  0.46999998093E+01 0.  1.
</event>
<event>
 5   0  0.3516723E-04  0.1721513E+04  0.7818609E-02  0.8749189E-01
       -2   -1    0    0    0  501  0.00000000000E+00  0.00000000000E+00  0.58870261285E+03  0.58870261285E+03  0.25500000920E-02 0.  1.
        2   -1    0    0  501    0  0.00000000000E+00  0.00000000000E+00 -0.12585326544E+04  0.12585326544E+04  0.25500000920E-02 0. -1.
    10030    2    1    2    0    0  0.00000000000E+00  0.00000000000E+00 -0.66983004151E+03  0.18472352672E+04  0.17215126627E+04 0.  0.
        1    1    3    3  502    0 -0.43156412366E+02  0.37525872362E+03  0.49501678654E+03  0.62267423631E+03  0.50400001928E-02 0.  1.
       -1    1    3    3    0  502  0.43156412366E+02 -0.37525872362E+03 -0.11648468280E+04  0.12245610309E+04  0.50400001928E-02 0. -1.
</event>
<event>
 5   0  0.3605571E-04  0.1709209E+04  0.7818609E-02  0.8756129E-01
       -2   -1    0    0    0  501  0.00000000000E+00  0.00000000000E+00  0.83468261936E+03  0.83468261937E+03  0.25500000920E-02 0.  1.
        2   -1    0    0  501    0  0.00000000000E+00  0.00000000000E+00 -0.87500188358E+03  0.87500188359E+03  0.25500000920E-02 0. -1.
    10030    2    1    2    0    0  0.00000000000E+00  0.00000000000E+00 -0.40319264220E+02  0.17096845030E+04  0.17092090149E+04 0.  0.
        4    1    3    3  502    0 -0.40488782924E+03  0.61789769132E+03  0.40962900364E+03  0.84470660275E+03  0.12699999809E+01 0.  1.
       -4    1    3    3    0  502  0.40488782924E+03 -0.61789769132E+03 -0.44994826786E+03  0.86497790021E+03  0.12699999809E+01 0. -1.
</event>
<event>
 5   0  0.1920289E-04  0.1702378E+04  0.7818609E-02  0.8760009E-01
        1   -1    0    0  501    0  0.00000000000E+00  0.00000000000E+00  0.18466315610E+04  0.18466315610E+04  0.50400001928E-02 0. -1.
       -1   -1    0    0    0  501  0.00000000000E+00  0.00000000000E+00 -0.39234828083E+03  0.39234828086E+03  0.50400001928E-02 0.  1.
    10030    2    1    2    0    0  0.00000000000E+00  0.00000000000E+00  0.14542832802E+04  0.22389798419E+04  0.17023780054E+04 0.  0.
        4    1    3    3  502    0  0.17479171993E+03 -0.39416383318E+03  0.16923673997E+04  0.17464324497E+04  0.12699999809E+01 0. -1.
       -4    1    3    3    0  502 -0.17479171993E+03  0.39416383318E+03 -0.23808411951E+03  0.49254739224E+03  0.12699999809E+01 0.  1.
</event>
<event>
 5   0  0.1893284E-04  0.1721769E+04  0.7818609E-02  0.8749045E-01
        1   -1    0    0  501    0  0.00000000000E+00  0.00000000000E+00  0.10420354371E+04  0.10420354371E+04  0.50400001928E-02 0.  1.
       -1   -1    0    0    0  501  0.00000000000E+00  0.00000000000E+00 -0.71122519634E+03  0.71122519636E+03  0.50400001928E-02 0. -1.
    10030    2    1    2    0    0  0.00000000000E+00  0.00000000000E+00  0.33081024077E+03  0.17532606335E+04  0.17217686934E+04 0.  0.
        2    1    3    3  502    0  0.24797121480E+03 -0.42399111276E+03  0.88534704051E+03  0.10124710214E+04  0.25500000920E-02 0.  1.
       -2    1    3    3    0  502 -0.24797121480E+03  0.42399111276E+03 -0.55453679974E+03  0.74078961206E+03  0.25500000920E-02 0. -1.
</event>
<event>
 5   0  0.1893284E-04  0.1696048E+04  0.7818609E-02  0.8763622E-01
       -1   -1    0    0    0  501  0.00000000000E+00  0.00000000000E+00  0.11226034736E+04  0.11226034736E+04  0.50400001928E-02 0.  1.
        1   -1    0    0  501    0  0.00000000000E+00  0.00000000000E+00 -0.64060405347E+03  0.64060405349E+03  0.50400001928E-02 0. -1.
    10030    2    1    2    0    0  0.00000000000E+00  0.00000000000E+00  0.48199942015E+03  0.17632075271E+04  0.16960475650E+04 0.  0.
        2    1    3    3  502    0 -0.24593590772E+03  0.74345924401E+03 -0.97354227958E+02  0.78910960197E+03  0.25500000920E-02 0.  1.
       -2    1    3    3    0  502  0.24593590772E+03 -0.74345924401E+03  0.57935364810E+03  0.97409792515E+03  0.25500000920E-02 0. -1.
</event>
<event>
 5   0  0.3678896E-04  0.1688630E+04  0.7818609E-02  0.8767876E-01
       -2   -1    0    0    0  501  0.00000000000E+00  0.00000000000E+00  0.42332062539E+03  0.42332062540E+03  0.25500000920E-02 0. -1.
        2   -1    0    0  501    0  0.00000000000E+00  0.00000000000E+00 -0.16839904094E+04  0.16839904094E+04  0.25500000920E-02 0.  1.
    10030    2    1    2    0    0  0.00000000000E+00  0.00000000000E+00 -0.12606697840E+04  0.21073110348E+04  0.16886300640E+04 0.  0.
        2    1    3    3  502    0 -0.70985179228E+03  0.23480794102E+03 -0.11198135407E+04  0.13464793731E+04  0.25500000920E-02 0.  1.
       -2    1    3    3    0  502  0.70985179228E+03 -0.23480794102E+03 -0.14085624328E+03  0.76083166170E+03  0.25500000920E-02 0. -1.
</event>
<event>
 5   0  0.1930116E-04  0.1706160E+04  0.7818609E-02  0.8757859E-01
       -1   -1    0    0    0  501  0.00000000000E+00  0.00000000000E+00  0.54695584843E+03  0.54695584845E+03  0.50400001928E-02 0.  1.
        1   -1    0    0  501    0  0.00000000000E+00  0.00000000000E+00 -0.13305375832E+04  0.13305375832E+04  0.50400001928E-02 0. -1.
    10030    2    1    2    0    0  0.00000000000E+00  0.00000000000E+00 -0.78358173473E+03  0.18774934316E+04  0.17061597964E+04 0.  0.
        1    1    3    3  502    0  0.77373739019E+03  0.30599409485E+03 -0.18462115028E+03  0.85228334738E+03  0.50400001928E-02 0.  1.
       -1    1    3    3    0  502 -0.77373739019E+03 -0.30599409485E+03 -0.59896058445E+03  0.10252100842E+04  0.50400001928E-02 0. -1.
</event>
<event>
 5   0  0.1893284E-04  0.1702076E+04  0.7818609E-02  0.8760181E-01
        1   -1    0    0  501    0  0.00000000000E+00  0.00000000000E+00  0.16159821515E+04  0.16159821515E+04  0.50400001928E-02 0.  1.
       -1   -1    0    0    0  501  0.00000000000E+00  0.00000000000E+00 -0.44818911478E+03  0.44818911481E+03  0.50400001928E-02 0. -1.
    10030    2    1    2    0    0  0.00000000000E+00  0.00000000000E+00  0.11677930367E+04  0.20641712663E+04  0.17020759208E+04 0.  0.
        2    1    3    3  502    0 -0.63392434727E+03 -0.32576322007E+03  0.11478961921E+04  0.13511652088E+04  0.25500000920E-02 0.  1.
       -2    1    3    3    0  502  0.63392434727E+03  0.32576322007E+03  0.19896844612E+02  0.71300605751E+03  0.25500000920E-02 0. -1.
</event>
<event>
 5   0  0.1824538E-04  0.1703477E+04  0.7818609E-02  0.8759384E-01
        1   -1    0    0  501    0  0.00000000000E+00  0.00000000000E+00  0.60386054071E+03  0.60386054073E+03  0.50400001928E-02 0. -1.
       -1   -1    0    0    0  501  0.00000000000E+00  0.00000000000E+00 -0.12013682455E+04  0.12013682455E+04  0.50400001928E-02 0.  1.
    10030    2    1    2    0    0  0.00000000000E+00  0.00000000000E+00 -0.59750770475E+03  0.18052287862E+04  0.17034774766E+04 0.  0.
        3    1    3    3  502    0  0.32085493275E+03 -0.64562044179E+03  0.18186123829E+03  0.74353692774E+03  0.10100000352E+00 0.  1.
       -3    1    3    3    0  502 -0.32085493275E+03  0.64562044179E+03 -0.77936894304E+03  0.10616918585E+04  0.10100000352E+00 0. -1.
</event>
<event>
 5   0  0.1920289E-04  0.1719765E+04  0.7818609E-02  0.8750171E-01
        1   -1    0    0  501    0  0.00000000000E+00  0.00000000000E+00  0.87790165026E+03  0.87790165028E+03  0.50400001928E-02 0.  1.
       -1   -1    0    0    0  501  0.00000000000E+00  0.00000000000E+00 -0.84223309191E+03  0.84223309193E+03  0.50400001928E-02 0. -1.
    10030    2    1    2    0    0  0.00000000000E+00  0.00000000000E+00  0.35668558351E+02  0.17201347422E+04  0.17197648924E+04 0.  0.
        4    1    3    3  502    0 -0.38488242051E+03 -0.45088765143E+03  0.64083423381E+03  0.87298584178E+03  0.12699999809E+01 0.  1.
       -4    1    3    3    0  502  0.38488242051E+03  0.45088765143E+03 -0.60516567546E+03  0.84714890042E+03  0.12699999809E+01 0. -1.
</event>
<event>
 5   0  0.3605571E-04  0.1702097E+04  0.7818609E-02  0.8760169E-01
       -2   -1    0    0    0  501  0.00000000000E+00  0.00000000000E+00  0.10845366696E+04  0.10845366696E+04  0.25500000920E-02 0.  1.
        2   -1    0    0  501    0  0.00000000000E+00  0.00000000000E+00 -0.66782800348E+03  0.66782800349E+03  0.25500000920E-02 0. -1.
    10030    2    1    2    0    0  0.00000000000E+00  0.00000000000E+00  0.41670866611E+03  0.17523646731E+04  0.17020974811E+04 0.  0.
        4    1    3    3  502    0  0.31983817698E+03 -0.35559370964E+03 -0.51638024149E+03  0.70384196557E+03  0.12699999809E+01 0. -1.
       -4    1    3    3    0  502 -0.31983817698E+03  0.35559370964E+03  0.93308890760E+03  0.10485227075E+04  0.12699999809E+01 0.  1.
</event>
<event>
 5   0  0.3678896E-04  0.1646106E+04  0.7818609E-02  0.8792713E-01
        2   -1    0    0  501    0  0.00000000000E+00  0.00000000000E+00  0.90990637410E+03  0.90990637410E+03  0.25500000920E-02 0. -1.
       -2   -1    0    0    0  501  0.00000000000E+00  0.00000000000E+00 -0.74449025681E+03  0.74449025681E+03  0.25500000920E-02 0.  1.
    10030    2    1    2    0    0  0.00000000000E+00  0.00000000000E+00  0.16541611729E+03  0.16543966309E+04  0.16461062300E+04 0.  0.
        2    1    3    3  502    0 -0.31581516064E+03 -0.54502781232E+03 -0.44969747093E+03  0.77396533983E+03  0.25500000920E-02 0.  1.
       -2    1    3    3    0  502  0.31581516064E+03  0.54502781232E+03  0.61511358822E+03  0.88043129108E+03  0.25500000920E-02 0. -1.
</event>
<event>
 5   0  0.3573262E-04  0.1704434E+04  0.7818609E-02  0.8758840E-01
       -2   -1    0    0    0  501  0.00000000000E+00  0.00000000000E+00  0.81413906182E+03  0.81413906182E+03  0.25500000920E-02 0.  1.
        2   -1    0    0  501    0  0.00000000000E+00  0.00000000000E+00 -0.89207570655E+03  0.89207570655E+03  0.25500000920E-02 0. -1.
    10030    2    1    2    0    0  0.00000000000E+00  0.00000000000E+00 -0.77936644736E+02  0.17062147684E+04  0.17044338401E+04 0.  0.
        5    1    3    3  502    0 -0.19533282569E+03 -0.64239171332E+03 -0.56433052588E+03  0.87710493020E+03  0.46999998093E+01 0.  1.
       -5    1    3    3    0  502  0.19533282569E+03  0.64239171332E+03  0.48639388115E+03  0.82910983817E+03  0.46999998093E+01 0. -1.
</event>
<event>
 5   0  0.3574092E-04  0.1663913E+04  0.7818609E-02  0.8782218E-01
        2   -1    0    0  501    0  0.00000000000E+00  0.00000000000E+00  0.19188721268E+04  0.19188721268E+04  0.25500000920E-02 0.  1.
       -2   -1    0    0    0  501  0.00000000000E+00  0.00000000000E+00 -0.36070740908E+03  0.36070740909E+03  0.25500000920E-02 0. -1.
    10030    2    1    2    0    0  0.00000000000E+00  0.00000000000E+00  0.15581647178E+04  0.22795795359E+04  0.16639127300E+04 0.  0.
        3    1    3    3  502    0 -0.36106200686E+03 -0.97029794229E+02 -0.23913283407E+03  0.44380747661E+03  0.10100000352E+00 0. -1.
       -3    1    3    3    0  502  0.36106200686E+03  0.97029794229E+02  0.17972975518E+04  0.18357720593E+04  0.10100000352E+00 0.  1.
</event>
<event>
 5   0  0.3516723E-04  0.1694289E+04  0.7818609E-02  0.8764628E-01
        2   -1    0    0  501    0  0.00000000000E+00  0.00000000000E+00  0.17108547656E+04  0.17108547656E+04  0.25500000920E-02 0. -1.
       -2   -1    0    0    0  501  0.00000000000E+00  0.00000000000E+00 -0.41947089619E+03  0.41947089620E+03  0.25500000920E-02 0.  1.
    10030    2    1    2    0    0  0.00000000000E+00  0.00000000000E+00  0.12913838694E+04  0.21303256618E+04  0.16942889739E+04 0.  0.
        1    1    3    3  502    0 -0.66652582816E+03  0.38774237200E+03  0.10867589068E+04  0.13325335824E+04  0.50400001928E-02 0. -1.
       -1    1    3    3    0  502  0.66652582816E+03 -0.38774237200E+03  0.20462496261E+03  0.79779207943E+03  0.50400001928E-02 0.  1.
</event>
<event>
 5   0  0.1824538E-04  0.1708969E+04  0.7818609E-02  0.8756265E-01
        1   -1    0    0  501    0  0.00000000000E+00  0.00000000000E+00  0.64039362043E+03  0.64039362045E+03  0.50400001928E-02 0. -1.
       -1   -1    0    0    0  501  0.00000000000E+00  0.00000000000E+00 -0.11401490062E+04  0.11401490062E+04  0.50400001928E-02 0.  1.
    10030    2    1    2    0    0  0.00000000000E+00  0.00000000000E+00 -0.49975538573E+03  0.17805426266E+04  0.17089694555E+04 0.  0.
        3    1    3    3  502    0  0.74587408199E+03 -0.65503450152E+02 -0.67885599365E+03  0.10106751795E+04  0.10100000352E+00 0.  1.
       -3    1    3    3    0  502 -0.74587408199E+03  0.65503450152E+02  0.17910060791E+03  0.76986744712E+03  0.10100000352E+00 0. -1.
</event>
<event>
 5   0  0.1824538E-04  0.1676211E+04  0.7818609E-02  0.8775050E-01
       -1   -1    0    0    0  501  0.00000000000E+00  0.00000000000E+00  0.40949555133E+03  0.40949555136E+03  0.50400001928E-02 0. -1.
        1   -1    0    0  501    0  0.00000000000E+00  0.00000000000E+00 -0.17153322151E+04  0.17153322151E+04  0.50400001928E-02 0.  1.
    10030    2    1    2    0    0  0.00000000000E+00  0.00000000000E+00 -0.13058366637E+04  0.21248277664E+04  0.16762110979E+04 0.  0.
        3    1    3    3  502    0 -0.80377991392E+03 -0.18513249434E+03 -0.84130097079E+03  0.11781865405E+04  0.10100000352E+00 0.  1.
       -3    1    3    3    0  502  0.80377991392E+03  0.18513249434E+03 -0.46453569294E+03  0.94664122596E+03  0.10100000352E+00 0. -1.
</event>
<event>
 5   0  0.3573262E-04  0.1702760E+04  0.7818609E-02  0.8759792E-01
       -2   -1    0    0    0  501  0.00000000000E+00  0.00000000000E+00  0.38167445490E+03  0.38167445491E+03  0.25500000920E-02 0. -1.
        2   -1    0    0  501    0  0.00000000000E+00  0.00000000000E+00 -0.18991264140E+04  0.18991264140E+04  0.25500000920E-02 0.  1.
    10030    2    1    2    0    0  0.00000000000E+00  0.00000000000E+00 -0.15174519591E+04  0.22808008689E+04  0.17027601579E+04 0.  0.
        5    1    3    3  502    0 -0.22576128557E+03 -0.72436608597E+03 -0.12760323138E+04  0.14845723089E+04  0.46999998093E+01 0.  1.
       -5    1    3    3    0  502  0.22576128557E+03  0.72436608597E+03 -0.24141964527E+03  0.79622855996E+03  0.46999998093E+01 0. -1.
</event>
<event>
 5   0  0.1920289E-04  0.1724169E+04  0.7818609E-02  0.8747699E-01
        1   -1    0    0  501    0  0.00000000000E+00  0.00000000000E+00  0.17915495524E+04  0.17915495524E+04  0.50400001928E-02 0. -1.
       -1   -1    0    0    0  501  0.00000000000E+00  0.00000000000E+00 -0.41483081901E+03  0.41483081904E+03  0.50400001928E-02 0.  1.
    10030    2    1    2    0    0  0.00000000000E+00  0.00000000000E+00  0.13767187334E+04  0.22063803715E+04  0.17241693283E+04 0.  0.
        4    1    3    3  502    0 -0.72337703404E+03  0.44960548539E+03  0.51777819194E+03  0.99675237388E+03  0.12699999809E+01 0.  1.
       -4    1    3    3    0  502  0.72337703404E+03 -0.44960548539E+03  0.85894054148E+03  0.12096279976E+04  0.12699999809E+01 0. -1.
</event>
<event>
 5   0  0.3516723E-04  0.1692377E+04  0.7818609E-02  0.8765724E-01
       -2   -1    0    0    0  501  0.00000000000E+00  0.00000000000E+00  0.53674933259E+03  0.53674933260E+03  0.25500000920E-02 0.  1.
        2   -1    0    0  501    0  0.00000000000E+00  0.00000000000E+00 -0.13340219613E+04  0.13340219613E+04  0.25500000920E-02 0. -1.
    10030    2    1    2    0    0  0.00000000000E+00  0.00000000000E+00 -0.79727262869E+03  0.18707712939E+04  0.16923774962E+04 0.  0.
        1    1    3    3  502    0 -0.11312129608E+03 -0.29629362696E+01  0.52834762367E+03  0.54032991596E+03  0.50400001928E-02 0.  1.
       -1    1    3    3    0  502  0.11312129608E+03  0.29629362696E+01 -0.13256202524E+04  0.13304413779E+04  0.50400001928E-02 0. -1.
</event>
<event>
 5   0  0.3574092E-04  0.1701595E+04  0.7818609E-02  0.8760455E-01
       -2   -1    0    0    0  501  0.00000000000E+00  0.00000000000E+00  0.11685236361E+04  0.11685236361E+04  0.25500000920E-02 0.  1.
        2   -1    0    0  501    0  0.00000000000E+00  0.00000000000E+00 -0.61946220566E+03  0.61946220567E+03  0.25500000920E-02 0. -1.
    10030    2    1    2    0    0  0.00000000000E+00  0.00000000000E+00  0.54906143041E+03  0.17879858417E+04  0.17015948154E+04 0.  0.
        3    1    3    3  502    0  0.36163918586E+03 -0.23342000968E+03  0.10456763889E+04  0.11307992405E+04  0.10100000352E+00 0.  1.
       -3    1    3    3    0  502 -0.36163918586E+03  0.23342000968E+03 -0.49661495852E+03  0.65718660128E+03  0.10100000352E+00 0. -1.
</event>
<event>
 5   0  0.1824538E-04  0.1543155E+04  0.7818609E-02  0.8856252E-01
       -1   -1    0    0    0  501  0.00000000000E+00  0.00000000000E+00  0.45285055145E+03  0.45285055148E+03  0.50400001928E-02 0.  1.
        1   -1    0    0  501    0  0.00000000000E+00  0.00000000000E+00 -0.13146317037E+04  0.13146317037E+04  0.50400001928E-02 0. -1.
    10030    2    1    2    0    0  0.00000000000E+00  0.00000000000E+00 -0.86178115226E+03  0.17674822552E+04  0.15431548101E+04 0.  0.
        3    1    3    3  502    0 -0.48946445835E+03 -0.53818271067E+03 -0.72539886555E+03  0.10273361721E+04  0.10100000352E+00 0. -1.
       -3    1    3    3    0  502  0.48946445835E+03  0.53818271067E+03 -0.13638228670E+03  0.74014608314E+03  0.10100000352E+00 0.  1.
</event>
<event>
 5   0  0.3574092E-04  0.1705189E+04  0.7818609E-02  0.8758410E-01
        2   -1    0    0  501    0  0.00000000000E+00  0.00000000000E+00  0.81770636553E+03  0.81770636553E+03  0.25500000920E-02 0. -1.
       -2   -1    0    0    0  501  0.00000000000E+00  0.00000000000E+00 -0.88897149827E+03  0.88897149827E+03  0.25500000920E-02 0.  1.
    10030    2    1    2    0    0  0.00000000000E+00  0.00000000000E+00 -0.71265132739E+02  0.17066778638E+04  0.17051893184E+04 0.  0.
        3    1    3    3  502    0  0.10904116195E+03 -0.19914213672E+03  0.78689385914E+03  0.81899299226E+03  0.10100000352E+00 0. -1.
       -3    1    3    3    0  502 -0.10904116195E+03  0.19914213672E+03 -0.85815899188E+03  0.88768487154E+03  0.10100000352E+00 0.  1.
</event>
<event>
 5   0  0.3516723E-04  0.1698313E+04  0.7818609E-02  0.8762327E-01
        2   -1    0    0  501    0  0.00000000000E+00  0.00000000000E+00  0.12470681992E+04  0.12470681992E+04  0.25500000920E-02 0.  1.
       -2   -1    0    0    0  501  0.00000000000E+00  0.00000000000E+00 -0.57820977800E+03  0.57820977801E+03  0.25500000920E-02 0. -1.
    10030    2    1    2    0    0  0.00000000000E+00  0.00000000000E+00  0.66885842122E+03  0.18252779772E+04  0.16983133122E+04 0.  0.
        1    1    3    3  502    0 -0.54831781639E+03 -0.26613843802E+03 -0.30102981397E+03  0.67978014452E+03  0.50400001928E-02 0. -1.
       -1    1    3    3    0  502  0.54831781639E+03  0.26613843802E+03  0.96988823519E+03  0.11454978327E+04  0.50400001928E-02 0.  1.
</event>
<event>
 5   0  0.1893284E-04  0.1695767E+04  0.7818609E-02  0.8763782E-01
        1   -1    0    0  501    0  0.00000000000E+00  0.00000000000E+00  0.18390043624E+04  0.18390043624E+04  0.50400001928E-02 0.  1.
       -1   -1    0    0    0  501  0.00000000000E+00  0.00000000000E+00 -0.39092170148E+03  0.39092170152E+03  0.50400001928E-02 0. -1.
    10030    2    1    2    0    0  0.00000000000E+00  0.00000000000E+00  0.14480826609E+04  0.22299260639E+04  0.16957673360E+04 0.  0.
        2    1    3    3  502    0  0.51399908613E+03 -0.22165101737E+03  0.15615007881E+04  0.16587974395E+04  0.25500000920E-02 0.  1.
       -2    1    3    3    0  502 -0.51399908613E+03  0.22165101737E+03 -0.11341812719E+03  0.57112862442E+03  0.25500000920E-02 0. -1.
</event>
<event>
 5   0  0.3605571E-04  0.1693389E+04  0.7818609E-02  0.8765144E-01
        2   -1    0    0  501    0  0.00000000000E+00  0.00000000000E+00  0.36759336016E+03  0.36759336017E+03  0.25500000920E-02 0. -1.
       -2   -1    0    0    0  501  0.00000000000E+00  0.00000000000E+00 -0.19502307244E+04  0.19502307244E+04  0.25500000920E-02 0.  1.
    10030    2    1    2    0    0  0.00000000000E+00  0.00000000000E+00 -0.15826373643E+04  0.23178240846E+04  0.16933893411E+04 0.  0.
        4    1    3    3  502    0 -0.51413051382E+03  0.14028301966E+03  0.10923121690E+03  0.54400605005E+03  0.12699999809E+01 0. -1.
       -4    1    3    3    0  502  0.51413051382E+03 -0.14028301966E+03 -0.16918685812E+04  0.17738180346E+04  0.12699999809E+01 0.  1.
</event>
<event>
 5   0  0.3678896E-04  0.1712367E+04  0.7818609E-02  0.8754342E-01
        2   -1    0    0  501    0  0.00000000000E+00  0.00000000000E+00  0.14568192474E+04  0.14568192474E+04  0.25500000920E-02 0. -1.
       -2   -1    0    0    0  501  0.00000000000E+00  0.00000000000E+00 -0.50318531408E+03  0.50318531409E+03  0.25500000920E-02 0.  1.
    10030    2    1    2    0    0  0.00000000000E+00  0.00000000000E+00  0.95363393331E+03  0.19600045615E+04  0.17123668422E+04 0.  0.
        2    1    3    3  502    0  0.22860035824E+03  0.64100614629E+03 -0.11783678924E+03  0.69067540297E+03  0.25500000920E-02 0.  1.
       -2    1    3    3    0  502 -0.22860035824E+03 -0.64100614629E+03  0.10714707226E+04  0.12693291585E+04  0.25500000920E-02 0. -1.
</event>
<event>
 5   0  0.1824538E-04  0.1668125E+04  0.7818609E-02  0.8779755E-01
       -1   -1    0    0    0  501  0.00000000000E+00  0.00000000000E+00  0.38488612715E+03  0.38488612718E+03  0.50400001928E-02 0.  1.
        1   -1    0    0  501    0  0.00000000000E+00  0.00000000000E+00 -0.18074452543E+04  0.18074452543E+04  0.50400001928E-02 0. -1.
    10030    2    1    2    0    0  0.00000000000E+00  0.00000000000E+00 -0.14225591271E+04  0.21923313815E+04  0.16681254197E+04 0.  0.
        3    1    3    3  502    0 -0.20999614983E+02 -0.44310716642E+03  0.21698902125E+03  0.49383113541E+03  0.10100000352E+00 0.  1.
       -3    1    3    3    0  502  0.20999614983E+02  0.44310716642E+03 -0.16395481484E+04  0.16985002460E+04  0.10100000352E+00 0. -1.
</event>
<event>
 5   0  0.1920289E-04  0.1697063E+04  0.7818609E-02  0.8763041E-01
       -1   -1    0    0    0  501  0.00000000000E+00  0.00000000000E+00  0.88009477637E+03  0.88009477639E+03  0.50400001928E-02 0.  1.
        1   -1    0    0  501    0  0.00000000000E+00  0.00000000000E+00 -0.81809981975E+03  0.81809981976E+03  0.50400001928E-02 0. -1.
    10030    2    1    2    0    0  0.00000000000E+00  0.00000000000E+00  0.61994956629E+02  0.16981945961E+04  0.16970626128E+04 0.  0.
        4    1    3    3  502    0 -0.22183146829E+03  0.64309367909E+03  0.53850939960E+03  0.86762472692E+03  0.12699999809E+01 0.  1.
       -4    1    3    3    0  502  0.22183146829E+03 -0.64309367909E+03 -0.47651444297E+03  0.83056986923E+03  0.12699999809E+01 0. -1.
</event>
<event>
 5   0  0.1815663E-04  0.1655951E+04  0.7818609E-02  0.8786894E-01
       -1   -1    0    0    0  501  0.00000000000E+00  0.00000000000E+00  0.72634683270E+03  0.72634683271E+03  0.50400001928E-02 0.  1.
        1   -1    0    0  501    0  0.00000000000E+00  0.00000000000E+00 -0.94382387850E+03  0.94382387851E+03  0.50400001928E-02 0. -1.
    10030    2    1    2    0    0  0.00000000000E+00  0.00000000000E+00 -0.21747704580E+03  0.16701707112E+04  0.16559510679E+04 0.  0.
        5    1    3    3  502    0 -0.36173369652E+03  0.59535319060E+02  0.64001466616E+03  0.73758835695E+03  0.46999998093E+01 0.  1.
       -5    1    3    3    0  502  0.36173369652E+03 -0.59535319060E+02 -0.85749171197E+03  0.93258235427E+03  0.46999998093E+01 0. -1.
</event>
<event>
 5   0  0.1920289E-04  0.1744341E+04  0.7818609E-02  0.8736471E-01
        1   -1    0    0  501    0  0.00000000000E+00  0.00000000000E+00  0.74212661969E+03  0.74212661971E+03  0.50400001928E-02 0. -1.
       -1   -1    0    0    0  501  0.00000000000E+00  0.00000000000E+00 -0.10250025900E+04  0.10250025901E+04  0.50400001928E-02 0.  1.
    10030    2    1    2    0    0  0.00000000000E+00  0.00000000000E+00 -0.28287597035E+03  0.17671292098E+04  0.17443413741E+04 0.  0.
        4    1    3    3  502    0  0.44821387731E+02  0.14654156658E+03  0.72838026761E+03  0.74432708851E+03  0.12699999809E+01 0. -1.
       -4    1    3    3    0  502 -0.44821387731E+02 -0.14654156658E+03 -0.10112562380E+04  0.10228021213E+04  0.12699999809E+01 0.  1.
</event>
<event>
 5   0  0.1930116E-04  0.1710662E+04  0.7818609E-02  0.8755307E-01
        1   -1    0    0  501    0  0.00000000000E+00  0.00000000000E+00  0.14726589462E+04  0.14726589462E+04  0.50400001928E-02 0. -1.
       -1   -1    0    0    0  501  0.00000000000E+00  0.00000000000E+00 -0.49678251029E+03  0.49678251032E+03  0.50400001928E-02 0.  1.
    10030    2    1    2    0    0  0.00000000000E+00  0.00000000000E+00  0.97587643590E+03  0.19694414565E+04  0.17106621035E+04 0.  0.
        1    1    3    3  502    0  0.48379878573E+03  0.16851164461E+03  0.12764845001E+04  0.13754526959E+04  0.50400001928E-02 0. -1.
       -1    1    3    3    0  502 -0.48379878573E+03 -0.16851164461E+03 -0.30060806425E+03  0.59398876064E+03  0.50400001928E-02 0.  1.
</event>
<event>
 5   0  0.3573262E-04  0.1688546E+04  0.7818609E-02  0.8767924E-01
       -2   -1    0    0    0  501  0.00000000000E+00  0.00000000000E+00  0.15542419099E+04  0.15542419099E+04  0.25500000920E-02 0.  1.
        2   -1    0    0  501    0  0.00000000000E+00  0.00000000000E+00 -0.45861412022E+03  0.45861412022E+03  0.25500000920E-02 0. -1.
    10030    2    1    2    0    0  0.00000000000E+00  0.00000000000E+00  0.10956277897E+04  0.20128560301E+04  0.16885464591E+04 0.  0.
        5    1    3    3  502    0  0.33218515438E+03  0.10041152023E+03  0.14652743106E+04  0.15058155085E+04  0.46999998093E+01 0.  1.
       -5    1    3    3    0  502 -0.33218515438E+03 -0.10041152023E+03 -0.36964652092E+03  0.50704052167E+03  0.46999998093E+01 0. -1.
</event>
<event>
 5   0  0.1920289E-04  0.1711220E+04  0.7818609E-02  0.8754991E-01
       -1   -1    0    0    0  501  0.00000000000E+00  0.00000000000E+00  0.15471862726E+04  0.15471862726E+04  0.50400001928E-02 0. -1.
        1   -1    0    0  501    0  0.00000000000E+00  0.00000000000E+00 -0.47316104153E+03  0.47316104156E+03  0.50400001928E-02 0.  1.
    10030    2    1    2    0    0  0.00000000000E+00  0.00000000000E+00  0.10740252310E+04  0.20203473141E+04  0.17112197617E+04 0.  0.
        4    1    3    3  502    0  0.12021626452E+03 -0.46259312781E+03  0.13748750611E+04  0.14555848992E+04  0.12699999809E+01 0. -1.
       -4    1    3    3    0  502 -0.12021626452E+03  0.46259312781E+03 -0.30084983010E+03  0.56476241493E+03  0.12699999809E+01 0.  1.
</event>
<event>
 5   0  0.1317625E-04  0.1687016E+04  0.7818609E-02  0.8768804E-01
        4   -1    0    0  501    0  0.00000000000E+00  0.00000000000E+00  0.52611671694E+03  0.52611824977E+03  0.12699999809E+01 0. -1.
       -4   -1    0    0    0  501  0.00000000000E+00  0.00000000000E+00 -0.13523689412E+04  0.13523695375E+04  0.12699999809E+01 0.  1.
    10030    2    1    2    0    0  0.00000000000E+00  0.00000000000E+00 -0.82625222427E+03  0.18784877873E+04  0.16870161911E+04 0.  0.
        4    1    3    3  502    0  0.49258892424E+03  0.67771179374E+03 -0.52203940429E+03  0.98714936873E+03  0.12699999809E+01 0.  1.
       -4    1    3    3    0  502 -0.49258892424E+03 -0.67771179374E+03 -0.30421281998E+03  0.89133841856E+03  0.12699999809E+01 0. -1.
</event>
<event>
 5   0  0.3574092E-04  0.1818597E+04  0.7818609E-02  0.8696472E-01
       -2   -1    0    0    0  501  0.00000000000E+00  0.00000000000E+00  0.52851519824E+03  0.52851519824E+03  0.25500000920E-02 0. -1.
        2   -1    0    0  501    0  0.00000000000E+00  0.00000000000E+00 -0.15644278139E+04  0.15644278139E+04  0.25500000920E-02 0.  1.
    10030    2    1    2    0    0  0.00000000000E+00  0.00000000000E+00 -0.10359126156E+04  0.20929430121E+04  0.18185971255E+04 0.  0.
        3    1    3    3  502    0  0.14043054916E+03  0.63045722693E+03 -0.12545281129E+04  0.14110414063E+04  0.10100000352E+00 0.  1.
       -3    1    3    3    0  502 -0.14043054916E+03 -0.63045722693E+03  0.21861549727E+03  0.68190160578E+03  0.10100000352E+00 0. -1.
</event>
<event>
 5   0  0.3574092E-04  0.1704995E+04  0.7818609E-02  0.8758521E-01
       -2   -1    0    0    0  501  0.00000000000E+00  0.00000000000E+00  0.28552258268E+03  0.28552258269E+03  0.25500000920E-02 0.  1.
        2   -1    0    0  501    0  0.00000000000E+00  0.00000000000E+00 -0.25453402308E+04  0.25453402308E+04  0.25500000920E-02 0. -1.
    10030    2    1    2    0    0  0.00000000000E+00  0.00000000000E+00 -0.22598176481E+04  0.28308628134E+04  0.17049951513E+04 0.  0.
        3    1    3    3  502    0  0.25368533847E+03 -0.33631970059E+03 -0.23604453548E+04  0.23977425790E+04  0.10100000352E+00 0. -1.
       -3    1    3    3    0  502 -0.25368533847E+03  0.33631970059E+03  0.10062770670E+03  0.43312023448E+03  0.10100000352E+00 0.  1.
</event>
<event>
 5   0  0.1815663E-04  0.1715629E+04  0.7818609E-02  0.8752501E-01
       -1   -1    0    0    0  501  0.00000000000E+00  0.00000000000E+00  0.97313631909E+03  0.97313631910E+03  0.50400001928E-02 0. -1.
        1   -1    0    0  501    0  0.00000000000E+00  0.00000000000E+00 -0.75615880784E+03  0.75615880786E+03  0.50400001928E-02 0.  1.
    10030    2    1    2    0    0  0.00000000000E+00  0.00000000000E+00  0.21697751125E+03  0.17292951270E+04  0.17156288631E+04 0.  0.
        5    1    3    3  502    0 -0.30881258436E+03  0.11719806911E+02 -0.69808600300E+03  0.76344529844E+03  0.46999998093E+01 0.  1.
       -5    1    3    3    0  502  0.30881258436E+03 -0.11719806911E+02  0.91506351425E+03  0.96584982852E+03  0.46999998093E+01 0. -1.
</event>
<event>
 5   0  0.3573262E-04  0.1701590E+04  0.7818609E-02  0.8760458E-01
       -2   -1    0    0    0  501  0.00000000000E+00  0.00000000000E+00  0.36041099911E+03  0.36041099912E+03  0.25500000920E-02 0. -1.
        2   -1    0    0  501    0  0.00000000000E+00  0.00000000000E+00 -0.20084077705E+04  0.20084077705E+04  0.25500000920E-02 0.  1.
    10030    2    1    2    0    0  0.00000000000E+00  0.00000000000E+00 -0.16479967714E+04  0.23688187697E+04  0.17015901401E+04 0.  0.
        5    1    3    3  502    0  0.35102678676E+02  0.27257146844E+03 -0.19448956513E+04  0.19642221331E+04  0.46999998093E+01 0.  1.
       -5    1    3    3    0  502 -0.35102678676E+02 -0.27257146844E+03  0.29689887990E+03  0.40459663660E+03  0.46999998093E+01 0. -1.
</event>
<event>
 5   0  0.3574092E-04  0.1688409E+04  0.7818609E-02  0.8768003E-01
        2   -1    0    0  501    0  0.00000000000E+00  0.00000000000E+00  0.10533064420E+04  0.10533064420E+04  0.25500000920E-02 0.  1.
       -2   -1    0    0    0  501  0.00000000000E+00  0.00000000000E+00 -0.67661309422E+03  0.67661309422E+03  0.25500000920E-02 0. -1.
    10030    2    1    2    0    0  0.00000000000E+00  0.00000000000E+00  0.37669334776E+03  0.17299195362E+04  0.16884086364E+04 0.  0.
        3    1    3    3  502    0 -0.63192590539E+03  0.28390854663E+03  0.68264589384E+03  0.97259438582E+03  0.10100000352E+00 0.  1.
       -3    1    3    3    0  502  0.63192590539E+03 -0.28390854663E+03 -0.30595254607E+03  0.75732515038E+03  0.10100000352E+00 0. -1.
</event>
<event>
 5   0  0.1824538E-04  0.1679841E+04  0.7818609E-02  0.8772946E-01
        1   -1    0    0  501    0  0.00000000000E+00  0.00000000000E+00  0.71658499730E+03  0.71658499732E+03  0.50400001928E-02 0.  1.
       -1   -1    0    0    0  501  0.00000000000E+00  0.00000000000E+00 -0.98448362186E+03  0.98448362187E+03  0.50400001928E-02 0. -1.
    10030    2    1    2    0    0  0.00000000000E+00  0.00000000000E+00 -0.26789862456E+03  0.17010686192E+04  0.16798406990E+04 0.  0.
        3    1    3    3  502    0  0.11056537419E+03 -0.55632711773E+03 -0.76124627653E+03  0.94932632305E+03  0.10100000352E+00 0. -1.
       -3    1    3    3    0  502 -0.11056537419E+03  0.55632711773E+03  0.49334765197E+03  0.75174229614E+03  0.10100000352E+00 0.  1.
</event>
<event>
 5   0  0.1824538E-04  0.1682843E+04  0.7818609E-02  0.8771210E-01
       -1   -1    0    0    0  501  0.00000000000E+00  0.00000000000E+00  0.76074397720E+03  0.76074397721E+03  0.50400001928E-02 0. -1.
        1   -1    0    0  501    0  0.00000000000E+00  0.00000000000E+00 -0.93065507102E+03  0.93065507103E+03  0.50400001928E-02 0.  1.
    10030    2    1    2    0    0  0.00000000000E+00  0.00000000000E+00 -0.16991109382E+03  0.16913990482E+04  0.16828431182E+04 0.  0.
        3    1    3    3  502    0 -0.52898524963E+03 -0.30624154801E+03  0.49624125297E+03  0.78731484897E+03  0.10100000352E+00 0. -1.
       -3    1    3    3    0  502  0.52898524963E+03  0.30624154801E+03 -0.66615234679E+03  0.90408419928E+03  0.10100000352E+00 0.  1.
</event>
<event>
 5   0  0.1920289E-04  0.1718953E+04  0.7818609E-02  0.8750628E-01
        1   -1    0    0  501    0  0.00000000000E+00  0.00000000000E+00  0.20816379562E+04  0.20816379562E+04  0.50400001928E-02 0.  1.
       -1   -1    0    0    0  501  0.00000000000E+00  0.00000000000E+00 -0.35486488745E+03  0.35486488749E+03  0.50400001928E-02 0. -1.
    10030    2    1    2    0    0  0.00000000000E+00  0.00000000000E+00  0.17267730688E+04  0.24365028437E+04  0.17189534247E+04 0.  0.
        4    1    3    3  502    0  0.16897131067E+03 -0.59779672065E+03  0.21490003534E+02  0.62159122919E+03  0.12699999809E+01 0. -1.
       -4    1    3    3    0  502 -0.16897131067E+03  0.59779672065E+03  0.17052830652E+04  0.18149116145E+04  0.12699999809E+01 0.  1.
</event>
<event>
 5   0  0.3516723E-04  0.1694852E+04  0.7818609E-02  0.8764306E-01
       -2   -1    0    0    0  501  0.00000000000E+00  0.00000000000E+00  0.48514411073E+03  0.48514411074E+03  0.25500000920E-02 0.  1.
        2   -1    0    0  501    0  0.00000000000E+00  0.00000000000E+00 -0.14802422733E+04  0.14802422733E+04  0.25500000920E-02 0. -1.
    10030    2    1    2    0    0  0.00000000000E+00  0.00000000000E+00 -0.99509816260E+03  0.19653863841E+04  0.16948519952E+04 0.  0.
        1    1    3    3  502    0  0.65193984250E+03  0.29796463408E+02  0.12930899469E+03  0.66530760074E+03  0.50400001928E-02 0.  1.
       -1    1    3    3    0  502 -0.65193984250E+03 -0.29796463408E+02 -0.11244071573E+04  0.13000787833E+04  0.50400001928E-02 0. -1.
</event>
<event>
 5   0  0.1317625E-04  0.1703221E+04  0.7818609E-02  0.8759530E-01
        4   -1    0    0  501    0  0.00000000000E+00  0.00000000000E+00  0.37217634634E+03  0.37217851318E+03  0.12699999809E+01 0.  1.
       -4   -1    0    0    0  501  0.00000000000E+00  0.00000000000E+00 -0.19486386843E+04  0.19486390981E+04  0.12699999809E+01 0. -1.
    10030    2    1    2    0    0  0.00000000000E+00  0.00000000000E+00 -0.15764623379E+04  0.23208176113E+04  0.17032207379E+04 0.  0.
        2    1    3    3  502    0 -0.32752138110E+03  0.70135976450E+03 -0.12720317496E+04  0.14890401426E+04  0.25500000920E-02 0. -1.
       -2    1    3    3    0  502  0.32752138110E+03 -0.70135976450E+03 -0.30443058837E+03  0.83177746872E+03  0.25500000920E-02 0.  1.
</event>
<event>
 5   0  0.3678896E-04  0.1702766E+04  0.7818609E-02  0.8759788E-01
       -2   -1    0    0    0  501  0.00000000000E+00  0.00000000000E+00  0.35131485619E+03  0.35131485620E+03  0.25500000920E-02 0. -1.
        2   -1    0    0  501    0  0.00000000000E+00  0.00000000000E+00 -0.20632586064E+04  0.20632586064E+04  0.25500000920E-02 0.  1.
    10030    2    1    2    0    0  0.00000000000E+00  0.00000000000E+00 -0.17119437502E+04  0.24145734626E+04  0.17027664556E+04 0.  0.
        2    1    3    3  502    0  0.19301668520E+03 -0.57857450016E+03 -0.16982976594E+04  0.18044996074E+04  0.25500000920E-02 0.  1.
       -2    1    3    3    0  502 -0.19301668520E+03  0.57857450016E+03 -0.13646090755E+02  0.61007385520E+03  0.25500000920E-02 0. -1.
</event>
<event>
 5   0  0.3574092E-04  0.1665537E+04  0.7818609E-02  0.8781268E-01
       -2   -1    0    0    0  501  0.00000000000E+00  0.00000000000E+00  0.67999358890E+03  0.67999358890E+03  0.25500000920E-02 0.  1.
        2   -1    0    0  501    0  0.00000000000E+00  0.00000000000E+00 -0.10198672846E+04  0.10198672846E+04  0.25500000920E-02 0. -1.
    10030    2    1    2    0    0  0.00000000000E+00  0.00000000000E+00 -0.33987369569E+03  0.16998608735E+04  0.16655368084E+04 0.  0.
        3    1    3    3  502    0 -0.44865843080E+03 -0.15641951214E+03  0.52807406467E+03  0.71036869251E+03  0.10100000352E+00 0.  1.
       -3    1    3    3    0  502  0.44865843080E+03  0.15641951214E+03 -0.86794776036E+03  0.98949218099E+03  0.10100000352E+00 0. -1.
</event>
<event>
 5   0  0.1893284E-04  0.1705087E+04  0.7818609E-02  0.8758469E-01
        1   -1    0    0  501    0  0.00000000000E+00  0.00000000000E+00  0.12883362445E+04  0.12883362445E+04  0.50400001928E-02 0.  1.
       -1   -1    0    0    0  501  0.00000000000E+00  0.00000000000E+00 -0.56416173778E+03  0.56416173780E+03  0.50400001928E-02 0. -1.
    10030    2    1    2    0    0  0.00000000000E+00  0.00000000000E+00  0.72417450675E+03  0.18524979823E+04  0.17050865252E+04 0.  0.
        2    1    3    3  502    0  0.71978540367E+03  0.44842395927E+03  0.45714384028E+03  0.96340830664E+03  0.25500000920E-02 0.  1.
       -2    1    3    3    0  502 -0.71978540367E+03 -0.44842395927E+03  0.26703066647E+03  0.88908967570E+03  0.25500000920E-02 0. -1.
</event>
<event>
 5   0  0.1930116E-04  0.1728208E+04  0.7818609E-02  0.8745438E-01
       -1   -1    0    0    0  501  0.00000000000E+00  0.00000000000E+00  0.63011097544E+03  0.63011097546E+03  0.50400001928E-02 0.  1.
        1   -1    0    0  501    0  0.00000000000E+00  0.00000000000E+00 -0.11849911799E+04  0.11849911799E+04  0.50400001928E-02 0. -1.
    10030    2    1    2    0    0  0.00000000000E+00  0.00000000000E+00 -0.55488020448E+03  0.18151021554E+04  0.17282082609E+04 0.  0.
        1    1    3    3  502    0 -0.15660180498E+03  0.16128574624E+03  0.59886006456E+03  0.63966443876E+03  0.50400001928E-02 0.  1.
       -1    1    3    3    0  502  0.15660180498E+03 -0.16128574624E+03 -0.11537402690E+04  0.11754377166E+04  0.50400001928E-02 0. -1.
</event>
<event>
 5   0  0.3574092E-04  0.1711796E+04  0.7818609E-02  0.8754665E-01
        2   -1    0    0  501    0  0.00000000000E+00  0.00000000000E+00  0.78124938535E+03  0.78124938536E+03  0.25500000920E-02 0. -1.
       -2   -1    0    0    0  501  0.00000000000E+00  0.00000000000E+00 -0.93767881859E+03  0.93767881859E+03  0.25500000920E-02 0.  1.
    10030    2    1    2    0    0  0.00000000000E+00  0.00000000000E+00 -0.15642943324E+03  0.17189282039E+04  0.17117955493E+04 0.  0.
        3    1    3    3  502    0 -0.35383355699E+03 -0.47994518556E+03  0.53835956154E+03  0.80335334374E+03  0.10100000352E+00 0. -1.
       -3    1    3    3    0  502  0.35383355699E+03  0.47994518556E+03 -0.69478899477E+03  0.91557486021E+03  0.10100000352E+00 0.  1.
</event>
<event>
 5   0  0.3573262E-04  0.1690832E+04  0.7818609E-02  0.8766611E-01
       -2   -1    0    0    0  501  0.00000000000E+00  0.00000000000E+00  0.60745687957E+03  0.60745687958E+03  0.25500000920E-02 0.  1.
        2   -1    0    0  501    0  0.00000000000E+00  0.00000000000E+00 -0.11765904973E+04  0.11765904974E+04  0.25500000920E-02 0. -1.
    10030    2    1    2    0    0  0.00000000000E+00  0.00000000000E+00 -0.56913361778E+03  0.17840473769E+04  0.16908317386E+04 0.  0.
        5    1    3    3  502    0  0.49406247278E+03  0.16782935888E+03  0.41726639470E+03  0.66813004337E+03  0.46999998093E+01 0.  1.
       -5    1    3    3    0  502 -0.49406247278E+03 -0.16782935888E+03 -0.98640001248E+03  0.11159173336E+04  0.46999998093E+01 0. -1.
</event>
<event>
 5   0  0.1824538E-04  0.1697182E+04  0.7818609E-02  0.8762973E-01
        1   -1    0    0  501    0  0.00000000000E+00  0.00000000000E+00  0.22538674697E+04  0.22538674697E+04  0.50400001928E-02 0. -1.
       -1   -1    0    0    0  501  0.00000000000E+00  0.00000000000E+00 -0.31949839963E+03  0.31949839967E+03  0.50400001928E-02 0.  1.
    10030    2    1    2    0    0  0.00000000000E+00  0.00000000000E+00  0.19343690701E+04  0.25733658694E+04  0.16971824293E+04 0.  0.
        3    1    3    3  502    0  0.17513073237E+03  0.11607249780E+03 -0.27943696798E+03  0.34961210997E+03  0.10100000352E+00 0.  1.
       -3    1    3    3    0  502 -0.17513073237E+03 -0.11607249780E+03  0.22138060380E+04  0.22237537594E+04  0.10100000352E+00 0. -1.
</event>
<event>
 5   0  0.1893284E-04  0.1782626E+04  0.7818609E-02  0.8715594E-01
       -1   -1    0    0    0  501  0.00000000000E+00  0.00000000000E+00  0.56670009999E+03  0.56670010001E+03  0.50400001928E-02 0. -1.
        1   -1    0    0  501    0  0.00000000000E+00  0.00000000000E+00 -0.14018676459E+04  0.14018676459E+04  0.50400001928E-02 0.  1.
    10030    2    1    2    0    0  0.00000000000E+00  0.00000000000E+00 -0.83516754590E+03  0.19685677459E+04  0.17826256311E+04 0.  0.
        2    1    3    3  502    0  0.33213612948E+03  0.33435262652E+03  0.41785456828E+03  0.62984801945E+03  0.25500000920E-02 0. -1.
       -2    1    3    3    0  502 -0.33213612948E+03 -0.33435262652E+03 -0.12530221142E+04  0.13387197265E+04  0.25500000920E-02 0.  1.
</event>
<event>
 5   0  0.1893284E-04  0.1939726E+04  0.7818609E-02  0.8635331E-01
        1   -1    0    0  501    0  0.00000000000E+00  0.00000000000E+00  0.96386737158E+03  0.96386737159E+03  0.50400001928E-02 0. -1.
       -1   -1    0    0    0  501  0.00000000000E+00  0.00000000000E+00 -0.97589639053E+03  0.97589639054E+03  0.50400001928E-02 0.  1.
    10030    2    1    2    0    0  0.00000000000E+00  0.00000000000E+00 -0.12029018949E+02  0.19397637621E+04  0.19397264641E+04 0.  0.
        2    1    3    3  502    0 -0.10966618327E+03  0.74452511927E+03  0.60579000026E+03  0.96608790976E+03  0.25500000920E-02 0. -1.
       -2    1    3    3    0  502  0.10966618327E+03 -0.74452511927E+03 -0.61781901920E+03  0.97367585236E+03  0.25500000920E-02 0.  1.
</event>
<event>
 5   0  0.3605571E-04  0.1699652E+04  0.7818609E-02  0.8761563E-01
        2   -1    0    0  501    0  0.00000000000E+00  0.00000000000E+00  0.16886858083E+04  0.16886858083E+04  0.25500000920E-02 0.  1.
       -2   -1    0    0    0  501  0.00000000000E+00  0.00000000000E+00 -0.42767257438E+03  0.42767257439E+03  0.25500000920E-02 0. -1.
    10030    2    1    2    0    0  0.00000000000E+00  0.00000000000E+00  0.12610132339E+04  0.21163583827E+04  0.16996524433E+04 0.  0.
        4    1    3    3  502    0 -0.53313419102E+03  0.47166774897E+03  0.52472870881E+02  0.71376294813E+03  0.12699999809E+01 0. -1.
       -4    1    3    3    0  502  0.53313419102E+03 -0.47166774897E+03  0.12085403630E+04  0.14025954346E+04  0.12699999809E+01 0.  1.
</event>
<event>
 5   0  0.1815663E-04  0.1694819E+04  0.7818609E-02  0.8764325E-01
       -1   -1    0    0    0  501  0.00000000000E+00  0.00000000000E+00  0.44973388930E+03  0.44973388933E+03  0.50400001928E-02 0.  1.
        1   -1    0    0  501    0  0.00000000000E+00  0.00000000000E+00 -0.15967283688E+04  0.15967283688E+04  0.50400001928E-02 0. -1.
    10030    2    1    2    0    0  0.00000000000E+00  0.00000000000E+00 -0.11469944795E+04  0.20464622581E+04  0.16948189986E+04 0.  0.
        5    1    3    3  502    0 -0.18356898855E+03 -0.47907789381E+03  0.24087488941E+03  0.56679449913E+03  0.46999998093E+01 0.  1.
       -5    1    3    3    0  502  0.18356898855E+03  0.47907789381E+03 -0.13878693689E+04  0.14796677590E+04  0.46999998093E+01 0. -1.
</event>
<event>
 5   0  0.3573262E-04  0.1695866E+04  0.7818609E-02  0.8763726E-01
        2   -1    0    0  501    0  0.00000000000E+00  0.00000000000E+00  0.11208412341E+04  0.11208412341E+04  0.25500000920E-02 0. -1.
       -2   -1    0    0    0  501  0.00000000000E+00  0.00000000000E+00 -0.64147351028E+03  0.64147351028E+03  0.25500000920E-02 0.  1.
    10030    2    1    2    0    0  0.00000000000E+00  0.00000000000E+00  0.47936772386E+03  0.17623147444E+04  0.16958655146E+04 0.  0.
        5    1    3    3  502    0 -0.45723872608E+03  0.26517326589E+02  0.98122487472E+03  0.10828641494E+04  0.46999998093E+01 0. -1.
       -5    1    3    3    0  502  0.45723872608E+03 -0.26517326589E+02 -0.50185715087E+03  0.67945059505E+03  0.46999998093E+01 0.  1.
</event>
<event>
 5   0  0.1893284E-04  0.1729290E+04  0.7818609E-02  0.8744833E-01
        1   -1    0    0  501    0  0.00000000000E+00  0.00000000000E+00  0.18650566555E+04  0.18650566555E+04  0.50400001928E-02 0.  1.
       -1   -1    0    0    0  501  0.00000000000E+00  0.00000000000E+00 -0.40085161574E+03  0.40085161577E+03  0.50400001928E-02 0. -1.
    10030    2    1    2    0    0  0.00000000000E+00  0.00000000000E+00  0.14642050397E+04  0.22659082712E+04  0.17292899975E+04 0.  0.
        2    1    3    3  502    0  0.36563662059E+03  0.25627209298E+03 -0.23809913991E+03  0.50602047823E+03  0.25500000920E-02 0. -1.
       -2    1    3    3    0  502 -0.36563662059E+03 -0.25627209298E+03  0.17023041796E+04  0.17598877930E+04  0.25500000920E-02 0.  1.
</event>
<event>
 5   0  0.3516723E-04  0.1703553E+04  0.7818609E-02  0.8759341E-01
       -2   -1    0    0    0  501  0.00000000000E+00  0.00000000000E+00  0.46329900099E+03  0.46329900100E+03  0.25500000920E-02 0.  1.
        2   -1    0    0  501    0  0.00000000000E+00  0.00000000000E+00 -0.15659926295E+04  0.15659926295E+04  0.25500000920E-02 0. -1.
    10030    2    1    2    0    0  0.00000000000E+00  0.00000000000E+00 -0.11026936286E+04  0.20292916305E+04  0.17035525479E+04 0.  0.
        1    1    3    3  502    0 -0.76005657763E+03 -0.27624162031E+03 -0.23276197179E+03  0.84153049233E+03  0.50400001928E-02 0. -1.
       -1    1    3    3    0  502  0.76005657763E+03  0.27624162031E+03 -0.86993165676E+03  0.11877611382E+04  0.50400001928E-02 0.  1.
</event>
<event>
 5   0  0.1815663E-04  0.1710721E+04  0.7818609E-02  0.8755273E-01
        1   -1    0    0  501    0  0.00000000000E+00  0.00000000000E+00  0.16087532194E+04  0.16087532194E+04  0.50400001928E-02 0.  1.
       -1   -1    0    0    0  501  0.00000000000E+00  0.00000000000E+00 -0.45478785347E+03  0.45478785350E+03  0.50400001928E-02 0. -1.
    10030    2    1    2    0    0  0.00000000000E+00  0.00000000000E+00  0.11539653660E+04  0.20635410729E+04  0.17107208112E+04 0.  0.
        5    1    3    3  502    0  0.29180928188E+03 -0.38129284001E+03  0.14308464274E+04  0.15092648792E+04  0.46999998093E+01 0.  1.
       -5    1    3    3    0  502 -0.29180928188E+03  0.38129284001E+03 -0.27688106138E+03  0.55427619377E+03  0.46999998093E+01 0. -1.
</event>
<event>
 5   0  0.1893284E-04  0.1634682E+04  0.7818609E-02  0.8799520E-01
       -1   -1    0    0    0  501  0.00000000000E+00  0.00000000000E+00  0.56594387105E+03  0.56594387107E+03  0.50400001928E-02 0.  1.
        1   -1    0    0  501    0  0.00000000000E+00  0.00000000000E+00 -0.11804105791E+04  0.11804105792E+04  0.50400001928E-02 0. -1.
    10030    2    1    2    0    0  0.00000000000E+00  0.00000000000E+00 -0.61446670810E+03  0.17463544502E+04  0.16346817826E+04 0.  0.
        2    1    3    3  502    0  0.59427061301E+03 -0.45598163333E+03  0.42171386061E+02  0.75023678744E+03  0.25500000920E-02 0.  1.
       -2    1    3    3    0  502 -0.59427061301E+03  0.45598163333E+03 -0.65663809416E+03  0.99611766279E+03  0.25500000920E-02 0. -1.
</event>
<event>
 5   0  0.3678896E-04  0.1708323E+04  0.7818609E-02  0.8756631E-01
        2   -1    0    0  501    0  0.00000000000E+00  0.00000000000E+00  0.16645431367E+04  0.16645431367E+04  0.25500000920E-02 0.  1.
       -2   -1    0    0    0  501  0.00000000000E+00  0.00000000000E+00 -0.43831378731E+03  0.43831378732E+03  0.25500000920E-02 0. -1.
    10030    2    1    2    0    0  0.00000000000E+00  0.00000000000E+00  0.12262293494E+04  0.21028569241E+04  0.17083233961E+04 0.  0.
        2    1    3    3  502    0 -0.14750277470E+03 -0.64186057182E+03  0.12826531342E+04  0.14418533645E+04  0.25500000920E-02 0.  1.
       -2    1    3    3    0  502  0.14750277470E+03  0.64186057182E+03 -0.56423784762E+02  0.66100355951E+03  0.25500000920E-02 0. -1.
</event>
<event>
 5   0  0.3678896E-04  0.1719009E+04  0.7818609E-02  0.8750596E-01
       -2   -1    0    0    0  501  0.00000000000E+00  0.00000000000E+00  0.87632380771E+03  0.87632380771E+03  0.25500000920E-02 0. -1.
        2   -1    0    0  501    0  0.00000000000E+00  0.00000000000E+00 -0.84300812277E+03  0.84300812277E+03  0.25500000920E-02 0.  1.
    10030    2    1    2    0    0  0.00000000000E+00  0.00000000000E+00  0.33315684938E+02  0.17193319305E+04  0.17190091193E+04 0.  0.
        2    1    3    3  502    0  0.44968111006E+03 -0.34367438903E+03 -0.63031979774E+03  0.84712940797E+03  0.25500000920E-02 0.  1.
       -2    1    3    3    0  502 -0.44968111006E+03  0.34367438903E+03  0.66363548267E+03  0.87220252252E+03  0.25500000920E-02 0. -1.
</event>
<event>
 5   0  0.3605571E-04  0.1643620E+04  0.7818609E-02  0.8794190E-01
       -2   -1    0    0    0  501  0.00000000000E+00  0.00000000000E+00  0.86339578290E+03  0.86339578290E+03  0.25500000920E-02 0.  1.
        2   -1    0    0  501    0  0.00000000000E+00  0.00000000000E+00 -0.78222717857E+03  0.78222717858E+03  0.25500000920E-02 0. -1.
    10030    2    1    2    0    0  0.00000000000E+00  0.00000000000E+00  0.81168604325E+02  0.16456229615E+04  0.16436199649E+04 0.  0.
        4    1    3    3  502    0  0.15953834405E+03  0.79844931185E+03  0.15205842160E+03  0.82830982325E+03  0.12699999809E+01 0. -1.
       -4    1    3    3    0  502 -0.15953834405E+03 -0.79844931185E+03 -0.70889817278E+02  0.81731313822E+03  0.12699999809E+01 0.  1.
</event>
<event>
 5   0  0.3678896E-04  0.1707289E+04  0.7818609E-02  0.8757218E-01
        2   -1    0    0  501    0  0.00000000000E+00  0.00000000000E+00  0.18863524723E+04  0.18863524723E+04  0.25500000920E-02 0. -1.
       -2   -1    0    0    0  501  0.00000000000E+00  0.00000000000E+00 -0.38630571289E+03  0.38630571290E+03  0.25500000920E-02 0.  1.
    10030    2    1    2    0    0  0.00000000000E+00  0.00000000000E+00  0.15000467594E+04  0.22726581852E+04  0.17072887706E+04 0.  0.
        2    1    3    3  502    0 -0.66242878677E+03  0.53797978704E+03  0.72102422049E+03  0.11171884690E+04  0.25500000920E-02 0.  1.
       -2    1    3    3    0  502  0.66242878677E+03 -0.53797978704E+03  0.77902253894E+03  0.11554697162E+04  0.25500000920E-02 0. -1.
</event>
<event>
 5   0  0.3678896E-04  0.1708083E+04  0.7818609E-02  0.8756768E-01
       -2   -1    0    0    0  501  0.00000000000E+00  0.00000000000E+00  0.57965495930E+03  0.57965495931E+03  0.25500000920E-02 0. -1.
        2   -1    0    0  501    0  0.00000000000E+00  0.00000000000E+00 -0.12583116795E+04  0.12583116795E+04  0.25500000920E-02 0.  1.
    10030    2    1    2    0    0  0.00000000000E+00  0.00000000000E+00 -0.67865672023E+03  0.18379666388E+04  0.17080826741E+04 0.  0.
        2    1    3    3  502    0  0.46042404424E+03 -0.12115584987E+03 -0.11022690304E+04  0.12006939893E+04  0.25500000920E-02 0.  1.
       -2    1    3    3    0  502 -0.46042404424E+03  0.12115584987E+03  0.42361231021E+03  0.63727264953E+03  0.25500000920E-02 0. -1.
</event>
<event>
 5   0  0.3574092E-04  0.1723907E+04  0.7818609E-02  0.8747846E-01
        2   -1    0    0  501    0  0.00000000000E+00  0.00000000000E+00  0.12852742415E+04  0.12852742415E+04  0.25500000920E-02 0. -1.
       -2   -1    0    0    0  501  0.00000000000E+00  0.00000000000E+00 -0.57805854219E+03  0.57805854220E+03  0.25500000920E-02 0.  1.
    10030    2    1    2    0    0  0.00000000000E+00  0.00000000000E+00  0.70721569932E+03  0.18633327837E+04  0.17239069051E+04 0.  0.
        3    1    3    3  502    0  0.24966284343E+03  0.43193826430E+03  0.11133516096E+04  0.12200221376E+04  0.10100000352E+00 0. -1.
       -3    1    3    3    0  502 -0.24966284343E+03 -0.43193826430E+03 -0.40613591027E+03  0.64331064608E+03  0.10100000352E+00 0.  1.
</event>
<event>
 5   0  0.1920289E-04  0.1698086E+04  0.7818609E-02  0.8762457E-01
       -1   -1    0    0    0  501  0.00000000000E+00  0.00000000000E+00  0.10063057877E+04  0.10063057877E+04  0.50400001928E-02 0. -1.
        1   -1    0    0  501    0  0.00000000000E+00  0.00000000000E+00 -0.71635648575E+03  0.71635648577E+03  0.50400001928E-02 0.  1.
    10030    2    1    2    0    0  0.00000000000E+00  0.00000000000E+00  0.28994930197E+03  0.17226622735E+04  0.16980856017E+04 0.  0.
        4    1    3    3  502    0 -0.51465591306E+03  0.67498381136E+03  0.16521867473E+03  0.86473850257E+03  0.12699999809E+01 0.  1.
       -4    1    3    3    0  502  0.51465591306E+03 -0.67498381136E+03  0.12473062724E+03  0.85792377093E+03  0.12699999809E+01 0. -1.
</event>
<event>
 5   0  0.1930116E-04  0.1703558E+04  0.7818609E-02  0.8759338E-01
       -1   -1    0    0    0  501  0.00000000000E+00  0.00000000000E+00  0.50139575979E+03  0.50139575982E+03  0.50400001928E-02 0.  1.
        1   -1    0    0  501    0  0.00000000000E+00  0.00000000000E+00 -0.14470160636E+04  0.14470160636E+04  0.50400001928E-02 0. -1.
    10030    2    1    2    0    0  0.00000000000E+00  0.00000000000E+00 -0.94562030383E+03  0.19484118234E+04  0.17035582980E+04 0.  0.
        1    1    3    3  502    0 -0.29247156809E+03 -0.51493317215E+03  0.22742199493E+03  0.63436310873E+03  0.50400001928E-02 0.  1.
       -1    1    3    3    0  502  0.29247156809E+03  0.51493317215E+03 -0.11730422988E+04  0.13140487147E+04  0.50400001928E-02 0. -1.
</event>
<event>
 5   0  0.1824538E-04  0.1711497E+04  0.7818609E-02  0.8754834E-01
       -1   -1    0    0    0  501  0.00000000000E+00  0.00000000000E+00  0.77360205994E+03  0.77360205996E+03  0.50400001928E-02 0. -1.
        1   -1    0    0  501    0  0.00000000000E+00  0.00000000000E+00 -0.94661822419E+03  0.94661822420E+03  0.50400001928E-02 0.  1.
    10030    2    1    2    0    0  0.00000000000E+00  0.00000000000E+00 -0.17301616425E+03  0.17202202842E+04  0.17114973657E+04 0.  0.
        3    1    3    3  502    0 -0.25637529054E+03 -0.14390538581E+03  0.72124749411E+03  0.77886777287E+03  0.10100000352E+00 0. -1.
       -3    1    3    3    0  502  0.25637529054E+03  0.14390538581E+03 -0.89426365835E+03  0.94135251129E+03  0.10100000352E+00 0.  1.
</event>
<event>
 5   0  0.1893284E-04  0.1702741E+04  0.7818609E-02  0.8759803E-01
       -1   -1    0    0    0  501  0.00000000000E+00  0.00000000000E+00  0.72426399973E+03  0.72426399975E+03  0.50400001928E-02 0. -1.
        1   -1    0    0  501    0  0.00000000000E+00  0.00000000000E+00 -0.10007834783E+04  0.10007834783E+04  0.50400001928E-02 0.  1.
    10030    2    1    2    0    0  0.00000000000E+00  0.00000000000E+00 -0.27651947853E+03  0.17250474780E+04  0.17027406671E+04 0.  0.
        2    1    3    3  502    0  0.61211785187E+03 -0.12046450389E+03 -0.72518647139E+03  0.95660617788E+03  0.25500000920E-02 0.  1.
       -2    1    3    3    0  502 -0.61211785187E+03  0.12046450389E+03  0.44866699286E+03  0.76844130014E+03  0.25500000920E-02 0. -1.
</event>
<event>
 5   0  0.1824538E-04  0.1715277E+04  0.7818609E-02  0.8752699E-01
       -1   -1    0    0    0  501  0.00000000000E+00  0.00000000000E+00  0.37622210110E+03  0.37622210114E+03  0.50400001928E-02 0. -1.
        1   -1    0    0  501    0  0.00000000000E+00  0.00000000000E+00 -0.19550793617E+04  0.19550793617E+04  0.50400001928E-02 0.  1.
    10030    2    1    2    0    0  0.00000000000E+00  0.00000000000E+00 -0.15788572606E+04  0.23313014629E+04  0.17152773133E+04 0.  0.
        3    1    3    3  502    0 -0.38008357873E+03 -0.76538559226E+03 -0.69080505431E+03  0.10988586192E+04  0.10100000352E+00 0.  1.
       -3    1    3    3    0  502  0.38008357873E+03  0.76538559226E+03 -0.88805220633E+03  0.12324428437E+04  0.10100000352E+00 0. -1.
</event>
<event>
 5   0  0.3605571E-04  0.1669197E+04  0.7818609E-02  0.8779130E-01
       -2   -1    0    0    0  501  0.00000000000E+00  0.00000000000E+00  0.63644276632E+03  0.63644276633E+03  0.25500000920E-02 0.  1.
        2   -1    0    0  501    0  0.00000000000E+00  0.00000000000E+00 -0.10944492109E+04  0.10944492109E+04  0.25500000920E-02 0. -1.
    10030    2    1    2    0    0  0.00000000000E+00  0.00000000000E+00 -0.45800644457E+03  0.17308919772E+04  0.16691965533E+04 0.  0.
        4    1    3    3  502    0 -0.14286372255E+03 -0.43268064532E+03  0.49607667896E+03  0.67358464083E+03  0.12699999809E+01 0.  1.
       -4    1    3    3    0  502  0.14286372255E+03  0.43268064532E+03 -0.95408312353E+03  0.10573073364E+04  0.12699999809E+01 0. -1.
</event>
<event>
 5   0  0.3605571E-04  0.1770401E+04  0.7818609E-02  0.8722200E-01
       -2   -1    0    0    0  501  0.00000000000E+00  0.00000000000E+00  0.36696059937E+03  0.36696059938E+03  0.25500000920E-02 0.  1.
        2   -1    0    0  501    0  0.00000000000E+00  0.00000000000E+00 -0.21353243486E+04  0.21353243486E+04  0.25500000920E-02 0. -1.
    10030    2    1    2    0    0  0.00000000000E+00  0.00000000000E+00 -0.17683637493E+04  0.25022849480E+04  0.17704009747E+04 0.  0.
        4    1    3    3  502    0  0.35630178858E+03  0.59389876631E+03 -0.16633635821E+04  0.18017898679E+04  0.12699999809E+01 0. -1.
       -4    1    3    3    0  502 -0.35630178858E+03 -0.59389876631E+03 -0.10500016718E+03  0.70049508005E+03  0.12699999809E+01 0.  1.
</event>
<event>
 5   0  0.3678896E-04  0.1695387E+04  0.7818609E-02  0.8764000E-01
       -2   -1    0    0    0  501  0.00000000000E+00  0.00000000000E+00  0.41249366555E+03  0.41249366556E+03  0.25500000920E-02 0. -1.
        2   -1    0    0  501    0  0.00000000000E+00  0.00000000000E+00 -0.17420486977E+04  0.17420486977E+04  0.25500000920E-02 0.  1.
    10030    2    1    2    0    0  0.00000000000E+00  0.00000000000E+00 -0.13295550322E+04  0.21545423633E+04  0.16953867440E+04 0.  0.
        2    1    3    3  502    0  0.14080188058E+03  0.42299259772E+02  0.39616826439E+03  0.42256797166E+03  0.25500000920E-02 0. -1.
       -2    1    3    3    0  502 -0.14080188058E+03 -0.42299259772E+02 -0.17257232966E+04  0.17319743916E+04  0.25500000920E-02 0.  1.
</event>
<event>
 5   0  0.1317625E-04  0.1708490E+04  0.7818609E-02  0.8756537E-01
        3   -1    0    0  501    0  0.00000000000E+00  0.00000000000E+00  0.47434100534E+03  0.47434101609E+03  0.10100000352E+00 0.  1.
       -3   -1    0    0    0  501  0.00000000000E+00  0.00000000000E+00 -0.15384174191E+04  0.15384174224E+04  0.10100000352E+00 0. -1.
    10030    2    1    2    0    0  0.00000000000E+00  0.00000000000E+00 -0.10640764138E+04  0.20127584385E+04  0.17084899524E+04 0.  0.
        4    1    3    3  502    0 -0.53170765725E+03  0.61756327467E+03 -0.83385848327E+03  0.11659412567E+04  0.12699999809E+01 0. -1.
       -4    1    3    3    0  502  0.53170765725E+03 -0.61756327467E+03 -0.23021793048E+03  0.84681718182E+03  0.12699999809E+01 0.  1.
</event>
<event>
 5   0  0.1920289E-04  0.1697216E+04  0.7818609E-02  0.8762954E-01
       -1   -1    0    0    0  501  0.00000000000E+00  0.00000000000E+00  0.16292699225E+04  0.16292699225E+04  0.50400001928E-02 0.  1.
        1   -1    0    0  501    0  0.00000000000E+00  0.00000000000E+00 -0.44199882609E+03  0.44199882612E+03  0.50400001928E-02 0. -1.
    10030    2    1    2    0    0  0.00000000000E+00  0.00000000000E+00  0.11872710964E+04  0.20712687486E+04  0.16972158297E+04 0.  0.
        4    1    3    3  502    0 -0.83301384064E+03 -0.16082969570E+03  0.61664667216E+03  0.10488245711E+04  0.12699999809E+01 0.  1.
       -4    1    3    3    0  502  0.83301384064E+03  0.16082969570E+03  0.57062442422E+03  0.10224441775E+04  0.12699999809E+01 0. -1.
</event>
<event>
 5   0  0.1824538E-04  0.1698861E+04  0.7818609E-02  0.8762014E-01
        1   -1    0    0  501    0  0.00000000000E+00  0.00000000000E+00  0.92296952447E+03  0.92296952448E+03  0.50400001928E-02 0.  1.
       -1   -1    0    0    0  501  0.00000000000E+00  0.00000000000E+00 -0.78175088935E+03  0.78175088937E+03  0.50400001928E-02 0. -1.
    10030    2    1    2    0    0  0.00000000000E+00  0.00000000000E+00  0.14121863512E+03  0.17047204138E+04  0.16988610851E+04 0.  0.
        3    1    3    3  502    0  0.30622906854E+03 -0.44228530191E+03 -0.58903128454E+03  0.79771573576E+03  0.10100000352E+00 0. -1.
       -3    1    3    3    0  502 -0.30622906854E+03  0.44228530191E+03  0.73024991966E+03  0.90700467809E+03  0.10100000352E+00 0.  1.
</event>
<event>
 5   0  0.1920289E-04  0.1676127E+04  0.7818609E-02  0.8775098E-01
        1   -1    0    0  501    0  0.00000000000E+00  0.00000000000E+00  0.53704185289E+03  0.53704185292E+03  0.50400001928E-02 0.  1.
       -1   -1    0    0    0  501  0.00000000000E+00  0.00000000000E+00 -0.13078132867E+04  0.13078132867E+04  0.50400001928E-02 0. -1.
    10030    2    1    2    0    0  0.00000000000E+00  0.00000000000E+00 -0.77077143379E+03  0.18448551396E+04  0.16761270486E+04 0.  0.
        4    1    3    3  502    0 -0.57824328132E+03 -0.15488470042E+03  0.26016587429E+03  0.65271927952E+03  0.12699999809E+01 0.  1.
       -4    1    3    3    0  502  0.57824328132E+03  0.15488470042E+03 -0.10309373081E+04  0.11921358601E+04  0.12699999809E+01 0. -1.
</event>
<event>
 5   0  0.1920289E-04  0.1707497E+04  0.7818609E-02  0.8757100E-01
        1   -1    0    0  501    0  0.00000000000E+00  0.00000000000E+00  0.14475648383E+04  0.14475648383E+04  0.50400001928E-02 0.  1.
       -1   -1    0    0    0  501  0.00000000000E+00  0.00000000000E+00 -0.50352617773E+03  0.50352617776E+03  0.50400001928E-02 0. -1.
    10030    2    1    2    0    0  0.00000000000E+00  0.00000000000E+00  0.94403866061E+03  0.19510910161E+04  0.17074973383E+04 0.  0.
        4    1    3    3  502    0  0.82277395876E+03 -0.18526702478E+03  0.32040958613E+03  0.90218887905E+03  0.12699999809E+01 0. -1.
       -4    1    3    3    0  502 -0.82277395876E+03  0.18526702478E+03  0.62362907448E+03  0.10489021371E+04  0.12699999809E+01 0.  1.
</event>
<event>
 5   0  0.3516723E-04  0.1687701E+04  0.7818609E-02  0.8768410E-01
       -2   -1    0    0    0  501  0.00000000000E+00  0.00000000000E+00  0.54422242453E+03  0.54422242453E+03  0.25500000920E-02 0.  1.
        2   -1    0    0  501    0  0.00000000000E+00  0.00000000000E+00 -0.13084418360E+04  0.13084418360E+04  0.25500000920E-02 0. -1.
    10030    2    1    2    0    0  0.00000000000E+00  0.00000000000E+00 -0.76421941146E+03  0.18526642605E+04  0.16877006706E+04 0.  0.
        1    1    3    3  502    0 -0.72294236384E+03 -0.35884804265E+03 -0.65248891778E+03  0.10378628845E+04  0.50400001928E-02 0. -1.
       -1    1    3    3    0  502  0.72294236384E+03  0.35884804265E+03 -0.11173049368E+03  0.81480137604E+03  0.50400001928E-02 0.  1.
</event>
<event>
 5   0  0.3678896E-04  0.1668118E+04  0.7818609E-02  0.8779760E-01
       -2   -1    0    0    0  501  0.00000000000E+00  0.00000000000E+00  0.31077769234E+03  0.31077769235E+03  0.25500000920E-02 0.  1.
        2   -1    0    0  501    0  0.00000000000E+00  0.00000000000E+00 -0.22384302550E+04  0.22384302550E+04  0.25500000920E-02 0. -1.
    10030    2    1    2    0    0  0.00000000000E+00  0.00000000000E+00 -0.19276525627E+04  0.25492079474E+04  0.16681177286E+04 0.  0.
        2    1    3    3  502    0 -0.72213450433E+03  0.22672170975E+03 -0.14992904032E+04  0.16795096573E+04  0.25500000920E-02 0. -1.
       -2    1    3    3    0  502  0.72213450433E+03 -0.22672170975E+03 -0.42836215954E+03  0.86969829007E+03  0.25500000920E-02 0.  1.
</event>
<event>
 5   0  0.3574092E-04  0.1741109E+04  0.7818609E-02  0.8738260E-01
        2   -1    0    0  501    0  0.00000000000E+00  0.00000000000E+00  0.11684505275E+04  0.11684505275E+04  0.25500000920E-02 0.  1.
       -2   -1    0    0    0  501  0.00000000000E+00  0.00000000000E+00 -0.64860679350E+03  0.64860679351E+03  0.25500000920E-02 0. -1.
    10030    2    1    2    0    0  0.00000000000E+00  0.00000000000E+00  0.51984373398E+03  0.18170573210E+04  0.17411087847E+04 0.  0.
        3    1    3    3  502    0 -0.84969665658E+03 -0.70658578171E+02  0.76506005162E+02  0.85605503438E+03  0.10100000352E+00 0.  1.
       -3    1    3    3    0  502  0.84969665658E+03  0.70658578171E+02  0.44333772882E+03  0.96100228661E+03  0.10100000352E+00 0. -1.
</event>
<event>
 5   0  0.3573262E-04  0.1697674E+04  0.7818609E-02  0.8762692E-01
       -2   -1    0    0    0  501  0.00000000000E+00  0.00000000000E+00  0.82852443925E+03  0.82852443926E+03  0.25500000920E-02 0. -1.
        2   -1    0    0  501    0  0.00000000000E+00  0.00000000000E+00 -0.86964731823E+03  0.86964731823E+03  0.25500000920E-02 0.  1.
    10030    2    1    2    0    0  0.00000000000E+00  0.00000000000E+00 -0.41122878973E+02  0.16981717575E+04  0.16976737692E+04 0.  0.
        5    1    3    3  502    0 -0.14313996909E+03 -0.13655299233E+03 -0.84625266074E+03  0.86908079387E+03  0.46999998093E+01 0.  1.
       -5    1    3    3    0  502  0.14313996909E+03  0.13655299233E+03  0.80512978177E+03  0.82909096362E+03  0.46999998093E+01 0. -1.
</event>
<event>
 5   0  0.1815663E-04  0.1686323E+04  0.7818609E-02  0.8769203E-01
       -1   -1    0    0    0  501  0.00000000000E+00  0.00000000000E+00  0.62704833304E+03  0.62704833306E+03  0.50400001928E-02 0.  1.
        1   -1    0    0  501    0  0.00000000000E+00  0.00000000000E+00 -0.11337584712E+04  0.11337584712E+04  0.50400001928E-02 0. -1.
    10030    2    1    2    0    0  0.00000000000E+00  0.00000000000E+00 -0.50671013816E+03  0.17608068043E+04  0.16863230526E+04 0.  0.
        5    1    3    3  502    0 -0.28237377665E+03  0.48575299482E+03  0.40306822691E+03  0.69150343980E+03  0.46999998093E+01 0.  1.
       -5    1    3    3    0  502  0.28237377665E+03 -0.48575299482E+03 -0.90977836507E+03  0.10693033645E+04  0.46999998093E+01 0. -1.
</event>
<event>
 5   0  0.1893284E-04  0.1751960E+04  0.7818609E-02  0.8732272E-01
        1   -1    0    0  501    0  0.00000000000E+00  0.00000000000E+00  0.75714169968E+03  0.75714169969E+03  0.50400001928E-02 0.  1.
       -1   -1    0    0    0  501  0.00000000000E+00  0.00000000000E+00 -0.10134713193E+04  0.10134713193E+04  0.50400001928E-02 0. -1.
    10030    2    1    2    0    0  0.00000000000E+00  0.00000000000E+00 -0.25632961957E+03  0.17706130190E+04  0.17519604987E+04 0.  0.
        2    1    3    3  502    0  0.85702546784E+03 -0.17903285869E+03 -0.15667830674E+03  0.88943437579E+03  0.25500000920E-02 0. -1.
       -2    1    3    3    0  502 -0.85702546784E+03  0.17903285869E+03 -0.99651312838E+02  0.88117864317E+03  0.25500000920E-02 0.  1.
</event>
<event>
 5   0  0.1815663E-04  0.1680559E+04  0.7818609E-02  0.8772531E-01
       -1   -1    0    0    0  501  0.00000000000E+00  0.00000000000E+00  0.88666263302E+03  0.88666263303E+03  0.50400001928E-02 0. -1.
        1   -1    0    0  501    0  0.00000000000E+00  0.00000000000E+00 -0.79632233453E+03  0.79632233455E+03  0.50400001928E-02 0.  1.
    10030    2    1    2    0    0  0.00000000000E+00  0.00000000000E+00  0.90340298489E+02  0.16829849676E+04  0.16805585475E+04 0.  0.
        5    1    3    3  502    0 -0.43414457655E+03 -0.71318481716E+03 -0.49481238462E+02  0.83641172860E+03  0.46999998093E+01 0.  1.
       -5    1    3    3    0  502  0.43414457655E+03  0.71318481716E+03  0.13982153695E+03  0.84657323899E+03  0.46999998093E+01 0. -1.
</event>
<event>
 5   0  0.3678896E-04  0.1699724E+04  0.7818609E-02  0.8761522E-01
       -2   -1    0    0    0  501  0.00000000000E+00  0.00000000000E+00  0.43229287530E+03  0.43229287531E+03  0.25500000920E-02 0. -1.
        2   -1    0    0  501    0  0.00000000000E+00  0.00000000000E+00 -0.16707786855E+04  0.16707786855E+04  0.25500000920E-02 0.  1.
    10030    2    1    2    0    0  0.00000000000E+00  0.00000000000E+00 -0.12384858102E+04  0.21030715608E+04  0.16997243564E+04 0.  0.
        2    1    3    3  502    0 -0.27959091556E+03 -0.80062464370E+03 -0.68807537857E+03  0.10920707975E+04  0.25500000920E-02 0. -1.
       -2    1    3    3    0  502  0.27959091556E+03  0.80062464370E+03 -0.55041043164E+03  0.10110007633E+04  0.25500000920E-02 0.  1.
</event>
<event>
 5   0  0.3516723E-04  0.1508511E+04  0.7818609E-02  0.8878813E-01
        2   -1    0    0  501    0  0.00000000000E+00  0.00000000000E+00  0.17483771460E+04  0.17483771460E+04  0.25500000920E-02 0. -1.
       -2   -1    0    0    0  501  0.00000000000E+00  0.00000000000E+00 -0.32538837299E+03  0.32538837300E+03  0.25500000920E-02 0.  1.
    10030    2    1    2    0    0  0.00000000000E+00  0.00000000000E+00  0.14229887730E+04  0.20737655190E+04  0.15085113124E+04 0.  0.
        1    1    3    3  502    0  0.12657048841E+03 -0.30301459196E+03  0.16449453883E+04  0.16774037266E+04  0.50400001928E-02 0. -1.
       -1    1    3    3    0  502 -0.12657048841E+03  0.30301459196E+03 -0.22195661522E+03  0.39636179248E+03  0.50400001928E-02 0.  1.
</event>
<event>
 5   0  0.3516723E-04  0.1422253E+04  0.7818609E-02  0.8937867E-01
        2   -1    0    0  501    0  0.00000000000E+00  0.00000000000E+00  0.34763048647E+03  0.34763048648E+03  0.25500000920E-02 0.  1.
       -2   -1    0    0    0  501  0.00000000000E+00  0.00000000000E+00 -0.14547076215E+04  0.14547076215E+04  0.25500000920E-02 0. -1.
    10030    2    1    2    0    0  0.00000000000E+00  0.00000000000E+00 -0.11070771350E+04  0.18023381080E+04  0.14222527457E+04 0.  0.
        1    1    3    3  502    0  0.38921688057E+03 -0.21038091870E+02 -0.13072740569E+04  0.13641472945E+04  0.50400001928E-02 0. -1.
       -1    1    3    3    0  502 -0.38921688057E+03  0.21038091870E+02  0.20019692184E+03  0.43819081343E+03  0.50400001928E-02 0.  1.
</event>
<event>
 5   0  0.3574092E-04  0.1697924E+04  0.7818609E-02  0.8762549E-01
       -2   -1    0    0    0  501  0.00000000000E+00  0.00000000000E+00  0.56125370701E+03  0.56125370701E+03  0.25500000920E-02 0. -1.
        2   -1    0    0  501    0  0.00000000000E+00  0.00000000000E+00 -0.12841549577E+04  0.12841549577E+04  0.25500000920E-02 0.  1.
    10030    2    1    2    0    0  0.00000000000E+00  0.00000000000E+00 -0.72290125070E+03  0.18454086647E+04  0.16979242980E+04 0.  0.
        3    1    3    3  502    0 -0.48832598111E+03 -0.30791833016E+03  0.31508098615E+03  0.65768685551E+03  0.10100000352E+00 0. -1.
       -3    1    3    3    0  502  0.48832598111E+03  0.30791833016E+03 -0.10379822369E+04  0.11877218092E+04  0.10100000352E+00 0.  1.
</event>
<event>
 5   0  0.1920289E-04  0.1709199E+04  0.7818609E-02  0.8756135E-01
       -1   -1    0    0    0  501  0.00000000000E+00  0.00000000000E+00  0.36152359727E+03  0.36152359730E+03  0.50400001928E-02 0.  1.
        1   -1    0    0  501    0  0.00000000000E+00  0.00000000000E+00 -0.20201725927E+04  0.20201725927E+04  0.50400001928E-02 0. -1.
    10030    2    1    2    0    0  0.00000000000E+00  0.00000000000E+00 -0.16586489954E+04  0.23816961900E+04  0.17091987162E+04 0.  0.
        4    1    3    3  502    0 -0.42893976822E+03 -0.27558145384E+03  0.12639248040E+03  0.52527243833E+03  0.12699999809E+01 0.  1.
       -4    1    3    3    0  502  0.42893976822E+03  0.27558145384E+03 -0.17850414758E+04  0.18564237517E+04  0.12699999809E+01 0. -1.
</event>
<event>
 5   0  0.3574092E-04  0.1696335E+04  0.7818609E-02  0.8763458E-01
       -2   -1    0    0    0  501  0.00000000000E+00  0.00000000000E+00  0.15450952656E+04  0.15450952656E+04  0.25500000920E-02 0. -1.
        2   -1    0    0  501    0  0.00000000000E+00  0.00000000000E+00 -0.46559441655E+03  0.46559441656E+03  0.25500000920E-02 0.  1.
    10030    2    1    2    0    0  0.00000000000E+00  0.00000000000E+00  0.10795008490E+04  0.20106896821E+04  0.16963345527E+04 0.  0.
        3    1    3    3  502    0  0.18658829028E+03  0.30804595045E+03 -0.37046003418E+03  0.51667024763E+03  0.10100000352E+00 0.  1.
       -3    1    3    3    0  502 -0.18658829028E+03 -0.30804595045E+03  0.14499608832E+04  0.14940194345E+04  0.10100000352E+00 0. -1.
</event>
<event>
 5   0  0.1893284E-04  0.1649867E+04  0.7818609E-02  0.8790485E-01
       -1   -1    0    0    0  501  0.00000000000E+00  0.00000000000E+00  0.55231580606E+03  0.55231580608E+03  0.50400001928E-02 0.  1.
        1   -1    0    0  501    0  0.00000000000E+00  0.00000000000E+00 -0.12321131495E+04  0.12321131495E+04  0.50400001928E-02 0. -1.
    10030    2    1    2    0    0  0.00000000000E+00  0.00000000000E+00 -0.67979734345E+03  0.17844289556E+04  0.16498673490E+04 0.  0.
        2    1    3    3  502    0 -0.40098124974E+03 -0.71863111726E+03 -0.27777798355E+03  0.86854893558E+03  0.25500000920E-02 0.  1.
       -2    1    3    3    0  502  0.40098124974E+03  0.71863111726E+03 -0.40201935990E+03  0.91588002003E+03  0.25500000920E-02 0. -1.
</event>
<event>
 5   0  0.3573262E-04  0.1703235E+04  0.7818609E-02  0.8759521E-01
        2   -1    0    0  501    0  0.00000000000E+00  0.00000000000E+00  0.22674238279E+04  0.22674238279E+04  0.25500000920E-02 0. -1.
       -2   -1    0    0    0  501  0.00000000000E+00  0.00000000000E+00 -0.31985760844E+03  0.31985760845E+03  0.25500000920E-02 0.  1.
    10030    2    1    2    0    0  0.00000000000E+00  0.00000000000E+00  0.19475662194E+04  0.25872814363E+04  0.17032354657E+04 0.  0.
        5    1    3    3  502    0 -0.19339754743E+03  0.11013157258E+03 -0.27488106185E+03  0.35371353211E+03  0.46999998093E+01 0.  1.
       -5    1    3    3    0  502  0.19339754743E+03 -0.11013157258E+03  0.22224472813E+04  0.22335679042E+04  0.46999998093E+01 0. -1.
</event>
<event>
 5   0  0.3574092E-04  0.1698830E+04  0.7818609E-02  0.8762032E-01
        2   -1    0    0  501    0  0.00000000000E+00  0.00000000000E+00  0.69714148036E+03  0.69714148036E+03  0.25500000920E-02 0.  1.
       -2   -1    0    0    0  501  0.00000000000E+00  0.00000000000E+00 -0.10349484962E+04  0.10349484962E+04  0.25500000920E-02 0. -1.
    10030    2    1    2    0    0  0.00000000000E+00  0.00000000000E+00 -0.33780701588E+03  0.17320899766E+04  0.16988296286E+04 0.  0.
        3    1    3    3  502    0 -0.47143296688E+03 -0.70096737448E+03 -0.25953258141E+03  0.88372024610E+03  0.10100000352E+00 0. -1.
       -3    1    3    3    0  502  0.47143296688E+03  0.70096737448E+03 -0.78274434469E+02  0.84836973051E+03  0.10100000352E+00 0.  1.
</event>
<event>
 5   0  0.1893284E-04  0.1761502E+04  0.7818609E-02  0.8727044E-01
       -1   -1    0    0    0  501  0.00000000000E+00  0.00000000000E+00  0.11122640764E+04  0.11122640764E+04  0.50400001928E-02 0.  1.
        1   -1    0    0  501    0  0.00000000000E+00  0.00000000000E+00 -0.69742642094E+03  0.69742642095E+03  0.50400001928E-02 0. -1.
    10030    2    1    2    0    0  0.00000000000E+00  0.00000000000E+00  0.41483765544E+03  0.18096904973E+04  0.17615020340E+04 0.  0.
        2    1    3    3  502    0  0.13785225661E+03  0.84974160928E+03  0.39867912545E+03  0.94868809009E+03  0.25500000920E-02 0. -1.
       -2    1    3    3    0  502 -0.13785225661E+03 -0.84974160928E+03  0.16158529986E+02  0.86100240725E+03  0.25500000920E-02 0.  1.
</event>
<event>
 5   0  0.1893284E-04  0.1703847E+04  0.7818609E-02  0.8759173E-01
        1   -1    0    0  501    0  0.00000000000E+00  0.00000000000E+00  0.17215079353E+04  0.17215079353E+04  0.50400001928E-02 0. -1.
       -1   -1    0    0    0  501  0.00000000000E+00  0.00000000000E+00 -0.42159202226E+03  0.42159202229E+03  0.50400001928E-02 0.  1.
    10030    2    1    2    0    0  0.00000000000E+00  0.00000000000E+00  0.12999159130E+04  0.21430999576E+04  0.17038474249E+04 0.  0.
        2    1    3    3  502    0  0.45496024230E+03 -0.67741789034E+03  0.95777281278E+03  0.12582577562E+04  0.25500000920E-02 0. -1.
       -2    1    3    3    0  502 -0.45496024230E+03  0.67741789034E+03  0.34214310022E+03  0.88484220133E+03  0.25500000920E-02 0.  1.
</event>
<event>
 5   0  0.1815663E-04  0.1685072E+04  0.7818609E-02  0.8769924E-01
       -1   -1    0    0    0  501  0.00000000000E+00  0.00000000000E+00  0.16753813157E+04  0.16753813158E+04  0.50400001928E-02 0. -1.
        1   -1    0    0  501    0  0.00000000000E+00  0.00000000000E+00 -0.42370463664E+03  0.42370463667E+03  0.50400001928E-02 0.  1.
    10030    2    1    2    0    0  0.00000000000E+00  0.00000000000E+00  0.12516766791E+04  0.20990859524E+04  0.16850719055E+04 0.  0.
        5    1    3    3  502    0 -0.81991967793E+02 -0.75307523055E+03  0.16644906754E+03  0.77561096416E+03  0.46999998093E+01 0. -1.
       -5    1    3    3    0  502  0.81991967793E+02  0.75307523055E+03  0.10852276116E+04  0.13234749883E+04  0.46999998093E+01 0.  1.
</event>
<event>
 5   0  0.3678896E-04  0.1662848E+04  0.7818609E-02  0.8782842E-01
       -2   -1    0    0    0  501  0.00000000000E+00  0.00000000000E+00  0.45598925299E+03  0.45598925300E+03  0.25500000920E-02 0. -1.
        2   -1    0    0  501    0  0.00000000000E+00  0.00000000000E+00 -0.15159694531E+04  0.15159694531E+04  0.25500000920E-02 0.  1.
    10030    2    1    2    0    0  0.00000000000E+00  0.00000000000E+00 -0.10599802001E+04  0.19719587061E+04  0.16628478926E+04 0.  0.
        2    1    3    3  502    0  0.64830518352E+03  0.51264001025E+03 -0.42282329561E+03  0.92837434820E+03  0.25500000920E-02 0. -1.
       -2    1    3    3    0  502 -0.64830518352E+03 -0.51264001025E+03 -0.63715690449E+03  0.10435843579E+04  0.25500000920E-02 0.  1.
</event>
<event>
 5   0  0.3678896E-04  0.1693225E+04  0.7818609E-02  0.8765238E-01
        2   -1    0    0  501    0  0.00000000000E+00  0.00000000000E+00  0.19243096308E+04  0.19243096308E+04  0.25500000920E-02 0.  1.
       -2   -1    0    0    0  501  0.00000000000E+00  0.00000000000E+00 -0.37247260723E+03  0.37247260724E+03  0.25500000920E-02 0. -1.
    10030    2    1    2    0    0  0.00000000000E+00  0.00000000000E+00  0.15518370236E+04  0.22967822381E+04  0.16932248821E+04 0.  0.
        2    1    3    3  502    0 -0.23588390967E+03 -0.78868372959E+03  0.10441035693E+04  0.13295922336E+04  0.25500000920E-02 0.  1.
       -2    1    3    3    0  502  0.23588390967E+03  0.78868372959E+03  0.50773345431E+03  0.96719000449E+03  0.25500000920E-02 0. -1.
</event>
<event>
 5   0  0.1824538E-04  0.1718538E+04  0.7818609E-02  0.8750861E-01
       -1   -1    0    0    0  501  0.00000000000E+00  0.00000000000E+00  0.63195233770E+03  0.63195233772E+03  0.50400001928E-02 0.  1.
        1   -1    0    0  501    0  0.00000000000E+00  0.00000000000E+00 -0.11683527964E+04  0.11683527964E+04  0.50400001928E-02 0. -1.
    10030    2    1    2    0    0  0.00000000000E+00  0.00000000000E+00 -0.53640045871E+03  0.18003051341E+04  0.17185380775E+04 0.  0.
        3    1    3    3  502    0  0.32924094241E+03 -0.26734070252E+03 -0.10510670808E+04  0.11334075472E+04  0.10100000352E+00 0. -1.
       -3    1    3    3    0  502 -0.32924094241E+03  0.26734070252E+03  0.51466662212E+03  0.66689758697E+03  0.10100000352E+00 0.  1.
</event>
<event>
 5   0  0.3605571E-04  0.1568410E+04  0.7818609E-02  0.8840194E-01
        2   -1    0    0  501    0  0.00000000000E+00  0.00000000000E+00  0.12925960661E+04  0.12925960661E+04  0.25500000920E-02 0. -1.
       -2   -1    0    0    0  501  0.00000000000E+00  0.00000000000E+00 -0.47576912247E+03  0.47576912247E+03  0.25500000920E-02 0.  1.
    10030    2    1    2    0    0  0.00000000000E+00  0.00000000000E+00  0.81682694362E+03  0.17683651886E+04  0.15684097629E+04 0.  0.
        4    1    3    3  502    0  0.62176498330E+03 -0.34698020127E+02  0.94581327381E+03  0.11324133560E+04  0.12699999809E+01 0. -1.
       -4    1    3    3    0  502 -0.62176498330E+03  0.34698020127E+02 -0.12898633019E+03  0.63595183255E+03  0.12699999809E+01 0.  1.
</event>
<event>
 5   0  0.1930116E-04  0.1712275E+04  0.7818609E-02  0.8754394E-01
        1   -1    0    0  501    0  0.00000000000E+00  0.00000000000E+00  0.54992105935E+03  0.54992105937E+03  0.50400001928E-02 0. -1.
       -1   -1    0    0    0  501  0.00000000000E+00  0.00000000000E+00 -0.13328667838E+04  0.13328667838E+04  0.50400001928E-02 0.  1.
    10030    2    1    2    0    0  0.00000000000E+00  0.00000000000E+00 -0.78294572448E+03  0.18827878432E+04  0.17122751108E+04 0.  0.
        1    1    3    3  502    0  0.80416824332E-01 -0.46920079040E+03 -0.11789015241E+04  0.12688412792E+04  0.50400001928E-02 0.  1.
       -1    1    3    3    0  502 -0.80416824332E-01  0.46920079040E+03  0.39595579964E+03  0.61394656402E+03  0.50400001928E-02 0. -1.
</event>
<event>
 5   0  0.3678896E-04  0.1704051E+04  0.7818609E-02  0.8759057E-01
        2   -1    0    0  501    0  0.00000000000E+00  0.00000000000E+00  0.25376458539E+04  0.25376458539E+04  0.25500000920E-02 0. -1.
       -2   -1    0    0    0  501  0.00000000000E+00  0.00000000000E+00 -0.28607125985E+03  0.28607125986E+03  0.25500000920E-02 0.  1.
    10030    2    1    2    0    0  0.00000000000E+00  0.00000000000E+00  0.22515745940E+04  0.28237171138E+04  0.17040511101E+04 0.  0.
        2    1    3    3  502    0  0.59420639773E+03 -0.47223982709E+03  0.48431867283E+03  0.90036452298E+03  0.25500000920E-02 0.  1.
       -2    1    3    3    0  502 -0.59420639773E+03  0.47223982709E+03  0.17672559212E+04  0.19233525908E+04  0.25500000920E-02 0. -1.
</event>
<event>
 5   0  0.1815663E-04  0.1709720E+04  0.7818609E-02  0.8755840E-01
        1   -1    0    0  501    0  0.00000000000E+00  0.00000000000E+00  0.16517504561E+04  0.16517504561E+04  0.50400001928E-02 0.  1.
       -1   -1    0    0    0  501  0.00000000000E+00  0.00000000000E+00 -0.44243098731E+03  0.44243098734E+03  0.50400001928E-02 0. -1.
    10030    2    1    2    0    0  0.00000000000E+00  0.00000000000E+00  0.12093194688E+04  0.20941814435E+04  0.17097199597E+04 0.  0.
        5    1    3    3  502    0  0.51150960964E+03  0.60645694687E+03  0.21475247899E+03  0.82193237336E+03  0.46999998093E+01 0.  1.
       -5    1    3    3    0  502 -0.51150960964E+03 -0.60645694687E+03  0.99456698983E+03  0.12722490701E+04  0.46999998093E+01 0. -1.
</event>
<event>
 5   0  0.3516723E-04  0.1695353E+04  0.7818609E-02  0.8764019E-01
       -2   -1    0    0    0  501  0.00000000000E+00  0.00000000000E+00  0.11535220370E+04  0.11535220370E+04  0.25500000920E-02 0.  1.
        2   -1    0    0  501    0  0.00000000000E+00  0.00000000000E+00 -0.62292312074E+03  0.62292312075E+03  0.25500000920E-02 0. -1.
    10030    2    1    2    0    0  0.00000000000E+00  0.00000000000E+00  0.53059891622E+03  0.17764451577E+04  0.16953531162E+04 0.  0.
        1    1    3    3  502    0  0.37733113382E+03  0.17239967769E+03  0.10398841020E+04  0.11195800012E+04  0.50400001928E-02 0. -1.
       -1    1    3    3    0  502 -0.37733113382E+03 -0.17239967769E+03 -0.50928518576E+03  0.65686515655E+03  0.50400001928E-02 0.  1.
</event>
<event>
 5   0  0.3573262E-04  0.1695684E+04  0.7818609E-02  0.8763830E-01
       -2   -1    0    0    0  501  0.00000000000E+00  0.00000000000E+00  0.41189659616E+03  0.41189659617E+03  0.25500000920E-02 0. -1.
        2   -1    0    0  501    0  0.00000000000E+00  0.00000000000E+00 -0.17451864647E+04  0.17451864647E+04  0.25500000920E-02 0.  1.
    10030    2    1    2    0    0  0.00000000000E+00  0.00000000000E+00 -0.13332898686E+04  0.21570830609E+04  0.16956843627E+04 0.  0.
        5    1    3    3  502    0 -0.36491721569E+03  0.39544398043E+03 -0.15001131135E+04  0.15937069867E+04  0.46999998093E+01 0.  1.
       -5    1    3    3    0  502  0.36491721569E+03 -0.39544398043E+03  0.16682324497E+03  0.56337607424E+03  0.46999998093E+01 0. -1.
</event>
<event>
 5   0  0.1930116E-04  0.1715924E+04  0.7818609E-02  0.8752334E-01
        1   -1    0    0  501    0  0.00000000000E+00  0.00000000000E+00  0.13138528758E+04  0.13138528758E+04  0.50400001928E-02 0.  1.
       -1   -1    0    0    0  501  0.00000000000E+00  0.00000000000E+00 -0.56025963750E+03  0.56025963752E+03  0.50400001928E-02 0. -1.
    10030    2    1    2    0    0  0.00000000000E+00  0.00000000000E+00  0.75359323829E+03  0.18741125133E+04  0.17159239330E+04 0.  0.
        1    1    3    3  502    0 -0.58152130431E+03  0.60790561835E+03  0.56079868760E+03  0.10110447251E+04  0.50400001928E-02 0.  1.
       -1    1    3    3    0  502  0.58152130431E+03 -0.60790561835E+03  0.19279455069E+03  0.86306778818E+03  0.50400001928E-02 0. -1.
</event>
<event>
 5   0  0.1920289E-04  0.1679885E+04  0.7818609E-02  0.8772920E-01
        1   -1    0    0  501    0  0.00000000000E+00  0.00000000000E+00  0.96832403109E+03  0.96832403110E+03  0.50400001928E-02 0. -1.
       -1   -1    0    0    0  501  0.00000000000E+00  0.00000000000E+00 -0.72858202026E+03  0.72858202028E+03  0.50400001928E-02 0.  1.
    10030    2    1    2    0    0  0.00000000000E+00  0.00000000000E+00  0.23974201083E+03  0.16969060514E+04  0.16798850900E+04 0.  0.
        4    1    3    3  502    0 -0.14707936265E+03 -0.20439720801E+02 -0.71521681810E+03  0.73047028064E+03  0.12699999809E+01 0.  1.
       -4    1    3    3    0  502  0.14707936265E+03  0.20439720801E+02  0.95495882893E+03  0.96643577074E+03  0.12699999809E+01 0. -1.
</event>
<event>
 5   0  0.1920289E-04  0.1656527E+04  0.7818609E-02  0.8786555E-01
        1   -1    0    0  501    0  0.00000000000E+00  0.00000000000E+00  0.26158528402E+04  0.26158528402E+04  0.50400001928E-02 0.  1.
       -1   -1    0    0    0  501  0.00000000000E+00  0.00000000000E+00 -0.26225490087E+03  0.26225490092E+03  0.50400001928E-02 0. -1.
    10030    2    1    2    0    0  0.00000000000E+00  0.00000000000E+00  0.23535979393E+04  0.28781077411E+04  0.16565267609E+04 0.  0.
        4    1    3    3  502    0  0.32925281081E+02 -0.52169552065E+03  0.60548197297E+02  0.52622997586E+03  0.12699999809E+01 0. -1.
       -4    1    3    3    0  502 -0.32925281081E+02  0.52169552065E+03  0.22930497420E+04  0.23518777652E+04  0.12699999809E+01 0.  1.
</event>
<event>
 5   0  0.3678896E-04  0.1947700E+04  0.7818609E-02  0.8631471E-01
        2   -1    0    0  501    0  0.00000000000E+00  0.00000000000E+00  0.93723300827E+03  0.93723300827E+03  0.25500000920E-02 0.  1.
       -2   -1    0    0    0  501  0.00000000000E+00  0.00000000000E+00 -0.10118977885E+04  0.10118977885E+04  0.25500000920E-02 0. -1.
    10030    2    1    2    0    0  0.00000000000E+00  0.00000000000E+00 -0.74664780253E+02  0.19491307968E+04  0.19477001909E+04 0.  0.
        2    1    3    3  502    0  0.87463861408E+03 -0.11399835557E+03  0.37576092231E+03  0.95874115435E+03  0.25500000920E-02 0.  1.
       -2    1    3    3    0  502 -0.87463861408E+03  0.11399835557E+03 -0.45042570257E+03  0.99038964244E+03  0.25500000920E-02 0. -1.
</event>
<event>
 5   0  0.3678896E-04  0.1665550E+04  0.7818609E-02  0.8781260E-01
       -2   -1    0    0    0  501  0.00000000000E+00  0.00000000000E+00  0.55848008034E+03  0.55848008034E+03  0.25500000920E-02 0. -1.
        2   -1    0    0  501    0  0.00000000000E+00  0.00000000000E+00 -0.12417892064E+04  0.12417892064E+04  0.25500000920E-02 0.  1.
    10030    2    1    2    0    0  0.00000000000E+00  0.00000000000E+00 -0.68330912604E+03  0.18002692867E+04  0.16655504024E+04 0.  0.
        2    1    3    3  502    0  0.41972100815E+03  0.16482365951E+03  0.41510577072E+03  0.61289914693E+03  0.25500000920E-02 0. -1.
       -2    1    3    3    0  502 -0.41972100815E+03 -0.16482365951E+03 -0.10984148968E+04  0.11873701398E+04  0.25500000920E-02 0.  1.
</event>
<event>
 5   0  0.3605571E-04  0.1695141E+04  0.7818609E-02  0.8764141E-01
        2   -1    0    0  501    0  0.00000000000E+00  0.00000000000E+00  0.17801000050E+04  0.17801000050E+04  0.25500000920E-02 0.  1.
       -2   -1    0    0    0  501  0.00000000000E+00  0.00000000000E+00 -0.40355904672E+03  0.40355904673E+03  0.25500000920E-02 0. -1.
    10030    2    1    2    0    0  0.00000000000E+00  0.00000000000E+00  0.13765409583E+04  0.21836590518E+04  0.16951406562E+04 0.  0.
        4    1    3    3  502    0  0.21329363041E+03 -0.81782008808E+03  0.77025001854E+03  0.11435080119E+04  0.12699999809E+01 0.  1.
       -4    1    3    3    0  502 -0.21329363041E+03  0.81782008808E+03  0.60629093977E+03  0.10401510399E+04  0.12699999809E+01 0. -1.
</event>
<event>
 5   0  0.3573262E-04  0.1712634E+04  0.7818609E-02  0.8754191E-01
        2   -1    0    0  501    0  0.00000000000E+00  0.00000000000E+00  0.10753644696E+04  0.10753644696E+04  0.25500000920E-02 0. -1.
       -2   -1    0    0    0  501  0.00000000000E+00  0.00000000000E+00 -0.68188881995E+03  0.68188881996E+03  0.25500000920E-02 0.  1.
    10030    2    1    2    0    0  0.00000000000E+00  0.00000000000E+00  0.39347564962E+03  0.17572532895E+04  0.17126342390E+04 0.  0.
        5    1    3    3  502    0 -0.20348881742E+03  0.27564766727E+03  0.10019557154E+04  0.10589271367E+04  0.46999998093E+01 0. -1.
       -5    1    3    3    0  502  0.20348881742E+03 -0.27564766727E+03 -0.60848006576E+03  0.69832615282E+03  0.46999998093E+01 0.  1.
</event>
<event>
 5   0  0.3678896E-04  0.1699043E+04  0.7818609E-02  0.8761910E-01
        2   -1    0    0  501    0  0.00000000000E+00  0.00000000000E+00  0.17483397015E+04  0.17483397015E+04  0.25500000920E-02 0. -1.
       -2   -1    0    0    0  501  0.00000000000E+00  0.00000000000E+00 -0.41278422800E+03  0.41278422801E+03  0.25500000920E-02 0.  1.
    10030    2    1    2    0    0  0.00000000000E+00  0.00000000000E+00  0.13355554735E+04  0.21611239295E+04  0.16990433237E+04 0.  0.
        2    1    3    3  502    0  0.11824726705E+03  0.65049194533E+03 -0.10747271676E+02  0.66123951103E+03  0.25500000920E-02 0.  1.
       -2    1    3    3    0  502 -0.11824726705E+03 -0.65049194533E+03  0.13463027452E+04  0.14998844185E+04  0.25500000920E-02 0. -1.
</event>
<event>
 5   0  0.3516723E-04  0.1697471E+04  0.7818609E-02  0.8762808E-01
        2   -1    0    0  501    0  0.00000000000E+00  0.00000000000E+00  0.15346123630E+04  0.15346123630E+04  0.25500000920E-02 0. -1.
       -2   -1    0    0    0  501  0.00000000000E+00  0.00000000000E+00 -0.46940316971E+03  0.46940316972E+03  0.25500000920E-02 0.  1.
    10030    2    1    2    0    0  0.00000000000E+00  0.00000000000E+00  0.10652091933E+04  0.20040155328E+04  0.16974709512E+04 0.  0.
        1    1    3    3  502    0  0.45173463846E+03 -0.42642251534E+03  0.12153603161E+04  0.13649179621E+04  0.50400001928E-02 0. -1.
       -1    1    3    3    0  502 -0.45173463846E+03  0.42642251534E+03 -0.15015112278E+03  0.63909757070E+03  0.50400001928E-02 0.  1.
</event>
<event>
 5   0  0.3605571E-04  0.1703968E+04  0.7818609E-02  0.8759105E-01
        2   -1    0    0  501    0  0.00000000000E+00  0.00000000000E+00  0.12489109882E+04  0.12489109882E+04  0.25500000920E-02 0.  1.
       -2   -1    0    0    0  501  0.00000000000E+00  0.00000000000E+00 -0.58120751420E+03  0.58120751421E+03  0.25500000920E-02 0. -1.
    10030    2    1    2    0    0  0.00000000000E+00  0.00000000000E+00  0.66770347401E+03  0.18301185024E+04  0.17039676651E+04 0.  0.
        4    1    3    3  502    0 -0.13721838419E+03 -0.57542754718E+03 -0.32467108376E+03  0.67480269156E+03  0.12699999809E+01 0. -1.
       -4    1    3    3    0  502  0.13721838419E+03  0.57542754718E+03  0.99237455777E+03  0.11553158109E+04  0.12699999809E+01 0.  1.
</event>
<event>
 5   0  0.3605571E-04  0.1698918E+04  0.7818609E-02  0.8761982E-01
       -2   -1    0    0    0  501  0.00000000000E+00  0.00000000000E+00  0.71287861704E+03  0.71287861705E+03  0.25500000920E-02 0.  1.
        2   -1    0    0  501    0  0.00000000000E+00  0.00000000000E+00 -0.10122065817E+04  0.10122065817E+04  0.25500000920E-02 0. -1.
    10030    2    1    2    0    0  0.00000000000E+00  0.00000000000E+00 -0.29932796469E+03  0.17250851988E+04  0.16989178063E+04 0.  0.
        4    1    3    3  502    0 -0.17834511217E+03 -0.48945617701E+03 -0.83097135766E+03  0.98075957216E+03  0.12699999809E+01 0. -1.
       -4    1    3    3    0  502  0.17834511217E+03  0.48945617701E+03  0.53164339297E+03  0.74432562662E+03  0.12699999809E+01 0.  1.
</event>
<event>
 5   0  0.3573262E-04  0.1718428E+04  0.7818609E-02  0.8750924E-01
       -2   -1    0    0    0  501  0.00000000000E+00  0.00000000000E+00  0.11539409752E+04  0.11539409752E+04  0.25500000920E-02 0.  1.
        2   -1    0    0  501    0  0.00000000000E+00  0.00000000000E+00 -0.63976268241E+03  0.63976268242E+03  0.25500000920E-02 0. -1.
    10030    2    1    2    0    0  0.00000000000E+00  0.00000000000E+00  0.51417829279E+03  0.17937036576E+04  0.17184276227E+04 0.  0.
        5    1    3    3  502    0  0.58246122252E+03 -0.43157746625E+03 -0.22431454880E+03  0.75885393318E+03  0.46999998093E+01 0.  1.
       -5    1    3    3    0  502 -0.58246122252E+03  0.43157746625E+03  0.73849284158E+03  0.10348497244E+04  0.46999998093E+01 0. -1.
</event>
<event>
 5   0  0.1920289E-04  0.1700891E+04  0.7818609E-02  0.8760856E-01
       -1   -1    0    0    0  501  0.00000000000E+00  0.00000000000E+00  0.84576577022E+03  0.84576577023E+03  0.50400001928E-02 0. -1.
        1   -1    0    0  501    0  0.00000000000E+00  0.00000000000E+00 -0.85515159906E+03  0.85515159908E+03  0.50400001928E-02 0.  1.
    10030    2    1    2    0    0  0.00000000000E+00  0.00000000000E+00 -0.93858288472E+01  0.17009173693E+04  0.17008914732E+04 0.  0.
        4    1    3    3  502    0  0.40393096424E+03  0.67076813382E+03 -0.33661094548E+03  0.85229024090E+03  0.12699999809E+01 0.  1.
       -4    1    3    3    0  502 -0.40393096424E+03 -0.67076813382E+03  0.32722511663E+03  0.84862712841E+03  0.12699999809E+01 0. -1.
</event>
<event>
 5   0  0.3573262E-04  0.1721299E+04  0.7818609E-02  0.8749309E-01
        2   -1    0    0  501    0  0.00000000000E+00  0.00000000000E+00  0.16113058818E+04  0.16113058818E+04  0.25500000920E-02 0. -1.
       -2   -1    0    0    0  501  0.00000000000E+00  0.00000000000E+00 -0.45970001051E+03  0.45970001052E+03  0.25500000920E-02 0.  1.
    10030    2    1    2    0    0  0.00000000000E+00  0.00000000000E+00  0.11516058713E+04  0.20710058923E+04  0.17212987315E+04 0.  0.
        5    1    3    3  502    0  0.23344167961E+03  0.60531008751E+03 -0.10459699687E+03  0.65715899261E+03  0.46999998093E+01 0.  1.
       -5    1    3    3    0  502 -0.23344167961E+03 -0.60531008751E+03  0.12562028682E+04  0.14138468997E+04  0.46999998093E+01 0. -1.
</event>
<event>
 5   0  0.3574092E-04  0.1708432E+04  0.7818609E-02  0.8756570E-01
        2   -1    0    0  501    0  0.00000000000E+00  0.00000000000E+00  0.18268389865E+04  0.18268389865E+04  0.25500000920E-02 0.  1.
       -2   -1    0    0    0  501  0.00000000000E+00  0.00000000000E+00 -0.39942468301E+03  0.39942468302E+03  0.25500000920E-02 0. -1.
    10030    2    1    2    0    0  0.00000000000E+00  0.00000000000E+00  0.14274143034E+04  0.22262636695E+04  0.17084315416E+04 0.  0.
        3    1    3    3  502    0  0.25025850890E+03 -0.72588490814E+03  0.22587556561E+03  0.80034867557E+03  0.10100000352E+00 0. -1.
       -3    1    3    3    0  502 -0.25025850890E+03  0.72588490814E+03  0.12015387378E+04  0.14259149939E+04  0.10100000352E+00 0.  1.
</event>
<event>
 5   0  0.1317625E-04  0.1608328E+04  0.7818609E-02  0.8815448E-01
       -4   -1    0    0    0  501  0.00000000000E+00  0.00000000000E+00  0.57431829800E+03  0.57431970219E+03  0.12699999809E+01 0.  1.
        4   -1    0    0  501    0  0.00000000000E+00  0.00000000000E+00 -0.11259916927E+04  0.11259924089E+04  0.12699999809E+01 0. -1.
    10030    2    1    2    0    0  0.00000000000E+00  0.00000000000E+00 -0.55167339466E+03  0.17003121111E+04  0.16083276223E+04 0.  0.
        4    1    3    3  502    0 -0.61282556510E+03  0.37452002523E+02  0.27321179097E+03  0.67201497108E+03  0.12699999809E+01 0.  1.
       -4    1    3    3    0  502  0.61282556510E+03 -0.37452002523E+02 -0.82488518563E+03  0.10282971400E+04  0.12699999809E+01 0. -1.
</event>
<event>
 5   0  0.1930116E-04  0.1716522E+04  0.7818609E-02  0.8751997E-01
       -1   -1    0    0    0  501  0.00000000000E+00  0.00000000000E+00  0.97782640108E+03  0.97782640109E+03  0.50400001928E-02 0.  1.
        1   -1    0    0  501    0  0.00000000000E+00  0.00000000000E+00 -0.75331583499E+03  0.75331583500E+03  0.50400001928E-02 0. -1.
    10030    2    1    2    0    0  0.00000000000E+00  0.00000000000E+00  0.22451056609E+03  0.17311422361E+04  0.17165221954E+04 0.  0.
        1    1    3    3  502    0 -0.16500981820E+03 -0.41834075062E+03  0.84949096961E+03  0.96118267317E+03  0.50400001928E-02 0.  1.
       -1    1    3    3    0  502  0.16500981820E+03  0.41834075062E+03 -0.62498040352E+03  0.76995956292E+03  0.50400001928E-02 0. -1.
</event>
<event>
 5   0  0.1815663E-04  0.1677849E+04  0.7818609E-02  0.8774099E-01
       -1   -1    0    0    0  501  0.00000000000E+00  0.00000000000E+00  0.76172816144E+03  0.76172816146E+03  0.50400001928E-02 0.  1.
        1   -1    0    0  501    0  0.00000000000E+00  0.00000000000E+00 -0.92394470578E+03  0.92394470580E+03  0.50400001928E-02 0. -1.
    10030    2    1    2    0    0  0.00000000000E+00  0.00000000000E+00 -0.16221654434E+03  0.16856728673E+04  0.16778494593E+04 0.  0.
        5    1    3    3  502    0  0.93388900598E+00  0.66370660289E+03 -0.59659454177E+03  0.89244297528E+03  0.46999998093E+01 0. -1.
       -5    1    3    3    0  502 -0.93388900598E+00 -0.66370660289E+03  0.43437799743E+03  0.79322989197E+03  0.46999998093E+01 0.  1.
</event>
<event>
 5   0  0.1815663E-04  0.1716384E+04  0.7818609E-02  0.8752075E-01
       -1   -1    0    0    0  501  0.00000000000E+00  0.00000000000E+00  0.30810622602E+03  0.30810622606E+03  0.50400001928E-02 0.  1.
        1   -1    0    0  501    0  0.00000000000E+00  0.00000000000E+00 -0.23903894514E+04  0.23903894514E+04  0.50400001928E-02 0. -1.
    10030    2    1    2    0    0  0.00000000000E+00  0.00000000000E+00 -0.20822832254E+04  0.26984956775E+04  0.17163844239E+04 0.  0.
        5    1    3    3  502    0  0.80261499347E+03  0.75296911136E+02 -0.57844692200E+03  0.99221136062E+03  0.46999998093E+01 0.  1.
       -5    1    3    3    0  502 -0.80261499347E+03 -0.75296911136E+02 -0.15038363034E+04  0.17062843169E+04  0.46999998093E+01 0. -1.
</event>
<event>
 5   0  0.3516723E-04  0.1706516E+04  0.7818609E-02  0.8757657E-01
       -2   -1    0    0    0  501  0.00000000000E+00  0.00000000000E+00  0.80303209329E+03  0.80303209329E+03  0.25500000920E-02 0. -1.
        2   -1    0    0  501    0  0.00000000000E+00  0.00000000000E+00 -0.90662549673E+03  0.90662549674E+03  0.25500000920E-02 0.  1.
    10030    2    1    2    0    0  0.00000000000E+00  0.00000000000E+00 -0.10359340345E+03  0.17096575900E+04  0.17065161827E+04 0.  0.
        1    1    3    3  502    0  0.74011738146E+03  0.13768498624E+03  0.35058737268E+03  0.83044710830E+03  0.50400001928E-02 0. -1.
       -1    1    3    3    0  502 -0.74011738146E+03 -0.13768498624E+03 -0.45418077612E+03  0.87921048174E+03  0.50400001928E-02 0.  1.
</event>
<event>
 5   0  0.3516723E-04  0.1708514E+04  0.7818609E-02  0.8756523E-01
        2   -1    0    0  501    0  0.00000000000E+00  0.00000000000E+00  0.10420316588E+04  0.10420316588E+04  0.25500000920E-02 0. -1.
       -2   -1    0    0    0  501  0.00000000000E+00  0.00000000000E+00 -0.70031964535E+03  0.70031964535E+03  0.25500000920E-02 0.  1.
    10030    2    1    2    0    0  0.00000000000E+00  0.00000000000E+00  0.34171201346E+03  0.17423513042E+04  0.17085142572E+04 0.  0.
        1    1    3    3  502    0 -0.40067527954E+03 -0.69840868510E+03 -0.12017258325E+03  0.81409877831E+03  0.50400001928E-02 0.  1.
       -1    1    3    3    0  502  0.40067527954E+03  0.69840868510E+03  0.46188459671E+03  0.92825252585E+03  0.50400001928E-02 0. -1.
</event>
<event>
 5   0  0.1920289E-04  0.1709569E+04  0.7818609E-02  0.8755926E-01
       -1   -1    0    0    0  501  0.00000000000E+00  0.00000000000E+00  0.54329468917E+03  0.54329468919E+03  0.50400001928E-02 0. -1.
        1   -1    0    0  501    0  0.00000000000E+00  0.00000000000E+00 -0.13448620964E+04  0.13448620965E+04  0.50400001928E-02 0.  1.
    10030    2    1    2    0    0  0.00000000000E+00  0.00000000000E+00 -0.80156740728E+03  0.18881567856E+04  0.17095688751E+04 0.  0.
        4    1    3    3  502    0  0.21357535415E+03  0.84828734987E+01  0.51330160578E+03  0.55602746555E+03  0.12699999809E+01 0. -1.
       -4    1    3    3    0  502 -0.21357535415E+03 -0.84828734987E+01 -0.13148690131E+04  0.13321293201E+04  0.12699999809E+01 0.  1.
</event>
<event>
 5   0  0.3678896E-04  0.1700274E+04  0.7818609E-02  0.8761208E-01
        2   -1    0    0  501    0  0.00000000000E+00  0.00000000000E+00  0.19074077972E+04  0.19074077972E+04  0.25500000920E-02 0. -1.
       -2   -1    0    0    0  501  0.00000000000E+00  0.00000000000E+00 -0.37890858695E+03  0.37890858695E+03  0.25500000920E-02 0.  1.
    10030    2    1    2    0    0  0.00000000000E+00  0.00000000000E+00  0.15284992102E+04  0.22863163841E+04  0.17002743228E+04 0.  0.
        2    1    3    3  502    0  0.25702239256E+03 -0.58715944572E+03  0.15152436353E+04  0.16452294670E+04  0.25500000920E-02 0. -1.
       -2    1    3    3    0  502 -0.25702239256E+03  0.58715944572E+03  0.13255574950E+02  0.64108691708E+03  0.25500000920E-02 0.  1.
</event>
<event>
 5   0  0.1317625E-04  0.1695574E+04  0.7818609E-02  0.8763893E-01
        3   -1    0    0  501    0  0.00000000000E+00  0.00000000000E+00  0.76406004823E+03  0.76406005491E+03  0.10100000352E+00 0.  1.
       -3   -1    0    0    0  501  0.00000000000E+00  0.00000000000E+00 -0.94068920901E+03  0.94068921443E+03  0.10100000352E+00 0. -1.
    10030    2    1    2    0    0  0.00000000000E+00  0.00000000000E+00 -0.17662916077E+03  0.17047492693E+04  0.16955743012E+04 0.  0.
        3    1    3    3  502    0  0.66558395054E+03  0.47406803747E+03  0.13874042904E+03  0.82884945329E+03  0.10100000352E+00 0.  1.
       -3    1    3    3    0  502 -0.66558395054E+03 -0.47406803747E+03 -0.31536958982E+03  0.87589981605E+03  0.10100000352E+00 0. -1.
</event>
<event>
 5   0  0.3573262E-04  0.1662105E+04  0.7818609E-02  0.8783278E-01
        2   -1    0    0  501    0  0.00000000000E+00  0.00000000000E+00  0.12860617135E+04  0.12860617135E+04  0.25500000920E-02 0.  1.
       -2   -1    0    0    0  501  0.00000000000E+00  0.00000000000E+00 -0.53702554753E+03  0.53702554754E+03  0.25500000920E-02 0. -1.
    10030    2    1    2    0    0  0.00000000000E+00  0.00000000000E+00  0.74903616600E+03  0.18230872611E+04  0.16621046849E+04 0.  0.
        5    1    3    3  502    0  0.20125929284E+03  0.62299867581E+03 -0.18691000490E+03  0.68087450601E+03  0.46999998093E+01 0. -1.
       -5    1    3    3    0  502 -0.20125929284E+03 -0.62299867581E+03  0.93594617090E+03  0.11422127551E+04  0.46999998093E+01 0.  1.
</event>
<event>
 5   0  0.3573262E-04  0.1694242E+04  0.7818609E-02  0.8764655E-01
        2   -1    0    0  501    0  0.00000000000E+00  0.00000000000E+00  0.15000557617E+04  0.15000557617E+04  0.25500000920E-02 0. -1.
       -2   -1    0    0    0  501  0.00000000000E+00  0.00000000000E+00 -0.47839178303E+03  0.47839178303E+03  0.25500000920E-02 0.  1.
    10030    2    1    2    0    0  0.00000000000E+00  0.00000000000E+00  0.10216639787E+04  0.19784475447E+04  0.16942424271E+04 0.  0.
        5    1    3    3  502    0  0.89690884452E+01 -0.70199939699E+03  0.10643845887E+04  0.12750765626E+04  0.46999998093E+01 0. -1.
       -5    1    3    3    0  502 -0.89690884452E+01  0.70199939699E+03 -0.42720610038E+02  0.70337098209E+03  0.46999998093E+01 0.  1.
</event>
<event>
 5   0  0.1930116E-04  0.1697227E+04  0.7818609E-02  0.8762948E-01
        1   -1    0    0  501    0  0.00000000000E+00  0.00000000000E+00  0.24142080147E+04  0.24142080147E+04  0.50400001928E-02 0.  1.
       -1   -1    0    0    0  501  0.00000000000E+00  0.00000000000E+00 -0.29829436662E+03  0.29829436666E+03  0.50400001928E-02 0. -1.
    10030    2    1    2    0    0  0.00000000000E+00  0.00000000000E+00  0.21159136481E+04  0.27125023814E+04  0.16972267388E+04 0.  0.
        1    1    3    3  502    0  0.39999012154E+03 -0.22552497583E+03  0.21985040701E+04  0.22459460720E+04  0.50400001928E-02 0.  1.
       -1    1    3    3    0  502 -0.39999012154E+03  0.22552497583E+03 -0.82590421949E+02  0.46655630943E+03  0.50400001928E-02 0. -1.
</event>
<event>
 5   0  0.1920289E-04  0.1574379E+04  0.7818609E-02  0.8836445E-01
       -1   -1    0    0    0  501  0.00000000000E+00  0.00000000000E+00  0.29861438884E+03  0.29861438888E+03  0.50400001928E-02 0.  1.
        1   -1    0    0  501    0  0.00000000000E+00  0.00000000000E+00 -0.20751412424E+04  0.20751412424E+04  0.50400001928E-02 0. -1.
    10030    2    1    2    0    0  0.00000000000E+00  0.00000000000E+00 -0.17765268535E+04  0.23737556313E+04  0.15743786506E+04 0.  0.
        4    1    3    3  502    0  0.38610555998E+02 -0.47379466092E+03 -0.18342953877E+04  0.18948913789E+04  0.12699999809E+01 0. -1.
       -4    1    3    3    0  502 -0.38610555998E+02  0.47379466092E+03  0.57768534120E+02  0.47886425236E+03  0.12699999809E+01 0.  1.
</event>
<event>
 5   0  0.3574092E-04  0.1727365E+04  0.7818609E-02  0.8745909E-01
        2   -1    0    0  501    0  0.00000000000E+00  0.00000000000E+00  0.16429311102E+04  0.16429311102E+04  0.25500000920E-02 0. -1.
       -2   -1    0    0    0  501  0.00000000000E+00  0.00000000000E+00 -0.45403441607E+03  0.45403441608E+03  0.25500000920E-02 0.  1.
    10030    2    1    2    0    0  0.00000000000E+00  0.00000000000E+00  0.11888966941E+04  0.20969655263E+04  0.17273647759E+04 0.  0.
        3    1    3    3  502    0 -0.51476992159E+03 -0.68792743326E+03  0.70107753017E+03  0.11089373017E+04  0.10100000352E+00 0.  1.
       -3    1    3    3    0  502  0.51476992159E+03  0.68792743326E+03  0.48781916394E+03  0.98802822455E+03  0.10100000352E+00 0. -1.
</event>
<event>
 5   0  0.3516723E-04  0.1697379E+04  0.7818609E-02  0.8762861E-01
        2   -1    0    0  501    0  0.00000000000E+00  0.00000000000E+00  0.64163681576E+03  0.64163681576E+03  0.25500000920E-02 0.  1.
       -2   -1    0    0    0  501  0.00000000000E+00  0.00000000000E+00 -0.11225565665E+04  0.11225565665E+04  0.25500000920E-02 0. -1.
    10030    2    1    2    0    0  0.00000000000E+00  0.00000000000E+00 -0.48091975070E+03  0.17641933822E+04  0.16973787094E+04 0.  0.
        1    1    3    3  502    0  0.43386951142E+02 -0.23283977884E+03  0.60659061643E+03  0.65119042231E+03  0.50400001928E-02 0.  1.
       -1    1    3    3    0  502 -0.43386951142E+02  0.23283977884E+03 -0.10875103671E+04  0.11130029599E+04  0.50400001928E-02 0. -1.
</event>
<event>
 5   0  0.3573262E-04  0.1714189E+04  0.7818609E-02  0.8753313E-01
        2   -1    0    0  501    0  0.00000000000E+00  0.00000000000E+00  0.18510774152E+04  0.18510774152E+04  0.25500000920E-02 0.  1.
       -2   -1    0    0    0  501  0.00000000000E+00  0.00000000000E+00 -0.39685597121E+03  0.39685597121E+03  0.25500000920E-02 0. -1.
    10030    2    1    2    0    0  0.00000000000E+00  0.00000000000E+00  0.14542214440E+04  0.22479333864E+04  0.17141891674E+04 0.  0.
        5    1    3    3  502    0 -0.17471250502E+03 -0.46030700376E+03 -0.19288873596E+03  0.52880540048E+03  0.46999998093E+01 0. -1.
       -5    1    3    3    0  502  0.17471250502E+03  0.46030700376E+03  0.16471101799E+04  0.17191279859E+04  0.46999998093E+01 0.  1.
</event>
<event>
 5   0  0.1317625E-04  0.1705183E+04  0.7818609E-02  0.8758414E-01
       -4   -1    0    0    0  501  0.00000000000E+00  0.00000000000E+00  0.90708025122E+03  0.90708114028E+03  0.12699999809E+01 0.  1.
        4   -1    0    0  501    0  0.00000000000E+00  0.00000000000E+00 -0.80137439070E+03  0.80137539704E+03  0.12699999809E+01 0. -1.
    10030    2    1    2    0    0  0.00000000000E+00  0.00000000000E+00  0.10570586051E+03  0.17084565373E+04  0.17051832778E+04 0.  0.
        1    1    3    3  502    0  0.23208292120E+03  0.35268993657E+03 -0.68928469777E+03  0.80831062611E+03  0.50400001928E-02 0. -1.
       -1    1    3    3    0  502 -0.23208292120E+03 -0.35268993657E+03  0.79499055829E+03  0.90014591121E+03  0.50400001928E-02 0.  1.
</event>
<event>
 5   0  0.3574092E-04  0.1743896E+04  0.7818609E-02  0.8736717E-01
       -2   -1    0    0    0  501  0.00000000000E+00  0.00000000000E+00  0.37007599045E+03  0.37007599046E+03  0.25500000920E-02 0. -1.
        2   -1    0    0  501    0  0.00000000000E+00  0.00000000000E+00 -0.20544253137E+04  0.20544253137E+04  0.25500000920E-02 0.  1.
    10030    2    1    2    0    0  0.00000000000E+00  0.00000000000E+00 -0.16843493232E+04  0.24245013041E+04  0.17438961928E+04 0.  0.
        3    1    3    3  502    0  0.81646211604E+03 -0.30076476412E+03 -0.92111068008E+03  0.12670890756E+04  0.10100000352E+00 0. -1.
       -3    1    3    3    0  502 -0.81646211604E+03  0.30076476412E+03 -0.76323864316E+03  0.11574122286E+04  0.10100000352E+00 0.  1.
</event>
<event>
 5   0  0.3605571E-04  0.1706727E+04  0.7818609E-02  0.8757537E-01
        2   -1    0    0  501    0  0.00000000000E+00  0.00000000000E+00  0.15371882624E+04  0.15371882625E+04  0.25500000920E-02 0.  1.
       -2   -1    0    0    0  501  0.00000000000E+00  0.00000000000E+00 -0.47374093167E+03  0.47374093168E+03  0.25500000920E-02 0. -1.
    10030    2    1    2    0    0  0.00000000000E+00  0.00000000000E+00  0.10634473308E+04  0.20109291941E+04  0.17067266912E+04 0.  0.
        4    1    3    3  502    0 -0.52080605503E+03  0.14918694082E+03  0.13085849018E+04  0.14162950781E+04  0.12699999809E+01 0.  1.
       -4    1    3    3    0  502  0.52080605503E+03 -0.14918694082E+03 -0.24513757102E+03  0.59463411598E+03  0.12699999809E+01 0. -1.
</event>
<event>
 5   0  0.1317625E-04  0.1742377E+04  0.7818609E-02  0.8737558E-01
        3   -1    0    0  501    0  0.00000000000E+00  0.00000000000E+00  0.10699816604E+04  0.10699816652E+04  0.10100000352E+00 0.  1.
       -3   -1    0    0    0  501  0.00000000000E+00  0.00000000000E+00 -0.70932911971E+03  0.70932912690E+03  0.10100000352E+00 0. -1.
    10030    2    1    2    0    0  0.00000000000E+00  0.00000000000E+00  0.36065254073E+03  0.17793107921E+04  0.17423767215E+04 0.  0.
        4    1    3    3  502    0 -0.81088697480E+03  0.24431941077E+03 -0.28302875689E+02  0.84736788118E+03  0.12699999809E+01 0.  1.
       -4    1    3    3    0  502  0.81088697480E+03 -0.24431941077E+03  0.38895541642E+03  0.93194291093E+03  0.12699999809E+01 0. -1.
</event>
<event>
 5   0  0.3574092E-04  0.1712505E+04  0.7818609E-02  0.8754264E-01
        2   -1    0    0  501    0  0.00000000000E+00  0.00000000000E+00  0.11677746414E+04  0.11677746414E+04  0.25500000920E-02 0. -1.
       -2   -1    0    0    0  501  0.00000000000E+00  0.00000000000E+00 -0.62783405061E+03  0.62783405061E+03  0.25500000920E-02 0.  1.
    10030    2    1    2    0    0  0.00000000000E+00  0.00000000000E+00  0.53994059075E+03  0.17956086920E+04  0.17125053965E+04 0.  0.
        3    1    3    3  502    0  0.19229322659E+03 -0.70884498942E+03  0.73147810180E+03  0.10365800151E+04  0.10100000352E+00 0. -1.
       -3    1    3    3    0  502 -0.19229322659E+03  0.70884498942E+03 -0.19153751105E+03  0.75902867690E+03  0.10100000352E+00 0.  1.
</event>
<event>
 5   0  0.3605571E-04  0.1698592E+04  0.7818609E-02  0.8762168E-01
        2   -1    0    0  501    0  0.00000000000E+00  0.00000000000E+00  0.19114323437E+04  0.19114323437E+04  0.25500000920E-02 0.  1.
       -2   -1    0    0    0  501  0.00000000000E+00  0.00000000000E+00 -0.37736291984E+03  0.37736291985E+03  0.25500000920E-02 0. -1.
    10030    2    1    2    0    0  0.00000000000E+00  0.00000000000E+00  0.15340694238E+04  0.22887952635E+04  0.16985919937E+04 0.  0.
        4    1    3    3  502    0  0.43536493567E+03  0.51093902110E+03  0.65962721328E+02  0.67450278279E+03  0.12699999809E+01 0. -1.
       -4    1    3    3    0  502 -0.43536493567E+03 -0.51093902110E+03  0.14681067025E+04  0.16142924807E+04  0.12699999809E+01 0.  1.
</event>
<event>
 5   0  0.3516723E-04  0.1698599E+04  0.7818609E-02  0.8762164E-01
        2   -1    0    0  501    0  0.00000000000E+00  0.00000000000E+00  0.59642523642E+03  0.59642523643E+03  0.25500000920E-02 0. -1.
       -2   -1    0    0    0  501  0.00000000000E+00  0.00000000000E+00 -0.12093887181E+04  0.12093887181E+04  0.25500000920E-02 0.  1.
    10030    2    1    2    0    0  0.00000000000E+00  0.00000000000E+00 -0.61296348167E+03  0.18058139545E+04  0.16985993667E+04 0.  0.
        1    1    3    3  502    0 -0.62757901291E+03 -0.40463353943E+03 -0.73665279361E+03  0.10489237613E+04  0.50400001928E-02 0.  1.
       -1    1    3    3    0  502  0.62757901291E+03  0.40463353943E+03  0.12368931194E+03  0.75689019322E+03  0.50400001928E-02 0. -1.
</event>
<event>
 5   0  0.1920289E-04  0.1699806E+04  0.7818609E-02  0.8761475E-01
       -1   -1    0    0    0  501  0.00000000000E+00  0.00000000000E+00  0.47061491239E+03  0.47061491241E+03  0.50400001928E-02 0.  1.
        1   -1    0    0  501    0  0.00000000000E+00  0.00000000000E+00 -0.15348747150E+04  0.15348747150E+04  0.50400001928E-02 0. -1.
    10030    2    1    2    0    0  0.00000000000E+00  0.00000000000E+00 -0.10642598026E+04  0.20054896274E+04  0.16998057884E+04 0.  0.
        4    1    3    3  502    0  0.98342515162E+02  0.54042144695E+03  0.23304236912E+03  0.59668831840E+03  0.12699999809E+01 0.  1.
       -4    1    3    3    0  502 -0.98342515162E+02 -0.54042144695E+03 -0.12973021717E+04  0.14088013090E+04  0.12699999809E+01 0. -1.
</event>
<event>
 5   0  0.3574092E-04  0.1719593E+04  0.7818609E-02  0.8750268E-01
       -2   -1    0    0    0  501  0.00000000000E+00  0.00000000000E+00  0.56536368414E+03  0.56536368414E+03  0.25500000920E-02 0. -1.
        2   -1    0    0  501    0  0.00000000000E+00  0.00000000000E+00 -0.13075660179E+04  0.13075660179E+04  0.25500000920E-02 0.  1.
    10030    2    1    2    0    0  0.00000000000E+00  0.00000000000E+00 -0.74220233375E+03  0.18729297020E+04  0.17195933719E+04 0.  0.
        3    1    3    3  502    0  0.83682590969E+03 -0.19519042732E+03 -0.40329024186E+03  0.94922069901E+03  0.10100000352E+00 0. -1.
       -3    1    3    3    0  502 -0.83682590969E+03  0.19519042732E+03 -0.33891209189E+03  0.92370900303E+03  0.10100000352E+00 0.  1.
</event>
<event>
 5   0  0.3573262E-04  0.1696381E+04  0.7818609E-02  0.8763431E-01
       -2   -1    0    0    0  501  0.00000000000E+00  0.00000000000E+00  0.36888884587E+03  0.36888884588E+03  0.25500000920E-02 0.  1.
        2   -1    0    0  501    0  0.00000000000E+00  0.00000000000E+00 -0.19502552529E+04  0.19502552529E+04  0.25500000920E-02 0. -1.
    10030    2    1    2    0    0  0.00000000000E+00  0.00000000000E+00 -0.15813664070E+04  0.23191440987E+04  0.16963813361E+04 0.  0.
        5    1    3    3  502    0 -0.59260455624E+03 -0.55851879077E+03 -0.46635202548E+03  0.93841872391E+03  0.46999998093E+01 0.  1.
       -5    1    3    3    0  502  0.59260455624E+03  0.55851879077E+03 -0.11150143815E+04  0.13807253748E+04  0.46999998093E+01 0. -1.
</event>
<event>
 5   0  0.1824538E-04  0.1623466E+04  0.7818609E-02  0.8806260E-01
       -1   -1    0    0    0  501  0.00000000000E+00  0.00000000000E+00  0.52768792694E+03  0.52768792696E+03  0.50400001928E-02 0. -1.
        1   -1    0    0  501    0  0.00000000000E+00  0.00000000000E+00 -0.12486738792E+04  0.12486738792E+04  0.50400001928E-02 0.  1.
    10030    2    1    2    0    0  0.00000000000E+00  0.00000000000E+00 -0.72098595227E+03  0.17763618062E+04  0.16234655904E+04 0.  0.
        3    1    3    3  502    0 -0.26989190609E+03 -0.74938369328E+03 -0.53173305833E+03  0.95768346349E+03  0.10100000352E+00 0.  1.
       -3    1    3    3    0  502  0.26989190609E+03  0.74938369328E+03 -0.18925289394E+03  0.81867834269E+03  0.10100000352E+00 0. -1.
</event>
<event>
 5   0  0.1920289E-04  0.1788031E+04  0.7818609E-02  0.8712690E-01
       -1   -1    0    0    0  501  0.00000000000E+00  0.00000000000E+00  0.80470730543E+03  0.80470730545E+03  0.50400001928E-02 0. -1.
        1   -1    0    0  501    0  0.00000000000E+00  0.00000000000E+00 -0.99323557979E+03  0.99323557981E+03  0.50400001928E-02 0.  1.
    10030    2    1    2    0    0  0.00000000000E+00  0.00000000000E+00 -0.18852827436E+03  0.17979428853E+04  0.17880312381E+04 0.  0.
        4    1    3    3  502    0  0.74701853529E+03 -0.11457381244E+03  0.38597988711E+03  0.84861412710E+03  0.12699999809E+01 0. -1.
       -4    1    3    3    0  502 -0.74701853529E+03  0.11457381244E+03 -0.57450816147E+03  0.94932875815E+03  0.12699999809E+01 0.  1.
</event>
<event>
 5   0  0.3605571E-04  0.1672633E+04  0.7818609E-02  0.8777128E-01
        2   -1    0    0  501    0  0.00000000000E+00  0.00000000000E+00  0.15628286133E+04  0.15628286133E+04  0.25500000920E-02 0.  1.
       -2   -1    0    0    0  501  0.00000000000E+00  0.00000000000E+00 -0.44753824975E+03  0.44753824976E+03  0.25500000920E-02 0. -1.
    10030    2    1    2    0    0  0.00000000000E+00  0.00000000000E+00  0.11152903635E+04  0.20103668630E+04  0.16726333516E+04 0.  0.
        4    1    3    3  502    0 -0.12118998653E+03 -0.23690663372E+02  0.15518100006E+04  0.15567158223E+04  0.12699999809E+01 0.  1.
       -4    1    3    3    0  502  0.12118998653E+03  0.23690663372E+02 -0.43651963707E+03  0.45365104079E+03  0.12699999809E+01 0. -1.
</event>
<event>
 5   0  0.1824538E-04  0.1689391E+04  0.7818609E-02  0.8767438E-01
       -1   -1    0    0    0  501  0.00000000000E+00  0.00000000000E+00  0.57986430051E+03  0.57986430053E+03  0.50400001928E-02 0. -1.
        1   -1    0    0  501    0  0.00000000000E+00  0.00000000000E+00 -0.12304782700E+04  0.12304782700E+04  0.50400001928E-02 0.  1.
    10030    2    1    2    0    0  0.00000000000E+00  0.00000000000E+00 -0.65061396946E+03  0.18103425705E+04  0.16893909214E+04 0.  0.
        3    1    3    3  502    0 -0.27422637587E+02  0.76698880837E+03  0.52780126119E+02  0.76929161254E+03  0.10100000352E+00 0. -1.
       -3    1    3    3    0  502  0.27422637587E+02 -0.76698880837E+03 -0.70339409558E+03  0.10410509580E+04  0.10100000352E+00 0.  1.
</event>
<event>
 5   0  0.3573262E-04  0.1642460E+04  0.7818609E-02  0.8794879E-01
        2   -1    0    0  501    0  0.00000000000E+00  0.00000000000E+00  0.86024172676E+03  0.86024172676E+03  0.25500000920E-02 0. -1.
       -2   -1    0    0    0  501  0.00000000000E+00  0.00000000000E+00 -0.78398770008E+03  0.78398770009E+03  0.25500000920E-02 0.  1.
    10030    2    1    2    0    0  0.00000000000E+00  0.00000000000E+00  0.76254026678E+02  0.16442294268E+04  0.16424602679E+04 0.  0.
        5    1    3    3  502    0 -0.24737206750E+03  0.74196895842E+03  0.28876835801E+03  0.83373864587E+03  0.46999998093E+01 0. -1.
       -5    1    3    3    0  502  0.24737206750E+03 -0.74196895842E+03 -0.21251433133E+03  0.81049078098E+03  0.46999998093E+01 0.  1.
</event>
<event>
 5   0  0.3678896E-04  0.1697573E+04  0.7818609E-02  0.8762750E-01
        2   -1    0    0  501    0  0.00000000000E+00  0.00000000000E+00  0.87933576034E+03  0.87933576035E+03  0.25500000920E-02 0. -1.
       -2   -1    0    0    0  501  0.00000000000E+00  0.00000000000E+00 -0.81929848799E+03  0.81929848799E+03  0.25500000920E-02 0.  1.
    10030    2    1    2    0    0  0.00000000000E+00  0.00000000000E+00  0.60037272354E+02  0.16986342483E+04  0.16975729250E+04 0.  0.
        2    1    3    3  502    0  0.32675139859E+03 -0.70159847490E+03 -0.31866954546E+03  0.83699293646E+03  0.25500000920E-02 0. -1.
       -2    1    3    3    0  502 -0.32675139859E+03  0.70159847490E+03  0.37870681782E+03  0.86164131188E+03  0.25500000920E-02 0.  1.
</event>
<event>
 5   0  0.3573262E-04  0.1695325E+04  0.7818609E-02  0.8764035E-01
       -2   -1    0    0    0  501  0.00000000000E+00  0.00000000000E+00  0.41898043275E+03  0.41898043276E+03  0.25500000920E-02 0.  1.
        2   -1    0    0  501    0  0.00000000000E+00  0.00000000000E+00 -0.17149526408E+04  0.17149526408E+04  0.25500000920E-02 0. -1.
    10030    2    1    2    0    0  0.00000000000E+00  0.00000000000E+00 -0.12959722080E+04  0.21339330736E+04  0.16953248652E+04 0.  0.
        5    1    3    3  502    0 -0.24618159665E+03  0.80779225782E+03 -0.55569722201E+03  0.10109180001E+04  0.46999998093E+01 0.  1.
       -5    1    3    3    0  502  0.24618159665E+03 -0.80779225782E+03 -0.74027498602E+03  0.11230150735E+04  0.46999998093E+01 0. -1.
</event>
<event>
 5   0  0.1815663E-04  0.1693085E+04  0.7818609E-02  0.8765318E-01
        1   -1    0    0  501    0  0.00000000000E+00  0.00000000000E+00  0.16947914343E+04  0.16947914343E+04  0.50400001928E-02 0.  1.
       -1   -1    0    0    0  501  0.00000000000E+00  0.00000000000E+00 -0.42284503451E+03  0.42284503454E+03  0.50400001928E-02 0. -1.
    10030    2    1    2    0    0  0.00000000000E+00  0.00000000000E+00  0.12719463997E+04  0.21176364688E+04  0.16930849270E+04 0.  0.
        5    1    3    3  502    0  0.75113996614E+03 -0.20216174623E+02  0.14835131782E+03  0.76593090155E+03  0.46999998093E+01 0. -1.
       -5    1    3    3    0  502 -0.75113996614E+03  0.20216174623E+02  0.11235950819E+04  0.13517055673E+04  0.46999998093E+01 0.  1.
</event>
<event>
 5   0  0.1920289E-04  0.1698941E+04  0.7818609E-02  0.8761969E-01
        1   -1    0    0  501    0  0.00000000000E+00  0.00000000000E+00  0.69459301826E+03  0.69459301828E+03  0.50400001928E-02 0. -1.
       -1   -1    0    0    0  501  0.00000000000E+00  0.00000000000E+00 -0.10388816068E+04  0.10388816068E+04  0.50400001928E-02 0.  1.
    10030    2    1    2    0    0  0.00000000000E+00  0.00000000000E+00 -0.34428858853E+03  0.17334746251E+04  0.16989407416E+04 0.  0.
        4    1    3    3  502    0  0.73833394064E+03  0.27234905441E+03 -0.49846909263E+03  0.93154928187E+03  0.12699999809E+01 0.  1.
       -4    1    3    3    0  502 -0.73833394064E+03 -0.27234905441E+03  0.15418050410E+03  0.80192534321E+03  0.12699999809E+01 0. -1.
</event>
<event>
 5   0  0.3574092E-04  0.1687589E+04  0.7818609E-02  0.8768475E-01
       -2   -1    0    0    0  501  0.00000000000E+00  0.00000000000E+00  0.78918096451E+03  0.78918096452E+03  0.25500000920E-02 0.  1.
        2   -1    0    0  501    0  0.00000000000E+00  0.00000000000E+00 -0.90218747203E+03  0.90218747203E+03  0.25500000920E-02 0. -1.
    10030    2    1    2    0    0  0.00000000000E+00  0.00000000000E+00 -0.11300650751E+03  0.16913684365E+04  0.16875890250E+04 0.  0.
        3    1    3    3  502    0 -0.83973386822E+03 -0.73957008670E+02 -0.93553062782E+02  0.84815965144E+03  0.10100000352E+00 0. -1.
       -3    1    3    3    0  502  0.83973386822E+03  0.73957008670E+02 -0.19453444731E+02  0.84320878511E+03  0.10100000352E+00 0.  1.
</event>
<event>
 5   0  0.1893284E-04  0.1687076E+04  0.7818609E-02  0.8768770E-01
       -1   -1    0    0    0  501  0.00000000000E+00  0.00000000000E+00  0.61060078105E+03  0.61060078107E+03  0.50400001928E-02 0.  1.
        1   -1    0    0  501    0  0.00000000000E+00  0.00000000000E+00 -0.11653386794E+04  0.11653386794E+04  0.50400001928E-02 0. -1.
    10030    2    1    2    0    0  0.00000000000E+00  0.00000000000E+00 -0.55473789831E+03  0.17759394604E+04  0.16870764154E+04 0.  0.
        2    1    3    3  502    0 -0.10061309021E+03  0.55263473047E+03 -0.93982437411E+03  0.10948963391E+04  0.25500000920E-02 0. -1.
       -2    1    3    3    0  502  0.10061309021E+03 -0.55263473047E+03  0.38508647580E+03  0.68104312132E+03  0.25500000920E-02 0.  1.
</event>
<event>
 5   0  0.3605571E-04  0.1713120E+04  0.7818609E-02  0.8753917E-01
       -2   -1    0    0    0  501  0.00000000000E+00  0.00000000000E+00  0.26098280133E+03  0.26098280134E+03  0.25500000920E-02 0. -1.
        2   -1    0    0  501    0  0.00000000000E+00  0.00000000000E+00 -0.28112768618E+04  0.28112768618E+04  0.25500000920E-02 0.  1.
    10030    2    1    2    0    0  0.00000000000E+00  0.00000000000E+00 -0.25502940604E+04  0.30722596631E+04  0.17131198565E+04 0.  0.
        4    1    3    3  502    0  0.13071986249E+03 -0.65432578099E+03 -0.22383449139E+04  0.23356839419E+04  0.12699999809E+01 0.  1.
       -4    1    3    3    0  502 -0.13071986249E+03  0.65432578099E+03 -0.31194914655E+03  0.73657572119E+03  0.12699999809E+01 0. -1.
</event>
<event>
 5   0  0.1920289E-04  0.1700722E+04  0.7818609E-02  0.8760953E-01
       -1   -1    0    0    0  501  0.00000000000E+00  0.00000000000E+00  0.46873704975E+03  0.46873704977E+03  0.50400001928E-02 0. -1.
        1   -1    0    0  501    0  0.00000000000E+00  0.00000000000E+00 -0.15426855722E+04  0.15426855722E+04  0.50400001928E-02 0.  1.
    10030    2    1    2    0    0  0.00000000000E+00  0.00000000000E+00 -0.10739485224E+04  0.20114226220E+04  0.17007220629E+04 0.  0.
        4    1    3    3  502    0 -0.55881601366E+03 -0.61041720822E+03 -0.76821238790E+03  0.11291750932E+04  0.12699999809E+01 0.  1.
       -4    1    3    3    0  502  0.55881601366E+03  0.61041720822E+03 -0.30573613455E+03  0.88224752881E+03  0.12699999809E+01 0. -1.
</event>
<event>
 5   0  0.1930116E-04  0.1698019E+04  0.7818609E-02  0.8762495E-01
        1   -1    0    0  501    0  0.00000000000E+00  0.00000000000E+00  0.73314051674E+03  0.73314051676E+03  0.50400001928E-02 0.  1.
       -1   -1    0    0    0  501  0.00000000000E+00  0.00000000000E+00 -0.98319061428E+03  0.98319061429E+03  0.50400001928E-02 0. -1.
    10030    2    1    2    0    0  0.00000000000E+00  0.00000000000E+00 -0.25005009754E+03  0.17163311310E+04  0.16980186984E+04 0.  0.
        1    1    3    3  502    0 -0.52555872501E+03  0.47907585612E+03 -0.59380600293E+03  0.92646166596E+03  0.50400001928E-02 0. -1.
       -1    1    3    3    0  502  0.52555872501E+03 -0.47907585612E+03  0.34375590539E+03  0.78986946508E+03  0.50400001928E-02 0.  1.
</event>
<event>
 5   0  0.1815663E-04  0.1693918E+04  0.7818609E-02  0.8764841E-01
       -1   -1    0    0    0  501  0.00000000000E+00  0.00000000000E+00  0.68585534707E+03  0.68585534709E+03  0.50400001928E-02 0.  1.
        1   -1    0    0  501    0  0.00000000000E+00  0.00000000000E+00 -0.10459047365E+04  0.10459047365E+04  0.50400001928E-02 0. -1.
    10030    2    1    2    0    0  0.00000000000E+00  0.00000000000E+00 -0.36004938942E+03  0.17317600836E+04  0.16939177738E+04 0.  0.
        5    1    3    3  502    0 -0.80946952867E+03 -0.23675346571E+03 -0.25937399439E+03  0.88237751577E+03  0.46999998093E+01 0. -1.
       -5    1    3    3    0  502  0.80946952867E+03  0.23675346571E+03 -0.10067539503E+03  0.84938256783E+03  0.46999998093E+01 0.  1.
</event>
<event>
 5   0  0.1824538E-04  0.1719381E+04  0.7818609E-02  0.8750387E-01
       -1   -1    0    0    0  501  0.00000000000E+00  0.00000000000E+00  0.19207789492E+04  0.19207789493E+04  0.50400001928E-02 0.  1.
        1   -1    0    0  501    0  0.00000000000E+00  0.00000000000E+00 -0.38477481736E+03  0.38477481739E+03  0.50400001928E-02 0. -1.
    10030    2    1    2    0    0  0.00000000000E+00  0.00000000000E+00  0.15360041319E+04  0.23055537666E+04  0.17193805506E+04 0.  0.
        3    1    3    3  502    0  0.41073649276E+03  0.75369295495E+03  0.83244755741E+03  0.11957117056E+04  0.10100000352E+00 0.  1.
       -3    1    3    3    0  502 -0.41073649276E+03 -0.75369295495E+03  0.70355657448E+03  0.11098420611E+04  0.10100000352E+00 0. -1.
</event>
<event>
 5   0  0.3678896E-04  0.1704224E+04  0.7818609E-02  0.8758959E-01
        2   -1    0    0  501    0  0.00000000000E+00  0.00000000000E+00  0.26329505491E+04  0.26329505491E+04  0.25500000920E-02 0.  1.
       -2   -1    0    0    0  501  0.00000000000E+00  0.00000000000E+00 -0.27577221665E+03  0.27577221667E+03  0.25500000920E-02 0. -1.
    10030    2    1    2    0    0  0.00000000000E+00  0.00000000000E+00  0.23571783324E+04  0.29087227657E+04  0.17042237051E+04 0.  0.
        2    1    3    3  502    0 -0.13888655567E+03  0.70077516351E+03  0.19713099293E+04  0.20967685000E+04  0.25500000920E-02 0.  1.
       -2    1    3    3    0  502  0.13888655567E+03 -0.70077516351E+03  0.38586840309E+03  0.81195426574E+03  0.25500000920E-02 0. -1.
</event>
<event>
 5   0  0.1920289E-04  0.1687051E+04  0.7818609E-02  0.8768784E-01
        1   -1    0    0  501    0  0.00000000000E+00  0.00000000000E+00  0.20410073228E+04  0.20410073228E+04  0.50400001928E-02 0. -1.
       -1   -1    0    0    0  501  0.00000000000E+00  0.00000000000E+00 -0.34861965055E+03  0.34861965059E+03  0.50400001928E-02 0.  1.
    10030    2    1    2    0    0  0.00000000000E+00  0.00000000000E+00  0.16923876723E+04  0.23896269734E+04  0.16870509888E+04 0.  0.
        4    1    3    3  502    0  0.21961679679E+03 -0.77801970985E+03  0.50510392579E+03  0.95324592582E+03  0.12699999809E+01 0.  1.
       -4    1    3    3    0  502 -0.21961679679E+03  0.77801970985E+03  0.11872837465E+04  0.14363810476E+04  0.12699999809E+01 0. -1.
</event>
<event>
 5   0  0.3574092E-04  0.1701680E+04  0.7818609E-02  0.8760407E-01
       -2   -1    0    0    0  501  0.00000000000E+00  0.00000000000E+00  0.12168238640E+04  0.12168238640E+04  0.25500000920E-02 0. -1.
        2   -1    0    0  501    0  0.00000000000E+00  0.00000000000E+00 -0.59493280652E+03  0.59493280652E+03  0.25500000920E-02 0.  1.
    10030    2    1    2    0    0  0.00000000000E+00  0.00000000000E+00  0.62189105749E+03  0.18117566705E+04  0.17016796837E+04 0.  0.
        3    1    3    3  502    0 -0.20725561499E+03  0.19722556409E+03  0.11640753887E+04  0.11987177874E+04  0.10100000352E+00 0. -1.
       -3    1    3    3    0  502  0.20725561499E+03 -0.19722556409E+03 -0.54218433118E+03  0.61303888315E+03  0.10100000352E+00 0.  1.
</event>
<event>
 5   0  0.3605571E-04  0.1699648E+04  0.7818609E-02  0.8761565E-01
       -2   -1    0    0    0  501  0.00000000000E+00  0.00000000000E+00  0.68458639197E+03  0.68458639198E+03  0.25500000920E-02 0. -1.
        2   -1    0    0  501    0  0.00000000000E+00  0.00000000000E+00 -0.10549453155E+04  0.10549453155E+04  0.25500000920E-02 0.  1.
    10030    2    1    2    0    0  0.00000000000E+00  0.00000000000E+00 -0.37035892357E+03  0.17395317075E+04  0.16996484428E+04 0.  0.
        4    1    3    3  502    0  0.71949991958E+03  0.44546862505E+03 -0.26496491836E+03  0.88675275644E+03  0.12699999809E+01 0. -1.
       -4    1    3    3    0  502 -0.71949991958E+03 -0.44546862505E+03 -0.10539400521E+03  0.85277895109E+03  0.12699999809E+01 0.  1.
</event>
<event>
 5   0  0.1930116E-04  0.1723449E+04  0.7818609E-02  0.8748102E-01
       -1   -1    0    0    0  501  0.00000000000E+00  0.00000000000E+00  0.48702947757E+03  0.48702947760E+03  0.50400001928E-02 0. -1.
        1   -1    0    0  501    0  0.00000000000E+00  0.00000000000E+00 -0.15246911482E+04  0.15246911482E+04  0.50400001928E-02 0.  1.
    10030    2    1    2    0    0  0.00000000000E+00  0.00000000000E+00 -0.10376616706E+04  0.20117206258E+04  0.17234494868E+04 0.  0.
        1    1    3    3  502    0 -0.46939593233E+03 -0.38683245328E+02 -0.13611561029E+04  0.14403384572E+04  0.50400001928E-02 0.  1.
       -1    1    3    3    0  502  0.46939593233E+03  0.38683245328E+02  0.32349443234E+03  0.57138216855E+03  0.50400001928E-02 0. -1.
</event>
<event>
 5   0  0.3573262E-04  0.1717723E+04  0.7818609E-02  0.8751320E-01
       -2   -1    0    0    0  501  0.00000000000E+00  0.00000000000E+00  0.64464441111E+03  0.64464441112E+03  0.25500000920E-02 0.  1.
        2   -1    0    0  501    0  0.00000000000E+00  0.00000000000E+00 -0.11442635501E+04  0.11442635501E+04  0.25500000920E-02 0. -1.
    10030    2    1    2    0    0  0.00000000000E+00  0.00000000000E+00 -0.49961913895E+03  0.17889079612E+04  0.17177230305E+04 0.  0.
        5    1    3    3  502    0 -0.36531878901E+03 -0.53262852568E+03  0.33975120578E+03  0.72979718813E+03  0.46999998093E+01 0.  1.
       -5    1    3    3    0  502  0.36531878901E+03  0.53262852568E+03 -0.83937034473E+03  0.10591107730E+04  0.46999998093E+01 0. -1.
</event>
<event>
 5   0  0.3516723E-04  0.1770887E+04  0.7818609E-02  0.8721936E-01
        2   -1    0    0  501    0  0.00000000000E+00  0.00000000000E+00  0.61869282172E+03  0.61869282172E+03  0.25500000920E-02 0.  1.
       -2   -1    0    0    0  501  0.00000000000E+00  0.00000000000E+00 -0.12672046553E+04  0.12672046553E+04  0.25500000920E-02 0. -1.
    10030    2    1    2    0    0  0.00000000000E+00  0.00000000000E+00 -0.64851183356E+03  0.18858974770E+04  0.17708872622E+04 0.  0.
        1    1    3    3  502    0 -0.61675691912E+03  0.63510689258E+03 -0.34144617248E+03  0.94886002709E+03  0.50400001928E-02 0. -1.
       -1    1    3    3    0  502  0.61675691912E+03 -0.63510689258E+03 -0.30706566108E+03  0.93703744991E+03  0.50400001928E-02 0.  1.
</event>
<event>
 5   0  0.3574092E-04  0.1690158E+04  0.7818609E-02  0.8766997E-01
        2   -1    0    0  501    0  0.00000000000E+00  0.00000000000E+00  0.87429932475E+03  0.87429932476E+03  0.25500000920E-02 0.  1.
       -2   -1    0    0    0  501  0.00000000000E+00  0.00000000000E+00 -0.81683572965E+03  0.81683572965E+03  0.25500000920E-02 0. -1.
    10030    2    1    2    0    0  0.00000000000E+00  0.00000000000E+00  0.57463595103E+02  0.16911350544E+04  0.16901584859E+04 0.  0.
        3    1    3    3  502    0  0.79261056852E+03  0.21917558767E+03  0.22349643139E+03  0.85218549425E+03  0.10100000352E+00 0. -1.
       -3    1    3    3    0  502 -0.79261056852E+03 -0.21917558767E+03 -0.16603283628E+03  0.83894956016E+03  0.10100000352E+00 0.  1.
</event>
<event>
 5   0  0.1930116E-04  0.1693739E+04  0.7818609E-02  0.8764943E-01
       -1   -1    0    0    0  501  0.00000000000E+00  0.00000000000E+00  0.10357611380E+04  0.10357611380E+04  0.50400001928E-02 0.  1.
        1   -1    0    0  501    0  0.00000000000E+00  0.00000000000E+00 -0.69242572927E+03  0.69242572929E+03  0.50400001928E-02 0. -1.
    10030    2    1    2    0    0  0.00000000000E+00  0.00000000000E+00  0.34333540871E+03  0.17281868673E+04  0.16937386591E+04 0.  0.
        1    1    3    3  502    0  0.14899671181E+03  0.78283197519E+03  0.46413621517E+03  0.92219756439E+03  0.50400001928E-02 0.  1.
       -1    1    3    3    0  502 -0.14899671181E+03 -0.78283197519E+03 -0.12080080645E+03  0.80598930289E+03  0.50400001928E-02 0. -1.
</event>
<event>
 5   0  0.1893284E-04  0.1694385E+04  0.7818609E-02  0.8764574E-01
        1   -1    0    0  501    0  0.00000000000E+00  0.00000000000E+00  0.12513000989E+04  0.12513000989E+04  0.50400001928E-02 0.  1.
       -1   -1    0    0    0  501  0.00000000000E+00  0.00000000000E+00 -0.57359119333E+03  0.57359119336E+03  0.50400001928E-02 0. -1.
    10030    2    1    2    0    0  0.00000000000E+00  0.00000000000E+00  0.67770890554E+03  0.18248912922E+04  0.16943845100E+04 0.  0.
        2    1    3    3  502    0 -0.35981366877E+03  0.70037421871E+03  0.21321790657E+01  0.78739727499E+03  0.25500000920E-02 0. -1.
       -2    1    3    3    0  502  0.35981366877E+03 -0.70037421871E+03  0.67557672647E+03  0.10374940172E+04  0.25500000920E-02 0.  1.
</event>
<event>
 5   0  0.3516723E-04  0.1619748E+04  0.7818609E-02  0.8808507E-01
        2   -1    0    0  501    0  0.00000000000E+00  0.00000000000E+00  0.72391933621E+03  0.72391933621E+03  0.25500000920E-02 0.  1.
       -2   -1    0    0    0  501  0.00000000000E+00  0.00000000000E+00 -0.90603455739E+03  0.90603455739E+03  0.25500000920E-02 0. -1.
    10030    2    1    2    0    0  0.00000000000E+00  0.00000000000E+00 -0.18211522118E+03  0.16299538936E+04  0.16197480488E+04 0.  0.
        1    1    3    3  502    0  0.76756185196E+03 -0.24652124085E+03 -0.16882335906E+03  0.82366573643E+03  0.50400001928E-02 0.  1.
       -1    1    3    3    0  502 -0.76756185196E+03  0.24652124085E+03 -0.13291862121E+02  0.80628815718E+03  0.50400001928E-02 0. -1.
</event>
<event>
 5   0  0.3574092E-04  0.1701465E+04  0.7818609E-02  0.8760530E-01
        2   -1    0    0  501    0  0.00000000000E+00  0.00000000000E+00  0.79403762358E+03  0.79403762358E+03  0.25500000920E-02 0. -1.
       -2   -1    0    0    0  501  0.00000000000E+00  0.00000000000E+00 -0.91147491995E+03  0.91147491996E+03  0.25500000920E-02 0.  1.
    10030    2    1    2    0    0  0.00000000000E+00  0.00000000000E+00 -0.11743729638E+03  0.17055125435E+04  0.17014645214E+04 0.  0.
        3    1    3    3  502    0  0.78275854931E+03  0.32645074724E+03  0.82559746903E+01  0.84814456799E+03  0.10100000352E+00 0. -1.
       -3    1    3    3    0  502 -0.78275854931E+03 -0.32645074724E+03 -0.12569327107E+03  0.85736797554E+03  0.10100000352E+00 0.  1.
</event>
<event>
 5   0  0.1815663E-04  0.1708548E+04  0.7818609E-02  0.8756504E-01
        1   -1    0    0  501    0  0.00000000000E+00  0.00000000000E+00  0.17654724115E+04  0.17654724115E+04  0.50400001928E-02 0.  1.
       -1   -1    0    0    0  501  0.00000000000E+00  0.00000000000E+00 -0.41336465277E+03  0.41336465280E+03  0.50400001928E-02 0. -1.
    10030    2    1    2    0    0  0.00000000000E+00  0.00000000000E+00  0.13521077587E+04  0.21788370643E+04  0.17085477932E+04 0.  0.
        5    1    3    3  502    0  0.68466803489E+03  0.29169325907E+03  0.14119575462E+03  0.75750485576E+03  0.46999998093E+01 0. -1.
       -5    1    3    3    0  502 -0.68466803489E+03 -0.29169325907E+03  0.12109120041E+04  0.14213322085E+04  0.46999998093E+01 0.  1.
</event>
<event>
 5   0  0.3574092E-04  0.1676962E+04  0.7818609E-02  0.8774614E-01
       -2   -1    0    0    0  501  0.00000000000E+00  0.00000000000E+00  0.57286732909E+03  0.57286732909E+03  0.25500000920E-02 0.  1.
        2   -1    0    0  501    0  0.00000000000E+00  0.00000000000E+00 -0.12272478389E+04  0.12272478389E+04  0.25500000920E-02 0. -1.
    10030    2    1    2    0    0  0.00000000000E+00  0.00000000000E+00 -0.65438050978E+03  0.18001151680E+04  0.16769617665E+04 0.  0.
        3    1    3    3  502    0 -0.72995447221E+03 -0.39615540009E+02 -0.76801582066E+03  0.10603071411E+04  0.10100000352E+00 0. -1.
       -3    1    3    3    0  502  0.72995447221E+03  0.39615540009E+02  0.11363531088E+03  0.73980802685E+03  0.10100000352E+00 0.  1.
</event>
<event>
 5   0  0.1920289E-04  0.1714119E+04  0.7818609E-02  0.8753353E-01
       -1   -1    0    0    0  501  0.00000000000E+00  0.00000000000E+00  0.48753183822E+03  0.48753183824E+03  0.50400001928E-02 0.  1.
        1   -1    0    0  501    0  0.00000000000E+00  0.00000000000E+00 -0.15066726181E+04  0.15066726181E+04  0.50400001928E-02 0. -1.
    10030    2    1    2    0    0  0.00000000000E+00  0.00000000000E+00 -0.10191407799E+04  0.19942044564E+04  0.17141188653E+04 0.  0.
        4    1    3    3  502    0 -0.49886617038E+03  0.22060618840E+03 -0.12786597028E+04  0.13901463213E+04  0.12699999809E+01 0. -1.
       -4    1    3    3    0  502  0.49886617038E+03 -0.22060618840E+03  0.25951892285E+03  0.60405813505E+03  0.12699999809E+01 0.  1.
</event>
<event>
 5   0  0.1920289E-04  0.1619803E+04  0.7818609E-02  0.8808474E-01
       -1   -1    0    0    0  501  0.00000000000E+00  0.00000000000E+00  0.46303320928E+03  0.46303320931E+03  0.50400001928E-02 0. -1.
        1   -1    0    0  501    0  0.00000000000E+00  0.00000000000E+00 -0.14166167929E+04  0.14166167929E+04  0.50400001928E-02 0.  1.
    10030    2    1    2    0    0  0.00000000000E+00  0.00000000000E+00 -0.95358358359E+03  0.18796500022E+04  0.16198032226E+04 0.  0.
        4    1    3    3  502    0  0.79230013560E+03 -0.12452696569E+03 -0.34605767116E+03  0.87350099869E+03  0.12699999809E+01 0. -1.
       -4    1    3    3    0  502 -0.79230013560E+03  0.12452696569E+03 -0.60752591243E+03  0.10061490035E+04  0.12699999809E+01 0.  1.
</event>
<event>
 5   0  0.3574092E-04  0.1683811E+04  0.7818609E-02  0.8770652E-01
        2   -1    0    0  501    0  0.00000000000E+00  0.00000000000E+00  0.68453915614E+03  0.68453915614E+03  0.25500000920E-02 0. -1.
       -2   -1    0    0    0  501  0.00000000000E+00  0.00000000000E+00 -0.10354481160E+04  0.10354481160E+04  0.25500000920E-02 0.  1.
    10030    2    1    2    0    0  0.00000000000E+00  0.00000000000E+00 -0.35090895982E+03  0.17199872721E+04  0.16838108914E+04 0.  0.
        3    1    3    3  502    0  0.26182277829E+03  0.16426473051E+03 -0.97539560954E+03  0.10231963029E+04  0.10100000352E+00 0.  1.
       -3    1    3    3    0  502 -0.26182277829E+03 -0.16426473051E+03  0.62448664971E+03  0.69679096922E+03  0.10100000352E+00 0. -1.
</event>
<event>
 5   0  0.1815663E-04  0.1696605E+04  0.7818609E-02  0.8763303E-01
        1   -1    0    0  501    0  0.00000000000E+00  0.00000000000E+00  0.10989202220E+04  0.10989202220E+04  0.50400001928E-02 0.  1.
       -1   -1    0    0    0  501  0.00000000000E+00  0.00000000000E+00 -0.65483997271E+03  0.65483997273E+03  0.50400001928E-02 0. -1.
    10030    2    1    2    0    0  0.00000000000E+00  0.00000000000E+00  0.44408024929E+03  0.17537601947E+04  0.16966047132E+04 0.  0.
        5    1    3    3  502    0  0.13573359731E+03  0.66549626561E+03 -0.30329918187E+03  0.74385574724E+03  0.46999998093E+01 0. -1.
       -5    1    3    3    0  502 -0.13573359731E+03 -0.66549626561E+03  0.74737943116E+03  0.10099044475E+04  0.46999998093E+01 0.  1.
</event>
<event>
 5   0  0.1930116E-04  0.1714136E+04  0.7818609E-02  0.8753343E-01
        1   -1    0    0  501    0  0.00000000000E+00  0.00000000000E+00  0.76544562808E+03  0.76544562809E+03  0.50400001928E-02 0.  1.
       -1   -1    0    0    0  501  0.00000000000E+00  0.00000000000E+00 -0.95965706902E+03  0.95965706903E+03  0.50400001928E-02 0. -1.
    10030    2    1    2    0    0  0.00000000000E+00  0.00000000000E+00 -0.19421144094E+03  0.17251026971E+04  0.17141357099E+04 0.  0.
        1    1    3    3  502    0 -0.72308964077E+02 -0.67400801987E+03  0.43070171728E+03  0.80313097713E+03  0.50400001928E-02 0.  1.
       -1    1    3    3    0  502  0.72308964077E+02  0.67400801987E+03 -0.62491315822E+03  0.92197172000E+03  0.50400001928E-02 0. -1.
</event>
<event>
 5   0  0.1920289E-04  0.1686247E+04  0.7818609E-02  0.8769247E-01
       -1   -1    0    0    0  501  0.00000000000E+00  0.00000000000E+00  0.73773435153E+03  0.73773435155E+03  0.50400001928E-02 0. -1.
        1   -1    0    0  501    0  0.00000000000E+00  0.00000000000E+00 -0.96356761455E+03  0.96356761457E+03  0.50400001928E-02 0.  1.
    10030    2    1    2    0    0  0.00000000000E+00  0.00000000000E+00 -0.22583326302E+03  0.17013019661E+04  0.16862466359E+04 0.  0.
        4    1    3    3  502    0 -0.32838990307E+03 -0.77639696303E+03 -0.97845263049E+02  0.84865038799E+03  0.12699999809E+01 0. -1.
       -4    1    3    3    0  502  0.32838990307E+03  0.77639696303E+03 -0.12798799997E+03  0.85265157812E+03  0.12699999809E+01 0.  1.
</event>
<event>
 5   0  0.3678896E-04  0.1703925E+04  0.7818609E-02  0.8759129E-01
        2   -1    0    0  501    0  0.00000000000E+00  0.00000000000E+00  0.89876991078E+03  0.89876991079E+03  0.25500000920E-02 0. -1.
       -2   -1    0    0    0  501  0.00000000000E+00  0.00000000000E+00 -0.80759259786E+03  0.80759259786E+03  0.25500000920E-02 0.  1.
    10030    2    1    2    0    0  0.00000000000E+00  0.00000000000E+00  0.91177312929E+02  0.17063625086E+04  0.17039247954E+04 0.  0.
        2    1    3    3  502    0 -0.11526884475E+03 -0.43156588424E+03 -0.68091729292E+03  0.81436133185E+03  0.25500000920E-02 0.  1.
       -2    1    3    3    0  502  0.11526884475E+03  0.43156588424E+03  0.77209460585E+03  0.89200117679E+03  0.25500000920E-02 0. -1.
</event>
<event>
 5   0  0.3678896E-04  0.1680115E+04  0.7818609E-02  0.8772788E-01
       -2   -1    0    0    0  501  0.00000000000E+00  0.00000000000E+00  0.72712585658E+03  0.72712585658E+03  0.25500000920E-02 0.  1.
        2   -1    0    0  501    0  0.00000000000E+00  0.00000000000E+00 -0.97052855608E+03  0.97052855608E+03  0.25500000920E-02 0. -1.
    10030    2    1    2    0    0  0.00000000000E+00  0.00000000000E+00 -0.24340269950E+03  0.16976544127E+04  0.16801147671E+04 0.  0.
        2    1    3    3  502    0  0.20354316009E+03  0.59565026219E+03  0.44040405227E+03  0.76823484829E+03  0.25500000920E-02 0.  1.
       -2    1    3    3    0  502 -0.20354316009E+03 -0.59565026219E+03 -0.68380675178E+03  0.92941956438E+03  0.25500000920E-02 0. -1.
</event>
<event>
 5   0  0.3678896E-04  0.1705006E+04  0.7818609E-02  0.8758514E-01
        2   -1    0    0  501    0  0.00000000000E+00  0.00000000000E+00  0.12870723246E+04  0.12870723246E+04  0.25500000920E-02 0. -1.
       -2   -1    0    0    0  501  0.00000000000E+00  0.00000000000E+00 -0.56466251395E+03  0.56466251396E+03  0.25500000920E-02 0.  1.
    10030    2    1    2    0    0  0.00000000000E+00  0.00000000000E+00  0.72240981067E+03  0.18517348386E+04  0.17050061519E+04 0.  0.
        2    1    3    3  502    0 -0.67871010030E+03  0.13379000541E+03 -0.17988106248E+03  0.71477574276E+03  0.25500000920E-02 0.  1.
       -2    1    3    3    0  502  0.67871010030E+03 -0.13379000541E+03  0.90229087315E+03  0.11369590958E+04  0.25500000920E-02 0. -1.
</event>
<event>
 5   0  0.1893284E-04  0.1676253E+04  0.7818609E-02  0.8775025E-01
       -1   -1    0    0    0  501  0.00000000000E+00  0.00000000000E+00  0.50956288299E+03  0.50956288302E+03  0.50400001928E-02 0.  1.
        1   -1    0    0  501    0  0.00000000000E+00  0.00000000000E+00 -0.13785467303E+04  0.13785467303E+04  0.50400001928E-02 0. -1.
    10030    2    1    2    0    0  0.00000000000E+00  0.00000000000E+00 -0.86898384731E+03  0.18881096133E+04  0.16762532580E+04 0.  0.
        2    1    3    3  502    0 -0.69553174594E+03  0.31298336275E+03 -0.82587407538E+03  0.11241845860E+04  0.25500000920E-02 0. -1.
       -2    1    3    3    0  502  0.69553174594E+03 -0.31298336275E+03 -0.43109771933E+02  0.76392502735E+03  0.25500000920E-02 0.  1.
</event>
<event>
 5   0  0.1920289E-04  0.1583270E+04  0.7818609E-02  0.8830892E-01
       -1   -1    0    0    0  501  0.00000000000E+00  0.00000000000E+00  0.54756511704E+03  0.54756511707E+03  0.50400001928E-02 0. -1.
        1   -1    0    0  501    0  0.00000000000E+00  0.00000000000E+00 -0.11444954563E+04  0.11444954563E+04  0.50400001928E-02 0.  1.
    10030    2    1    2    0    0  0.00000000000E+00  0.00000000000E+00 -0.59693033923E+03  0.16920605734E+04  0.15832697667E+04 0.  0.
        4    1    3    3  502    0  0.13623080194E+03  0.37798321957E+03  0.43049879342E+03  0.58886413519E+03  0.12699999809E+01 0. -1.
       -4    1    3    3    0  502 -0.13623080194E+03 -0.37798321957E+03 -0.10274291327E+04  0.11031964382E+04  0.12699999809E+01 0.  1.
</event>
<event>
 5   0  0.1824538E-04  0.1678754E+04  0.7818609E-02  0.8773575E-01
        1   -1    0    0  501    0  0.00000000000E+00  0.00000000000E+00  0.15049174067E+04  0.15049174067E+04  0.50400001928E-02 0.  1.
       -1   -1    0    0    0  501  0.00000000000E+00  0.00000000000E+00 -0.46816777427E+03  0.46816777429E+03  0.50400001928E-02 0. -1.
    10030    2    1    2    0    0  0.00000000000E+00  0.00000000000E+00  0.10367496325E+04  0.19730851810E+04  0.16787541009E+04 0.  0.
        3    1    3    3  502    0 -0.32446748027E+03 -0.39642734367E+03 -0.26312494124E+03  0.57590670205E+03  0.10100000352E+00 0. -1.
       -3    1    3    3    0  502  0.32446748027E+03  0.39642734367E+03  0.12998745737E+04  0.13971784790E+04  0.10100000352E+00 0.  1.
</event>
<event>
 5   0  0.3573262E-04  0.1696961E+04  0.7818609E-02  0.8763100E-01
        2   -1    0    0  501    0  0.00000000000E+00  0.00000000000E+00  0.96312967007E+03  0.96312967007E+03  0.25500000920E-02 0. -1.
       -2   -1    0    0    0  501  0.00000000000E+00  0.00000000000E+00 -0.74747894158E+03  0.74747894158E+03  0.25500000920E-02 0.  1.
    10030    2    1    2    0    0  0.00000000000E+00  0.00000000000E+00  0.21565072850E+03  0.17106086117E+04  0.16969609853E+04 0.  0.
        5    1    3    3  502    0 -0.62793743909E+03  0.85064613344E+01  0.68295685460E+03  0.92780921667E+03  0.46999998093E+01 0. -1.
       -5    1    3    3    0  502  0.62793743909E+03 -0.85064613344E+01 -0.46730612611E+03  0.78279939498E+03  0.46999998093E+01 0.  1.
</event>
<event>
 5   0  0.1920289E-04  0.1699630E+04  0.7818609E-02  0.8761575E-01
       -1   -1    0    0    0  501  0.00000000000E+00  0.00000000000E+00  0.15369086558E+04  0.15369086558E+04  0.50400001928E-02 0. -1.
        1   -1    0    0  501    0  0.00000000000E+00  0.00000000000E+00 -0.46989495518E+03  0.46989495521E+03  0.50400001928E-02 0.  1.
    10030    2    1    2    0    0  0.00000000000E+00  0.00000000000E+00  0.10670137006E+04  0.20068036110E+04  0.16996301056E+04 0.  0.
        4    1    3    3  502    0 -0.64575258695E+03  0.55345291277E+02  0.11825049655E+04  0.13484728811E+04  0.12699999809E+01 0. -1.
       -4    1    3    3    0  502  0.64575258695E+03 -0.55345291277E+02 -0.11549126482E+03  0.65833072993E+03  0.12699999809E+01 0.  1.
</event>
<event>
 5   0  0.3573262E-04  0.1726661E+04  0.7818609E-02  0.8746303E-01
       -2   -1    0    0    0  501  0.00000000000E+00  0.00000000000E+00  0.63052250222E+03  0.63052250222E+03  0.25500000920E-02 0.  1.
        2   -1    0    0  501    0  0.00000000000E+00  0.00000000000E+00 -0.11820987424E+04  0.11820987424E+04  0.25500000920E-02 0. -1.
    10030    2    1    2    0    0  0.00000000000E+00  0.00000000000E+00 -0.55157624019E+03  0.18126212446E+04  0.17266613529E+04 0.  0.
        5    1    3    3  502    0  0.14557056561E+03  0.42832898411E+03  0.49611451386E+03  0.67142252648E+03  0.46999998093E+01 0.  1.
       -5    1    3    3    0  502 -0.14557056561E+03 -0.42832898411E+03 -0.10476907540E+04  0.11411987182E+04  0.46999998093E+01 0. -1.
</event>
<event>
 5   0  0.1920289E-04  0.1678747E+04  0.7818609E-02  0.8773580E-01
       -1   -1    0    0    0  501  0.00000000000E+00  0.00000000000E+00  0.55710917411E+03  0.55710917413E+03  0.50400001928E-02 0.  1.
        1   -1    0    0  501    0  0.00000000000E+00  0.00000000000E+00 -0.12646488395E+04  0.12646488395E+04  0.50400001928E-02 0. -1.
    10030    2    1    2    0    0  0.00000000000E+00  0.00000000000E+00 -0.70753966542E+03  0.18217580137E+04  0.16787465211E+04 0.  0.
        4    1    3    3  502    0  0.81981432330E+03  0.16965117282E+03 -0.41950054280E+03  0.93640769082E+03  0.12699999809E+01 0. -1.
       -4    1    3    3    0  502 -0.81981432330E+03 -0.16965117282E+03 -0.28803912262E+03  0.88535032285E+03  0.12699999809E+01 0.  1.
</event>
<event>
 5   0  0.1815663E-04  0.1705129E+04  0.7818609E-02  0.8758445E-01
       -1   -1    0    0    0  501  0.00000000000E+00  0.00000000000E+00  0.48200041636E+03  0.48200041639E+03  0.50400001928E-02 0.  1.
        1   -1    0    0  501    0  0.00000000000E+00  0.00000000000E+00 -0.15080194258E+04  0.15080194258E+04  0.50400001928E-02 0. -1.
    10030    2    1    2    0    0  0.00000000000E+00  0.00000000000E+00 -0.10260190094E+04  0.19900198422E+04  0.17051287237E+04 0.  0.
        5    1    3    3  502    0 -0.32362270053E+03  0.77060430474E+03 -0.70927753780E+03  0.10962022452E+04  0.46999998093E+01 0.  1.
       -5    1    3    3    0  502  0.32362270053E+03 -0.77060430474E+03 -0.31674147160E+03  0.89381759694E+03  0.46999998093E+01 0. -1.
</event>
<event>
 5   0  0.1824538E-04  0.1711005E+04  0.7818609E-02  0.8755113E-01
        1   -1    0    0  501    0  0.00000000000E+00  0.00000000000E+00  0.12904562993E+04  0.12904562993E+04  0.50400001928E-02 0.  1.
       -1   -1    0    0    0  501  0.00000000000E+00  0.00000000000E+00 -0.56715172455E+03  0.56715172457E+03  0.50400001928E-02 0. -1.
    10030    2    1    2    0    0  0.00000000000E+00  0.00000000000E+00  0.72330457477E+03  0.18576080239E+04  0.17110049861E+04 0.  0.
        3    1    3    3  502    0  0.41864955830E+03  0.42906553401E+02  0.11703042913E+04  0.12436722114E+04  0.10100000352E+00 0.  1.
       -3    1    3    3    0  502 -0.41864955830E+03 -0.42906553401E+02 -0.44699971657E+03  0.61393581245E+03  0.10100000352E+00 0. -1.
</event>
<event>
 5   0  0.1824538E-04  0.1715221E+04  0.7818609E-02  0.8752731E-01
        1   -1    0    0  501    0  0.00000000000E+00  0.00000000000E+00  0.77398338346E+03  0.77398338348E+03  0.50400001928E-02 0.  1.
       -1   -1    0    0    0  501  0.00000000000E+00  0.00000000000E+00 -0.95027330634E+03  0.95027330635E+03  0.50400001928E-02 0. -1.
    10030    2    1    2    0    0  0.00000000000E+00  0.00000000000E+00 -0.17628992287E+03  0.17242566898E+04  0.17152209757E+04 0.  0.
        3    1    3    3  502    0  0.35922412417E+03 -0.27491892945E+03 -0.82059381309E+03  0.93701473064E+03  0.10100000352E+00 0. -1.
       -3    1    3    3    0  502 -0.35922412417E+03  0.27491892945E+03  0.64430389022E+03  0.78724195919E+03  0.10100000352E+00 0.  1.
</event>
<event>
 5   0  0.3605571E-04  0.1680410E+04  0.7818609E-02  0.8772617E-01
       -2   -1    0    0    0  501  0.00000000000E+00  0.00000000000E+00  0.44148573073E+03  0.44148573073E+03  0.25500000920E-02 0. -1.
        2   -1    0    0  501    0  0.00000000000E+00  0.00000000000E+00 -0.15990206188E+04  0.15990206188E+04  0.25500000920E-02 0.  1.
    10030    2    1    2    0    0  0.00000000000E+00  0.00000000000E+00 -0.11575348881E+04  0.20405063495E+04  0.16804104098E+04 0.  0.
        4    1    3    3  502    0  0.29270777882E+03 -0.78756545316E+03 -0.57579636041E+03  0.10185677436E+04  0.12699999809E+01 0.  1.
       -4    1    3    3    0  502 -0.29270777882E+03  0.78756545316E+03 -0.58173852765E+03  0.10219386059E+04  0.12699999809E+01 0. -1.
</event>
<event>
 5   0  0.3678896E-04  0.1595044E+04  0.7818609E-02  0.8823598E-01
        2   -1    0    0  501    0  0.00000000000E+00  0.00000000000E+00  0.11018268718E+04  0.11018268718E+04  0.25500000920E-02 0.  1.
       -2   -1    0    0    0  501  0.00000000000E+00  0.00000000000E+00 -0.57726076077E+03  0.57726076078E+03  0.25500000920E-02 0. -1.
    10030    2    1    2    0    0  0.00000000000E+00  0.00000000000E+00  0.52456611100E+03  0.16790876326E+04  0.15950440975E+04 0.  0.
        2    1    3    3  502    0 -0.63024065424E+03  0.37968605486E+03 -0.61625244749E+02  0.73835117208E+03  0.25500000920E-02 0. -1.
       -2    1    3    3    0  502  0.63024065424E+03 -0.37968605486E+03  0.58619135575E+03  0.94073646048E+03  0.25500000920E-02 0.  1.
</event>
<event>
 5   0  0.1824538E-04  0.1711313E+04  0.7818609E-02  0.8754939E-01
       -1   -1    0    0    0  501  0.00000000000E+00  0.00000000000E+00  0.57775133542E+03  0.57775133544E+03  0.50400001928E-02 0. -1.
        1   -1    0    0  501    0  0.00000000000E+00  0.00000000000E+00 -0.12672366798E+04  0.12672366798E+04  0.50400001928E-02 0.  1.
    10030    2    1    2    0    0  0.00000000000E+00  0.00000000000E+00 -0.68948534440E+03  0.18449880153E+04  0.17113125770E+04 0.  0.
        3    1    3    3  502    0 -0.14192771778E+03  0.51936444491E+03 -0.10617199298E+04  0.11904335863E+04  0.10100000352E+00 0.  1.
       -3    1    3    3    0  502  0.14192771778E+03 -0.51936444491E+03  0.37223458545E+03  0.65455442899E+03  0.10100000352E+00 0. -1.
</event>
<event>
 5   0  0.3574092E-04  0.1699195E+04  0.7818609E-02  0.8761823E-01
        2   -1    0    0  501    0  0.00000000000E+00  0.00000000000E+00  0.12344395718E+04  0.12344395718E+04  0.25500000920E-02 0. -1.
       -2   -1    0    0    0  501  0.00000000000E+00  0.00000000000E+00 -0.58473185416E+03  0.58473185417E+03  0.25500000920E-02 0.  1.
    10030    2    1    2    0    0  0.00000000000E+00  0.00000000000E+00  0.64970771762E+03  0.18191714260E+04  0.16991952680E+04 0.  0.
        3    1    3    3  502    0  0.71734430776E+03  0.13864413771E+03 -0.13936422454E+03  0.74379261228E+03  0.10100000352E+00 0.  1.
       -3    1    3    3    0  502 -0.71734430776E+03 -0.13864413771E+03  0.78907194216E+03  0.10753788137E+04  0.10100000352E+00 0. -1.
</event>
<event>
 5   0  0.1930116E-04  0.1710583E+04  0.7818609E-02  0.8755352E-01
       -1   -1    0    0    0  501  0.00000000000E+00  0.00000000000E+00  0.12905818036E+04  0.12905818036E+04  0.50400001928E-02 0.  1.
        1   -1    0    0  501    0  0.00000000000E+00  0.00000000000E+00 -0.56681668791E+03  0.56681668793E+03  0.50400001928E-02 0. -1.
    10030    2    1    2    0    0  0.00000000000E+00  0.00000000000E+00  0.72376511566E+03  0.18573984915E+04  0.17105827117E+04 0.  0.
        1    1    3    3  502    0  0.70223401157E+03  0.39336286482E+03  0.67594100116E+03  0.10510771558E+04  0.50400001928E-02 0.  1.
       -1    1    3    3    0  502 -0.70223401157E+03 -0.39336286482E+03  0.47824114502E+02  0.80632133568E+03  0.50400001928E-02 0. -1.
</event>
<event>
 5   0  0.1920289E-04  0.1702958E+04  0.7818609E-02  0.8759679E-01
       -1   -1    0    0    0  501  0.00000000000E+00  0.00000000000E+00  0.45373856354E+03  0.45373856357E+03  0.50400001928E-02 0. -1.
        1   -1    0    0  501    0  0.00000000000E+00  0.00000000000E+00 -0.15978733180E+04  0.15978733180E+04  0.50400001928E-02 0.  1.
    10030    2    1    2    0    0  0.00000000000E+00  0.00000000000E+00 -0.11441347545E+04  0.20516118816E+04  0.17029583014E+04 0.  0.
        4    1    3    3  502    0  0.57580877665E+03 -0.10576223901E+03 -0.13169338389E+04  0.14412001067E+04  0.12699999809E+01 0.  1.
       -4    1    3    3    0  502 -0.57580877665E+03  0.10576223901E+03  0.17279908445E+03  0.61041177492E+03  0.12699999809E+01 0. -1.
</event>
<event>
 5   0  0.1815663E-04  0.1697621E+04  0.7818609E-02  0.8762723E-01
       -1   -1    0    0    0  501  0.00000000000E+00  0.00000000000E+00  0.86699293910E+03  0.86699293912E+03  0.50400001928E-02 0. -1.
        1   -1    0    0  501    0  0.00000000000E+00  0.00000000000E+00 -0.83100889941E+03  0.83100889942E+03  0.50400001928E-02 0.  1.
    10030    2    1    2    0    0  0.00000000000E+00  0.00000000000E+00  0.35984039694E+02  0.16980018385E+04  0.16976205090E+04 0.  0.
        5    1    3    3  502    0 -0.43009422120E+02  0.48040093096E+03  0.71659138484E+03  0.86380563073E+03  0.46999998093E+01 0. -1.
       -5    1    3    3    0  502  0.43009422120E+02 -0.48040093096E+03 -0.68060734515E+03  0.83419620781E+03  0.46999998093E+01 0.  1.
</event>
<event>
 5   0  0.3574092E-04  0.1696360E+04  0.7818609E-02  0.8763443E-01
       -2   -1    0    0    0  501  0.00000000000E+00  0.00000000000E+00  0.69996107686E+03  0.69996107686E+03  0.25500000920E-02 0. -1.
        2   -1    0    0  501    0  0.00000000000E+00  0.00000000000E+00 -0.10277845325E+04  0.10277845325E+04  0.25500000920E-02 0.  1.
    10030    2    1    2    0    0  0.00000000000E+00  0.00000000000E+00 -0.32782345568E+03  0.17277456094E+04  0.16963598300E+04 0.  0.
        3    1    3    3  502    0  0.46975254524E+03 -0.89217802987E+02 -0.87743161407E+03  0.99925648244E+03  0.10100000352E+00 0.  1.
       -3    1    3    3    0  502 -0.46975254524E+03  0.89217802987E+02  0.54960815839E+03  0.72848912696E+03  0.10100000352E+00 0. -1.
</event>
<event>
 5   0  0.1930116E-04  0.1717844E+04  0.7818609E-02  0.8751252E-01
        1   -1    0    0  501    0  0.00000000000E+00  0.00000000000E+00  0.92391987397E+03  0.92391987399E+03  0.50400001928E-02 0. -1.
       -1   -1    0    0    0  501  0.00000000000E+00  0.00000000000E+00 -0.79849689535E+03  0.79849689537E+03  0.50400001928E-02 0.  1.
    10030    2    1    2    0    0  0.00000000000E+00  0.00000000000E+00  0.12542297862E+03  0.17224167694E+04  0.17178441733E+04 0.  0.
        1    1    3    3  502    0  0.24165729296E+03  0.11888131417E+03  0.88049032522E+03  0.92075742024E+03  0.50400001928E-02 0. -1.
       -1    1    3    3    0  502 -0.24165729296E+03 -0.11888131417E+03 -0.75506734660E+03  0.80165934912E+03  0.50400001928E-02 0.  1.
</event>
<event>
 5   0  0.3516723E-04  0.1681492E+04  0.7818609E-02  0.8771991E-01
       -2   -1    0    0    0  501  0.00000000000E+00  0.00000000000E+00  0.74867300078E+03  0.74867300078E+03  0.25500000920E-02 0.  1.
        2   -1    0    0  501    0  0.00000000000E+00  0.00000000000E+00 -0.94414262033E+03  0.94414262033E+03  0.25500000920E-02 0. -1.
    10030    2    1    2    0    0  0.00000000000E+00  0.00000000000E+00 -0.19546961955E+03  0.16928156211E+04  0.16814923000E+04 0.  0.
        1    1    3    3  502    0  0.33554224963E+03  0.62944308380E+03  0.35030924420E+03  0.79467211077E+03  0.50400001928E-02 0.  1.
       -1    1    3    3    0  502 -0.33554224963E+03 -0.62944308380E+03 -0.54577886376E+03  0.89814351035E+03  0.50400001928E-02 0. -1.
</event>
<event>
 5   0  0.1920289E-04  0.1641594E+04  0.7818609E-02  0.8795395E-01
        1   -1    0    0  501    0  0.00000000000E+00  0.00000000000E+00  0.10727160079E+04  0.10727160079E+04  0.50400001928E-02 0.  1.
       -1   -1    0    0    0  501  0.00000000000E+00  0.00000000000E+00 -0.62803908252E+03  0.62803908254E+03  0.50400001928E-02 0. -1.
    10030    2    1    2    0    0  0.00000000000E+00  0.00000000000E+00  0.44467692540E+03  0.17007550905E+04  0.16415938322E+04 0.  0.
        4    1    3    3  502    0  0.66222193980E+03 -0.10217886931E+03 -0.26880031173E+03  0.72196512338E+03  0.12699999809E+01 0. -1.
       -4    1    3    3    0  502 -0.66222193980E+03  0.10217886931E+03  0.71347723714E+03  0.97878996710E+03  0.12699999809E+01 0.  1.
</event>
<event>
 5   0  0.1815663E-04  0.1428610E+04  0.7818609E-02  0.8933365E-01
       -1   -1    0    0    0  501  0.00000000000E+00  0.00000000000E+00  0.47455906812E+03  0.47455906815E+03  0.50400001928E-02 0. -1.
        1   -1    0    0  501    0  0.00000000000E+00  0.00000000000E+00 -0.10751704858E+04  0.10751704858E+04  0.50400001928E-02 0.  1.
    10030    2    1    2    0    0  0.00000000000E+00  0.00000000000E+00 -0.60061141766E+03  0.15497295539E+04  0.14286103791E+04 0.  0.
        5    1    3    3  502    0  0.11486784891E+03 -0.48811730028E+02 -0.10632335875E+04  0.10705442351E+04  0.46999998093E+01 0.  1.
       -5    1    3    3    0  502 -0.11486784891E+03  0.48811730028E+02  0.46262216988E+03  0.47918531881E+03  0.46999998093E+01 0. -1.
</event>
<event>
 5   0  0.1893284E-04  0.1872621E+04  0.7818609E-02  0.8668606E-01
        1   -1    0    0  501    0  0.00000000000E+00  0.00000000000E+00  0.58614760980E+03  0.58614760982E+03  0.50400001928E-02 0. -1.
       -1   -1    0    0    0  501  0.00000000000E+00  0.00000000000E+00 -0.14956592849E+04  0.14956592850E+04  0.50400001928E-02 0.  1.
    10030    2    1    2    0    0  0.00000000000E+00  0.00000000000E+00 -0.90951167514E+03  0.20818068948E+04  0.18726207464E+04 0.  0.
        2    1    3    3  502    0 -0.70930844542E+03  0.36167377963E+03  0.92979646162E+02  0.80160564383E+03  0.25500000920E-02 0. -1.
       -2    1    3    3    0  502  0.70930844542E+03 -0.36167377963E+03 -0.10024913213E+04  0.12802012509E+04  0.25500000920E-02 0.  1.
</event>
<event>
 5   0  0.1920289E-04  0.1692152E+04  0.7818609E-02  0.8765853E-01
        1   -1    0    0  501    0  0.00000000000E+00  0.00000000000E+00  0.91132296974E+03  0.91132296975E+03  0.50400001928E-02 0. -1.
       -1   -1    0    0    0  501  0.00000000000E+00  0.00000000000E+00 -0.78550066493E+03  0.78550066494E+03  0.50400001928E-02 0.  1.
    10030    2    1    2    0    0  0.00000000000E+00  0.00000000000E+00  0.12582230481E+03  0.16968236347E+04  0.16921522375E+04 0.  0.
        4    1    3    3  502    0 -0.66312043789E+03 -0.41787870360E+03  0.38236849711E+03  0.87210011269E+03  0.12699999809E+01 0. -1.
       -4    1    3    3    0  502  0.66312043789E+03  0.41787870360E+03 -0.25654619230E+03  0.82472352201E+03  0.12699999809E+01 0.  1.
</event>
<event>
 5   0  0.1815663E-04  0.1704200E+04  0.7818609E-02  0.8758973E-01
       -1   -1    0    0    0  501  0.00000000000E+00  0.00000000000E+00  0.57087910143E+03  0.57087910146E+03  0.50400001928E-02 0. -1.
        1   -1    0    0  501    0  0.00000000000E+00  0.00000000000E+00 -0.12718533619E+04  0.12718533619E+04  0.50400001928E-02 0.  1.
    10030    2    1    2    0    0  0.00000000000E+00  0.00000000000E+00 -0.70097426043E+03  0.18427324633E+04  0.17042001108E+04 0.  0.
        5    1    3    3  502    0 -0.36276961680E+02 -0.23359878785E+03  0.53469684253E+03  0.58464280980E+03  0.46999998093E+01 0. -1.
       -5    1    3    3    0  502  0.36276961680E+02  0.23359878785E+03 -0.12356711030E+04  0.12580896535E+04  0.46999998093E+01 0.  1.
</event>
<event>
 5   0  0.3678896E-04  0.1710633E+04  0.7818609E-02  0.8755323E-01
       -2   -1    0    0    0  501  0.00000000000E+00  0.00000000000E+00  0.79029940392E+03  0.79029940393E+03  0.25500000920E-02 0.  1.
        2   -1    0    0  501    0  0.00000000000E+00  0.00000000000E+00 -0.92568246975E+03  0.92568246975E+03  0.25500000920E-02 0. -1.
    10030    2    1    2    0    0  0.00000000000E+00  0.00000000000E+00 -0.13538306583E+03  0.17159818737E+04  0.17106329870E+04 0.  0.
        2    1    3    3  502    0 -0.15352815965E+03  0.74735412079E+03 -0.45549734418E+03  0.88858702907E+03  0.25500000920E-02 0. -1.
       -2    1    3    3    0  502  0.15352815965E+03 -0.74735412079E+03  0.32011427836E+03  0.82739484461E+03  0.25500000920E-02 0.  1.
</event>
<event>
 5   0  0.1930116E-04  0.1719889E+04  0.7818609E-02  0.8750102E-01
       -1   -1    0    0    0  501  0.00000000000E+00  0.00000000000E+00  0.75118057464E+03  0.75118057466E+03  0.50400001928E-02 0.  1.
        1   -1    0    0  501    0  0.00000000000E+00  0.00000000000E+00 -0.98445602742E+03  0.98445602743E+03  0.50400001928E-02 0. -1.
    10030    2    1    2    0    0  0.00000000000E+00  0.00000000000E+00 -0.23327545278E+03  0.17356366021E+04  0.17198886527E+04 0.  0.
        1    1    3    3  502    0  0.43212262404E+02 -0.66050574132E+03  0.43735981473E+03  0.79335915038E+03  0.50400001928E-02 0.  1.
       -1    1    3    3    0  502 -0.43212262404E+02  0.66050574132E+03 -0.67063526751E+03  0.94227745170E+03  0.50400001928E-02 0. -1.
</event>
<event>
 5   0  0.1930116E-04  0.1686161E+04  0.7818609E-02  0.8769297E-01
       -1   -1    0    0    0  501  0.00000000000E+00  0.00000000000E+00  0.63145937180E+03  0.63145937182E+03  0.50400001928E-02 0. -1.
        1   -1    0    0  501    0  0.00000000000E+00  0.00000000000E+00 -0.11256221212E+04  0.11256221213E+04  0.50400001928E-02 0.  1.
    10030    2    1    2    0    0  0.00000000000E+00  0.00000000000E+00 -0.49416274945E+03  0.17570814931E+04  0.16861608910E+04 0.  0.
        1    1    3    3  502    0 -0.22429985016E+03  0.88711474895E+02 -0.10888988186E+04  0.11152940356E+04  0.50400001928E-02 0.  1.
       -1    1    3    3    0  502  0.22429985016E+03 -0.88711474895E+02  0.59473606920E+03  0.64178745749E+03  0.50400001928E-02 0. -1.
</event>
<event>
 5   0  0.1930116E-04  0.1656571E+04  0.7818609E-02  0.8786529E-01
        1   -1    0    0  501    0  0.00000000000E+00  0.00000000000E+00  0.18045788310E+04  0.18045788310E+04  0.50400001928E-02 0.  1.
       -1   -1    0    0    0  501  0.00000000000E+00  0.00000000000E+00 -0.38017542720E+03  0.38017542724E+03  0.50400001928E-02 0. -1.
    10030    2    1    2    0    0  0.00000000000E+00  0.00000000000E+00  0.14244034038E+04  0.21847542583E+04  0.16565705877E+04 0.  0.
        1    1    3    3  502    0 -0.88755872421E+02  0.31103668097E+03  0.17178434016E+04  0.17480295691E+04  0.50400001928E-02 0.  1.
       -1    1    3    3    0  502  0.88755872421E+02 -0.31103668097E+03 -0.29343999782E+03  0.43672468919E+03  0.50400001928E-02 0. -1.
</event>
<event>
 5   0  0.3605571E-04  0.1693183E+04  0.7818609E-02  0.8765262E-01
        2   -1    0    0  501    0  0.00000000000E+00  0.00000000000E+00  0.54461354217E+03  0.54461354218E+03  0.25500000920E-02 0.  1.
       -2   -1    0    0    0  501  0.00000000000E+00  0.00000000000E+00 -0.13160107878E+04  0.13160107878E+04  0.25500000920E-02 0. -1.
    10030    2    1    2    0    0  0.00000000000E+00  0.00000000000E+00 -0.77139724565E+03  0.18606243300E+04  0.16931831522E+04 0.  0.
        4    1    3    3  502    0  0.58395722130E+03  0.34133110448E+03 -0.94516570456E+03  0.11622619245E+04  0.12699999809E+01 0.  1.
       -4    1    3    3    0  502 -0.58395722130E+03 -0.34133110448E+03  0.17376845891E+03  0.69836240549E+03  0.12699999809E+01 0. -1.
</event>
<event>
 5   0  0.1824538E-04  0.1687059E+04  0.7818609E-02  0.8768780E-01
       -1   -1    0    0    0  501  0.00000000000E+00  0.00000000000E+00  0.71234998829E+03  0.71234998831E+03  0.50400001928E-02 0. -1.
        1   -1    0    0  501    0  0.00000000000E+00  0.00000000000E+00 -0.99886538087E+03  0.99886538088E+03  0.50400001928E-02 0.  1.
    10030    2    1    2    0    0  0.00000000000E+00  0.00000000000E+00 -0.28651539258E+03  0.17112153692E+04  0.16870586740E+04 0.  0.
        3    1    3    3  502    0 -0.49053226499E+03 -0.31004681086E+03 -0.76422530720E+03  0.95957868791E+03  0.10100000352E+00 0.  1.
       -3    1    3    3    0  502  0.49053226499E+03  0.31004681086E+03  0.47770991462E+03  0.75163668128E+03  0.10100000352E+00 0. -1.
</event>
<event>
 5   0  0.3605571E-04  0.1683346E+04  0.7818609E-02  0.8770920E-01
        2   -1    0    0  501    0  0.00000000000E+00  0.00000000000E+00  0.21733225510E+04  0.21733225510E+04  0.25500000920E-02 0.  1.
       -2   -1    0    0    0  501  0.00000000000E+00  0.00000000000E+00 -0.32595858936E+03  0.32595858937E+03  0.25500000920E-02 0. -1.
    10030    2    1    2    0    0  0.00000000000E+00  0.00000000000E+00  0.18473639616E+04  0.24992811404E+04  0.16833456602E+04 0.  0.
        4    1    3    3  502    0  0.74438136782E+02 -0.46424906153E+03 -0.11279417090E+03  0.48352080124E+03  0.12699999809E+01 0. -1.
       -4    1    3    3    0  502 -0.74438136782E+02  0.46424906153E+03  0.19601581325E+04  0.20157603391E+04  0.12699999809E+01 0.  1.
</event>
<event>
 5   0  0.3574092E-04  0.1684075E+04  0.7818609E-02  0.8770499E-01
        2   -1    0    0  501    0  0.00000000000E+00  0.00000000000E+00  0.89378511886E+03  0.89378511887E+03  0.25500000920E-02 0.  1.
       -2   -1    0    0    0  501  0.00000000000E+00  0.00000000000E+00 -0.79328637246E+03  0.79328637247E+03  0.25500000920E-02 0. -1.
    10030    2    1    2    0    0  0.00000000000E+00  0.00000000000E+00  0.10049874640E+03  0.16870714913E+04  0.16840754790E+04 0.  0.
        3    1    3    3  502    0  0.72550825778E+03 -0.30919061567E+03 -0.24534585346E+03  0.82592715595E+03  0.10100000352E+00 0. -1.
       -3    1    3    3    0  502 -0.72550825778E+03  0.30919061567E+03  0.34584459985E+03  0.86114433539E+03  0.10100000352E+00 0.  1.
</event>
<event>
 5   0  0.3516723E-04  0.1705840E+04  0.7818609E-02  0.8758041E-01
        2   -1    0    0  501    0  0.00000000000E+00  0.00000000000E+00  0.75166040029E+03  0.75166040029E+03  0.25500000920E-02 0.  1.
       -2   -1    0    0    0  501  0.00000000000E+00  0.00000000000E+00 -0.96782041926E+03  0.96782041926E+03  0.25500000920E-02 0. -1.
    10030    2    1    2    0    0  0.00000000000E+00  0.00000000000E+00 -0.21616001897E+03  0.17194808196E+04  0.17058397155E+04 0.  0.
        1    1    3    3  502    0 -0.19619352059E+03  0.71980123670E+03 -0.52474562214E+03  0.91212043386E+03  0.50400001928E-02 0. -1.
       -1    1    3    3    0  502  0.19619352059E+03 -0.71980123670E+03  0.30858560317E+03  0.80736038569E+03  0.50400001928E-02 0.  1.
</event>
<event>
 5   0  0.3605571E-04  0.1698680E+04  0.7818609E-02  0.8762118E-01
        2   -1    0    0  501    0  0.00000000000E+00  0.00000000000E+00  0.13571464323E+04  0.13571464323E+04  0.25500000920E-02 0. -1.
       -2   -1    0    0    0  501  0.00000000000E+00  0.00000000000E+00 -0.53154061664E+03  0.53154061664E+03  0.25500000920E-02 0.  1.
    10030    2    1    2    0    0  0.00000000000E+00  0.00000000000E+00  0.82560581565E+03  0.18886870489E+04  0.16986800187E+04 0.  0.
        4    1    3    3  502    0  0.26233249560E+03  0.50128187627E+03 -0.29151619128E+03  0.63646300788E+03  0.12699999809E+01 0. -1.
       -4    1    3    3    0  502 -0.26233249560E+03 -0.50128187627E+03  0.11171220069E+04  0.12522240410E+04  0.12699999809E+01 0.  1.
</event>
<event>
 5   0  0.1824538E-04  0.1492180E+04  0.7818609E-02  0.8889670E-01
       -1   -1    0    0    0  501  0.00000000000E+00  0.00000000000E+00  0.39997537679E+03  0.39997537682E+03  0.50400001928E-02 0.  1.
        1   -1    0    0  501    0  0.00000000000E+00  0.00000000000E+00 -0.13917108134E+04  0.13917108134E+04  0.50400001928E-02 0. -1.
    10030    2    1    2    0    0  0.00000000000E+00  0.00000000000E+00 -0.99173543659E+03  0.17916861902E+04  0.14921796902E+04 0.  0.
        3    1    3    3  502    0  0.23442937560E+03 -0.37795136658E+03 -0.12151422490E+04  0.12939764538E+04  0.10100000352E+00 0. -1.
       -3    1    3    3    0  502 -0.23442937560E+03  0.37795136658E+03  0.22340681239E+03  0.49770973636E+03  0.10100000352E+00 0.  1.
</event>
<event>
 5   0  0.3574092E-04  0.1711393E+04  0.7818609E-02  0.8754893E-01
        2   -1    0    0  501    0  0.00000000000E+00  0.00000000000E+00  0.11863674035E+04  0.11863674035E+04  0.25500000920E-02 0.  1.
       -2   -1    0    0    0  501  0.00000000000E+00  0.00000000000E+00 -0.61719232117E+03  0.61719232117E+03  0.25500000920E-02 0. -1.
    10030    2    1    2    0    0  0.00000000000E+00  0.00000000000E+00  0.56917508234E+03  0.18035597247E+04  0.17113934107E+04 0.  0.
        3    1    3    3  502    0 -0.46235186427E+03 -0.54569542614E+03 -0.21045954829E+03  0.74555078712E+03  0.10100000352E+00 0. -1.
       -3    1    3    3    0  502  0.46235186427E+03  0.54569542614E+03  0.77963463063E+03  0.10580089376E+04  0.10100000352E+00 0.  1.
</event>
<event>
 5   0  0.1824538E-04  0.1685471E+04  0.7818609E-02  0.8769694E-01
        1   -1    0    0  501    0  0.00000000000E+00  0.00000000000E+00  0.16140015687E+04  0.16140015687E+04  0.50400001928E-02 0.  1.
       -1   -1    0    0    0  501  0.00000000000E+00  0.00000000000E+00 -0.44002631175E+03  0.44002631178E+03  0.50400001928E-02 0. -1.
    10030    2    1    2    0    0  0.00000000000E+00  0.00000000000E+00  0.11739752569E+04  0.20540278805E+04  0.16854710409E+04 0.  0.
        3    1    3    3  502    0  0.63833866472E+03 -0.47377370442E+03  0.92792127996E+03  0.12218738420E+04  0.10100000352E+00 0.  1.
       -3    1    3    3    0  502 -0.63833866472E+03  0.47377370442E+03  0.24605397696E+03  0.83215403842E+03  0.10100000352E+00 0. -1.
</event>
<event>
 5   0  0.3605571E-04  0.1667085E+04  0.7818609E-02  0.8780363E-01
       -2   -1    0    0    0  501  0.00000000000E+00  0.00000000000E+00  0.10626227368E+04  0.10626227368E+04  0.25500000920E-02 0. -1.
        2   -1    0    0  501    0  0.00000000000E+00  0.00000000000E+00 -0.65384754238E+03  0.65384754238E+03  0.25500000920E-02 0.  1.
    10030    2    1    2    0    0  0.00000000000E+00  0.00000000000E+00  0.40877519444E+03  0.17164702792E+04  0.16670851987E+04 0.  0.
        4    1    3    3  502    0 -0.53623497155E+03  0.60908642317E+03  0.40044219858E+03  0.90492529134E+03  0.12699999809E+01 0. -1.
       -4    1    3    3    0  502  0.53623497155E+03 -0.60908642317E+03  0.83329958592E+01  0.81154498786E+03  0.12699999809E+01 0.  1.
</event>
<event>
 5   0  0.3678896E-04  0.1671610E+04  0.7818609E-02  0.8777724E-01
        2   -1    0    0  501    0  0.00000000000E+00  0.00000000000E+00  0.13491021140E+04  0.13491021140E+04  0.25500000920E-02 0. -1.
       -2   -1    0    0    0  501  0.00000000000E+00  0.00000000000E+00 -0.51780339260E+03  0.51780339260E+03  0.25500000920E-02 0.  1.
    10030    2    1    2    0    0  0.00000000000E+00  0.00000000000E+00  0.83129872143E+03  0.18669055066E+04  0.16716095855E+04 0.  0.
        2    1    3    3  502    0 -0.14444515207E+03 -0.55456566378E+03  0.10951400380E+04  0.12360174676E+04  0.25500000920E-02 0. -1.
       -2    1    3    3    0  502  0.14444515207E+03  0.55456566378E+03 -0.26384131659E+03  0.63088803900E+03  0.25500000920E-02 0.  1.
</event>
<event>
 5   0  0.3516723E-04  0.1695447E+04  0.7818609E-02  0.8763965E-01
       -2   -1    0    0    0  501  0.00000000000E+00  0.00000000000E+00  0.56845191630E+03  0.56845191631E+03  0.25500000920E-02 0.  1.
        2   -1    0    0  501    0  0.00000000000E+00  0.00000000000E+00 -0.12641971794E+04  0.12641971794E+04  0.25500000920E-02 0. -1.
    10030    2    1    2    0    0  0.00000000000E+00  0.00000000000E+00 -0.69574526310E+03  0.18326490957E+04  0.16954472085E+04 0.  0.
        1    1    3    3  502    0  0.39517642106E+03  0.73870177148E+03 -0.20780811373E+03  0.86315057962E+03  0.50400001928E-02 0.  1.
       -1    1    3    3    0  502 -0.39517642106E+03 -0.73870177148E+03 -0.48793714938E+03  0.96949851610E+03  0.50400001928E-02 0. -1.
</event>
<event>
 5   0  0.3574092E-04  0.1714826E+04  0.7818609E-02  0.8752953E-01
       -2   -1    0    0    0  501  0.00000000000E+00  0.00000000000E+00  0.65793333318E+03  0.65793333319E+03  0.25500000920E-02 0.  1.
        2   -1    0    0  501    0  0.00000000000E+00  0.00000000000E+00 -0.11173734247E+04  0.11173734247E+04  0.25500000920E-02 0. -1.
    10030    2    1    2    0    0  0.00000000000E+00  0.00000000000E+00 -0.45944009151E+03  0.17753067579E+04  0.17148261973E+04 0.  0.
        3    1    3    3  502    0  0.58063844194E+03  0.21134999922E+03 -0.84511543779E+03  0.10469144835E+04  0.10100000352E+00 0. -1.
       -3    1    3    3    0  502 -0.58063844194E+03 -0.21134999922E+03  0.38567534628E+03  0.72839227436E+03  0.10100000352E+00 0.  1.
</event>
<event>
 5   0  0.3678896E-04  0.1720851E+04  0.7818609E-02  0.8749561E-01
       -2   -1    0    0    0  501  0.00000000000E+00  0.00000000000E+00  0.36549094523E+03  0.36549094524E+03  0.25500000920E-02 0. -1.
        2   -1    0    0  501    0  0.00000000000E+00  0.00000000000E+00 -0.20255832764E+04  0.20255832764E+04  0.25500000920E-02 0.  1.
    10030    2    1    2    0    0  0.00000000000E+00  0.00000000000E+00 -0.16600923312E+04  0.23910742216E+04  0.17208513548E+04 0.  0.
        2    1    3    3  502    0 -0.54413312205E+03 -0.60236122525E+03 -0.12265022626E+04  0.14707915217E+04  0.25500000920E-02 0.  1.
       -2    1    3    3    0  502  0.54413312205E+03  0.60236122525E+03 -0.43359006858E+03  0.92028269992E+03  0.25500000920E-02 0. -1.
</event>
<event>
 5   0  0.1893284E-04  0.1694402E+04  0.7818609E-02  0.8764563E-01
       -1   -1    0    0    0  501  0.00000000000E+00  0.00000000000E+00  0.96760407460E+03  0.96760407462E+03  0.50400001928E-02 0. -1.
        1   -1    0    0  501    0  0.00000000000E+00  0.00000000000E+00 -0.74178051483E+03  0.74178051485E+03  0.50400001928E-02 0.  1.
    10030    2    1    2    0    0  0.00000000000E+00  0.00000000000E+00  0.22582355977E+03  0.17093845895E+04  0.16944023709E+04 0.  0.
        2    1    3    3  502    0  0.72628311063E+02  0.81830914737E+03 -0.95909088463E+02  0.82710536542E+03  0.25500000920E-02 0.  1.
       -2    1    3    3    0  502 -0.72628311063E+02 -0.81830914737E+03  0.32173264823E+03  0.88227922405E+03  0.25500000920E-02 0. -1.
</event>
<event>
 5   0  0.1893284E-04  0.1697353E+04  0.7818609E-02  0.8762876E-01
        1   -1    0    0  501    0  0.00000000000E+00  0.00000000000E+00  0.94836841787E+03  0.94836841788E+03  0.50400001928E-02 0. -1.
       -1   -1    0    0    0  501  0.00000000000E+00  0.00000000000E+00 -0.75946402443E+03  0.75946402445E+03  0.50400001928E-02 0.  1.
    10030    2    1    2    0    0  0.00000000000E+00  0.00000000000E+00  0.18890439344E+03  0.17078324423E+04  0.16973528747E+04 0.  0.
        2    1    3    3  502    0 -0.76958434440E+03 -0.16236167126E+03 -0.22631117151E+03  0.81843638836E+03  0.25500000920E-02 0.  1.
       -2    1    3    3    0  502  0.76958434440E+03  0.16236167126E+03  0.41521556495E+03  0.88939605397E+03  0.25500000920E-02 0. -1.
</event>
<event>
 5   0  0.1920289E-04  0.1724396E+04  0.7818609E-02  0.8747572E-01
       -1   -1    0    0    0  501  0.00000000000E+00  0.00000000000E+00  0.57564851363E+03  0.57564851365E+03  0.50400001928E-02 0.  1.
        1   -1    0    0  501    0  0.00000000000E+00  0.00000000000E+00 -0.12913871072E+04  0.12913871072E+04  0.50400001928E-02 0. -1.
    10030    2    1    2    0    0  0.00000000000E+00  0.00000000000E+00 -0.71573859353E+03  0.18670356208E+04  0.17243956260E+04 0.  0.
        4    1    3    3  502    0  0.85401341948E+03  0.64401401178E+02 -0.46558210811E+03  0.97481012173E+03  0.12699999809E+01 0. -1.
       -4    1    3    3    0  502 -0.85401341948E+03 -0.64401401178E+02 -0.25015648543E+03  0.89222549909E+03  0.12699999809E+01 0.  1.
</event>
<event>
 5   0  0.1815663E-04  0.1689995E+04  0.7818609E-02  0.8767091E-01
       -1   -1    0    0    0  501  0.00000000000E+00  0.00000000000E+00  0.62975752291E+03  0.62975752293E+03  0.50400001928E-02 0. -1.
        1   -1    0    0  501    0  0.00000000000E+00  0.00000000000E+00 -0.11338032702E+04  0.11338032702E+04  0.50400001928E-02 0.  1.
    10030    2    1    2    0    0  0.00000000000E+00  0.00000000000E+00 -0.50404574731E+03  0.17635607932E+04  0.16899954307E+04 0.  0.
        5    1    3    3  502    0  0.67579616155E+03 -0.42352018442E+03 -0.54333271329E+03  0.96504006440E+03  0.46999998093E+01 0.  1.
       -5    1    3    3    0  502 -0.67579616155E+03  0.42352018442E+03  0.39286965976E+02  0.79852072876E+03  0.46999998093E+01 0. -1.
</event>
<event>
 5   0  0.1815663E-04  0.1713288E+04  0.7818609E-02  0.8753822E-01
        1   -1    0    0  501    0  0.00000000000E+00  0.00000000000E+00  0.17312000766E+04  0.17312000766E+04  0.50400001928E-02 0. -1.
       -1   -1    0    0    0  501  0.00000000000E+00  0.00000000000E+00 -0.42389028470E+03  0.42389028473E+03  0.50400001928E-02 0.  1.
    10030    2    1    2    0    0  0.00000000000E+00  0.00000000000E+00  0.13073097919E+04  0.21550903614E+04  0.17132879424E+04 0.  0.
        5    1    3    3  502    0 -0.23311696961E+03 -0.11759316367E+03 -0.37260298555E+03  0.45500192142E+03  0.46999998093E+01 0.  1.
       -5    1    3    3    0  502  0.23311696961E+03  0.11759316367E+03  0.16799127775E+04  0.17000884399E+04  0.46999998093E+01 0. -1.
</event>
<event>
 5   0  0.3574092E-04  0.1686287E+04  0.7818609E-02  0.8769225E-01
       -2   -1    0    0    0  501  0.00000000000E+00  0.00000000000E+00  0.13469848960E+04  0.13469848960E+04  0.25500000920E-02 0. -1.
        2   -1    0    0  501    0  0.00000000000E+00  0.00000000000E+00 -0.52776431665E+03  0.52776431666E+03  0.25500000920E-02 0.  1.
    10030    2    1    2    0    0  0.00000000000E+00  0.00000000000E+00  0.81922057936E+03  0.18747492127E+04  0.16862865275E+04 0.  0.
        3    1    3    3  502    0 -0.28208693003E+01  0.74545195120E+03  0.84757110787E+03  0.11287530119E+04  0.10100000352E+00 0. -1.
       -3    1    3    3    0  502  0.28208693003E+01 -0.74545195120E+03 -0.28350528515E+02  0.74599620074E+03  0.10100000352E+00 0.  1.
</event>
<event>
 5   0  0.3574092E-04  0.1715433E+04  0.7818609E-02  0.8752611E-01
        2   -1    0    0  501    0  0.00000000000E+00  0.00000000000E+00  0.19142818251E+04  0.19142818251E+04  0.25500000920E-02 0.  1.
       -2   -1    0    0    0  501  0.00000000000E+00  0.00000000000E+00 -0.38431007552E+03  0.38431007553E+03  0.25500000920E-02 0. -1.
    10030    2    1    2    0    0  0.00000000000E+00  0.00000000000E+00  0.15299717496E+04  0.22985919007E+04  0.17154332314E+04 0.  0.
        3    1    3    3  502    0  0.10803206859E+03  0.15180111312E+03  0.18868381838E+04  0.18960149915E+04  0.10100000352E+00 0.  1.
       -3    1    3    3    0  502 -0.10803206859E+03 -0.15180111312E+03 -0.35686643418E+03  0.40257690922E+03  0.10100000352E+00 0. -1.
</event>
<event>
 5   0  0.1815663E-04  0.1711847E+04  0.7818609E-02  0.8754636E-01
        1   -1    0    0  501    0  0.00000000000E+00  0.00000000000E+00  0.14585239051E+04  0.14585239051E+04  0.50400001928E-02 0.  1.
       -1   -1    0    0    0  501  0.00000000000E+00  0.00000000000E+00 -0.50229201577E+03  0.50229201579E+03  0.50400001928E-02 0. -1.
    10030    2    1    2    0    0  0.00000000000E+00  0.00000000000E+00  0.95623188937E+03  0.19608159209E+04  0.17118468534E+04 0.  0.
        5    1    3    3  502    0  0.78293147955E+03  0.27377139612E+03  0.72015436917E+03  0.10984429364E+04  0.46999998093E+01 0. -1.
       -5    1    3    3    0  502 -0.78293147955E+03 -0.27377139612E+03  0.23607752020E+03  0.86237298458E+03  0.46999998093E+01 0.  1.
</event>
<event>
 5   0  0.3516723E-04  0.1689448E+04  0.7818609E-02  0.8767406E-01
        2   -1    0    0  501    0  0.00000000000E+00  0.00000000000E+00  0.91029037620E+03  0.91029037620E+03  0.25500000920E-02 0.  1.
       -2   -1    0    0    0  501  0.00000000000E+00  0.00000000000E+00 -0.78388009345E+03  0.78388009345E+03  0.25500000920E-02 0. -1.
    10030    2    1    2    0    0  0.00000000000E+00  0.00000000000E+00  0.12641028275E+03  0.16941704696E+04  0.16894478449E+04 0.  0.
        1    1    3    3  502    0 -0.43833112216E+03  0.68834517802E+02  0.78402331027E+03  0.90086897747E+03  0.50400001928E-02 0.  1.
       -1    1    3    3    0  502  0.43833112216E+03 -0.68834517802E+02 -0.65761302753E+03  0.79330149218E+03  0.50400001928E-02 0. -1.
</event>
<event>
 5   0  0.1893284E-04  0.1647155E+04  0.7818609E-02  0.8792091E-01
       -1   -1    0    0    0  501  0.00000000000E+00  0.00000000000E+00  0.75862990646E+03  0.75862990648E+03  0.50400001928E-02 0. -1.
        1   -1    0    0  501    0  0.00000000000E+00  0.00000000000E+00 -0.89408509964E+03  0.89408509965E+03  0.50400001928E-02 0.  1.
    10030    2    1    2    0    0  0.00000000000E+00  0.00000000000E+00 -0.13545519317E+03  0.16527150061E+04  0.16471547535E+04 0.  0.
        2    1    3    3  502    0  0.70243582460E+03 -0.42850933565E+03 -0.10310789625E+03  0.82925724398E+03  0.25500000920E-02 0.  1.
       -2    1    3    3    0  502 -0.70243582460E+03  0.42850933565E+03 -0.32347296924E+02  0.82345776215E+03  0.25500000920E-02 0. -1.
</event>
<event>
 5   0  0.3574092E-04  0.1697371E+04  0.7818609E-02  0.8762865E-01
        2   -1    0    0  501    0  0.00000000000E+00  0.00000000000E+00  0.65489982913E+03  0.65489982914E+03  0.25500000920E-02 0. -1.
       -2   -1    0    0    0  501  0.00000000000E+00  0.00000000000E+00 -0.10998125309E+04  0.10998125309E+04  0.25500000920E-02 0.  1.
    10030    2    1    2    0    0  0.00000000000E+00  0.00000000000E+00 -0.44491270180E+03  0.17547123601E+04  0.16973709537E+04 0.  0.
        3    1    3    3  502    0  0.34676765703E+03 -0.73142182463E+02  0.57474308028E+03  0.67522381870E+03  0.10100000352E+00 0. -1.
       -3    1    3    3    0  502 -0.34676765703E+03  0.73142182463E+02 -0.10196557821E+04  0.10794885414E+04  0.10100000352E+00 0.  1.
</event>
<event>
 5   0  0.3605571E-04  0.1699249E+04  0.7818609E-02  0.8761793E-01
       -2   -1    0    0    0  501  0.00000000000E+00  0.00000000000E+00  0.73432213037E+03  0.73432213038E+03  0.25500000920E-02 0.  1.
        2   -1    0    0  501    0  0.00000000000E+00  0.00000000000E+00 -0.98303142005E+03  0.98303142006E+03  0.25500000920E-02 0. -1.
    10030    2    1    2    0    0  0.00000000000E+00  0.00000000000E+00 -0.24870928968E+03  0.17173535504E+04  0.16992489242E+04 0.  0.
        4    1    3    3  502    0 -0.20790979542E+03 -0.80807963276E+03  0.37479315134E+02  0.83523977867E+03  0.12699999809E+01 0.  1.
       -4    1    3    3    0  502  0.20790979542E+03  0.80807963276E+03 -0.28618860481E+03  0.88211377176E+03  0.12699999809E+01 0. -1.
</event>
<event>
 5   0  0.3573262E-04  0.1707992E+04  0.7818609E-02  0.8756819E-01
       -2   -1    0    0    0  501  0.00000000000E+00  0.00000000000E+00  0.38970430901E+03  0.38970430902E+03  0.25500000920E-02 0.  1.
        2   -1    0    0  501    0  0.00000000000E+00  0.00000000000E+00 -0.18714432508E+04  0.18714432508E+04  0.25500000920E-02 0. -1.
    10030    2    1    2    0    0  0.00000000000E+00  0.00000000000E+00 -0.14817389418E+04  0.22611475599E+04  0.17079923875E+04 0.  0.
        5    1    3    3  502    0  0.59479898537E+03  0.14453607525E+03 -0.15292193654E+04  0.16471825847E+04  0.46999998093E+01 0. -1.
       -5    1    3    3    0  502 -0.59479898537E+03 -0.14453607525E+03  0.47480423545E+02  0.61396497511E+03  0.46999998093E+01 0.  1.
</event>
<event>
 5   0  0.1930116E-04  0.1687865E+04  0.7818609E-02  0.8768316E-01
        1   -1    0    0  501    0  0.00000000000E+00  0.00000000000E+00  0.13634977131E+04  0.13634977131E+04  0.50400001928E-02 0. -1.
       -1   -1    0    0    0  501  0.00000000000E+00  0.00000000000E+00 -0.52234924733E+03  0.52234924735E+03  0.50400001928E-02 0.  1.
    10030    2    1    2    0    0  0.00000000000E+00  0.00000000000E+00  0.84114846578E+03  0.18858469605E+04  0.16878649285E+04 0.  0.
        1    1    3    3  502    0 -0.40586746878E+03 -0.73959233071E+03  0.44547734174E+03  0.95403106862E+03  0.50400001928E-02 0. -1.
       -1    1    3    3    0  502  0.40586746878E+03  0.73959233071E+03  0.39567112404E+03  0.93181589184E+03  0.50400001928E-02 0.  1.
</event>
<event>
 5   0  0.1824538E-04  0.1509766E+04  0.7818609E-02  0.8877984E-01
       -1   -1    0    0    0  501  0.00000000000E+00  0.00000000000E+00  0.29934800670E+03  0.29934800675E+03  0.50400001928E-02 0.  1.
        1   -1    0    0  501    0  0.00000000000E+00  0.00000000000E+00 -0.19036317338E+04  0.19036317339E+04  0.50400001928E-02 0. -1.
    10030    2    1    2    0    0  0.00000000000E+00  0.00000000000E+00 -0.16042837271E+04  0.22029797406E+04  0.15097660283E+04 0.  0.
        3    1    3    3  502    0  0.50725965238E+03 -0.95813674679E+02 -0.16058103935E+04  0.16867482459E+04  0.10100000352E+00 0. -1.
       -3    1    3    3    0  502 -0.50725965238E+03  0.95813674679E+02  0.15266663150E+01  0.51623149468E+03  0.10100000352E+00 0.  1.
</event>
<event>
 5   0  0.1920289E-04  0.1643168E+04  0.7818609E-02  0.8794459E-01
        1   -1    0    0  501    0  0.00000000000E+00  0.00000000000E+00  0.14267072785E+04  0.14267072785E+04  0.50400001928E-02 0. -1.
       -1   -1    0    0    0  501  0.00000000000E+00  0.00000000000E+00 -0.47311729192E+03  0.47311729195E+03  0.50400001928E-02 0.  1.
    10030    2    1    2    0    0  0.00000000000E+00  0.00000000000E+00  0.95358998658E+03  0.18998245705E+04  0.16431675313E+04 0.  0.
        4    1    3    3  502    0 -0.53161793086E+03 -0.26145629822E+03  0.11349351684E+04  0.12802564078E+04  0.12699999809E+01 0. -1.
       -4    1    3    3    0  502  0.53161793086E+03  0.26145629822E+03 -0.18134518185E+03  0.61956816265E+03  0.12699999809E+01 0.  1.
</event>
<event>
 5   0  0.1815663E-04  0.1694552E+04  0.7818609E-02  0.8764477E-01
        1   -1    0    0  501    0  0.00000000000E+00  0.00000000000E+00  0.86530433587E+03  0.86530433589E+03  0.50400001928E-02 0.  1.
       -1   -1    0    0    0  501  0.00000000000E+00  0.00000000000E+00 -0.82962362885E+03  0.82962362887E+03  0.50400001928E-02 0. -1.
    10030    2    1    2    0    0  0.00000000000E+00  0.00000000000E+00  0.35680707019E+02  0.16949279648E+04  0.16945523577E+04 0.  0.
        5    1    3    3  502    0  0.50800176436E+03  0.61591274179E+03  0.30152362632E+03  0.85343592924E+03  0.46999998093E+01 0.  1.
       -5    1    3    3    0  502 -0.50800176436E+03 -0.61591274179E+03 -0.26584291930E+03  0.84149203551E+03  0.46999998093E+01 0. -1.
</event>
<event>
 5   0  0.3574092E-04  0.1710293E+04  0.7818609E-02  0.8755516E-01
       -2   -1    0    0    0  501  0.00000000000E+00  0.00000000000E+00  0.57446026343E+03  0.57446026344E+03  0.25500000920E-02 0. -1.
        2   -1    0    0  501    0  0.00000000000E+00  0.00000000000E+00 -0.12729783461E+04  0.12729783461E+04  0.25500000920E-02 0.  1.
    10030    2    1    2    0    0  0.00000000000E+00  0.00000000000E+00 -0.69851808269E+03  0.18474386096E+04  0.17102929294E+04 0.  0.
        3    1    3    3  502    0 -0.33203765075E+03 -0.74490684356E+03 -0.71458901339E+02  0.81868283961E+03  0.10100000352E+00 0.  1.
       -3    1    3    3    0  502  0.33203765075E+03  0.74490684356E+03 -0.62705918135E+03  0.10287557700E+04  0.10100000352E+00 0. -1.
</event>
<event>
 5   0  0.1893284E-04  0.1695455E+04  0.7818609E-02  0.8763961E-01
        1   -1    0    0  501    0  0.00000000000E+00  0.00000000000E+00  0.83733599250E+03  0.83733599251E+03  0.50400001928E-02 0. -1.
       -1   -1    0    0    0  501  0.00000000000E+00  0.00000000000E+00 -0.85824782998E+03  0.85824782999E+03  0.50400001928E-02 0.  1.
    10030    2    1    2    0    0  0.00000000000E+00  0.00000000000E+00 -0.20911837481E+02  0.16955838225E+04  0.16954548635E+04 0.  0.
        2    1    3    3  502    0  0.36951693465E+03 -0.10528591820E+03  0.74525618037E+03  0.83847162381E+03  0.25500000920E-02 0. -1.
       -2    1    3    3    0  502 -0.36951693465E+03  0.10528591820E+03 -0.76616801785E+03  0.85711219869E+03  0.25500000920E-02 0.  1.
</event>
<event>
 5   0  0.1920289E-04  0.1711305E+04  0.7818609E-02  0.8754943E-01
        1   -1    0    0  501    0  0.00000000000E+00  0.00000000000E+00  0.48795589079E+03  0.48795589082E+03  0.50400001928E-02 0. -1.
       -1   -1    0    0    0  501  0.00000000000E+00  0.00000000000E+00 -0.15004242104E+04  0.15004242104E+04  0.50400001928E-02 0.  1.
    10030    2    1    2    0    0  0.00000000000E+00  0.00000000000E+00 -0.10124683196E+04  0.19883801012E+04  0.17113045692E+04 0.  0.
        4    1    3    3  502    0 -0.34114276249E+03 -0.76540520888E+03 -0.30526857507E+03  0.89185987352E+03  0.12699999809E+01 0. -1.
       -4    1    3    3    0  502  0.34114276249E+03  0.76540520888E+03 -0.70719974451E+03  0.10965202277E+04  0.12699999809E+01 0.  1.
</event>
<event>
 5   0  0.1824538E-04  0.1693528E+04  0.7818609E-02  0.8765064E-01
        1   -1    0    0  501    0  0.00000000000E+00  0.00000000000E+00  0.14878082317E+04  0.14878082317E+04  0.50400001928E-02 0. -1.
       -1   -1    0    0    0  501  0.00000000000E+00  0.00000000000E+00 -0.48192330274E+03  0.48192330277E+03  0.50400001928E-02 0.  1.
    10030    2    1    2    0    0  0.00000000000E+00  0.00000000000E+00  0.10058849290E+04  0.19697315345E+04  0.16935282187E+04 0.  0.
        3    1    3    3  502    0  0.67842305398E+03 -0.46897974256E+03  0.72609159254E+03  0.10988215734E+04  0.10100000352E+00 0.  1.
       -3    1    3    3    0  502 -0.67842305398E+03  0.46897974256E+03  0.27979333644E+03  0.87090996115E+03  0.10100000352E+00 0. -1.
</event>
<event>
 5   0  0.1920289E-04  0.1670811E+04  0.7818609E-02  0.8778189E-01
        1   -1    0    0  501    0  0.00000000000E+00  0.00000000000E+00  0.21230070176E+04  0.21230070176E+04  0.50400001928E-02 0. -1.
       -1   -1    0    0    0  501  0.00000000000E+00  0.00000000000E+00 -0.32873307725E+03  0.32873307729E+03  0.50400001928E-02 0.  1.
    10030    2    1    2    0    0  0.00000000000E+00  0.00000000000E+00  0.17942739403E+04  0.24517400949E+04  0.16708113358E+04 0.  0.
        4    1    3    3  502    0 -0.49816619725E+03 -0.22863501164E+03 -0.27970862900E+02  0.54884197243E+03  0.12699999809E+01 0.  1.
       -4    1    3    3    0  502  0.49816619725E+03  0.22863501164E+03  0.18222448032E+04  0.19028981224E+04  0.12699999809E+01 0. -1.
</event>
<event>
 5   0  0.3678896E-04  0.1719933E+04  0.7818609E-02  0.8750077E-01
        2   -1    0    0  501    0  0.00000000000E+00  0.00000000000E+00  0.13418253196E+04  0.13418253196E+04  0.25500000920E-02 0. -1.
       -2   -1    0    0    0  501  0.00000000000E+00  0.00000000000E+00 -0.55114680379E+03  0.55114680379E+03  0.25500000920E-02 0.  1.
    10030    2    1    2    0    0  0.00000000000E+00  0.00000000000E+00  0.79067851579E+03  0.18929721234E+04  0.17199334128E+04 0.  0.
        2    1    3    3  502    0  0.38295003583E+03  0.75019490125E+03  0.20439215884E+03  0.86672906632E+03  0.25500000920E-02 0. -1.
       -2    1    3    3    0  502 -0.38295003583E+03 -0.75019490125E+03  0.58628635695E+03  0.10262430571E+04  0.25500000920E-02 0.  1.
</event>
<event>
 5   0  0.3573262E-04  0.1709506E+04  0.7818609E-02  0.8755962E-01
       -2   -1    0    0    0  501  0.00000000000E+00  0.00000000000E+00  0.10019345428E+04  0.10019345428E+04  0.25500000920E-02 0.  1.
        2   -1    0    0  501    0  0.00000000000E+00  0.00000000000E+00 -0.72919163187E+03  0.72919163188E+03  0.25500000920E-02 0. -1.
    10030    2    1    2    0    0  0.00000000000E+00  0.00000000000E+00  0.27274291093E+03  0.17311261747E+04  0.17095055242E+04 0.  0.
        5    1    3    3  502    0 -0.35343637761E+03  0.16625996467E+03 -0.63352062484E+03  0.74426481911E+03  0.46999998093E+01 0. -1.
       -5    1    3    3    0  502  0.35343637761E+03 -0.16625996467E+03  0.90626353577E+03  0.98686135558E+03  0.46999998093E+01 0.  1.
</event>
<event>
 5   0  0.3574092E-04  0.1417974E+04  0.7818609E-02  0.8940910E-01
        2   -1    0    0  501    0  0.00000000000E+00  0.00000000000E+00  0.63530362981E+03  0.63530362982E+03  0.25500000920E-02 0. -1.
       -2   -1    0    0    0  501  0.00000000000E+00  0.00000000000E+00 -0.79121574729E+03  0.79121574729E+03  0.25500000920E-02 0.  1.
    10030    2    1    2    0    0  0.00000000000E+00  0.00000000000E+00 -0.15591211748E+03  0.14265193771E+04  0.14179735346E+04 0.  0.
        3    1    3    3  502    0  0.62807798282E+03 -0.28245175649E+03 -0.24749852545E+03  0.73178991353E+03  0.10100000352E+00 0.  1.
       -3    1    3    3    0  502 -0.62807798282E+03  0.28245175649E+03  0.91586407975E+02  0.69472946358E+03  0.10100000352E+00 0. -1.
</event>
<event>
 5   0  0.3573262E-04  0.1712457E+04  0.7818609E-02  0.8754291E-01
        2   -1    0    0  501    0  0.00000000000E+00  0.00000000000E+00  0.18875486173E+04  0.18875486173E+04  0.25500000920E-02 0.  1.
       -2   -1    0    0    0  501  0.00000000000E+00  0.00000000000E+00 -0.38840186510E+03  0.38840186511E+03  0.25500000920E-02 0. -1.
    10030    2    1    2    0    0  0.00000000000E+00  0.00000000000E+00  0.14991467522E+04  0.22759504824E+04  0.17124571860E+04 0.  0.
        5    1    3    3  502    0  0.45176945165E+03  0.72727252614E+03  0.76177962822E+03  0.11460153824E+04  0.46999998093E+01 0.  1.
       -5    1    3    3    0  502 -0.45176945165E+03 -0.72727252614E+03  0.73736712401E+03  0.11299351000E+04  0.46999998093E+01 0. -1.
</event>
<event>
 5   0  0.1920289E-04  0.1698307E+04  0.7818609E-02  0.8762331E-01
       -1   -1    0    0    0  501  0.00000000000E+00  0.00000000000E+00  0.54205277587E+03  0.54205277589E+03  0.50400001928E-02 0.  1.
        1   -1    0    0  501    0  0.00000000000E+00  0.00000000000E+00 -0.13302421623E+04  0.13302421623E+04  0.50400001928E-02 0. -1.
    10030    2    1    2    0    0  0.00000000000E+00  0.00000000000E+00 -0.78818938646E+03  0.18722949382E+04  0.16983067529E+04 0.  0.
        4    1    3    3  502    0  0.21832644372E+02  0.78811594485E+03 -0.74177058309E+03  0.10825103315E+04  0.12699999809E+01 0. -1.
       -4    1    3    3    0  502 -0.21832644372E+02 -0.78811594485E+03 -0.46418803373E+02  0.78978460677E+03  0.12699999809E+01 0.  1.
</event>
<event>
 5   0  0.1815663E-04  0.1721585E+04  0.7818609E-02  0.8749148E-01
        1   -1    0    0  501    0  0.00000000000E+00  0.00000000000E+00  0.11359738530E+04  0.11359738530E+04  0.50400001928E-02 0.  1.
       -1   -1    0    0    0  501  0.00000000000E+00  0.00000000000E+00 -0.65227210511E+03  0.65227210513E+03  0.50400001928E-02 0. -1.
    10030    2    1    2    0    0  0.00000000000E+00  0.00000000000E+00  0.48370174788E+03  0.17882459581E+04  0.17215853815E+04 0.  0.
        5    1    3    3  502    0  0.14586224493E+03 -0.21721318679E+03  0.10936552338E+04  0.11245271110E+04  0.46999998093E+01 0.  1.
       -5    1    3    3    0  502 -0.14586224493E+03  0.21721318679E+03 -0.60995348593E+03  0.66371884711E+03  0.46999998093E+01 0. -1.
</event>
<event>
 5   0  0.1824538E-04  0.1695710E+04  0.7818609E-02  0.8763815E-01
       -1   -1    0    0    0  501  0.00000000000E+00  0.00000000000E+00  0.62017646502E+03  0.62017646504E+03  0.50400001928E-02 0.  1.
        1   -1    0    0  501    0  0.00000000000E+00  0.00000000000E+00 -0.11591188214E+04  0.11591188215E+04  0.50400001928E-02 0. -1.
    10030    2    1    2    0    0  0.00000000000E+00  0.00000000000E+00 -0.53894235642E+03  0.17792952865E+04  0.16957101324E+04 0.  0.
        3    1    3    3  502    0  0.71986572455E+03 -0.41938464652E+03 -0.10433493208E+03  0.83962844840E+03  0.10100000352E+00 0. -1.
       -3    1    3    3    0  502 -0.71986572455E+03  0.41938464652E+03 -0.43460742435E+03  0.93966683809E+03  0.10100000352E+00 0.  1.
</event>
<event>
 5   0  0.1815663E-04  0.1697530E+04  0.7818609E-02  0.8762774E-01
        1   -1    0    0  501    0  0.00000000000E+00  0.00000000000E+00  0.67840345621E+03  0.67840345623E+03  0.50400001928E-02 0. -1.
       -1   -1    0    0    0  501  0.00000000000E+00  0.00000000000E+00 -0.10619076559E+04  0.10619076559E+04  0.50400001928E-02 0.  1.
    10030    2    1    2    0    0  0.00000000000E+00  0.00000000000E+00 -0.38350419967E+03  0.17403111121E+04  0.16975297629E+04 0.  0.
        5    1    3    3  502    0 -0.26432751083E+03  0.33470166778E+02 -0.10179088281E+04  0.10522118405E+04  0.46999998093E+01 0.  1.
       -5    1    3    3    0  502  0.26432751083E+03 -0.33470166778E+02  0.63440462840E+03  0.68809927161E+03  0.46999998093E+01 0. -1.
</event>
<event>
 5   0  0.3678896E-04  0.1707349E+04  0.7818609E-02  0.8757184E-01
        2   -1    0    0  501    0  0.00000000000E+00  0.00000000000E+00  0.12458164987E+04  0.12458164987E+04  0.25500000920E-02 0. -1.
       -2   -1    0    0    0  501  0.00000000000E+00  0.00000000000E+00 -0.58496563870E+03  0.58496563870E+03  0.25500000920E-02 0.  1.
    10030    2    1    2    0    0  0.00000000000E+00  0.00000000000E+00  0.66085086002E+03  0.18307821374E+04  0.17073486391E+04 0.  0.
        2    1    3    3  502    0 -0.77185927806E+03  0.35661053029E+03  0.41224394911E+03  0.94492480602E+03  0.25500000920E-02 0. -1.
       -2    1    3    3    0  502  0.77185927806E+03 -0.35661053029E+03  0.24860691091E+03  0.88585733140E+03  0.25500000920E-02 0.  1.
</event>
<event>
 5   0  0.3574092E-04  0.1704165E+04  0.7818609E-02  0.8758992E-01
       -2   -1    0    0    0  501  0.00000000000E+00  0.00000000000E+00  0.38423855364E+03  0.38423855364E+03  0.25500000920E-02 0.  1.
        2   -1    0    0  501    0  0.00000000000E+00  0.00000000000E+00 -0.18895678479E+04  0.18895678479E+04  0.25500000920E-02 0. -1.
    10030    2    1    2    0    0  0.00000000000E+00  0.00000000000E+00 -0.15053292942E+04  0.22738064015E+04  0.17041652700E+04 0.  0.
        3    1    3    3  502    0 -0.96431203890E+02  0.75929374593E+03 -0.25303873424E+03  0.80613558470E+03  0.10100000352E+00 0.  1.
       -3    1    3    3    0  502  0.96431203890E+02 -0.75929374593E+03 -0.12522905600E+04  0.14676708168E+04  0.10100000352E+00 0. -1.
</event>
<event>
 5   0  0.3574092E-04  0.1692312E+04  0.7818609E-02  0.8765761E-01
        2   -1    0    0  501    0  0.00000000000E+00  0.00000000000E+00  0.16029092967E+04  0.16029092967E+04  0.25500000920E-02 0.  1.
       -2   -1    0    0    0  501  0.00000000000E+00  0.00000000000E+00 -0.44667550971E+03  0.44667550972E+03  0.25500000920E-02 0. -1.
    10030    2    1    2    0    0  0.00000000000E+00  0.00000000000E+00  0.11562337870E+04  0.20495848064E+04  0.16923124146E+04 0.  0.
        3    1    3    3  502    0 -0.72077378821E+03  0.19622532170E+03  0.10594662643E+04  0.12963363784E+04  0.10100000352E+00 0.  1.
       -3    1    3    3    0  502  0.72077378821E+03 -0.19622532170E+03  0.96767522705E+02  0.75324842801E+03  0.10100000352E+00 0. -1.
</event>
<event>
 5   0  0.1893284E-04  0.1701156E+04  0.7818609E-02  0.8760705E-01
        1   -1    0    0  501    0  0.00000000000E+00  0.00000000000E+00  0.10974710610E+04  0.10974710610E+04  0.50400001928E-02 0. -1.
       -1   -1    0    0    0  501  0.00000000000E+00  0.00000000000E+00 -0.65922770773E+03  0.65922770775E+03  0.50400001928E-02 0.  1.
    10030    2    1    2    0    0  0.00000000000E+00  0.00000000000E+00  0.43824335329E+03  0.17566987688E+04  0.17011564677E+04 0.  0.
        2    1    3    3  502    0 -0.35267211893E+03 -0.59242549327E+03  0.73351988868E+03  0.10066762219E+04  0.25500000920E-02 0. -1.
       -2    1    3    3    0  502  0.35267211893E+03  0.59242549327E+03 -0.29527653539E+03  0.75002254694E+03  0.25500000920E-02 0.  1.
</event>
<event>
 5   0  0.3605571E-04  0.1690847E+04  0.7818609E-02  0.8766602E-01
       -2   -1    0    0    0  501  0.00000000000E+00  0.00000000000E+00  0.54962275144E+03  0.54962275144E+03  0.25500000920E-02 0.  1.
        2   -1    0    0  501    0  0.00000000000E+00  0.00000000000E+00 -0.13004206580E+04  0.13004206580E+04  0.25500000920E-02 0. -1.
    10030    2    1    2    0    0  0.00000000000E+00  0.00000000000E+00 -0.75079790653E+03  0.18500434094E+04  0.16908468648E+04 0.  0.
        4    1    3    3  502    0  0.21427866446E+03  0.77369207051E+03 -0.85449920439E+02  0.80735250530E+03  0.12699999809E+01 0.  1.
       -4    1    3    3    0  502 -0.21427866446E+03 -0.77369207051E+03 -0.66534798609E+03  0.10426909041E+04  0.12699999809E+01 0. -1.
</event>
<event>
 5   0  0.3574092E-04  0.1701066E+04  0.7818609E-02  0.8760757E-01
        2   -1    0    0  501    0  0.00000000000E+00  0.00000000000E+00  0.18086950822E+04  0.18086950822E+04  0.25500000920E-02 0. -1.
       -2   -1    0    0    0  501  0.00000000000E+00  0.00000000000E+00 -0.39996032151E+03  0.39996032152E+03  0.25500000920E-02 0.  1.
    10030    2    1    2    0    0  0.00000000000E+00  0.00000000000E+00  0.14087347607E+04  0.22086554037E+04  0.17010658619E+04 0.  0.
        3    1    3    3  502    0 -0.17225409616E+03  0.74637397567E+03  0.11843534220E+04  0.14104746093E+04  0.10100000352E+00 0. -1.
       -3    1    3    3    0  502  0.17225409616E+03 -0.74637397567E+03  0.22438133873E+03  0.79818079442E+03  0.10100000352E+00 0.  1.
</event>
<event>
 5   0  0.3574092E-04  0.1691045E+04  0.7818609E-02  0.8766488E-01
       -2   -1    0    0    0  501  0.00000000000E+00  0.00000000000E+00  0.49857025730E+03  0.49857025730E+03  0.25500000920E-02 0. -1.
        2   -1    0    0  501    0  0.00000000000E+00  0.00000000000E+00 -0.14339165289E+04  0.14339165289E+04  0.25500000920E-02 0.  1.
    10030    2    1    2    0    0  0.00000000000E+00  0.00000000000E+00 -0.93534627164E+03  0.19324867862E+04  0.16910448046E+04 0.  0.
        3    1    3    3  502    0 -0.62433733413E+03 -0.15444024850E+03  0.15956375898E+03  0.66265337887E+03  0.10100000352E+00 0. -1.
       -3    1    3    3    0  502  0.62433733413E+03  0.15444024850E+03 -0.10949100306E+04  0.12698334074E+04  0.10100000352E+00 0.  1.
</event>
<event>
 5   0  0.3574092E-04  0.1705522E+04  0.7818609E-02  0.8758221E-01
       -2   -1    0    0    0  501  0.00000000000E+00  0.00000000000E+00  0.25430847664E+03  0.25430847666E+03  0.25500000920E-02 0.  1.
        2   -1    0    0  501    0  0.00000000000E+00  0.00000000000E+00 -0.28595233400E+04  0.28595233400E+04  0.25500000920E-02 0. -1.
    10030    2    1    2    0    0  0.00000000000E+00  0.00000000000E+00 -0.26052148634E+04  0.31138318167E+04  0.17055216499E+04 0.  0.
        3    1    3    3  502    0 -0.14202231903E+03 -0.62470297677E+03 -0.23301850685E+04  0.24166478047E+04  0.10100000352E+00 0. -1.
       -3    1    3    3    0  502  0.14202231903E+03  0.62470297677E+03 -0.27502979488E+03  0.69718401198E+03  0.10100000352E+00 0.  1.
</event>
<event>
 5   0  0.3573262E-04  0.1697716E+04  0.7818609E-02  0.8762668E-01
        2   -1    0    0  501    0  0.00000000000E+00  0.00000000000E+00  0.10711306141E+04  0.10711306141E+04  0.25500000920E-02 0. -1.
       -2   -1    0    0    0  501  0.00000000000E+00  0.00000000000E+00 -0.67270952341E+03  0.67270952341E+03  0.25500000920E-02 0.  1.
    10030    2    1    2    0    0  0.00000000000E+00  0.00000000000E+00  0.39842109071E+03  0.17438401375E+04  0.16977158360E+04 0.  0.
        5    1    3    3  502    0  0.50409947564E+03 -0.64397393655E+03  0.43280717500E+03  0.92529068570E+03  0.46999998093E+01 0. -1.
       -5    1    3    3    0  502 -0.50409947564E+03  0.64397393655E+03 -0.34386084294E+02  0.81854945183E+03  0.46999998093E+01 0.  1.
</event>
<event>
 5   0  0.1824538E-04  0.1656393E+04  0.7818609E-02  0.8786633E-01
        1   -1    0    0  501    0  0.00000000000E+00  0.00000000000E+00  0.13236069074E+04  0.13236069074E+04  0.50400001928E-02 0. -1.
       -1   -1    0    0    0  501  0.00000000000E+00  0.00000000000E+00 -0.51821264967E+03  0.51821264969E+03  0.50400001928E-02 0.  1.
    10030    2    1    2    0    0  0.00000000000E+00  0.00000000000E+00  0.80539425772E+03  0.18418195571E+04  0.16563934830E+04 0.  0.
        3    1    3    3  502    0  0.37443490604E+03  0.36114517159E+03  0.11192617821E+04  0.12342504936E+04  0.10100000352E+00 0. -1.
       -3    1    3    3    0  502 -0.37443490604E+03 -0.36114517159E+03 -0.31386752441E+03  0.60756906349E+03  0.10100000352E+00 0.  1.
</event>
<event>
 5   0  0.1893284E-04  0.1779459E+04  0.7818609E-02  0.8717300E-01
       -1   -1    0    0    0  501  0.00000000000E+00  0.00000000000E+00  0.65483566958E+03  0.65483566960E+03  0.50400001928E-02 0. -1.
        1   -1    0    0  501    0  0.00000000000E+00  0.00000000000E+00 -0.12088808665E+04  0.12088808665E+04  0.50400001928E-02 0.  1.
    10030    2    1    2    0    0  0.00000000000E+00  0.00000000000E+00 -0.55404519688E+03  0.18637165361E+04  0.17794586948E+04 0.  0.
        2    1    3    3  502    0 -0.43272859455E+03  0.77559775400E+03 -0.33256573761E+03  0.94837011888E+03  0.25500000920E-02 0. -1.
       -2    1    3    3    0  502  0.43272859455E+03 -0.77559775400E+03 -0.22147945927E+03  0.91534641718E+03  0.25500000920E-02 0.  1.
</event>
<event>
 5   0  0.1920289E-04  0.1695747E+04  0.7818609E-02  0.8763794E-01
       -1   -1    0    0    0  501  0.00000000000E+00  0.00000000000E+00  0.11359335718E+04  0.11359335718E+04  0.50400001928E-02 0. -1.
        1   -1    0    0  501    0  0.00000000000E+00  0.00000000000E+00 -0.63286226495E+03  0.63286226497E+03  0.50400001928E-02 0.  1.
    10030    2    1    2    0    0  0.00000000000E+00  0.00000000000E+00  0.50307130681E+03  0.17687958367E+04  0.16957470249E+04 0.  0.
        4    1    3    3  502    0  0.32300469257E+03  0.75949688158E+03  0.48951991237E+02  0.82678017326E+03  0.12699999809E+01 0.  1.
       -4    1    3    3    0  502 -0.32300469257E+03 -0.75949688158E+03  0.45411931557E+03  0.94201566348E+03  0.12699999809E+01 0. -1.
</event>
<event>
 5   0  0.3574092E-04  0.1690401E+04  0.7818609E-02  0.8766858E-01
       -2   -1    0    0    0  501  0.00000000000E+00  0.00000000000E+00  0.40324063698E+03  0.40324063699E+03  0.25500000920E-02 0.  1.
        2   -1    0    0  501    0  0.00000000000E+00  0.00000000000E+00 -0.17715580498E+04  0.17715580498E+04  0.25500000920E-02 0. -1.
    10030    2    1    2    0    0  0.00000000000E+00  0.00000000000E+00 -0.13683174128E+04  0.21747986868E+04  0.16904013683E+04 0.  0.
        3    1    3    3  502    0 -0.77900294344E+03 -0.18547341660E+03 -0.10320487568E+04  0.13062812181E+04  0.10100000352E+00 0. -1.
       -3    1    3    3    0  502  0.77900294344E+03  0.18547341660E+03 -0.33626865597E+03  0.86851746864E+03  0.10100000352E+00 0.  1.
</event>
<event>
 5   0  0.3574092E-04  0.1690679E+04  0.7818609E-02  0.8766698E-01
        2   -1    0    0  501    0  0.00000000000E+00  0.00000000000E+00  0.11472025773E+04  0.11472025773E+04  0.25500000920E-02 0.  1.
       -2   -1    0    0    0  501  0.00000000000E+00  0.00000000000E+00 -0.62290572497E+03  0.62290572498E+03  0.25500000920E-02 0. -1.
    10030    2    1    2    0    0  0.00000000000E+00  0.00000000000E+00  0.52429685233E+03  0.17701083023E+04  0.16906792163E+04 0.  0.
        3    1    3    3  502    0  0.94715549397E+02  0.23795405932E+03 -0.58130855796E+03  0.63522658902E+03  0.10100000352E+00 0. -1.
       -3    1    3    3    0  502 -0.94715549397E+02 -0.23795405932E+03  0.11056054103E+04  0.11348817133E+04  0.10100000352E+00 0.  1.
</event>
<event>
 5   0  0.3516723E-04  0.1693794E+04  0.7818609E-02  0.8764912E-01
       -2   -1    0    0    0  501  0.00000000000E+00  0.00000000000E+00  0.91753011111E+03  0.91753011112E+03  0.25500000920E-02 0. -1.
        2   -1    0    0  501    0  0.00000000000E+00  0.00000000000E+00 -0.78170142381E+03  0.78170142381E+03  0.25500000920E-02 0.  1.
    10030    2    1    2    0    0  0.00000000000E+00  0.00000000000E+00  0.13582868731E+03  0.16992315349E+04  0.16937940775E+04 0.  0.
        1    1    3    3  502    0 -0.68564766469E+03  0.43623560917E+03  0.30704979716E+03  0.86873114643E+03  0.50400001928E-02 0.  1.
       -1    1    3    3    0  502  0.68564766469E+03 -0.43623560917E+03 -0.17122110985E+03  0.83050038850E+03  0.50400001928E-02 0. -1.
</event>
<event>
 5   0  0.1930116E-04  0.1684517E+04  0.7818609E-02  0.8770244E-01
       -1   -1    0    0    0  501  0.00000000000E+00  0.00000000000E+00  0.86847353787E+03  0.86847353788E+03  0.50400001928E-02 0.  1.
        1   -1    0    0  501    0  0.00000000000E+00  0.00000000000E+00 -0.81683489260E+03  0.81683489261E+03  0.50400001928E-02 0. -1.
    10030    2    1    2    0    0  0.00000000000E+00  0.00000000000E+00  0.51638645270E+02  0.16853084305E+04  0.16845171285E+04 0.  0.
        1    1    3    3  502    0  0.26667317425E+03 -0.79892539184E+03  0.24050601513E+02  0.84260002080E+03  0.50400001928E-02 0. -1.
       -1    1    3    3    0  502 -0.26667317425E+03  0.79892539184E+03  0.27588043757E+02  0.84270840970E+03  0.50400001928E-02 0.  1.
</event>
<event>
 5   0  0.3678896E-04  0.1670491E+04  0.7818609E-02  0.8778376E-01
        2   -1    0    0  501    0  0.00000000000E+00  0.00000000000E+00  0.69999489385E+03  0.69999489385E+03  0.25500000920E-02 0.  1.
       -2   -1    0    0    0  501  0.00000000000E+00  0.00000000000E+00 -0.99662848358E+03  0.99662848358E+03  0.25500000920E-02 0. -1.
    10030    2    1    2    0    0  0.00000000000E+00  0.00000000000E+00 -0.29663358973E+03  0.16966233774E+04  0.16704907657E+04 0.  0.
        2    1    3    3  502    0  0.10643620318E+03  0.27598380540E+03 -0.94165031462E+03  0.98701623149E+03  0.25500000920E-02 0. -1.
       -2    1    3    3    0  502 -0.10643620318E+03 -0.27598380540E+03  0.64501672489E+03  0.70960714595E+03  0.25500000920E-02 0.  1.
</event>
<event>
 5   0  0.3574092E-04  0.1713620E+04  0.7818609E-02  0.8753634E-01
       -2   -1    0    0    0  501  0.00000000000E+00  0.00000000000E+00  0.35714682106E+03  0.35714682107E+03  0.25500000920E-02 0. -1.
        2   -1    0    0  501    0  0.00000000000E+00  0.00000000000E+00 -0.20555222540E+04  0.20555222540E+04  0.25500000920E-02 0.  1.
    10030    2    1    2    0    0  0.00000000000E+00  0.00000000000E+00 -0.16983754330E+04  0.24126690751E+04  0.17136198396E+04 0.  0.
        3    1    3    3  502    0  0.68137786966E+03 -0.40972084437E+03 -0.39958098026E+03  0.88983815470E+03  0.10100000352E+00 0. -1.
       -3    1    3    3    0  502 -0.68137786966E+03  0.40972084437E+03 -0.12987944527E+04  0.15228309204E+04  0.10100000352E+00 0.  1.
</event>
<event>
 5   0  0.1930116E-04  0.1695809E+04  0.7818609E-02  0.8763758E-01
       -1   -1    0    0    0  501  0.00000000000E+00  0.00000000000E+00  0.51077623769E+03  0.51077623772E+03  0.50400001928E-02 0.  1.
        1   -1    0    0  501    0  0.00000000000E+00  0.00000000000E+00 -0.14075472612E+04  0.14075472612E+04  0.50400001928E-02 0. -1.
    10030    2    1    2    0    0  0.00000000000E+00  0.00000000000E+00 -0.89677102346E+03  0.19183234989E+04  0.16958085912E+04 0.  0.
        1    1    3    3  502    0  0.12371527795E+03 -0.84874078983E+02 -0.13924128396E+04  0.14004722758E+04  0.50400001928E-02 0. -1.
       -1    1    3    3    0  502 -0.12371527795E+03  0.84874078983E+02  0.49564181617E+03  0.51785122308E+03  0.50400001928E-02 0.  1.
</event>
<event>
 5   0  0.3605571E-04  0.1705558E+04  0.7818609E-02  0.8758201E-01
        2   -1    0    0  501    0  0.00000000000E+00  0.00000000000E+00  0.31870597886E+04  0.31870597886E+04  0.25500000920E-02 0. -1.
       -2   -1    0    0    0  501  0.00000000000E+00  0.00000000000E+00 -0.22818261171E+03  0.22818261172E+03  0.25500000920E-02 0.  1.
    10030    2    1    2    0    0  0.00000000000E+00  0.00000000000E+00  0.29588771769E+04  0.34152424003E+04  0.17055575349E+04 0.  0.
        4    1    3    3  502    0 -0.79291916736E+03  0.27888567621E+03  0.17677591552E+04  0.19574146393E+04  0.12699999809E+01 0.  1.
       -4    1    3    3    0  502  0.79291916736E+03 -0.27888567621E+03  0.11911180217E+04  0.14578277610E+04  0.12699999809E+01 0. -1.
</event>
<event>
 5   0  0.1317625E-04  0.1700813E+04  0.7818609E-02  0.8760901E-01
       -3   -1    0    0    0  501  0.00000000000E+00  0.00000000000E+00  0.67793907224E+03  0.67793907976E+03  0.10100000352E+00 0. -1.
        3   -1    0    0  501    0  0.00000000000E+00  0.00000000000E+00 -0.10667497909E+04  0.10667497957E+04  0.10100000352E+00 0.  1.
    10030    2    1    2    0    0  0.00000000000E+00  0.00000000000E+00 -0.38881071864E+03  0.17446888754E+04  0.17008131870E+04 0.  0.
        2    1    3    3  502    0 -0.56280242752E+02 -0.82934129868E+03 -0.37852638225E+03  0.91337652558E+03  0.25500000920E-02 0.  1.
       -2    1    3    3    0  502  0.56280242752E+02  0.82934129868E+03 -0.10284336398E+02  0.83131234984E+03  0.25500000920E-02 0. -1.
</event>
<event>
 5   0  0.3573262E-04  0.1693107E+04  0.7818609E-02  0.8765306E-01
        2   -1    0    0  501    0  0.00000000000E+00  0.00000000000E+00  0.81182747017E+03  0.81182747017E+03  0.25500000920E-02 0. -1.
       -2   -1    0    0    0  501  0.00000000000E+00  0.00000000000E+00 -0.88276465382E+03  0.88276465383E+03  0.25500000920E-02 0.  1.
    10030    2    1    2    0    0  0.00000000000E+00  0.00000000000E+00 -0.70937183655E+02  0.16945921240E+04  0.16931067251E+04 0.  0.
        5    1    3    3  502    0 -0.28793892230E+03  0.10437405975E+03 -0.82535532929E+03  0.88036144674E+03  0.46999998093E+01 0.  1.
       -5    1    3    3    0  502  0.28793892230E+03 -0.10437405975E+03  0.75441814564E+03  0.81423067726E+03  0.46999998093E+01 0. -1.
</event>
<event>
 5   0  0.3605571E-04  0.1713602E+04  0.7818609E-02  0.8753645E-01
       -2   -1    0    0    0  501  0.00000000000E+00  0.00000000000E+00  0.54660480881E+03  0.54660480882E+03  0.25500000920E-02 0. -1.
        2   -1    0    0  501    0  0.00000000000E+00  0.00000000000E+00 -0.13430318227E+04  0.13430318227E+04  0.25500000920E-02 0.  1.
    10030    2    1    2    0    0  0.00000000000E+00  0.00000000000E+00 -0.79642701387E+03  0.18896366315E+04  0.17136016488E+04 0.  0.
        4    1    3    3  502    0  0.71198876494E+03  0.46756582329E+03 -0.50023962898E+03  0.98781936599E+03  0.12699999809E+01 0.  1.
       -4    1    3    3    0  502 -0.71198876494E+03 -0.46756582329E+03 -0.29618738488E+03  0.90181726551E+03  0.12699999809E+01 0. -1.
</event>
<event>
 5   0  0.3574092E-04  0.1707405E+04  0.7818609E-02  0.8757152E-01
        2   -1    0    0  501    0  0.00000000000E+00  0.00000000000E+00  0.86593579217E+03  0.86593579217E+03  0.25500000920E-02 0.  1.
       -2   -1    0    0    0  501  0.00000000000E+00  0.00000000000E+00 -0.84164195150E+03  0.84164195150E+03  0.25500000920E-02 0. -1.
    10030    2    1    2    0    0  0.00000000000E+00  0.00000000000E+00  0.24293840665E+02  0.17075777437E+04  0.17074049198E+04 0.  0.
        3    1    3    3  502    0  0.37661066156E+03  0.44597003729E+02 -0.75277257018E+03  0.84290630307E+03  0.10100000352E+00 0. -1.
       -3    1    3    3    0  502 -0.37661066156E+03 -0.44597003729E+02  0.77706641084E+03  0.86467144061E+03  0.10100000352E+00 0.  1.
</event>
<event>
 5   0  0.3574092E-04  0.1699860E+04  0.7818609E-02  0.8761444E-01
       -2   -1    0    0    0  501  0.00000000000E+00  0.00000000000E+00  0.31617185440E+03  0.31617185441E+03  0.25500000920E-02 0. -1.
        2   -1    0    0  501    0  0.00000000000E+00  0.00000000000E+00 -0.22847739870E+04  0.22847739870E+04  0.25500000920E-02 0.  1.
    10030    2    1    2    0    0  0.00000000000E+00  0.00000000000E+00 -0.19686021326E+04  0.26009458414E+04  0.16998602629E+04 0.  0.
        3    1    3    3  502    0  0.42733434023E+03 -0.12888888020E+02  0.13966769674E+03  0.44976420210E+03  0.10100000352E+00 0. -1.
       -3    1    3    3    0  502 -0.42733434023E+03  0.12888888020E+02 -0.21082698293E+04  0.21511816393E+04  0.10100000352E+00 0.  1.
</event>
<event>
 5   0  0.3605571E-04  0.1699155E+04  0.7818609E-02  0.8761847E-01
        2   -1    0    0  501    0  0.00000000000E+00  0.00000000000E+00  0.10012229228E+04  0.10012229228E+04  0.25500000920E-02 0.  1.
       -2   -1    0    0    0  501  0.00000000000E+00  0.00000000000E+00 -0.72089991801E+03  0.72089991802E+03  0.25500000920E-02 0. -1.
    10030    2    1    2    0    0  0.00000000000E+00  0.00000000000E+00  0.28032300480E+03  0.17221228408E+04  0.16991545227E+04 0.  0.
        4    1    3    3  502    0  0.72856778435E+03  0.42245710072E+03  0.26851824687E+02  0.84261714422E+03  0.12699999809E+01 0. -1.
       -4    1    3    3    0  502 -0.72856778435E+03 -0.42245710072E+03  0.25347118011E+03  0.87950569662E+03  0.12699999809E+01 0.  1.
</event>
<event>
 5   0  0.3574092E-04  0.1686121E+04  0.7818609E-02  0.8769320E-01
       -2   -1    0    0    0  501  0.00000000000E+00  0.00000000000E+00  0.56762164228E+03  0.56762164228E+03  0.25500000920E-02 0.  1.
        2   -1    0    0  501    0  0.00000000000E+00  0.00000000000E+00 -0.12521568248E+04  0.12521568248E+04  0.25500000920E-02 0. -1.
    10030    2    1    2    0    0  0.00000000000E+00  0.00000000000E+00 -0.68453518252E+03  0.18197784671E+04  0.16861213637E+04 0.  0.
        3    1    3    3  502    0  0.19024315117E+03  0.31766396578E+03 -0.11597014141E+04  0.12173784259E+04  0.10100000352E+00 0. -1.
       -3    1    3    3    0  502 -0.19024315117E+03 -0.31766396578E+03  0.47516623162E+03  0.60240004117E+03  0.10100000352E+00 0.  1.
</event>
<event>
 5   0  0.1815663E-04  0.1693653E+04  0.7818609E-02  0.8764992E-01
        1   -1    0    0  501    0  0.00000000000E+00  0.00000000000E+00  0.69783417535E+03  0.69783417536E+03  0.50400001928E-02 0. -1.
       -1   -1    0    0    0  501  0.00000000000E+00  0.00000000000E+00 -0.10276299502E+04  0.10276299503E+04  0.50400001928E-02 0.  1.
    10030    2    1    2    0    0  0.00000000000E+00  0.00000000000E+00 -0.32979577490E+03  0.17254641256E+04  0.16936532100E+04 0.  0.
        5    1    3    3  502    0  0.51052490686E+03  0.62340041453E+03  0.10043470322E+03  0.81201784277E+03  0.46999998093E+01 0.  1.
       -5    1    3    3    0  502 -0.51052490686E+03 -0.62340041453E+03 -0.43023047813E+03  0.91344628286E+03  0.46999998093E+01 0. -1.
</event>
<event>
 5   0  0.3516723E-04  0.1688368E+04  0.7818609E-02  0.8768026E-01
       -2   -1    0    0    0  501  0.00000000000E+00  0.00000000000E+00  0.34517647127E+03  0.34517647128E+03  0.25500000920E-02 0. -1.
        2   -1    0    0  501    0  0.00000000000E+00  0.00000000000E+00 -0.20645871721E+04  0.20645871721E+04  0.25500000920E-02 0.  1.
    10030    2    1    2    0    0  0.00000000000E+00  0.00000000000E+00 -0.17194107008E+04  0.24097636434E+04  0.16883683422E+04 0.  0.
        1    1    3    3  502    0 -0.10856247756E+03 -0.10787097668E+03  0.32521114261E+03  0.35942210066E+03  0.50400001928E-02 0. -1.
       -1    1    3    3    0  502  0.10856247756E+03  0.10787097668E+03 -0.20446218434E+04  0.20503415427E+04  0.50400001928E-02 0.  1.
</event>
<event>
 5   0  0.1824538E-04  0.1505492E+04  0.7818609E-02  0.8880809E-01
       -1   -1    0    0    0  501  0.00000000000E+00  0.00000000000E+00  0.51431820590E+03  0.51431820592E+03  0.50400001928E-02 0. -1.
        1   -1    0    0  501    0  0.00000000000E+00  0.00000000000E+00 -0.11017040008E+04  0.11017040008E+04  0.50400001928E-02 0.  1.
    10030    2    1    2    0    0  0.00000000000E+00  0.00000000000E+00 -0.58738579491E+03  0.16160222067E+04  0.15054918467E+04 0.  0.
        3    1    3    3  502    0 -0.50243483043E+03  0.35044061037E+03 -0.76327747724E+03  0.97869397550E+03  0.10100000352E+00 0. -1.
       -3    1    3    3    0  502  0.50243483043E+03 -0.35044061037E+03  0.17589168233E+03  0.63732823124E+03  0.10100000352E+00 0.  1.
</event>
<event>
 5   0  0.3605571E-04  0.1718379E+04  0.7818609E-02  0.8750951E-01
       -2   -1    0    0    0  501  0.00000000000E+00  0.00000000000E+00  0.43726631931E+03  0.43726631932E+03  0.25500000920E-02 0. -1.
        2   -1    0    0  501    0  0.00000000000E+00  0.00000000000E+00 -0.16882318352E+04  0.16882318352E+04  0.25500000920E-02 0.  1.
    10030    2    1    2    0    0  0.00000000000E+00  0.00000000000E+00 -0.12509655159E+04  0.21254981546E+04  0.17183793769E+04 0.  0.
        4    1    3    3  502    0 -0.89380755365E+02  0.28578470312E+02 -0.16818731886E+04  0.16844894430E+04  0.12699999809E+01 0.  1.
       -4    1    3    3    0  502  0.89380755365E+02 -0.28578470312E+02  0.43090767264E+03  0.44100871152E+03  0.12699999809E+01 0. -1.
</event>
<event>
 5   0  0.3605571E-04  0.1704735E+04  0.7818609E-02  0.8758669E-01
        2   -1    0    0  501    0  0.00000000000E+00  0.00000000000E+00  0.23364607155E+04  0.23364607155E+04  0.25500000920E-02 0.  1.
       -2   -1    0    0    0  501  0.00000000000E+00  0.00000000000E+00 -0.31095326049E+03  0.31095326050E+03  0.25500000920E-02 0. -1.
    10030    2    1    2    0    0  0.00000000000E+00  0.00000000000E+00  0.20255074550E+04  0.26474139760E+04  0.17047346744E+04 0.  0.
        4    1    3    3  502    0 -0.36782597361E+03  0.30965163473E+03  0.21057544201E+04  0.21599498541E+04  0.12699999809E+01 0.  1.
       -4    1    3    3    0  502  0.36782597361E+03 -0.30965163473E+03 -0.80246965117E+02  0.48746412182E+03  0.12699999809E+01 0. -1.
</event>
<event>
 5   0  0.1317625E-04  0.1708817E+04  0.7818609E-02  0.8756352E-01
        3   -1    0    0  501    0  0.00000000000E+00  0.00000000000E+00  0.94812993495E+03  0.94812994033E+03  0.10100000352E+00 0. -1.
       -3   -1    0    0    0  501  0.00000000000E+00  0.00000000000E+00 -0.76995096263E+03  0.76995096926E+03  0.10100000352E+00 0.  1.
    10030    2    1    2    0    0  0.00000000000E+00  0.00000000000E+00  0.17817897232E+03  0.17180809096E+04  0.17088166273E+04 0.  0.
        5    1    3    3  502    0  0.51919871296E+03 -0.63739765954E+02  0.76829720080E+03  0.92947982230E+03  0.46999998093E+01 0. -1.
       -5    1    3    3    0  502 -0.51919871296E+03  0.63739765954E+02 -0.59011822847E+03  0.78860108729E+03  0.46999998093E+01 0.  1.
</event>
<event>
 5   0  0.3605571E-04  0.1701079E+04  0.7818609E-02  0.8760749E-01
       -2   -1    0    0    0  501  0.00000000000E+00  0.00000000000E+00  0.10797427250E+04  0.10797427250E+04  0.25500000920E-02 0. -1.
        2   -1    0    0  501    0  0.00000000000E+00  0.00000000000E+00 -0.66999084321E+03  0.66999084321E+03  0.25500000920E-02 0.  1.
    10030    2    1    2    0    0  0.00000000000E+00  0.00000000000E+00  0.40975188176E+03  0.17497335682E+04  0.17010793500E+04 0.  0.
        4    1    3    3  502    0  0.28590929515E+03 -0.77579955739E+03 -0.34767489075E+00  0.82680760281E+03  0.12699999809E+01 0. -1.
       -4    1    3    3    0  502 -0.28590929515E+03  0.77579955739E+03  0.41009955665E+03  0.92292596537E+03  0.12699999809E+01 0.  1.
</event>
<event>
 5   0  0.3516723E-04  0.1793218E+04  0.7818609E-02  0.8709915E-01
        2   -1    0    0  501    0  0.00000000000E+00  0.00000000000E+00  0.13310903334E+04  0.13310903334E+04  0.25500000920E-02 0. -1.
       -2   -1    0    0    0  501  0.00000000000E+00  0.00000000000E+00 -0.60394646432E+03  0.60394646432E+03  0.25500000920E-02 0.  1.
    10030    2    1    2    0    0  0.00000000000E+00  0.00000000000E+00  0.72714386904E+03  0.19350367977E+04  0.17932175557E+04 0.  0.
        1    1    3    3  502    0  0.14175417355E+03  0.85045238309E+03  0.62908816887E+03  0.10672935050E+04  0.50400001928E-02 0. -1.
       -1    1    3    3    0  502 -0.14175417355E+03 -0.85045238309E+03  0.98055700178E+02  0.86774329267E+03  0.50400001928E-02 0.  1.
</event>
<event>
 5   0  0.1920289E-04  0.1687299E+04  0.7818609E-02  0.8768641E-01
       -1   -1    0    0    0  501  0.00000000000E+00  0.00000000000E+00  0.60128288869E+03  0.60128288871E+03  0.50400001928E-02 0.  1.
        1   -1    0    0  501    0  0.00000000000E+00  0.00000000000E+00 -0.11837105192E+04  0.11837105192E+04  0.50400001928E-02 0. -1.
    10030    2    1    2    0    0  0.00000000000E+00  0.00000000000E+00 -0.58242763048E+03  0.17849934079E+04  0.16872994759E+04 0.  0.
        4    1    3    3  502    0 -0.17919563426E+03  0.45780928182E+03  0.43407866045E+03  0.65584015600E+03  0.12699999809E+01 0.  1.
       -4    1    3    3    0  502  0.17919563426E+03 -0.45780928182E+03 -0.10165062909E+04  0.11291532519E+04  0.12699999809E+01 0. -1.
</event>
<event>
 5   0  0.1815663E-04  0.1654790E+04  0.7818609E-02  0.8787578E-01
       -1   -1    0    0    0  501  0.00000000000E+00  0.00000000000E+00  0.77318775774E+03  0.77318775776E+03  0.50400001928E-02 0.  1.
        1   -1    0    0  501    0  0.00000000000E+00  0.00000000000E+00 -0.88540291243E+03  0.88540291245E+03  0.50400001928E-02 0. -1.
    10030    2    1    2    0    0  0.00000000000E+00  0.00000000000E+00 -0.11221515469E+03  0.16585906702E+04  0.16547902497E+04 0.  0.
        5    1    3    3  502    0  0.70590210056E+02  0.16824154084E+03 -0.86497548457E+03  0.88402085537E+03  0.46999998093E+01 0. -1.
       -5    1    3    3    0  502 -0.70590210056E+02 -0.16824154084E+03  0.75276032988E+03  0.77456981484E+03  0.46999998093E+01 0.  1.
</event>
<event>
 5   0  0.3605571E-04  0.1689723E+04  0.7818609E-02  0.8767247E-01
        2   -1    0    0  501    0  0.00000000000E+00  0.00000000000E+00  0.85584324346E+03  0.85584324346E+03  0.25500000920E-02 0.  1.
       -2   -1    0    0    0  501  0.00000000000E+00  0.00000000000E+00 -0.83402096176E+03  0.83402096176E+03  0.25500000920E-02 0. -1.
    10030    2    1    2    0    0  0.00000000000E+00  0.00000000000E+00  0.21822281701E+02  0.16898642052E+04  0.16897232969E+04 0.  0.
        4    1    3    3  502    0  0.75758248591E+03 -0.35302183340E+03  0.13434733967E+03  0.84652611205E+03  0.12699999809E+01 0.  1.
       -4    1    3    3    0  502 -0.75758248591E+03  0.35302183340E+03 -0.11252505797E+03  0.84333809316E+03  0.12699999809E+01 0. -1.
</event>
<event>
 5   0  0.3516723E-04  0.1703854E+04  0.7818609E-02  0.8759169E-01
        2   -1    0    0  501    0  0.00000000000E+00  0.00000000000E+00  0.12208235053E+04  0.12208235053E+04  0.25500000920E-02 0.  1.
       -2   -1    0    0    0  501  0.00000000000E+00  0.00000000000E+00 -0.59449998217E+03  0.59449998218E+03  0.25500000920E-02 0. -1.
    10030    2    1    2    0    0  0.00000000000E+00  0.00000000000E+00  0.62632352309E+03  0.18153234874E+04  0.17038539282E+04 0.  0.
        1    1    3    3  502    0  0.59786752139E+03 -0.26535745271E+03  0.89469033699E+03  0.11083009293E+04  0.50400001928E-02 0.  1.
       -1    1    3    3    0  502 -0.59786752139E+03  0.26535745271E+03 -0.26836681390E+03  0.70702255811E+03  0.50400001928E-02 0. -1.
</event>
<event>
 5   0  0.3605571E-04  0.1684900E+04  0.7818609E-02  0.8770024E-01
        2   -1    0    0  501    0  0.00000000000E+00  0.00000000000E+00  0.88862256561E+03  0.88862256562E+03  0.25500000920E-02 0.  1.
       -2   -1    0    0    0  501  0.00000000000E+00  0.00000000000E+00 -0.79867631607E+03  0.79867631607E+03  0.25500000920E-02 0. -1.
    10030    2    1    2    0    0  0.00000000000E+00  0.00000000000E+00  0.89946249544E+02  0.16872988817E+04  0.16848997562E+04 0.  0.
        4    1    3    3  502    0  0.24695639806E+03  0.50403643146E+03 -0.58415704124E+03  0.81011187407E+03  0.12699999809E+01 0. -1.
       -4    1    3    3    0  502 -0.24695639806E+03 -0.50403643146E+03  0.67410329078E+03  0.87718700762E+03  0.12699999809E+01 0.  1.
</event>
<event>
 5   0  0.3573262E-04  0.1684590E+04  0.7818609E-02  0.8770202E-01
        2   -1    0    0  501    0  0.00000000000E+00  0.00000000000E+00  0.91101381459E+03  0.91101381460E+03  0.25500000920E-02 0.  1.
       -2   -1    0    0    0  501  0.00000000000E+00  0.00000000000E+00 -0.77876008625E+03  0.77876008626E+03  0.25500000920E-02 0. -1.
    10030    2    1    2    0    0  0.00000000000E+00  0.00000000000E+00  0.13225372834E+03  0.16897739009E+04  0.16845903916E+04 0.  0.
        5    1    3    3  502    0  0.46553453272E+03  0.32362963144E+03  0.69092433897E+03  0.89378804628E+03  0.46999998093E+01 0.  1.
       -5    1    3    3    0  502 -0.46553453272E+03 -0.32362963144E+03 -0.55867061063E+03  0.79598585457E+03  0.46999998093E+01 0. -1.
</event>
<event>
 5   0  0.3678896E-04  0.1711056E+04  0.7818609E-02  0.8755084E-01
       -2   -1    0    0    0  501  0.00000000000E+00  0.00000000000E+00  0.70338882668E+03  0.70338882669E+03  0.25500000920E-02 0.  1.
        2   -1    0    0  501    0  0.00000000000E+00  0.00000000000E+00 -0.10405741806E+04  0.10405741806E+04  0.25500000920E-02 0. -1.
    10030    2    1    2    0    0  0.00000000000E+00  0.00000000000E+00 -0.33718535391E+03  0.17439630073E+04  0.17110561089E+04 0.  0.
        2    1    3    3  502    0  0.35572347853E+03  0.17348971401E+03  0.60447332191E+03  0.72251357838E+03  0.25500000920E-02 0.  1.
       -2    1    3    3    0  502 -0.35572347853E+03 -0.17348971401E+03 -0.94165867582E+03  0.10214494289E+04  0.25500000920E-02 0. -1.
</event>
<event>
 5   0  0.1824538E-04  0.1698273E+04  0.7818609E-02  0.8762350E-01
        1   -1    0    0  501    0  0.00000000000E+00  0.00000000000E+00  0.11479817717E+04  0.11479817717E+04  0.50400001928E-02 0.  1.
       -1   -1    0    0    0  501  0.00000000000E+00  0.00000000000E+00 -0.62808756960E+03  0.62808756962E+03  0.50400001928E-02 0. -1.
    10030    2    1    2    0    0  0.00000000000E+00  0.00000000000E+00  0.51989420205E+03  0.17760693413E+04  0.16982733360E+04 0.  0.
        3    1    3    3  502    0 -0.61863012635E+03 -0.56548831060E+03  0.11749883977E+03  0.84633696020E+03  0.10100000352E+00 0. -1.
       -3    1    3    3    0  502  0.61863012635E+03  0.56548831060E+03  0.40239536229E+03  0.92973238109E+03  0.10100000352E+00 0.  1.
</event>
<event>
 5   0  0.3516723E-04  0.1707729E+04  0.7818609E-02  0.8756969E-01
        2   -1    0    0  501    0  0.00000000000E+00  0.00000000000E+00  0.10606037091E+04  0.10606037091E+04  0.25500000920E-02 0. -1.
       -2   -1    0    0    0  501  0.00000000000E+00  0.00000000000E+00 -0.68742408023E+03  0.68742408024E+03  0.25500000920E-02 0.  1.
    10030    2    1    2    0    0  0.00000000000E+00  0.00000000000E+00  0.37317962891E+03  0.17480277894E+04  0.17077289355E+04 0.  0.
        1    1    3    3  502    0 -0.67341480958E+03  0.43356101048E+02 -0.34893610674E+03  0.75968655633E+03  0.50400001928E-02 0.  1.
       -1    1    3    3    0  502  0.67341480958E+03 -0.43356101048E+02  0.72211573565E+03  0.98834123305E+03  0.50400001928E-02 0. -1.
</event>
<event>
 5   0  0.1893284E-04  0.1697143E+04  0.7818609E-02  0.8762995E-01
        1   -1    0    0  501    0  0.00000000000E+00  0.00000000000E+00  0.20063632639E+04  0.20063632639E+04  0.50400001928E-02 0.  1.
       -1   -1    0    0    0  501  0.00000000000E+00  0.00000000000E+00 -0.35889498685E+03  0.35889498689E+03  0.50400001928E-02 0. -1.
    10030    2    1    2    0    0  0.00000000000E+00  0.00000000000E+00  0.16474682771E+04  0.23652582508E+04  0.16971431493E+04 0.  0.
        2    1    3    3  502    0  0.75548805874E+03 -0.38452752291E+03  0.87680525751E+03  0.12195946385E+04  0.25500000920E-02 0.  1.
       -2    1    3    3    0  502 -0.75548805874E+03  0.38452752291E+03  0.77066301958E+03  0.11456636123E+04  0.25500000920E-02 0. -1.
</event>
<event>
 5   0  0.1920289E-04  0.1701601E+04  0.7818609E-02  0.8760452E-01
        1   -1    0    0  501    0  0.00000000000E+00  0.00000000000E+00  0.64753692948E+03  0.64753692950E+03  0.50400001928E-02 0. -1.
       -1   -1    0    0    0  501  0.00000000000E+00  0.00000000000E+00 -0.11178685462E+04  0.11178685462E+04  0.50400001928E-02 0.  1.
    10030    2    1    2    0    0  0.00000000000E+00  0.00000000000E+00 -0.47033161669E+03  0.17654054757E+04  0.17016006182E+04 0.  0.
        4    1    3    3  502    0  0.12941520755E+03  0.20013434448E+03 -0.10825268067E+04  0.11084529543E+04  0.12699999809E+01 0.  1.
       -4    1    3    3    0  502 -0.12941520755E+03 -0.20013434448E+03  0.61219519000E+03  0.65695252138E+03  0.12699999809E+01 0. -1.
</event>
<event>
 5   0  0.3574092E-04  0.1696243E+04  0.7818609E-02  0.8763510E-01
        2   -1    0    0  501    0  0.00000000000E+00  0.00000000000E+00  0.81788933734E+03  0.81788933735E+03  0.25500000920E-02 0.  1.
       -2   -1    0    0    0  501  0.00000000000E+00  0.00000000000E+00 -0.87947132102E+03  0.87947132103E+03  0.25500000920E-02 0. -1.
    10030    2    1    2    0    0  0.00000000000E+00  0.00000000000E+00 -0.61581983681E+02  0.16973606584E+04  0.16962431618E+04 0.  0.
        3    1    3    3  502    0 -0.15716462512E+03  0.76563922889E+02  0.79966385587E+03  0.81855057649E+03  0.10100000352E+00 0.  1.
       -3    1    3    3    0  502  0.15716462512E+03 -0.76563922889E+02 -0.86124583955E+03  0.87881008189E+03  0.10100000352E+00 0. -1.
</event>
<event>
 5   0  0.3573262E-04  0.1702747E+04  0.7818609E-02  0.8759799E-01
        2   -1    0    0  501    0  0.00000000000E+00  0.00000000000E+00  0.17895318043E+04  0.17895318044E+04  0.25500000920E-02 0.  1.
       -2   -1    0    0    0  501  0.00000000000E+00  0.00000000000E+00 -0.40504274019E+03  0.40504274020E+03  0.25500000920E-02 0. -1.
    10030    2    1    2    0    0  0.00000000000E+00  0.00000000000E+00  0.13844890642E+04  0.21945745445E+04  0.17027470343E+04 0.  0.
        5    1    3    3  502    0 -0.49586230556E+03 -0.59690317733E+03  0.24088801010E+03  0.81254043135E+03  0.46999998093E+01 0. -1.
       -5    1    3    3    0  502  0.49586230556E+03  0.59690317733E+03  0.11436010541E+04  0.13820341132E+04  0.46999998093E+01 0.  1.
</event>
<event>
 5   0  0.1317625E-04  0.1735276E+04  0.7818609E-02  0.8741497E-01
        3   -1    0    0  501    0  0.00000000000E+00  0.00000000000E+00  0.78698349637E+03  0.78698350285E+03  0.10100000352E+00 0. -1.
       -3   -1    0    0    0  501  0.00000000000E+00  0.00000000000E+00 -0.95655792463E+03  0.95655792996E+03  0.10100000352E+00 0.  1.
    10030    2    1    2    0    0  0.00000000000E+00  0.00000000000E+00 -0.16957442825E+03  0.17435414328E+04  0.17352755520E+04 0.  0.
        5    1    3    3  502    0  0.65667111132E+03 -0.54507061361E+03 -0.24191081538E+03  0.88705234055E+03  0.46999998093E+01 0.  1.
       -5    1    3    3    0  502 -0.65667111132E+03  0.54507061361E+03  0.72336387128E+02  0.85648909227E+03  0.46999998093E+01 0. -1.
</event>
<event>
 5   0  0.3573262E-04  0.1725956E+04  0.7818609E-02  0.8746697E-01
       -2   -1    0    0    0  501  0.00000000000E+00  0.00000000000E+00  0.11941580519E+04  0.11941580519E+04  0.25500000920E-02 0.  1.
        2   -1    0    0  501    0  0.00000000000E+00  0.00000000000E+00 -0.62364552515E+03  0.62364552516E+03  0.25500000920E-02 0. -1.
    10030    2    1    2    0    0  0.00000000000E+00  0.00000000000E+00  0.57051252673E+03  0.18178035770E+04  0.17259563440E+04 0.  0.
        5    1    3    3  502    0 -0.68722181765E+03  0.29053127556E+03 -0.17143977061E+03  0.76556902607E+03  0.46999998093E+01 0. -1.
       -5    1    3    3    0  502  0.68722181765E+03 -0.29053127556E+03  0.74195229734E+03  0.10522345510E+04  0.46999998093E+01 0.  1.
</event>
<event>
 5   0  0.3516723E-04  0.1697873E+04  0.7818609E-02  0.8762578E-01
        2   -1    0    0  501    0  0.00000000000E+00  0.00000000000E+00  0.13409878958E+04  0.13409878958E+04  0.25500000920E-02 0.  1.
       -2   -1    0    0    0  501  0.00000000000E+00  0.00000000000E+00 -0.53743479579E+03  0.53743479579E+03  0.25500000920E-02 0. -1.
    10030    2    1    2    0    0  0.00000000000E+00  0.00000000000E+00  0.80355310004E+03  0.18784226916E+04  0.16978734416E+04 0.  0.
        1    1    3    3  502    0 -0.63847989972E+03 -0.10602556086E+03  0.10095537858E+04  0.11992067580E+04  0.50400001928E-02 0.  1.
       -1    1    3    3    0  502  0.63847989972E+03  0.10602556086E+03 -0.20600068581E+03  0.67921593362E+03  0.50400001928E-02 0. -1.
</event>
<event>
 5   0  0.1920289E-04  0.1647181E+04  0.7818609E-02  0.8792076E-01
       -1   -1    0    0    0  501  0.00000000000E+00  0.00000000000E+00  0.39622898011E+03  0.39622898015E+03  0.50400001928E-02 0.  1.
        1   -1    0    0  501    0  0.00000000000E+00  0.00000000000E+00 -0.17118917270E+04  0.17118917270E+04  0.50400001928E-02 0. -1.
    10030    2    1    2    0    0  0.00000000000E+00  0.00000000000E+00 -0.13156627469E+04  0.21081207072E+04  0.16471807589E+04 0.  0.
        4    1    3    3  502    0 -0.41135635962E+02  0.82242058164E+03 -0.67731459927E+03  0.10662196926E+04  0.12699999809E+01 0. -1.
       -4    1    3    3    0  502  0.41135635962E+02 -0.82242058164E+03 -0.63834814765E+03  0.10419010146E+04  0.12699999809E+01 0.  1.
</event>
<event>
 5   0  0.1317625E-04  0.1612471E+04  0.7818609E-02  0.8812923E-01
        3   -1    0    0  501    0  0.00000000000E+00  0.00000000000E+00  0.86829915665E+03  0.86829916252E+03  0.10100000352E+00 0.  1.
       -3   -1    0    0    0  501  0.00000000000E+00  0.00000000000E+00 -0.74860829203E+03  0.74860829884E+03  0.10100000352E+00 0. -1.
    10030    2    1    2    0    0  0.00000000000E+00  0.00000000000E+00  0.11969086462E+03  0.16169074614E+04  0.16124713441E+04 0.  0.
        2    1    3    3  502    0  0.52915541640E+03  0.50415630815E+03  0.40113000943E+03  0.83371717160E+03  0.25500000920E-02 0.  1.
       -2    1    3    3    0  502 -0.52915541640E+03 -0.50415630815E+03 -0.28143914481E+03  0.78319028977E+03  0.25500000920E-02 0. -1.
</event>
<event>
 5   0  0.3573262E-04  0.1707382E+04  0.7818609E-02  0.8757165E-01
        2   -1    0    0  501    0  0.00000000000E+00  0.00000000000E+00  0.77020396497E+03  0.77020396497E+03  0.25500000920E-02 0. -1.
       -2   -1    0    0    0  501  0.00000000000E+00  0.00000000000E+00 -0.94622736002E+03  0.94622736003E+03  0.25500000920E-02 0.  1.
    10030    2    1    2    0    0  0.00000000000E+00  0.00000000000E+00 -0.17602339505E+03  0.17164313250E+04  0.17073816966E+04 0.  0.
        5    1    3    3  502    0 -0.37957540160E+02  0.26441172043E+01 -0.94536147709E+03  0.94613856204E+03  0.46999998093E+01 0.  1.
       -5    1    3    3    0  502  0.37957540160E+02 -0.26441172043E+01  0.76933808203E+03  0.77029276297E+03  0.46999998093E+01 0. -1.
</event>
<event>
 5   0  0.3678896E-04  0.1542705E+04  0.7818609E-02  0.8856541E-01
        2   -1    0    0  501    0  0.00000000000E+00  0.00000000000E+00  0.71794588000E+03  0.71794588001E+03  0.25500000920E-02 0. -1.
       -2   -1    0    0    0  501  0.00000000000E+00  0.00000000000E+00 -0.82873237276E+03  0.82873237277E+03  0.25500000920E-02 0.  1.
    10030    2    1    2    0    0  0.00000000000E+00  0.00000000000E+00 -0.11078649276E+03  0.15466782528E+04  0.15427054063E+04 0.  0.
        2    1    3    3  502    0  0.58600631177E+03 -0.22290990336E+03 -0.50587516208E+03  0.80560654296E+03  0.25500000920E-02 0.  1.
       -2    1    3    3    0  502 -0.58600631177E+03  0.22290990336E+03  0.39508866932E+03  0.74107170981E+03  0.25500000920E-02 0. -1.
</event>
<event>
 5   0  0.3574092E-04  0.1666987E+04  0.7818609E-02  0.8780420E-01
       -2   -1    0    0    0  501  0.00000000000E+00  0.00000000000E+00  0.41923953519E+03  0.41923953519E+03  0.25500000920E-02 0.  1.
        2   -1    0    0  501    0  0.00000000000E+00  0.00000000000E+00 -0.16570759299E+04  0.16570759299E+04  0.25500000920E-02 0. -1.
    10030    2    1    2    0    0  0.00000000000E+00  0.00000000000E+00 -0.12378363947E+04  0.20763154651E+04  0.16669873936E+04 0.  0.
        3    1    3    3  502    0 -0.26660089838E+03 -0.38383170519E+02 -0.16013737528E+04  0.16238679790E+04  0.10100000352E+00 0. -1.
       -3    1    3    3    0  502  0.26660089838E+03  0.38383170519E+02  0.36353735807E+03  0.45244748613E+03  0.10100000352E+00 0.  1.
</event>
<event>
 5   0  0.1930116E-04  0.1699899E+04  0.7818609E-02  0.8761422E-01
        1   -1    0    0  501    0  0.00000000000E+00  0.00000000000E+00  0.88355064176E+03  0.88355064178E+03  0.50400001928E-02 0.  1.
       -1   -1    0    0    0  501  0.00000000000E+00  0.00000000000E+00 -0.81762592458E+03  0.81762592459E+03  0.50400001928E-02 0. -1.
    10030    2    1    2    0    0  0.00000000000E+00  0.00000000000E+00  0.65924717186E+02  0.17011765664E+04  0.16998987151E+04 0.  0.
        1    1    3    3  502    0  0.57600553790E+03  0.28054546955E+03 -0.52596063198E+03  0.82892866195E+03  0.50400001928E-02 0. -1.
       -1    1    3    3    0  502 -0.57600553790E+03 -0.28054546955E+03  0.59188534916E+03  0.87224790442E+03  0.50400001928E-02 0.  1.
</event>
<event>
 5   0  0.3574092E-04  0.1697323E+04  0.7818609E-02  0.8762892E-01
        2   -1    0    0  501    0  0.00000000000E+00  0.00000000000E+00  0.86707345973E+03  0.86707345973E+03  0.25500000920E-02 0.  1.
       -2   -1    0    0    0  501  0.00000000000E+00  0.00000000000E+00 -0.83064083224E+03  0.83064083224E+03  0.25500000920E-02 0. -1.
    10030    2    1    2    0    0  0.00000000000E+00  0.00000000000E+00  0.36432627489E+02  0.16977142920E+04  0.16973233283E+04 0.  0.
        3    1    3    3  502    0 -0.43435351936E+03  0.39427624873E+03 -0.59520292067E+03  0.83569328528E+03  0.10100000352E+00 0. -1.
       -3    1    3    3    0  502  0.43435351936E+03 -0.39427624873E+03  0.63163554816E+03  0.86202100670E+03  0.10100000352E+00 0.  1.
</event>
<event>
 5   0  0.3573262E-04  0.1719517E+04  0.7818609E-02  0.8750311E-01
        2   -1    0    0  501    0  0.00000000000E+00  0.00000000000E+00  0.16131616258E+04  0.16131616258E+04  0.25500000920E-02 0.  1.
       -2   -1    0    0    0  501  0.00000000000E+00  0.00000000000E+00 -0.45822107537E+03  0.45822107537E+03  0.25500000920E-02 0. -1.
    10030    2    1    2    0    0  0.00000000000E+00  0.00000000000E+00  0.11549405504E+04  0.20713827012E+04  0.17195169728E+04 0.  0.
        5    1    3    3  502    0 -0.27883099679E+03  0.78201110525E+03  0.30844503305E+03  0.88569098557E+03  0.46999998093E+01 0. -1.
       -5    1    3    3    0  502  0.27883099679E+03 -0.78201110525E+03  0.84649551739E+03  0.11856917156E+04  0.46999998093E+01 0.  1.
</event>
<event>
 5   0  0.1930116E-04  0.1718270E+04  0.7818609E-02  0.8751012E-01
       -1   -1    0    0    0  501  0.00000000000E+00  0.00000000000E+00  0.46036942399E+03  0.46036942401E+03  0.50400001928E-02 0. -1.
        1   -1    0    0  501    0  0.00000000000E+00  0.00000000000E+00 -0.16033062041E+04  0.16033062041E+04  0.50400001928E-02 0.  1.
    10030    2    1    2    0    0  0.00000000000E+00  0.00000000000E+00 -0.11429367801E+04  0.20636756281E+04  0.17182702392E+04 0.  0.
        1    1    3    3  502    0 -0.46762687928E+03  0.30971702030E+03  0.21013000578E+03  0.59896089208E+03  0.50400001928E-02 0. -1.
       -1    1    3    3    0  502  0.46762687928E+03 -0.30971702030E+03 -0.13530667859E+04  0.14647147360E+04  0.50400001928E-02 0.  1.
</event>
<event>
 5   0  0.1893284E-04  0.1708546E+04  0.7818609E-02  0.8756505E-01
       -1   -1    0    0    0  501  0.00000000000E+00  0.00000000000E+00  0.11635865369E+04  0.11635865369E+04  0.50400001928E-02 0.  1.
        1   -1    0    0  501    0  0.00000000000E+00  0.00000000000E+00 -0.62718377226E+03  0.62718377228E+03  0.50400001928E-02 0. -1.
    10030    2    1    2    0    0  0.00000000000E+00  0.00000000000E+00  0.53640276461E+03  0.17907703091E+04  0.17085462751E+04 0.  0.
        2    1    3    3  502    0 -0.23013106459E+03  0.82045775720E+03  0.20469368761E+03  0.87636222191E+03  0.25500000920E-02 0. -1.
       -2    1    3    3    0  502  0.23013106459E+03 -0.82045775720E+03  0.33170907699E+03  0.91440808724E+03  0.25500000920E-02 0.  1.
</event>
<event>
 5   0  0.3605571E-04  0.1699001E+04  0.7818609E-02  0.8761934E-01
        2   -1    0    0  501    0  0.00000000000E+00  0.00000000000E+00  0.14965494119E+04  0.14965494119E+04  0.25500000920E-02 0.  1.
       -2   -1    0    0    0  501  0.00000000000E+00  0.00000000000E+00 -0.48221001279E+03  0.48221001279E+03  0.25500000920E-02 0. -1.
    10030    2    1    2    0    0  0.00000000000E+00  0.00000000000E+00  0.10143393991E+04  0.19787594247E+04  0.16990010136E+04 0.  0.
        4    1    3    3  502    0  0.54256038673E+02  0.46728940177E+03 -0.31665488140E+03  0.56707585873E+03  0.12699999809E+01 0. -1.
       -4    1    3    3    0  502 -0.54256038673E+02 -0.46728940177E+03  0.13309942805E+04  0.14116835660E+04  0.12699999809E+01 0.  1.
</event>
<event>
 5   0  0.3605571E-04  0.1662308E+04  0.7818609E-02  0.8783158E-01
        2   -1    0    0  501    0  0.00000000000E+00  0.00000000000E+00  0.11273087452E+04  0.11273087452E+04  0.25500000920E-02 0.  1.
       -2   -1    0    0    0  501  0.00000000000E+00  0.00000000000E+00 -0.61280173475E+03  0.61280173475E+03  0.25500000920E-02 0. -1.
    10030    2    1    2    0    0  0.00000000000E+00  0.00000000000E+00  0.51450701042E+03  0.17401104799E+04  0.16623077388E+04 0.  0.
        4    1    3    3  502    0 -0.65351049636E+03  0.21543894977E+03  0.74525423517E+03  0.10143448121E+04  0.12699999809E+01 0.  1.
       -4    1    3    3    0  502  0.65351049636E+03 -0.21543894977E+03 -0.23074722475E+03  0.72576566780E+03  0.12699999809E+01 0. -1.
</event>
<event>
 5   0  0.3678896E-04  0.1687325E+04  0.7818609E-02  0.8768626E-01
        2   -1    0    0  501    0  0.00000000000E+00  0.00000000000E+00  0.18653954294E+04  0.18653954294E+04  0.25500000920E-02 0.  1.
       -2   -1    0    0    0  501  0.00000000000E+00  0.00000000000E+00 -0.38156340242E+03  0.38156340243E+03  0.25500000920E-02 0. -1.
    10030    2    1    2    0    0  0.00000000000E+00  0.00000000000E+00  0.14838320270E+04  0.22469588319E+04  0.16873252525E+04 0.  0.
        2    1    3    3  502    0  0.40327101876E+03  0.72830983845E+03  0.55979406121E+03  0.10032109082E+04  0.25500000920E-02 0. -1.
       -2    1    3    3    0  502 -0.40327101876E+03 -0.72830983845E+03  0.92403796579E+03  0.12437479237E+04  0.25500000920E-02 0.  1.
</event>
<event>
 5   0  0.3516723E-04  0.1704165E+04  0.7818609E-02  0.8758993E-01
        2   -1    0    0  501    0  0.00000000000E+00  0.00000000000E+00  0.14865132414E+04  0.14865132414E+04  0.25500000920E-02 0.  1.
       -2   -1    0    0    0  501  0.00000000000E+00  0.00000000000E+00 -0.48842112750E+03  0.48842112751E+03  0.25500000920E-02 0. -1.
    10030    2    1    2    0    0  0.00000000000E+00  0.00000000000E+00  0.99809211390E+03  0.19749343689E+04  0.17041648669E+04 0.  0.
        1    1    3    3  502    0 -0.28324656231E+03  0.34948032381E+03 -0.33959049914E+03  0.56363713408E+03  0.50400001928E-02 0. -1.
       -1    1    3    3    0  502  0.28324656231E+03 -0.34948032381E+03  0.13376826130E+04  0.14112972348E+04  0.50400001928E-02 0.  1.
</event>
<event>
 5   0  0.3605571E-04  0.1698882E+04  0.7818609E-02  0.8762002E-01
        2   -1    0    0  501    0  0.00000000000E+00  0.00000000000E+00  0.11306927520E+04  0.11306927520E+04  0.25500000920E-02 0.  1.
       -2   -1    0    0    0  501  0.00000000000E+00  0.00000000000E+00 -0.63814874760E+03  0.63814874760E+03  0.25500000920E-02 0. -1.
    10030    2    1    2    0    0  0.00000000000E+00  0.00000000000E+00  0.49254400437E+03  0.17688414996E+04  0.16988821779E+04 0.  0.
        4    1    3    3  502    0  0.83559318080E+02 -0.21349110998E+03  0.10978703336E+04  0.11215531624E+04  0.12699999809E+01 0.  1.
       -4    1    3    3    0  502 -0.83559318080E+02  0.21349110998E+03 -0.60532632926E+03  0.64728833720E+03  0.12699999809E+01 0. -1.
</event>
<event>
 5   0  0.3574092E-04  0.1702306E+04  0.7818609E-02  0.8760050E-01
        2   -1    0    0  501    0  0.00000000000E+00  0.00000000000E+00  0.91034460301E+03  0.91034460301E+03  0.25500000920E-02 0.  1.
       -2   -1    0    0    0  501  0.00000000000E+00  0.00000000000E+00 -0.79580996011E+03  0.79580996011E+03  0.25500000920E-02 0. -1.
    10030    2    1    2    0    0  0.00000000000E+00  0.00000000000E+00  0.11453464290E+03  0.17061545631E+04  0.17023058506E+04 0.  0.
        3    1    3    3  502    0 -0.17567383745E+03 -0.81612092588E+03 -0.10907969341E+03  0.84191035897E+03  0.10100000352E+00 0. -1.
       -3    1    3    3    0  502  0.17567383745E+03  0.81612092588E+03  0.22361433631E+03  0.86424420416E+03  0.10100000352E+00 0.  1.
</event>
<event>
 5   0  0.1824538E-04  0.1608120E+04  0.7818609E-02  0.8815575E-01
       -1   -1    0    0    0  501  0.00000000000E+00  0.00000000000E+00  0.65560911868E+03  0.65560911870E+03  0.50400001928E-02 0.  1.
        1   -1    0    0  501    0  0.00000000000E+00  0.00000000000E+00 -0.98612550802E+03  0.98612550803E+03  0.50400001928E-02 0. -1.
    10030    2    1    2    0    0  0.00000000000E+00  0.00000000000E+00 -0.33051638934E+03  0.16417346267E+04  0.16081204871E+04 0.  0.
        3    1    3    3  502    0 -0.74219378073E+02  0.47877238749E+02 -0.98115822962E+03  0.98512548836E+03  0.10100000352E+00 0. -1.
       -3    1    3    3    0  502  0.74219378073E+02 -0.47877238749E+02  0.65064184028E+03  0.65660913837E+03  0.10100000352E+00 0.  1.
</event>
<event>
 5   0  0.1824538E-04  0.1708442E+04  0.7818609E-02  0.8756564E-01
        1   -1    0    0  501    0  0.00000000000E+00  0.00000000000E+00  0.74796253572E+03  0.74796253574E+03  0.50400001928E-02 0.  1.
       -1   -1    0    0    0  501  0.00000000000E+00  0.00000000000E+00 -0.97557547832E+03  0.97557547834E+03  0.50400001928E-02 0. -1.
    10030    2    1    2    0    0  0.00000000000E+00  0.00000000000E+00 -0.22761294260E+03  0.17235380141E+04  0.17084424586E+04 0.  0.
        3    1    3    3  502    0 -0.73020407343E+03  0.29987999863E+03  0.21552535773E+03  0.81827696562E+03  0.10100000352E+00 0.  1.
       -3    1    3    3    0  502  0.73020407343E+03 -0.29987999863E+03 -0.44313830034E+03  0.90526104846E+03  0.10100000352E+00 0. -1.
</event>
<event>
 5   0  0.1920289E-04  0.1779622E+04  0.7818609E-02  0.8717212E-01
        1   -1    0    0  501    0  0.00000000000E+00  0.00000000000E+00  0.12871024641E+04  0.12871024641E+04  0.50400001928E-02 0. -1.
       -1   -1    0    0    0  501  0.00000000000E+00  0.00000000000E+00 -0.61515220466E+03  0.61515220468E+03  0.50400001928E-02 0.  1.
    10030    2    1    2    0    0  0.00000000000E+00  0.00000000000E+00  0.67195025940E+03  0.19022546688E+04  0.17796223402E+04 0.  0.
        4    1    3    3  502    0 -0.39612159340E+03  0.18826567742E+03 -0.49158843408E+03  0.65879972941E+03  0.12699999809E+01 0.  1.
       -4    1    3    3    0  502  0.39612159340E+03 -0.18826567742E+03  0.11635386935E+04  0.12434549393E+04  0.12699999809E+01 0. -1.
</event>
<event>
 5   0  0.1930116E-04  0.1708474E+04  0.7818609E-02  0.8756546E-01
        1   -1    0    0  501    0  0.00000000000E+00  0.00000000000E+00  0.11598980246E+04  0.11598980246E+04  0.50400001928E-02 0. -1.
       -1   -1    0    0    0  501  0.00000000000E+00  0.00000000000E+00 -0.62912534901E+03  0.62912534903E+03  0.50400001928E-02 0.  1.
    10030    2    1    2    0    0  0.00000000000E+00  0.00000000000E+00  0.53077267559E+03  0.17890233736E+04  0.17084744652E+04 0.  0.
        1    1    3    3  502    0  0.67517230445E+03 -0.51715171266E+03  0.18149874466E+03  0.86962367087E+03  0.50400001928E-02 0. -1.
       -1    1    3    3    0  502 -0.67517230445E+03  0.51715171266E+03  0.34927393093E+03  0.91939970277E+03  0.50400001928E-02 0.  1.
</event>
<event>
 5   0  0.3516723E-04  0.1696525E+04  0.7818609E-02  0.8763349E-01
       -2   -1    0    0    0  501  0.00000000000E+00  0.00000000000E+00  0.14996491277E+04  0.14996491277E+04  0.25500000920E-02 0.  1.
        2   -1    0    0  501    0  0.00000000000E+00  0.00000000000E+00 -0.47981182624E+03  0.47981182624E+03  0.25500000920E-02 0. -1.
    10030    2    1    2    0    0  0.00000000000E+00  0.00000000000E+00  0.10198373014E+04  0.19794609539E+04  0.16965251388E+04 0.  0.
        1    1    3    3  502    0 -0.35217923095E+03  0.73787047829E+03  0.77358455769E+03  0.11255736854E+04  0.50400001928E-02 0.  1.
       -1    1    3    3    0  502  0.35217923095E+03 -0.73787047829E+03  0.24625274376E+03  0.85388726848E+03  0.50400001928E-02 0. -1.
</event>
<event>
 5   0  0.3605571E-04  0.1712252E+04  0.7818609E-02  0.8754407E-01
        2   -1    0    0  501    0  0.00000000000E+00  0.00000000000E+00  0.70508137173E+03  0.70508137173E+03  0.25500000920E-02 0.  1.
       -2   -1    0    0    0  501  0.00000000000E+00  0.00000000000E+00 -0.10395283714E+04  0.10395283714E+04  0.25500000920E-02 0. -1.
    10030    2    1    2    0    0  0.00000000000E+00  0.00000000000E+00 -0.33444699962E+03  0.17446097431E+04  0.17122524230E+04 0.  0.
        4    1    3    3  502    0  0.34537960147E+03  0.70981959736E+03  0.17042927921E+03  0.80757580574E+03  0.12699999809E+01 0.  1.
       -4    1    3    3    0  502 -0.34537960147E+03 -0.70981959736E+03 -0.50487627883E+03  0.93703393734E+03  0.12699999809E+01 0. -1.
</event>
<event>
 5   0  0.3678896E-04  0.1661300E+04  0.7818609E-02  0.8783749E-01
        2   -1    0    0  501    0  0.00000000000E+00  0.00000000000E+00  0.10644555988E+04  0.10644555988E+04  0.25500000920E-02 0. -1.
       -2   -1    0    0    0  501  0.00000000000E+00  0.00000000000E+00 -0.64819938987E+03  0.64819938988E+03  0.25500000920E-02 0.  1.
    10030    2    1    2    0    0  0.00000000000E+00  0.00000000000E+00  0.41625620896E+03  0.17126549887E+04  0.16613000568E+04 0.  0.
        2    1    3    3  502    0  0.18470817359E+03 -0.51037908755E+03 -0.44009828462E+03  0.69877780627E+03  0.25500000920E-02 0.  1.
       -2    1    3    3    0  502 -0.18470817359E+03  0.51037908755E+03  0.85635449358E+03  0.10138771824E+04  0.25500000920E-02 0. -1.
</event>
<event>
 5   0  0.1815663E-04  0.1701334E+04  0.7818609E-02  0.8760604E-01
       -1   -1    0    0    0  501  0.00000000000E+00  0.00000000000E+00  0.48405046608E+03  0.48405046610E+03  0.50400001928E-02 0. -1.
        1   -1    0    0  501    0  0.00000000000E+00  0.00000000000E+00 -0.14949560634E+04  0.14949560634E+04  0.50400001928E-02 0.  1.
    10030    2    1    2    0    0  0.00000000000E+00  0.00000000000E+00 -0.10109055973E+04  0.19790065295E+04  0.17013338053E+04 0.  0.
        5    1    3    3  502    0 -0.83489704008E+02  0.82516770696E+03 -0.72535715832E+03  0.11018336410E+04  0.46999998093E+01 0.  1.
       -5    1    3    3    0  502  0.83489704008E+02 -0.82516770696E+03 -0.28554843895E+03  0.87717288847E+03  0.46999998093E+01 0. -1.
</event>
<event>
 5   0  0.1824538E-04  0.1702597E+04  0.7818609E-02  0.8759885E-01
        1   -1    0    0  501    0  0.00000000000E+00  0.00000000000E+00  0.97924904268E+03  0.97924904269E+03  0.50400001928E-02 0.  1.
       -1   -1    0    0    0  501  0.00000000000E+00  0.00000000000E+00 -0.74006634021E+03  0.74006634023E+03  0.50400001928E-02 0. -1.
    10030    2    1    2    0    0  0.00000000000E+00  0.00000000000E+00  0.23918270247E+03  0.17193153829E+04  0.17025971399E+04 0.  0.
        3    1    3    3  502    0 -0.60854253538E+02  0.29312691094E+03  0.92433723299E+03  0.97160998172E+03  0.10100000352E+00 0.  1.
       -3    1    3    3    0  502  0.60854253538E+02 -0.29312691094E+03 -0.68515453052E+03  0.74770540120E+03  0.10100000352E+00 0. -1.
</event>
<event>
 5   0  0.3516723E-04  0.1654513E+04  0.7818609E-02  0.8787741E-01
       -2   -1    0    0    0  501  0.00000000000E+00  0.00000000000E+00  0.80678358231E+03  0.80678358232E+03  0.25500000920E-02 0. -1.
        2   -1    0    0  501    0  0.00000000000E+00  0.00000000000E+00 -0.84824882567E+03  0.84824882567E+03  0.25500000920E-02 0.  1.
    10030    2    1    2    0    0  0.00000000000E+00  0.00000000000E+00 -0.41465243356E+02  0.16550324080E+04  0.16545128906E+04 0.  0.
        1    1    3    3  502    0  0.42401826282E+03 -0.52473920028E+02  0.68787404780E+03  0.80976274621E+03  0.50400001928E-02 0. -1.
       -1    1    3    3    0  502 -0.42401826282E+03  0.52473920028E+02 -0.72933929115E+03  0.84526966178E+03  0.50400001928E-02 0.  1.
</event>
<event>
 5   0  0.1920289E-04  0.1810665E+04  0.7818609E-02  0.8700648E-01
       -1   -1    0    0    0  501  0.00000000000E+00  0.00000000000E+00  0.52556519526E+03  0.52556519528E+03  0.50400001928E-02 0. -1.
        1   -1    0    0  501    0  0.00000000000E+00  0.00000000000E+00 -0.15595151951E+04  0.15595151951E+04  0.50400001928E-02 0.  1.
    10030    2    1    2    0    0  0.00000000000E+00  0.00000000000E+00 -0.10339499998E+04  0.20850803904E+04  0.18106649696E+04 0.  0.
        4    1    3    3  502    0  0.12441748636E+03 -0.42786895176E+03 -0.14244951766E+04  0.14925614466E+04  0.12699999809E+01 0.  1.
       -4    1    3    3    0  502 -0.12441748636E+03  0.42786895176E+03  0.39054517675E+03  0.59251894381E+03  0.12699999809E+01 0. -1.
</event>
<event>
 5   0  0.1824538E-04  0.1699616E+04  0.7818609E-02  0.8761583E-01
       -1   -1    0    0    0  501  0.00000000000E+00  0.00000000000E+00  0.99226923220E+03  0.99226923222E+03  0.50400001928E-02 0.  1.
        1   -1    0    0  501    0  0.00000000000E+00  0.00000000000E+00 -0.72780050326E+03  0.72780050327E+03  0.50400001928E-02 0. -1.
    10030    2    1    2    0    0  0.00000000000E+00  0.00000000000E+00  0.26446872895E+03  0.17200697355E+04  0.16996164821E+04 0.  0.
        3    1    3    3  502    0  0.60491843554E+03  0.14278170965E+03 -0.45427503623E+03  0.76985631712E+03  0.10100000352E+00 0. -1.
       -3    1    3    3    0  502 -0.60491843554E+03 -0.14278170965E+03  0.71874376517E+03  0.95021341837E+03  0.10100000352E+00 0.  1.
</event>
<event>
 5   0  0.1930116E-04  0.1697933E+04  0.7818609E-02  0.8762544E-01
       -1   -1    0    0    0  501  0.00000000000E+00  0.00000000000E+00  0.35420201914E+03  0.35420201918E+03  0.50400001928E-02 0.  1.
        1   -1    0    0  501    0  0.00000000000E+00  0.00000000000E+00 -0.20348393103E+04  0.20348393104E+04  0.50400001928E-02 0. -1.
    10030    2    1    2    0    0  0.00000000000E+00  0.00000000000E+00 -0.16806372912E+04  0.23890413295E+04  0.16979330875E+04 0.  0.
        1    1    3    3  502    0 -0.17832121938E+03 -0.15464354885E+03 -0.19877430214E+04  0.20017081215E+04  0.50400001928E-02 0. -1.
       -1    1    3    3    0  502  0.17832121938E+03  0.15464354885E+03  0.30710573022E+03  0.38733320803E+03  0.50400001928E-02 0.  1.
</event>
<event>
 5   0  0.1815663E-04  0.1960140E+04  0.7818609E-02  0.8625487E-01
        1   -1    0    0  501    0  0.00000000000E+00  0.00000000000E+00  0.83294213868E+03  0.83294213870E+03  0.50400001928E-02 0. -1.
       -1   -1    0    0    0  501  0.00000000000E+00  0.00000000000E+00 -0.11531862509E+04  0.11531862509E+04  0.50400001928E-02 0.  1.
    10030    2    1    2    0    0  0.00000000000E+00  0.00000000000E+00 -0.32024411219E+03  0.19861283896E+04  0.19601402216E+04 0.  0.
        5    1    3    3  502    0  0.80540797120E+03  0.43652436392E+03 -0.51299181112E+03  0.10499610510E+04  0.46999998093E+01 0.  1.
       -5    1    3    3    0  502 -0.80540797120E+03 -0.43652436392E+03  0.19274769893E+03  0.93616733857E+03  0.46999998093E+01 0. -1.
</event>
<event>
 5   0  0.1824538E-04  0.1674132E+04  0.7818609E-02  0.8776257E-01
        1   -1    0    0  501    0  0.00000000000E+00  0.00000000000E+00  0.15317485368E+04  0.15317485368E+04  0.50400001928E-02 0. -1.
       -1   -1    0    0    0  501  0.00000000000E+00  0.00000000000E+00 -0.45743757360E+03  0.45743757363E+03  0.50400001928E-02 0.  1.
    10030    2    1    2    0    0  0.00000000000E+00  0.00000000000E+00  0.10743109632E+04  0.19891861105E+04  0.16741318157E+04 0.  0.
        3    1    3    3  502    0  0.28579717138E+03 -0.68915564733E+03  0.98814161933E+03  0.12381596825E+04  0.10100000352E+00 0. -1.
       -3    1    3    3    0  502 -0.28579717138E+03  0.68915564733E+03  0.86169343898E+02  0.75102642792E+03  0.10100000352E+00 0.  1.
</event>
<event>
 5   0  0.3605571E-04  0.1588102E+04  0.7818609E-02  0.8827891E-01
       -2   -1    0    0    0  501  0.00000000000E+00  0.00000000000E+00  0.55260852737E+03  0.55260852737E+03  0.25500000920E-02 0. -1.
        2   -1    0    0  501    0  0.00000000000E+00  0.00000000000E+00 -0.11409833701E+04  0.11409833701E+04  0.25500000920E-02 0.  1.
    10030    2    1    2    0    0  0.00000000000E+00  0.00000000000E+00 -0.58837484268E+03  0.16935918974E+04  0.15881021880E+04 0.  0.
        4    1    3    3  502    0 -0.38696201948E+03  0.51061756368E+03  0.20606211339E+03  0.67300305224E+03  0.12699999809E+01 0. -1.
       -4    1    3    3    0  502  0.38696201948E+03 -0.51061756368E+03 -0.79443695607E+03  0.10205888452E+04  0.12699999809E+01 0.  1.
</event>
<event>
 5   0  0.3516723E-04  0.1705910E+04  0.7818609E-02  0.8758001E-01
       -2   -1    0    0    0  501  0.00000000000E+00  0.00000000000E+00  0.71186284612E+03  0.71186284613E+03  0.25500000920E-02 0. -1.
        2   -1    0    0  501    0  0.00000000000E+00  0.00000000000E+00 -0.10220118813E+04  0.10220118813E+04  0.25500000920E-02 0.  1.
    10030    2    1    2    0    0  0.00000000000E+00  0.00000000000E+00 -0.31014903521E+03  0.17338747275E+04  0.17059100640E+04 0.  0.
        1    1    3    3  502    0  0.11391199142E+02  0.78138931789E+03  0.19233749777E+03  0.80479360000E+03  0.50400001928E-02 0.  1.
       -1    1    3    3    0  502 -0.11391199142E+02 -0.78138931789E+03 -0.50248653298E+03  0.92908112745E+03  0.50400001928E-02 0. -1.
</event>
<event>
 5   0  0.1920289E-04  0.1704487E+04  0.7818609E-02  0.8758809E-01
        1   -1    0    0  501    0  0.00000000000E+00  0.00000000000E+00  0.53154747358E+03  0.53154747361E+03  0.50400001928E-02 0. -1.
       -1   -1    0    0    0  501  0.00000000000E+00  0.00000000000E+00 -0.13664238795E+04  0.13664238795E+04  0.50400001928E-02 0.  1.
    10030    2    1    2    0    0  0.00000000000E+00  0.00000000000E+00 -0.83487640587E+03  0.18979713531E+04  0.17044872085E+04 0.  0.
        4    1    3    3  502    0  0.15933214977E+03 -0.81404875940E+03 -0.19964593415E+03  0.85318358432E+03  0.12699999809E+01 0. -1.
       -4    1    3    3    0  502 -0.15933214977E+03  0.81404875940E+03 -0.63523047171E+03  0.10447877687E+04  0.12699999809E+01 0.  1.
</event>
<event>
 5   0  0.3573262E-04  0.1692057E+04  0.7818609E-02  0.8765907E-01
       -2   -1    0    0    0  501  0.00000000000E+00  0.00000000000E+00  0.15410391512E+04  0.15410391512E+04  0.25500000920E-02 0. -1.
        2   -1    0    0  501    0  0.00000000000E+00  0.00000000000E+00 -0.46446879018E+03  0.46446879019E+03  0.25500000920E-02 0.  1.
    10030    2    1    2    0    0  0.00000000000E+00  0.00000000000E+00  0.10765703610E+04  0.20055079414E+04  0.16920574342E+04 0.  0.
        5    1    3    3  502    0  0.27650697678E+03  0.79885563986E+03  0.57788131509E+03  0.10240094462E+04  0.46999998093E+01 0.  1.
       -5    1    3    3    0  502 -0.27650697678E+03 -0.79885563986E+03  0.49868904594E+03  0.98149849520E+03  0.46999998093E+01 0. -1.
</event>
<event>
 5   0  0.1920289E-04  0.1703726E+04  0.7818609E-02  0.8759242E-01
       -1   -1    0    0    0  501  0.00000000000E+00  0.00000000000E+00  0.49860993655E+03  0.49860993658E+03  0.50400001928E-02 0. -1.
        1   -1    0    0  501    0  0.00000000000E+00  0.00000000000E+00 -0.14553879634E+04  0.14553879634E+04  0.50400001928E-02 0.  1.
    10030    2    1    2    0    0  0.00000000000E+00  0.00000000000E+00 -0.95677802680E+03  0.19539978999E+04  0.17037263866E+04 0.  0.
        4    1    3    3  502    0 -0.84872955484E+03  0.40802832088E+02 -0.54779813500E+03  0.10109852313E+04  0.12699999809E+01 0.  1.
       -4    1    3    3    0  502  0.84872955484E+03 -0.40802832088E+02 -0.40897989180E+03  0.94301266861E+03  0.12699999809E+01 0. -1.
</event>
<event>
 5   0  0.1930116E-04  0.1664524E+04  0.7818609E-02  0.8781860E-01
       -1   -1    0    0    0  501  0.00000000000E+00  0.00000000000E+00  0.83833621043E+03  0.83833621045E+03  0.50400001928E-02 0. -1.
        1   -1    0    0  501    0  0.00000000000E+00  0.00000000000E+00 -0.82623208876E+03  0.82623208877E+03  0.50400001928E-02 0.  1.
    10030    2    1    2    0    0  0.00000000000E+00  0.00000000000E+00  0.12104121673E+02  0.16645682992E+04  0.16645242903E+04 0.  0.
        1    1    3    3  502    0 -0.30985659376E+03  0.15242754946E+02  0.77835275752E+03  0.83790003308E+03  0.50400001928E-02 0. -1.
       -1    1    3    3    0  502  0.30985659376E+03 -0.15242754946E+02 -0.76624863585E+03  0.82666826614E+03  0.50400001928E-02 0.  1.
</event>
<event>
 5   0  0.1930116E-04  0.1702686E+04  0.7818609E-02  0.8759834E-01
       -1   -1    0    0    0  501  0.00000000000E+00  0.00000000000E+00  0.66536729297E+03  0.66536729299E+03  0.50400001928E-02 0.  1.
        1   -1    0    0  501    0  0.00000000000E+00  0.00000000000E+00 -0.10893008071E+04  0.10893008071E+04  0.50400001928E-02 0. -1.
    10030    2    1    2    0    0  0.00000000000E+00  0.00000000000E+00 -0.42393351409E+03  0.17546681001E+04  0.17026862650E+04 0.  0.
        1    1    3    3  502    0 -0.60819563065E+02  0.21700298107E+03  0.63406944750E+03  0.67292895414E+03  0.50400001928E-02 0.  1.
       -1    1    3    3    0  502  0.60819563065E+02 -0.21700298107E+03 -0.10580029616E+04  0.10817391459E+04  0.50400001928E-02 0. -1.
</event>
<event>
 5   0  0.1824538E-04  0.1759335E+04  0.7818609E-02  0.8728228E-01
        1   -1    0    0  501    0  0.00000000000E+00  0.00000000000E+00  0.19565773271E+04  0.19565773271E+04  0.50400001928E-02 0. -1.
       -1   -1    0    0    0  501  0.00000000000E+00  0.00000000000E+00 -0.39549436403E+03  0.39549436406E+03  0.50400001928E-02 0.  1.
    10030    2    1    2    0    0  0.00000000000E+00  0.00000000000E+00  0.15610829630E+04  0.23520716911E+04  0.17593354492E+04 0.  0.
        3    1    3    3  502    0  0.17184475992E+03 -0.79091123195E+03  0.31985240332E+03  0.87027396172E+03  0.10100000352E+00 0. -1.
       -3    1    3    3    0  502 -0.17184475992E+03  0.79091123195E+03  0.12412305597E+04  0.14817977294E+04  0.10100000352E+00 0.  1.
</event>
<event>
 5   0  0.3573262E-04  0.1793953E+04  0.7818609E-02  0.8709522E-01
        2   -1    0    0  501    0  0.00000000000E+00  0.00000000000E+00  0.22252445048E+04  0.22252445048E+04  0.25500000920E-02 0.  1.
       -2   -1    0    0    0  501  0.00000000000E+00  0.00000000000E+00 -0.36156320642E+03  0.36156320643E+03  0.25500000920E-02 0. -1.
    10030    2    1    2    0    0  0.00000000000E+00  0.00000000000E+00  0.18636812984E+04  0.25868077112E+04  0.17939526618E+04 0.  0.
        5    1    3    3  502    0  0.30680071300E+03  0.10829536653E+03  0.21371413132E+04  0.21617700263E+04  0.46999998093E+01 0.  1.
       -5    1    3    3    0  502 -0.30680071300E+03 -0.10829536653E+03 -0.27346001483E+03  0.42503768494E+03  0.46999998093E+01 0. -1.
</event>
<event>
 5   0  0.3516723E-04  0.1675319E+04  0.7818609E-02  0.8775567E-01
       -2   -1    0    0    0  501  0.00000000000E+00  0.00000000000E+00  0.11279678855E+04  0.11279678855E+04  0.25500000920E-02 0.  1.
        2   -1    0    0  501    0  0.00000000000E+00  0.00000000000E+00 -0.62206877652E+03  0.62206877652E+03  0.25500000920E-02 0. -1.
    10030    2    1    2    0    0  0.00000000000E+00  0.00000000000E+00  0.50589910899E+03  0.17500366620E+04  0.16753191965E+04 0.  0.
        1    1    3    3  502    0 -0.56232124179E+03  0.30132041673E+03 -0.31409973179E+03  0.71109620590E+03  0.50400001928E-02 0. -1.
       -1    1    3    3    0  502  0.56232124179E+03 -0.30132041673E+03  0.81999884078E+03  0.10389404561E+04  0.50400001928E-02 0.  1.
</event>
<event>
 5   0  0.1920289E-04  0.1645596E+04  0.7818609E-02  0.8793016E-01
       -1   -1    0    0    0  501  0.00000000000E+00  0.00000000000E+00  0.83845317805E+03  0.83845317806E+03  0.50400001928E-02 0. -1.
        1   -1    0    0  501    0  0.00000000000E+00  0.00000000000E+00 -0.80743486388E+03  0.80743486390E+03  0.50400001928E-02 0.  1.
    10030    2    1    2    0    0  0.00000000000E+00  0.00000000000E+00  0.31018314165E+02  0.16458880420E+04  0.16455957313E+04 0.  0.
        4    1    3    3  502    0  0.62654026270E+03  0.32086426158E+03 -0.41058076494E+03  0.81491395410E+03  0.12699999809E+01 0.  1.
       -4    1    3    3    0  502 -0.62654026270E+03 -0.32086426158E+03  0.44159907911E+03  0.83097408787E+03  0.12699999809E+01 0. -1.
</event>
<event>
 5   0  0.1824538E-04  0.1828107E+04  0.7818609E-02  0.8691494E-01
        1   -1    0    0  501    0  0.00000000000E+00  0.00000000000E+00  0.24237562616E+04  0.24237562616E+04  0.50400001928E-02 0.  1.
       -1   -1    0    0    0  501  0.00000000000E+00  0.00000000000E+00 -0.34471020539E+03  0.34471020543E+03  0.50400001928E-02 0. -1.
    10030    2    1    2    0    0  0.00000000000E+00  0.00000000000E+00  0.20790460562E+04  0.27684664670E+04  0.18281066914E+04 0.  0.
        3    1    3    3  502    0  0.26937167241E+01 -0.13909264897E+03 -0.32858352985E+03  0.35682091783E+03  0.10100000352E+00 0. -1.
       -3    1    3    3    0  502 -0.26937167241E+01  0.13909264897E+03  0.24076295860E+04  0.24116455492E+04  0.10100000352E+00 0.  1.
</event>
<event>
 5   0  0.3573262E-04  0.1712980E+04  0.7818609E-02  0.8753996E-01
       -2   -1    0    0    0  501  0.00000000000E+00  0.00000000000E+00  0.46354301719E+03  0.46354301720E+03  0.25500000920E-02 0.  1.
        2   -1    0    0  501    0  0.00000000000E+00  0.00000000000E+00 -0.15825403187E+04  0.15825403187E+04  0.25500000920E-02 0. -1.
    10030    2    1    2    0    0  0.00000000000E+00  0.00000000000E+00 -0.11189973015E+04  0.20460833359E+04  0.17129804601E+04 0.  0.
        5    1    3    3  502    0  0.64049828408E+03  0.34537057631E+03 -0.10990375394E+04  0.13181139898E+04  0.46999998093E+01 0. -1.
       -5    1    3    3    0  502 -0.64049828408E+03 -0.34537057631E+03 -0.19959762106E+02  0.72796934619E+03  0.46999998093E+01 0.  1.
</event>
<event>
 5   0  0.1824538E-04  0.1731374E+04  0.7818609E-02  0.8743670E-01
        1   -1    0    0  501    0  0.00000000000E+00  0.00000000000E+00  0.14078888594E+04  0.14078888594E+04  0.50400001928E-02 0. -1.
       -1   -1    0    0    0  501  0.00000000000E+00  0.00000000000E+00 -0.53229627583E+03  0.53229627586E+03  0.50400001928E-02 0.  1.
    10030    2    1    2    0    0  0.00000000000E+00  0.00000000000E+00  0.87559258359E+03  0.19401851353E+04  0.17313740170E+04 0.  0.
        3    1    3    3  502    0  0.16508773497E+03  0.63066717218E+03  0.10760676855E+04  0.12581401815E+04  0.10100000352E+00 0. -1.
       -3    1    3    3    0  502 -0.16508773497E+03 -0.63066717218E+03 -0.20047510191E+03  0.68204495379E+03  0.10100000352E+00 0.  1.
</event>
<event>
 5   0  0.1824538E-04  0.1729247E+04  0.7818609E-02  0.8744858E-01
        1   -1    0    0  501    0  0.00000000000E+00  0.00000000000E+00  0.27770174254E+04  0.27770174254E+04  0.50400001928E-02 0.  1.
       -1   -1    0    0    0  501  0.00000000000E+00  0.00000000000E+00 -0.26920011041E+03  0.26920011045E+03  0.50400001928E-02 0. -1.
    10030    2    1    2    0    0  0.00000000000E+00  0.00000000000E+00  0.25078173150E+04  0.30462175358E+04  0.17292465383E+04 0.  0.
        3    1    3    3  502    0 -0.32810336720E+03 -0.39301967808E+03  0.24812897469E+04  0.25335577959E+04  0.10100000352E+00 0.  1.
       -3    1    3    3    0  502  0.32810336720E+03  0.39301967808E+03  0.26527568120E+02  0.51265973998E+03  0.10100000352E+00 0. -1.
</event>
<event>
 5   0  0.3605571E-04  0.1707573E+04  0.7818609E-02  0.8757057E-01
        2   -1    0    0  501    0  0.00000000000E+00  0.00000000000E+00  0.12838108568E+04  0.12838108568E+04  0.25500000920E-02 0. -1.
       -2   -1    0    0    0  501  0.00000000000E+00  0.00000000000E+00 -0.56780257027E+03  0.56780257028E+03  0.25500000920E-02 0.  1.
    10030    2    1    2    0    0  0.00000000000E+00  0.00000000000E+00  0.71600828654E+03  0.18516134271E+04  0.17075726682E+04 0.  0.
        4    1    3    3  502    0 -0.39899173995E+03 -0.34971339924E+03  0.10833516304E+04  0.12062944243E+04  0.12699999809E+01 0. -1.
       -4    1    3    3    0  502  0.39899173995E+03  0.34971339924E+03 -0.36734334387E+03  0.64531900277E+03  0.12699999809E+01 0.  1.
</event>
<event>
 5   0  0.3678896E-04  0.1691749E+04  0.7818609E-02  0.8766084E-01
       -2   -1    0    0    0  501  0.00000000000E+00  0.00000000000E+00  0.71276023320E+03  0.71276023320E+03  0.25500000920E-02 0.  1.
        2   -1    0    0  501    0  0.00000000000E+00  0.00000000000E+00 -0.10038485515E+04  0.10038485515E+04  0.25500000920E-02 0. -1.
    10030    2    1    2    0    0  0.00000000000E+00  0.00000000000E+00 -0.29108831830E+03  0.17166087847E+04  0.16917485956E+04 0.  0.
        2    1    3    3  502    0 -0.37456943866E+03 -0.36222004075E+03  0.53057908852E+03  0.74365300476E+03  0.25500000920E-02 0.  1.
       -2    1    3    3    0  502  0.37456943866E+03  0.36222004075E+03 -0.82166740682E+03  0.97295577995E+03  0.25500000920E-02 0. -1.
</event>
<event>
 5   0  0.1893284E-04  0.1698581E+04  0.7818609E-02  0.8762174E-01
        1   -1    0    0  501    0  0.00000000000E+00  0.00000000000E+00  0.48413672240E+03  0.48413672242E+03  0.50400001928E-02 0. -1.
       -1   -1    0    0    0  501  0.00000000000E+00  0.00000000000E+00 -0.14898564149E+04  0.14898564149E+04  0.50400001928E-02 0.  1.
    10030    2    1    2    0    0  0.00000000000E+00  0.00000000000E+00 -0.10057196925E+04  0.19739931373E+04  0.16985808212E+04 0.  0.
        2    1    3    3  502    0 -0.79773539387E+03  0.23307969182E+03 -0.70610626204E+03  0.10905475481E+04  0.25500000920E-02 0.  1.
       -2    1    3    3    0  502  0.79773539387E+03 -0.23307969182E+03 -0.29961343043E+03  0.88344558919E+03  0.25500000920E-02 0. -1.
</event>
<event>
 5   0  0.3678896E-04  0.1795886E+04  0.7818609E-02  0.8708490E-01
        2   -1    0    0  501    0  0.00000000000E+00  0.00000000000E+00  0.15818167286E+04  0.15818167286E+04  0.25500000920E-02 0. -1.
       -2   -1    0    0    0  501  0.00000000000E+00  0.00000000000E+00 -0.50973163769E+03  0.50973163769E+03  0.25500000920E-02 0.  1.
    10030    2    1    2    0    0  0.00000000000E+00  0.00000000000E+00  0.10720850909E+04  0.20915483663E+04  0.17958864459E+04 0.  0.
        2    1    3    3  502    0 -0.24704501011E+03  0.15848362510E+03 -0.45228670302E+03  0.53917674114E+03  0.25500000920E-02 0.  1.
       -2    1    3    3    0  502  0.24704501011E+03 -0.15848362510E+03  0.15243717940E+04  0.15523716252E+04  0.25500000920E-02 0. -1.
</event>
<event>
 5   0  0.1893284E-04  0.1692451E+04  0.7818609E-02  0.8765681E-01
        1   -1    0    0  501    0  0.00000000000E+00  0.00000000000E+00  0.10529971913E+04  0.10529971914E+04  0.50400001928E-02 0. -1.
       -1   -1    0    0    0  501  0.00000000000E+00  0.00000000000E+00 -0.68005680886E+03  0.68005680888E+03  0.50400001928E-02 0.  1.
    10030    2    1    2    0    0  0.00000000000E+00  0.00000000000E+00  0.37294038248E+03  0.17330540002E+04  0.16924513697E+04 0.  0.
        2    1    3    3  502    0  0.84098685946E+03 -0.61507659443E+02  0.25928030132E+03  0.88219519643E+03  0.25500000920E-02 0. -1.
       -2    1    3    3    0  502 -0.84098685946E+03  0.61507659443E+02  0.11366008116E+03  0.85085880380E+03  0.25500000920E-02 0.  1.
</event>
<event>
 5   0  0.1317625E-04  0.1693230E+04  0.7818609E-02  0.8765235E-01
       -3   -1    0    0    0  501  0.00000000000E+00  0.00000000000E+00  0.18789921708E+04  0.18789921735E+04  0.10100000352E+00 0. -1.
        3   -1    0    0  501    0  0.00000000000E+00  0.00000000000E+00 -0.38145825488E+03  0.38145826825E+03  0.10100000352E+00 0.  1.
    10030    2    1    2    0    0  0.00000000000E+00  0.00000000000E+00  0.14975339159E+04  0.22604504417E+04  0.16932301587E+04 0.  0.
        3    1    3    3  502    0  0.61095176376E+03  0.45291315233E+03  0.25218418475E+03  0.80124231942E+03  0.10100000352E+00 0.  1.
       -3    1    3    3    0  502 -0.61095176376E+03 -0.45291315233E+03  0.12453497311E+04  0.14592081223E+04  0.10100000352E+00 0. -1.
</event>
<event>
 5   0  0.1930116E-04  0.1615549E+04  0.7818609E-02  0.8811052E-01
        1   -1    0    0  501    0  0.00000000000E+00  0.00000000000E+00  0.73551785438E+03  0.73551785439E+03  0.50400001928E-02 0. -1.
       -1   -1    0    0    0  501  0.00000000000E+00  0.00000000000E+00 -0.88712943869E+03  0.88712943871E+03  0.50400001928E-02 0.  1.
    10030    2    1    2    0    0  0.00000000000E+00  0.00000000000E+00 -0.15161158432E+03  0.16226472931E+04  0.16155488743E+04 0.  0.
        1    1    3    3  502    0 -0.54096011602E+03 -0.59560338454E+03 -0.39491359261E+01  0.80460974049E+03  0.50400001928E-02 0. -1.
       -1    1    3    3    0  502  0.54096011602E+03  0.59560338454E+03 -0.14766244839E+03  0.81803755261E+03  0.50400001928E-02 0.  1.
</event>
<event>
 5   0  0.3678896E-04  0.1742108E+04  0.7818609E-02  0.8737707E-01
        2   -1    0    0  501    0  0.00000000000E+00  0.00000000000E+00  0.12041892616E+04  0.12041892616E+04  0.25500000920E-02 0. -1.
       -2   -1    0    0    0  501  0.00000000000E+00  0.00000000000E+00 -0.63007929979E+03  0.63007929979E+03  0.25500000920E-02 0.  1.
    10030    2    1    2    0    0  0.00000000000E+00  0.00000000000E+00  0.57410996181E+03  0.18342685614E+04  0.17421076049E+04 0.  0.
        2    1    3    3  502    0 -0.57257747843E+03 -0.48685524033E+03 -0.17653494635E+03  0.77203470202E+03  0.25500000920E-02 0.  1.
       -2    1    3    3    0  502  0.57257747843E+03  0.48685524033E+03  0.75064490816E+03  0.10622338594E+04  0.25500000920E-02 0. -1.
</event>
<event>
 5   0  0.3605571E-04  0.1690974E+04  0.7818609E-02  0.8766529E-01
        2   -1    0    0  501    0  0.00000000000E+00  0.00000000000E+00  0.74772384687E+03  0.74772384687E+03  0.25500000920E-02 0. -1.
       -2   -1    0    0    0  501  0.00000000000E+00  0.00000000000E+00 -0.95603280461E+03  0.95603280462E+03  0.25500000920E-02 0.  1.
    10030    2    1    2    0    0  0.00000000000E+00  0.00000000000E+00 -0.20830895774E+03  0.17037566515E+04  0.16909743066E+04 0.  0.
        4    1    3    3  502    0  0.49523576243E+03  0.58641893046E+03 -0.46137831076E+03  0.89555411949E+03  0.12699999809E+01 0.  1.
       -4    1    3    3    0  502 -0.49523576243E+03 -0.58641893046E+03  0.25306935302E+03  0.80820253200E+03  0.12699999809E+01 0. -1.
</event>
<event>
 5   0  0.3516723E-04  0.1702422E+04  0.7818609E-02  0.8759984E-01
        2   -1    0    0  501    0  0.00000000000E+00  0.00000000000E+00  0.15704642475E+04  0.15704642475E+04  0.25500000920E-02 0. -1.
       -2   -1    0    0    0  501  0.00000000000E+00  0.00000000000E+00 -0.46136662885E+03  0.46136662886E+03  0.25500000920E-02 0.  1.
    10030    2    1    2    0    0  0.00000000000E+00  0.00000000000E+00  0.11090976187E+04  0.20318308764E+04  0.17024215643E+04 0.  0.
        1    1    3    3  502    0 -0.33936162710E+03  0.72255762328E+03  0.90719355899E+03  0.12084105206E+04  0.50400001928E-02 0. -1.
       -1    1    3    3    0  502  0.33936162710E+03 -0.72255762328E+03  0.20190405969E+03  0.82342035574E+03  0.50400001928E-02 0.  1.
</event>
<event>
 5   0  0.3516723E-04  0.1693312E+04  0.7818609E-02  0.8765188E-01
        2   -1    0    0  501    0  0.00000000000E+00  0.00000000000E+00  0.18182119793E+04  0.18182119793E+04  0.25500000920E-02 0. -1.
       -2   -1    0    0    0  501  0.00000000000E+00  0.00000000000E+00 -0.39424819845E+03  0.39424819845E+03  0.25500000920E-02 0.  1.
    10030    2    1    2    0    0  0.00000000000E+00  0.00000000000E+00  0.14239637809E+04  0.22124601778E+04  0.16933124901E+04 0.  0.
        1    1    3    3  502    0 -0.78335964199E+03 -0.31921949626E+03  0.75860676328E+03  0.11362383715E+04  0.50400001928E-02 0.  1.
       -1    1    3    3    0  502  0.78335964199E+03  0.31921949626E+03  0.66535701761E+03  0.10762218063E+04  0.50400001928E-02 0. -1.
</event>
<event>
 5   0  0.1893284E-04  0.1709037E+04  0.7818609E-02  0.8756227E-01
        1   -1    0    0  501    0  0.00000000000E+00  0.00000000000E+00  0.23826695157E+04  0.23826695157E+04  0.50400001928E-02 0. -1.
       -1   -1    0    0    0  501  0.00000000000E+00  0.00000000000E+00 -0.30646366376E+03  0.30646366380E+03  0.50400001928E-02 0.  1.
    10030    2    1    2    0    0  0.00000000000E+00  0.00000000000E+00  0.20762058519E+04  0.26891331795E+04  0.17090367221E+04 0.  0.
        2    1    3    3  502    0 -0.27777240510E+03  0.41211869210E+03  0.21318714339E+04  0.21890352067E+04  0.25500000920E-02 0. -1.
       -2    1    3    3    0  502  0.27777240510E+03 -0.41211869210E+03 -0.55665581939E+02  0.50009797284E+03  0.25500000920E-02 0.  1.
</event>
<event>
 5   0  0.1317625E-04  0.1712183E+04  0.7818609E-02  0.8754446E-01
       -4   -1    0    0    0  501  0.00000000000E+00  0.00000000000E+00  0.68955310806E+03  0.68955427759E+03  0.12699999809E+01 0.  1.
        4   -1    0    0  501    0  0.00000000000E+00  0.00000000000E+00 -0.10628491927E+04  0.10628499514E+04  0.12699999809E+01 0. -1.
    10030    2    1    2    0    0  0.00000000000E+00  0.00000000000E+00 -0.37329608462E+03  0.17524042290E+04  0.17121829970E+04 0.  0.
        1    1    3    3  502    0 -0.75025798814E+03 -0.12509717515E+03  0.21546327374E+03  0.79054460618E+03  0.50400001928E-02 0.  1.
       -1    1    3    3    0  502  0.75025798814E+03  0.12509717515E+03 -0.58875935836E+03  0.96185962286E+03  0.50400001928E-02 0. -1.
</event>
<event>
 5   0  0.3516723E-04  0.1501647E+04  0.7818609E-02  0.8883358E-01
       -2   -1    0    0    0  501  0.00000000000E+00  0.00000000000E+00  0.59139776230E+03  0.59139776231E+03  0.25500000920E-02 0.  1.
        2   -1    0    0  501    0  0.00000000000E+00  0.00000000000E+00 -0.95322621184E+03  0.95322621184E+03  0.25500000920E-02 0. -1.
    10030    2    1    2    0    0  0.00000000000E+00  0.00000000000E+00 -0.36182844953E+03  0.15446239742E+04  0.15016468941E+04 0.  0.
        1    1    3    3  502    0 -0.17064259093E+03 -0.21112836679E+03  0.53915043717E+03  0.60363670782E+03  0.50400001928E-02 0.  1.
       -1    1    3    3    0  502  0.17064259093E+03  0.21112836679E+03 -0.90097888670E+03  0.94098726634E+03  0.50400001928E-02 0. -1.
</event>
<event>
 5   0  0.3573262E-04  0.1718501E+04  0.7818609E-02  0.8750883E-01
        2   -1    0    0  501    0  0.00000000000E+00  0.00000000000E+00  0.10102030779E+04  0.10102030779E+04  0.25500000920E-02 0. -1.
       -2   -1    0    0    0  501  0.00000000000E+00  0.00000000000E+00 -0.73085404159E+03  0.73085404160E+03  0.25500000920E-02 0.  1.
    10030    2    1    2    0    0  0.00000000000E+00  0.00000000000E+00  0.27934903633E+03  0.17410571195E+04  0.17185005119E+04 0.  0.
        5    1    3    3  502    0 -0.74133533910E+03 -0.15898023844E+03 -0.26990418216E+03  0.80481249913E+03  0.46999998093E+01 0.  1.
       -5    1    3    3    0  502  0.74133533910E+03  0.15898023844E+03  0.54925321848E+03  0.93624462039E+03  0.46999998093E+01 0. -1.
</event>
<event>
 5   0  0.3605571E-04  0.1678428E+04  0.7818609E-02  0.8773764E-01
        2   -1    0    0  501    0  0.00000000000E+00  0.00000000000E+00  0.23067293121E+04  0.23067293121E+04  0.25500000920E-02 0. -1.
       -2   -1    0    0    0  501  0.00000000000E+00  0.00000000000E+00 -0.30531532188E+03  0.30531532189E+03  0.25500000920E-02 0.  1.
    10030    2    1    2    0    0  0.00000000000E+00  0.00000000000E+00  0.20014139902E+04  0.26120446339E+04  0.16784276003E+04 0.  0.
        4    1    3    3  502    0  0.65484881403E+03  0.32474990255E+03  0.35907201196E+03  0.81438552978E+03  0.12699999809E+01 0.  1.
       -4    1    3    3    0  502 -0.65484881403E+03 -0.32474990255E+03  0.16423419782E+04  0.17976591042E+04  0.12699999809E+01 0. -1.
</event>
<event>
 5   0  0.1930116E-04  0.1699978E+04  0.7818609E-02  0.8761377E-01
       -1   -1    0    0    0  501  0.00000000000E+00  0.00000000000E+00  0.12490300221E+04  0.12490300221E+04  0.50400001928E-02 0. -1.
        1   -1    0    0  501    0  0.00000000000E+00  0.00000000000E+00 -0.57843422754E+03  0.57843422756E+03  0.50400001928E-02 0.  1.
    10030    2    1    2    0    0  0.00000000000E+00  0.00000000000E+00  0.67059579457E+03  0.18274642497E+04  0.16999784893E+04 0.  0.
        1    1    3    3  502    0  0.33824204610E+02 -0.11589160124E+02 -0.57762547418E+03  0.57873100305E+03  0.50400001928E-02 0.  1.
       -1    1    3    3    0  502 -0.33824204610E+02  0.11589160124E+02  0.12482212687E+04  0.12487332466E+04  0.50400001928E-02 0. -1.
</event>
<event>
 5   0  0.3574092E-04  0.1711801E+04  0.7818609E-02  0.8754662E-01
        2   -1    0    0  501    0  0.00000000000E+00  0.00000000000E+00  0.98338914286E+03  0.98338914286E+03  0.25500000920E-02 0. -1.
       -2   -1    0    0    0  501  0.00000000000E+00  0.00000000000E+00 -0.74493974026E+03  0.74493974026E+03  0.25500000920E-02 0.  1.
    10030    2    1    2    0    0  0.00000000000E+00  0.00000000000E+00  0.23844940260E+03  0.17283288831E+04  0.17118009845E+04 0.  0.
        3    1    3    3  502    0 -0.50639381830E+03 -0.61438976235E+03 -0.19790376455E+03  0.82041171951E+03  0.10100000352E+00 0.  1.
       -3    1    3    3    0  502  0.50639381830E+03  0.61438976235E+03  0.43635316716E+03  0.90791716361E+03  0.10100000352E+00 0. -1.
</event>
<event>
 5   0  0.3516723E-04  0.1733237E+04  0.7818609E-02  0.8742632E-01
        2   -1    0    0  501    0  0.00000000000E+00  0.00000000000E+00  0.11256501755E+04  0.11256501755E+04  0.25500000920E-02 0.  1.
       -2   -1    0    0    0  501  0.00000000000E+00  0.00000000000E+00 -0.66719471025E+03  0.66719471026E+03  0.25500000920E-02 0. -1.
    10030    2    1    2    0    0  0.00000000000E+00  0.00000000000E+00  0.45845546525E+03  0.17928448858E+04  0.17332372517E+04 0.  0.
        1    1    3    3  502    0 -0.74024599924E+03  0.13444782594E+03  0.67412104404E+03  0.10101878733E+04  0.50400001928E-02 0.  1.
       -1    1    3    3    0  502  0.74024599924E+03 -0.13444782594E+03 -0.21566557879E+03  0.78265701248E+03  0.50400001928E-02 0. -1.
</event>
<event>
 5   0  0.1920289E-04  0.1699738E+04  0.7818609E-02  0.8761514E-01
        1   -1    0    0  501    0  0.00000000000E+00  0.00000000000E+00  0.19431464210E+04  0.19431464210E+04  0.50400001928E-02 0. -1.
       -1   -1    0    0    0  501  0.00000000000E+00  0.00000000000E+00 -0.37170522093E+03  0.37170522096E+03  0.50400001928E-02 0.  1.
    10030    2    1    2    0    0  0.00000000000E+00  0.00000000000E+00  0.15714412000E+04  0.23148516419E+04  0.16997384149E+04 0.  0.
        4    1    3    3  502    0 -0.71191072506E+03  0.41801810233E+03  0.10605386059E+04  0.13439865185E+04  0.12699999809E+01 0. -1.
       -4    1    3    3    0  502  0.71191072506E+03 -0.41801810233E+03  0.51090259410E+03  0.97086512343E+03  0.12699999809E+01 0.  1.
</event>
<event>
 5   0  0.3574092E-04  0.1695609E+04  0.7818609E-02  0.8763873E-01
        2   -1    0    0  501    0  0.00000000000E+00  0.00000000000E+00  0.16988348524E+04  0.16988348524E+04  0.25500000920E-02 0.  1.
       -2   -1    0    0    0  501  0.00000000000E+00  0.00000000000E+00 -0.42309710293E+03  0.42309710293E+03  0.25500000920E-02 0. -1.
    10030    2    1    2    0    0  0.00000000000E+00  0.00000000000E+00  0.12757377494E+04  0.21219319553E+04  0.16956085685E+04 0.  0.
        3    1    3    3  502    0  0.44345507033E+03 -0.14198878078E+03 -0.24875602101E+03  0.52791361174E+03  0.10100000352E+00 0. -1.
       -3    1    3    3    0  502 -0.44345507033E+03  0.14198878078E+03  0.15244937705E+04  0.15940183436E+04  0.10100000352E+00 0.  1.
</event>
<event>
 5   0  0.3516723E-04  0.1691128E+04  0.7818609E-02  0.8766440E-01
        2   -1    0    0  501    0  0.00000000000E+00  0.00000000000E+00  0.19036753870E+04  0.19036753870E+04  0.25500000920E-02 0. -1.
       -2   -1    0    0    0  501  0.00000000000E+00  0.00000000000E+00 -0.37557810542E+03  0.37557810543E+03  0.25500000920E-02 0.  1.
    10030    2    1    2    0    0  0.00000000000E+00  0.00000000000E+00  0.15280972815E+04  0.22792534924E+04  0.16911283750E+04 0.  0.
        1    1    3    3  502    0  0.70773847978E+03  0.17823375590E+03  0.18856822368E+03  0.75380302634E+03  0.50400001928E-02 0.  1.
       -1    1    3    3    0  502 -0.70773847978E+03 -0.17823375590E+03  0.13395290579E+04  0.15254504661E+04  0.50400001928E-02 0. -1.
</event>
<event>
 5   0  0.1893284E-04  0.1689937E+04  0.7818609E-02  0.8767125E-01
       -1   -1    0    0    0  501  0.00000000000E+00  0.00000000000E+00  0.97281773808E+03  0.97281773809E+03  0.50400001928E-02 0. -1.
        1   -1    0    0  501    0  0.00000000000E+00  0.00000000000E+00 -0.73392099972E+03  0.73392099974E+03  0.50400001928E-02 0.  1.
    10030    2    1    2    0    0  0.00000000000E+00  0.00000000000E+00  0.23889673836E+03  0.17067387378E+04  0.16899365277E+04 0.  0.
        2    1    3    3  502    0  0.62590016687E+03  0.28299559894E+03  0.61641175899E+03  0.92293064990E+03  0.25500000920E-02 0. -1.
       -2    1    3    3    0  502 -0.62590016687E+03 -0.28299559894E+03 -0.37751502063E+03  0.78380808793E+03  0.25500000920E-02 0.  1.
</event>
<event>
 5   0  0.3573262E-04  0.1692078E+04  0.7818609E-02  0.8765895E-01
       -2   -1    0    0    0  501  0.00000000000E+00  0.00000000000E+00  0.76305133141E+03  0.76305133141E+03  0.25500000920E-02 0. -1.
        2   -1    0    0  501    0  0.00000000000E+00  0.00000000000E+00 -0.93805258211E+03  0.93805258211E+03  0.25500000920E-02 0.  1.
    10030    2    1    2    0    0  0.00000000000E+00  0.00000000000E+00 -0.17500125070E+03  0.17011039135E+04  0.16920783335E+04 0.  0.
        5    1    3    3  502    0 -0.73019032770E+03 -0.16166899191E+03 -0.48514219906E+03  0.89145937704E+03  0.46999998093E+01 0.  1.
       -5    1    3    3    0  502  0.73019032770E+03  0.16166899191E+03  0.31014094836E+03  0.80964453648E+03  0.46999998093E+01 0. -1.
</event>
<event>
 5   0  0.1930116E-04  0.1696488E+04  0.7818609E-02  0.8763370E-01
        1   -1    0    0  501    0  0.00000000000E+00  0.00000000000E+00  0.74553371424E+03  0.74553371426E+03  0.50400001928E-02 0.  1.
       -1   -1    0    0    0  501  0.00000000000E+00  0.00000000000E+00 -0.96510427876E+03  0.96510427877E+03  0.50400001928E-02 0. -1.
    10030    2    1    2    0    0  0.00000000000E+00  0.00000000000E+00 -0.21957056451E+03  0.17106379930E+04  0.16964878751E+04 0.  0.
        1    1    3    3  502    0  0.69206224939E+03  0.43115814165E+03 -0.34555226863E+03  0.88558109201E+03  0.50400001928E-02 0. -1.
       -1    1    3    3    0  502 -0.69206224939E+03 -0.43115814165E+03  0.12598170411E+03  0.82505690103E+03  0.50400001928E-02 0.  1.
</event>
<event>
 5   0  0.3516723E-04  0.1767898E+04  0.7818609E-02  0.8723560E-01
        2   -1    0    0  501    0  0.00000000000E+00  0.00000000000E+00  0.18054442893E+04  0.18054442893E+04  0.25500000920E-02 0. -1.
       -2   -1    0    0    0  501  0.00000000000E+00  0.00000000000E+00 -0.43278309981E+03  0.43278309982E+03  0.25500000920E-02 0.  1.
    10030    2    1    2    0    0  0.00000000000E+00  0.00000000000E+00  0.13726611894E+04  0.22382273891E+04  0.17678979338E+04 0.  0.
        1    1    3    3  502    0 -0.57065048378E+03  0.33316389131E+03 -0.57003066947E+02  0.66324166243E+03  0.50400001928E-02 0.  1.
       -1    1    3    3    0  502  0.57065048378E+03 -0.33316389131E+03  0.14296642564E+04  0.15749857266E+04  0.50400001928E-02 0. -1.
</event>
<event>
 5   0  0.3678896E-04  0.1694080E+04  0.7818609E-02  0.8764748E-01
       -2   -1    0    0    0  501  0.00000000000E+00  0.00000000000E+00  0.10083710834E+04  0.10083710834E+04  0.25500000920E-02 0.  1.
        2   -1    0    0  501    0  0.00000000000E+00  0.00000000000E+00 -0.71152069561E+03  0.71152069561E+03  0.25500000920E-02 0. -1.
    10030    2    1    2    0    0  0.00000000000E+00  0.00000000000E+00  0.29685038776E+03  0.17198917790E+04  0.16940801571E+04 0.  0.
        2    1    3    3  502    0 -0.62035452773E+03 -0.42711710417E+03  0.54189724607E+03  0.92785849463E+03  0.25500000920E-02 0.  1.
       -2    1    3    3    0  502  0.62035452773E+03  0.42711710417E+03 -0.24504685831E+03  0.79203328435E+03  0.25500000920E-02 0. -1.
</event>
<event>
 5   0  0.1815663E-04  0.1705819E+04  0.7818609E-02  0.8758052E-01
       -1   -1    0    0    0  501  0.00000000000E+00  0.00000000000E+00  0.79331838892E+03  0.79331838894E+03  0.50400001928E-02 0.  1.
        1   -1    0    0  501    0  0.00000000000E+00  0.00000000000E+00 -0.91697708610E+03  0.91697708611E+03  0.50400001928E-02 0. -1.
    10030    2    1    2    0    0  0.00000000000E+00  0.00000000000E+00 -0.12365869717E+03  0.17102954751E+04  0.17058191987E+04 0.  0.
        5    1    3    3  502    0  0.64120694361E+02  0.71198367570E+03  0.40458000922E+03  0.82142515896E+03  0.46999998093E+01 0.  1.
       -5    1    3    3    0  502 -0.64120694361E+02 -0.71198367570E+03 -0.52823870639E+03  0.88887031610E+03  0.46999998093E+01 0. -1.
</event>
<event>
 5   0  0.1824538E-04  0.1705321E+04  0.7818609E-02  0.8758335E-01
       -1   -1    0    0    0  501  0.00000000000E+00  0.00000000000E+00  0.47878856801E+03  0.47878856804E+03  0.50400001928E-02 0.  1.
        1   -1    0    0  501    0  0.00000000000E+00  0.00000000000E+00 -0.15184778963E+04  0.15184778963E+04  0.50400001928E-02 0. -1.
    10030    2    1    2    0    0  0.00000000000E+00  0.00000000000E+00 -0.10396893283E+04  0.19972664643E+04  0.17053209171E+04 0.  0.
        3    1    3    3  502    0 -0.21836709599E+02  0.32529315975E+02  0.47773378297E+03  0.47933764288E+03  0.10100000352E+00 0.  1.
       -3    1    3    3    0  502  0.21836709599E+02 -0.32529315975E+02 -0.15174231113E+04  0.15179288215E+04  0.10100000352E+00 0. -1.
</event>
<event>
 5   0  0.3574092E-04  0.1700734E+04  0.7818609E-02  0.8760946E-01
        2   -1    0    0  501    0  0.00000000000E+00  0.00000000000E+00  0.10488891327E+04  0.10488891327E+04  0.25500000920E-02 0. -1.
       -2   -1    0    0    0  501  0.00000000000E+00  0.00000000000E+00 -0.68941870055E+03  0.68941870055E+03  0.25500000920E-02 0.  1.
    10030    2    1    2    0    0  0.00000000000E+00  0.00000000000E+00  0.35947043218E+03  0.17383078333E+04  0.17007337039E+04 0.  0.
        3    1    3    3  502    0 -0.12775523342E+03  0.61823744980E+03 -0.40257509092E+03  0.74873604029E+03  0.10100000352E+00 0.  1.
       -3    1    3    3    0  502  0.12775523342E+03 -0.61823744980E+03  0.76204552309E+03  0.98957179299E+03  0.10100000352E+00 0. -1.
</event>
<event>
 5   0  0.3573262E-04  0.1689231E+04  0.7818609E-02  0.8767530E-01
        2   -1    0    0  501    0  0.00000000000E+00  0.00000000000E+00  0.43134172677E+03  0.43134172678E+03  0.25500000920E-02 0. -1.
       -2   -1    0    0    0  501  0.00000000000E+00  0.00000000000E+00 -0.16538524409E+04  0.16538524409E+04  0.25500000920E-02 0.  1.
    10030    2    1    2    0    0  0.00000000000E+00  0.00000000000E+00 -0.12225107141E+04  0.20851941676E+04  0.16892312662E+04 0.  0.
        5    1    3    3  502    0  0.38077090270E+03  0.74890590798E+03 -0.50430338067E+03  0.97989312127E+03  0.46999998093E+01 0.  1.
       -5    1    3    3    0  502 -0.38077090270E+03 -0.74890590798E+03 -0.71820733343E+03  0.11053010464E+04  0.46999998093E+01 0. -1.
</event>
<event>
 5   0  0.1815663E-04  0.1716016E+04  0.7818609E-02  0.8752282E-01
       -1   -1    0    0    0  501  0.00000000000E+00  0.00000000000E+00  0.14947591789E+04  0.14947591789E+04  0.50400001928E-02 0. -1.
        1   -1    0    0  501    0  0.00000000000E+00  0.00000000000E+00 -0.49250611026E+03  0.49250611028E+03  0.50400001928E-02 0.  1.
    10030    2    1    2    0    0  0.00000000000E+00  0.00000000000E+00  0.10022530687E+04  0.19872652892E+04  0.17160163507E+04 0.  0.
        5    1    3    3  502    0  0.32361616389E+03 -0.74419136107E+03  0.17850976988E+03  0.83092480488E+03  0.46999998093E+01 0.  1.
       -5    1    3    3    0  502 -0.32361616389E+03  0.74419136107E+03  0.82374329877E+03  0.11563404843E+04  0.46999998093E+01 0. -1.
</event>
<event>
 5   0  0.3516723E-04  0.1532618E+04  0.7818609E-02  0.8863047E-01
        2   -1    0    0  501    0  0.00000000000E+00  0.00000000000E+00  0.19866036822E+04  0.19866036822E+04  0.25500000920E-02 0.  1.
       -2   -1    0    0    0  501  0.00000000000E+00  0.00000000000E+00 -0.29559468268E+03  0.29559468269E+03  0.25500000920E-02 0. -1.
    10030    2    1    2    0    0  0.00000000000E+00  0.00000000000E+00  0.16910089995E+04  0.22821983649E+04  0.15326180021E+04 0.  0.
        1    1    3    3  502    0  0.40382923261E+03 -0.38320499204E+03  0.16296535256E+04  0.17221192551E+04  0.50400001928E-02 0.  1.
       -1    1    3    3    0  502 -0.40382923261E+03  0.38320499204E+03  0.61355473855E+02  0.56007910980E+03  0.50400001928E-02 0. -1.
</event>
<event>
 5   0  0.1930116E-04  0.1684157E+04  0.7818609E-02  0.8770452E-01
       -1   -1    0    0    0  501  0.00000000000E+00  0.00000000000E+00  0.60320602620E+03  0.60320602622E+03  0.50400001928E-02 0. -1.
        1   -1    0    0  501    0  0.00000000000E+00  0.00000000000E+00 -0.11755458461E+04  0.11755458461E+04  0.50400001928E-02 0.  1.
    10030    2    1    2    0    0  0.00000000000E+00  0.00000000000E+00 -0.57233981987E+03  0.17787518723E+04  0.16841571642E+04 0.  0.
        1    1    3    3  502    0 -0.18614086237E+03 -0.81089510026E+03 -0.14888011659E+03  0.84520090713E+03  0.50400001928E-02 0. -1.
       -1    1    3    3    0  502  0.18614086237E+03  0.81089510026E+03 -0.42345970328E+03  0.93355096518E+03  0.50400001928E-02 0.  1.
</event>
<event>
 5   0  0.3574092E-04  0.1693457E+04  0.7818609E-02  0.8765105E-01
       -2   -1    0    0    0  501  0.00000000000E+00  0.00000000000E+00  0.81201742898E+03  0.81201742899E+03  0.25500000920E-02 0. -1.
        2   -1    0    0  501    0  0.00000000000E+00  0.00000000000E+00 -0.88292320240E+03  0.88292320240E+03  0.25500000920E-02 0.  1.
    10030    2    1    2    0    0  0.00000000000E+00  0.00000000000E+00 -0.70905773417E+02  0.16949406314E+04  0.16934568537E+04 0.  0.
        3    1    3    3  502    0 -0.25645920790E+03 -0.22274953754E+03  0.74082989182E+03  0.81499547275E+03  0.10100000352E+00 0. -1.
       -3    1    3    3    0  502  0.25645920790E+03  0.22274953754E+03 -0.81173566523E+03  0.87994515864E+03  0.10100000352E+00 0.  1.
</event>
<event>
 5   0  0.3605571E-04  0.1694969E+04  0.7818609E-02  0.8764239E-01
       -2   -1    0    0    0  501  0.00000000000E+00  0.00000000000E+00  0.98471939472E+03  0.98471939472E+03  0.25500000920E-02 0.  1.
        2   -1    0    0  501    0  0.00000000000E+00  0.00000000000E+00 -0.72937516305E+03  0.72937516306E+03  0.25500000920E-02 0. -1.
    10030    2    1    2    0    0  0.00000000000E+00  0.00000000000E+00  0.25534423167E+03  0.17140945578E+04  0.16949688718E+04 0.  0.
        4    1    3    3  502    0  0.21210623109E+03  0.47898537517E+03  0.80138161986E+03  0.95740804072E+03  0.12699999809E+01 0.  1.
       -4    1    3    3    0  502 -0.21210623109E+03 -0.47898537517E+03 -0.54603738819E+03  0.75668651706E+03  0.12699999809E+01 0. -1.
</event>
<event>
 5   0  0.3678896E-04  0.1689169E+04  0.7818609E-02  0.8767566E-01
        2   -1    0    0  501    0  0.00000000000E+00  0.00000000000E+00  0.87140778505E+03  0.87140778505E+03  0.25500000920E-02 0.  1.
       -2   -1    0    0    0  501  0.00000000000E+00  0.00000000000E+00 -0.81858677177E+03  0.81858677178E+03  0.25500000920E-02 0. -1.
    10030    2    1    2    0    0  0.00000000000E+00  0.00000000000E+00  0.52821013277E+02  0.16899945568E+04  0.16891688911E+04 0.  0.
        2    1    3    3  502    0  0.43096226207E+03 -0.72517864983E+03 -0.14965967429E+02  0.84370405100E+03  0.25500000920E-02 0.  1.
       -2    1    3    3    0  502 -0.43096226207E+03  0.72517864983E+03  0.67786980707E+02  0.84629050583E+03  0.25500000920E-02 0. -1.
</event>
<event>
 5   0  0.3605571E-04  0.1654245E+04  0.7818609E-02  0.8787899E-01
        2   -1    0    0  501    0  0.00000000000E+00  0.00000000000E+00  0.17631610512E+04  0.17631610512E+04  0.25500000920E-02 0. -1.
       -2   -1    0    0    0  501  0.00000000000E+00  0.00000000000E+00 -0.38801435406E+03  0.38801435407E+03  0.25500000920E-02 0.  1.
    10030    2    1    2    0    0  0.00000000000E+00  0.00000000000E+00  0.13751466972E+04  0.21511754053E+04  0.16542452012E+04 0.  0.
        4    1    3    3  502    0 -0.68240864202E+03  0.14039462044E+03  0.10785589572E+03  0.70500121368E+03  0.12699999809E+01 0.  1.
       -4    1    3    3    0  502  0.68240864202E+03 -0.14039462044E+03  0.12672908015E+04  0.14461741916E+04  0.12699999809E+01 0. -1.
</event>
<event>
 5   0  0.3516723E-04  0.1616234E+04  0.7818609E-02  0.8810637E-01
       -2   -1    0    0    0  501  0.00000000000E+00  0.00000000000E+00  0.33690817319E+03  0.33690817320E+03  0.25500000920E-02 0. -1.
        2   -1    0    0  501    0  0.00000000000E+00  0.00000000000E+00 -0.19383706531E+04  0.19383706531E+04  0.25500000920E-02 0.  1.
    10030    2    1    2    0    0  0.00000000000E+00  0.00000000000E+00 -0.16014624799E+04  0.22752788263E+04  0.16162337897E+04 0.  0.
        1    1    3    3  502    0  0.70516648226E+03 -0.12769029365E+03 -0.13265055853E+04  0.15077074142E+04  0.50400001928E-02 0.  1.
       -1    1    3    3    0  502 -0.70516648226E+03  0.12769029365E+03 -0.27495689455E+03  0.76757141210E+03  0.50400001928E-02 0. -1.
</event>
<event>
 5   0  0.1815663E-04  0.1706843E+04  0.7818609E-02  0.8757471E-01
        1   -1    0    0  501    0  0.00000000000E+00  0.00000000000E+00  0.11070850354E+04  0.11070850354E+04  0.50400001928E-02 0.  1.
       -1   -1    0    0    0  501  0.00000000000E+00  0.00000000000E+00 -0.65787920625E+03  0.65787920627E+03  0.50400001928E-02 0. -1.
    10030    2    1    2    0    0  0.00000000000E+00  0.00000000000E+00  0.44920582915E+03  0.17649642417E+04  0.17068429622E+04 0.  0.
        5    1    3    3  502    0  0.21460319145E+03 -0.13494470926E+03 -0.61803300087E+03  0.66802057191E+03  0.46999998093E+01 0. -1.
       -5    1    3    3    0  502 -0.21460319145E+03  0.13494470926E+03  0.10672388300E+04  0.10969436698E+04  0.46999998093E+01 0.  1.
</event>
<event>
 5   0  0.1930116E-04  0.1694377E+04  0.7818609E-02  0.8764578E-01
       -1   -1    0    0    0  501  0.00000000000E+00  0.00000000000E+00  0.79527555658E+03  0.79527555659E+03  0.50400001928E-02 0. -1.
        1   -1    0    0  501    0  0.00000000000E+00  0.00000000000E+00 -0.90249009870E+03  0.90249009872E+03  0.50400001928E-02 0.  1.
    10030    2    1    2    0    0  0.00000000000E+00  0.00000000000E+00 -0.10721454213E+03  0.16977656553E+04  0.16943769540E+04 0.  0.
        1    1    3    3  502    0  0.24193146373E+03  0.38433978439E+03  0.66300165177E+03  0.80362870362E+03  0.50400001928E-02 0. -1.
       -1    1    3    3    0  502 -0.24193146373E+03 -0.38433978439E+03 -0.77021619390E+03  0.89413695169E+03  0.50400001928E-02 0.  1.
</event>
<event>
 5   0  0.3516723E-04  0.1714680E+04  0.7818609E-02  0.8753036E-01
        2   -1    0    0  501    0  0.00000000000E+00  0.00000000000E+00  0.22794105045E+04  0.22794105045E+04  0.25500000920E-02 0.  1.
       -2   -1    0    0    0  501  0.00000000000E+00  0.00000000000E+00 -0.32246563113E+03  0.32246563114E+03  0.25500000920E-02 0. -1.
    10030    2    1    2    0    0  0.00000000000E+00  0.00000000000E+00  0.19569448734E+04  0.26018761357E+04  0.17146796167E+04 0.  0.
        1    1    3    3  502    0  0.59676509687E+02 -0.46237961967E+03  0.20702454996E+04  0.21220915690E+04  0.50400001928E-02 0.  1.
       -1    1    3    3    0  502 -0.59676509687E+02  0.46237961967E+03 -0.11330062622E+03  0.47978456668E+03  0.50400001928E-02 0. -1.
</event>
<event>
 5   0  0.1893284E-04  0.1704853E+04  0.7818609E-02  0.8758601E-01
       -1   -1    0    0    0  501  0.00000000000E+00  0.00000000000E+00  0.51243155934E+03  0.51243155937E+03  0.50400001928E-02 0. -1.
        1   -1    0    0  501    0  0.00000000000E+00  0.00000000000E+00 -0.14180064085E+04  0.14180064085E+04  0.50400001928E-02 0.  1.
    10030    2    1    2    0    0  0.00000000000E+00  0.00000000000E+00 -0.90557484917E+03  0.19304379679E+04  0.17048533487E+04 0.  0.
        2    1    3    3  502    0  0.52024084039E+03 -0.50214951477E+03 -0.96399728209E+03  0.12050292225E+04  0.25500000920E-02 0.  1.
       -2    1    3    3    0  502 -0.52024084039E+03  0.50214951477E+03  0.58422432922E+02  0.72540874538E+03  0.25500000920E-02 0. -1.
</event>
<event>
 5   0  0.1824538E-04  0.1702091E+04  0.7818609E-02  0.8760173E-01
        1   -1    0    0  501    0  0.00000000000E+00  0.00000000000E+00  0.14262174614E+04  0.14262174614E+04  0.50400001928E-02 0. -1.
       -1   -1    0    0    0  501  0.00000000000E+00  0.00000000000E+00 -0.50783167365E+03  0.50783167367E+03  0.50400001928E-02 0.  1.
    10030    2    1    2    0    0  0.00000000000E+00  0.00000000000E+00  0.91838578771E+03  0.19340491350E+04  0.17020909499E+04 0.  0.
        3    1    3    3  502    0  0.60496524504E+03 -0.58282881779E+03  0.30420014345E+03  0.89342605515E+03  0.10100000352E+00 0.  1.
       -3    1    3    3    0  502 -0.60496524504E+03  0.58282881779E+03  0.61418564426E+03  0.10406230799E+04  0.10100000352E+00 0. -1.
</event>
<event>
 5   0  0.1920289E-04  0.1704349E+04  0.7818609E-02  0.8758888E-01
        1   -1    0    0  501    0  0.00000000000E+00  0.00000000000E+00  0.72626473840E+03  0.72626473842E+03  0.50400001928E-02 0. -1.
       -1   -1    0    0    0  501  0.00000000000E+00  0.00000000000E+00 -0.99991229089E+03  0.99991229090E+03  0.50400001928E-02 0.  1.
    10030    2    1    2    0    0  0.00000000000E+00  0.00000000000E+00 -0.27364755249E+03  0.17261770293E+04  0.17043486010E+04 0.  0.
        4    1    3    3  502    0  0.50456128072E+03  0.29983515765E+03  0.48892096798E+03  0.76389039371E+03  0.12699999809E+01 0. -1.
       -4    1    3    3    0  502 -0.50456128072E+03 -0.29983515765E+03 -0.76256852047E+03  0.96228663561E+03  0.12699999809E+01 0.  1.
</event>
<event>
 5   0  0.3516723E-04  0.1688009E+04  0.7818609E-02  0.8768233E-01
        2   -1    0    0  501    0  0.00000000000E+00  0.00000000000E+00  0.16985680149E+04  0.16985680149E+04  0.25500000920E-02 0. -1.
       -2   -1    0    0    0  501  0.00000000000E+00  0.00000000000E+00 -0.41937897874E+03  0.41937897875E+03  0.25500000920E-02 0.  1.
    10030    2    1    2    0    0  0.00000000000E+00  0.00000000000E+00  0.12791890361E+04  0.21179469936E+04  0.16880091462E+04 0.  0.
        1    1    3    3  502    0  0.20818755656E+03  0.26559645681E+03 -0.33104489442E+03  0.47273064077E+03  0.50400001928E-02 0.  1.
       -1    1    3    3    0  502 -0.20818755656E+03 -0.26559645681E+03  0.16102339306E+04  0.16452163529E+04  0.50400001928E-02 0. -1.
</event>
<event>
 5   0  0.1893284E-04  0.1693675E+04  0.7818609E-02  0.8764980E-01
        1   -1    0    0  501    0  0.00000000000E+00  0.00000000000E+00  0.17753617363E+04  0.17753617363E+04  0.50400001928E-02 0. -1.
       -1   -1    0    0    0  501  0.00000000000E+00  0.00000000000E+00 -0.40393654805E+03  0.40393654808E+03  0.50400001928E-02 0.  1.
    10030    2    1    2    0    0  0.00000000000E+00  0.00000000000E+00  0.13714251883E+04  0.21792982844E+04  0.16936746929E+04 0.  0.
        2    1    3    3  502    0 -0.40971991434E+03  0.68945674025E+03  0.33589182937E+03  0.86950809423E+03  0.25500000920E-02 0. -1.
       -2    1    3    3    0  502  0.40971991434E+03 -0.68945674025E+03  0.10355333589E+04  0.13097901902E+04  0.25500000920E-02 0.  1.
</event>
<event>
 5   0  0.1815663E-04  0.1703456E+04  0.7818609E-02  0.8759396E-01
        1   -1    0    0  501    0  0.00000000000E+00  0.00000000000E+00  0.10967940303E+04  0.10967940303E+04  0.50400001928E-02 0.  1.
       -1   -1    0    0    0  501  0.00000000000E+00  0.00000000000E+00 -0.66141913057E+03  0.66141913059E+03  0.50400001928E-02 0. -1.
    10030    2    1    2    0    0  0.00000000000E+00  0.00000000000E+00  0.43537489975E+03  0.17582131609E+04  0.17034559624E+04 0.  0.
        5    1    3    3  502    0 -0.21806286881E+03  0.70701351945E+03 -0.21777359951E+03  0.77127619053E+03  0.46999998093E+01 0.  1.
       -5    1    3    3    0  502  0.21806286881E+03 -0.70701351945E+03  0.65314849926E+03  0.98693697039E+03  0.46999998093E+01 0. -1.
</event>
<event>
 5   0  0.1815663E-04  0.1697585E+04  0.7818609E-02  0.8762743E-01
       -1   -1    0    0    0  501  0.00000000000E+00  0.00000000000E+00  0.44848535238E+03  0.44848535241E+03  0.50400001928E-02 0.  1.
        1   -1    0    0  501    0  0.00000000000E+00  0.00000000000E+00 -0.16064048312E+04  0.16064048312E+04  0.50400001928E-02 0. -1.
    10030    2    1    2    0    0  0.00000000000E+00  0.00000000000E+00 -0.11579194788E+04  0.20548901836E+04  0.16975853873E+04 0.  0.
        5    1    3    3  502    0 -0.52548783157E+03  0.15985337414E+03  0.20433883965E+03  0.58606058880E+03  0.46999998093E+01 0.  1.
       -5    1    3    3    0  502  0.52548783157E+03 -0.15985337414E+03 -0.13622583184E+04  0.14688295948E+04  0.46999998093E+01 0. -1.
</event>
<event>
 5   0  0.3516723E-04  0.1693653E+04  0.7818609E-02  0.8764993E-01
       -2   -1    0    0    0  501  0.00000000000E+00  0.00000000000E+00  0.92612930591E+03  0.92612930591E+03  0.25500000920E-02 0.  1.
        2   -1    0    0  501    0  0.00000000000E+00  0.00000000000E+00 -0.77431396058E+03  0.77431396058E+03  0.25500000920E-02 0. -1.
    10030    2    1    2    0    0  0.00000000000E+00  0.00000000000E+00  0.15181534533E+03  0.17004432665E+04  0.16936526809E+04 0.  0.
        1    1    3    3  502    0  0.81166983778E+03 -0.64668348162E+02  0.30948810976E+03  0.87107566315E+03  0.50400001928E-02 0.  1.
       -1    1    3    3    0  502 -0.81166983778E+03  0.64668348162E+02 -0.15767276443E+03  0.82936760335E+03  0.50400001928E-02 0. -1.
</event>
<event>
 5   0  0.1815663E-04  0.1700766E+04  0.7818609E-02  0.8760927E-01
        1   -1    0    0  501    0  0.00000000000E+00  0.00000000000E+00  0.18624888927E+04  0.18624888927E+04  0.50400001928E-02 0. -1.
       -1   -1    0    0    0  501  0.00000000000E+00  0.00000000000E+00 -0.38827166256E+03  0.38827166260E+03  0.50400001928E-02 0.  1.
    10030    2    1    2    0    0  0.00000000000E+00  0.00000000000E+00  0.14742172301E+04  0.22507605553E+04  0.17007664847E+04 0.  0.
        5    1    3    3  502    0 -0.55002163536E+03 -0.33456991919E+03  0.18655614290E+01  0.64380618241E+03  0.46999998093E+01 0.  1.
       -5    1    3    3    0  502  0.55002163536E+03  0.33456991919E+03  0.14723516687E+04  0.16069543728E+04  0.46999998093E+01 0. -1.
</event>
<event>
 5   0  0.3678896E-04  0.1705291E+04  0.7818609E-02  0.8758353E-01
        2   -1    0    0  501    0  0.00000000000E+00  0.00000000000E+00  0.12847568809E+04  0.12847568809E+04  0.25500000920E-02 0. -1.
       -2   -1    0    0    0  501  0.00000000000E+00  0.00000000000E+00 -0.56586897697E+03  0.56586897698E+03  0.25500000920E-02 0.  1.
    10030    2    1    2    0    0  0.00000000000E+00  0.00000000000E+00  0.71888790394E+03  0.18506258579E+04  0.17052906636E+04 0.  0.
        2    1    3    3  502    0 -0.75245305557E+03  0.36169766443E+03  0.54738950400E+03  0.99832162672E+03  0.25500000920E-02 0.  1.
       -2    1    3    3    0  502  0.75245305557E+03 -0.36169766443E+03  0.17149839994E+03  0.85230423117E+03  0.25500000920E-02 0. -1.
</event>
<event>
 5   0  0.1893284E-04  0.1683988E+04  0.7818609E-02  0.8770550E-01
        1   -1    0    0  501    0  0.00000000000E+00  0.00000000000E+00  0.38891592972E+03  0.38891592976E+03  0.50400001928E-02 0. -1.
       -1   -1    0    0    0  501  0.00000000000E+00  0.00000000000E+00 -0.18228975773E+04  0.18228975773E+04  0.50400001928E-02 0.  1.
    10030    2    1    2    0    0  0.00000000000E+00  0.00000000000E+00 -0.14339816476E+04  0.22118135071E+04  0.16839880120E+04 0.  0.
        2    1    3    3  502    0  0.97564515449E+02 -0.82205602603E+03 -0.91901686291E+03  0.12368859846E+04  0.25500000920E-02 0.  1.
       -2    1    3    3    0  502 -0.97564515449E+02  0.82205602603E+03 -0.51496478470E+03  0.97492752249E+03  0.25500000920E-02 0. -1.
</event>
<event>
 5   0  0.3573262E-04  0.1717517E+04  0.7818609E-02  0.8751436E-01
        2   -1    0    0  501    0  0.00000000000E+00  0.00000000000E+00  0.20349179448E+04  0.20349179448E+04  0.25500000920E-02 0. -1.
       -2   -1    0    0    0  501  0.00000000000E+00  0.00000000000E+00 -0.36240595987E+03  0.36240595988E+03  0.25500000920E-02 0.  1.
    10030    2    1    2    0    0  0.00000000000E+00  0.00000000000E+00  0.16725119849E+04  0.23973239046E+04  0.17175172675E+04 0.  0.
        5    1    3    3  502    0 -0.25402741097E+03 -0.15985894296E+03  0.19593041111E+04  0.19821653556E+04  0.46999998093E+01 0. -1.
       -5    1    3    3    0  502  0.25402741097E+03  0.15985894296E+03 -0.28679212623E+03  0.41515854903E+03  0.46999998093E+01 0.  1.
</event>
<event>
 5   0  0.3605571E-04  0.1649198E+04  0.7818609E-02  0.8790881E-01
        2   -1    0    0  501    0  0.00000000000E+00  0.00000000000E+00  0.14845825330E+04  0.14845825330E+04  0.25500000920E-02 0.  1.
       -2   -1    0    0    0  501  0.00000000000E+00  0.00000000000E+00 -0.45801671130E+03  0.45801671130E+03  0.25500000920E-02 0. -1.
    10030    2    1    2    0    0  0.00000000000E+00  0.00000000000E+00  0.10265658217E+04  0.19425992443E+04  0.16491981196E+04 0.  0.
        4    1    3    3  502    0  0.38615805615E+03 -0.22751397007E+02 -0.34450906198E+03  0.51799978482E+03  0.12699999809E+01 0. -1.
       -4    1    3    3    0  502 -0.38615805615E+03  0.22751397007E+02  0.13710748837E+04  0.14245994595E+04  0.12699999809E+01 0.  1.
</event>
<event>
 5   0  0.3605571E-04  0.1709462E+04  0.7818609E-02  0.8755986E-01
        2   -1    0    0  501    0  0.00000000000E+00  0.00000000000E+00  0.70021896238E+03  0.70021896239E+03  0.25500000920E-02 0.  1.
       -2   -1    0    0    0  501  0.00000000000E+00  0.00000000000E+00 -0.10433380712E+04  0.10433380712E+04  0.25500000920E-02 0. -1.
    10030    2    1    2    0    0  0.00000000000E+00  0.00000000000E+00 -0.34311910877E+03  0.17435570335E+04  0.17094620225E+04 0.  0.
        4    1    3    3  502    0 -0.78547103362E+03  0.25500589065E+03 -0.39634286351E+03  0.91601420692E+03  0.12699999809E+01 0. -1.
       -4    1    3    3    0  502  0.78547103362E+03 -0.25500589065E+03  0.53223754742E+02  0.82754282662E+03  0.12699999809E+01 0.  1.
</event>
<event>
 5   0  0.1815663E-04  0.1722649E+04  0.7818609E-02  0.8748551E-01
       -1   -1    0    0    0  501  0.00000000000E+00  0.00000000000E+00  0.41728043770E+03  0.41728043773E+03  0.50400001928E-02 0. -1.
        1   -1    0    0  501    0  0.00000000000E+00  0.00000000000E+00 -0.17778935466E+04  0.17778935466E+04  0.50400001928E-02 0.  1.
    10030    2    1    2    0    0  0.00000000000E+00  0.00000000000E+00 -0.13606131089E+04  0.21951739843E+04  0.17226493518E+04 0.  0.
        5    1    3    3  502    0 -0.79625060571E+03 -0.21209995585E+03 -0.99978959740E+03  0.12956090257E+04  0.46999998093E+01 0.  1.
       -5    1    3    3    0  502  0.79625060571E+03  0.21209995585E+03 -0.36082351147E+03  0.89956495863E+03  0.46999998093E+01 0. -1.
</event>
<event>
 5   0  0.1317625E-04  0.1768424E+04  0.7818609E-02  0.8723274E-01
        3   -1    0    0  501    0  0.00000000000E+00  0.00000000000E+00  0.64988583073E+03  0.64988583858E+03  0.10100000352E+00 0.  1.
       -3   -1    0    0    0  501  0.00000000000E+00  0.00000000000E+00 -0.12030286301E+04  0.12030286343E+04  0.10100000352E+00 0. -1.
    10030    2    1    2    0    0  0.00000000000E+00  0.00000000000E+00 -0.55314279934E+03  0.18529144729E+04  0.17684244647E+04 0.  0.
        4    1    3    3  502    0  0.85951226488E+03  0.20372811695E+03 -0.23514536830E+03  0.91409049675E+03  0.12699999809E+01 0. -1.
       -4    1    3    3    0  502 -0.85951226488E+03 -0.20372811695E+03 -0.31799743104E+03  0.93882397614E+03  0.12699999809E+01 0.  1.
</event>
<event>
 5   0  0.1815663E-04  0.1612706E+04  0.7818609E-02  0.8812780E-01
        1   -1    0    0  501    0  0.00000000000E+00  0.00000000000E+00  0.19468512183E+04  0.19468512183E+04  0.50400001928E-02 0. -1.
       -1   -1    0    0    0  501  0.00000000000E+00  0.00000000000E+00 -0.33397785537E+03  0.33397785541E+03  0.50400001928E-02 0.  1.
    10030    2    1    2    0    0  0.00000000000E+00  0.00000000000E+00  0.16128733629E+04  0.22808290737E+04  0.16127060422E+04 0.  0.
        5    1    3    3  502    0 -0.39987446220E+03 -0.31691756335E+03 -0.76611705064E+02  0.51597264543E+03  0.46999998093E+01 0.  1.
       -5    1    3    3    0  502  0.39987446220E+03  0.31691756335E+03  0.16894850680E+04  0.17648564283E+04  0.46999998093E+01 0. -1.
</event>
<event>
 5   0  0.3516723E-04  0.1586660E+04  0.7818609E-02  0.8828786E-01
       -2   -1    0    0    0  501  0.00000000000E+00  0.00000000000E+00  0.64929833693E+03  0.64929833693E+03  0.25500000920E-02 0. -1.
        2   -1    0    0  501    0  0.00000000000E+00  0.00000000000E+00 -0.96931136123E+03  0.96931136124E+03  0.25500000920E-02 0.  1.
    10030    2    1    2    0    0  0.00000000000E+00  0.00000000000E+00 -0.32001302430E+03  0.16186096982E+04  0.15866597049E+04 0.  0.
        1    1    3    3  502    0  0.42114826362E+03  0.54527290120E+03  0.24121188953E+03  0.72998052879E+03  0.50400001928E-02 0. -1.
       -1    1    3    3    0  502 -0.42114826362E+03 -0.54527290120E+03 -0.56122491384E+03  0.88862916938E+03  0.50400001928E-02 0.  1.
</event>
<event>
 5   0  0.3573262E-04  0.1701405E+04  0.7818609E-02  0.8760563E-01
       -2   -1    0    0    0  501  0.00000000000E+00  0.00000000000E+00  0.12698375236E+04  0.12698375236E+04  0.25500000920E-02 0. -1.
        2   -1    0    0  501    0  0.00000000000E+00  0.00000000000E+00 -0.56991148643E+03  0.56991148644E+03  0.25500000920E-02 0.  1.
    10030    2    1    2    0    0  0.00000000000E+00  0.00000000000E+00  0.69992603719E+03  0.18397490101E+04  0.17014052905E+04 0.  0.
        5    1    3    3  502    0  0.70463822665E+03  0.44364812821E+03  0.16163404789E+03  0.84822541081E+03  0.46999998093E+01 0.  1.
       -5    1    3    3    0  502 -0.70463822665E+03 -0.44364812821E+03  0.53829198931E+03  0.99152359925E+03  0.46999998093E+01 0. -1.
</event>
<event>
 5   0  0.1824538E-04  0.1694119E+04  0.7818609E-02  0.8764726E-01
        1   -1    0    0  501    0  0.00000000000E+00  0.00000000000E+00  0.18546091102E+04  0.18546091102E+04  0.50400001928E-02 0.  1.
       -1   -1    0    0    0  501  0.00000000000E+00  0.00000000000E+00 -0.38687917325E+03  0.38687917329E+03  0.50400001928E-02 0. -1.
    10030    2    1    2    0    0  0.00000000000E+00  0.00000000000E+00  0.14677299370E+04  0.22414882835E+04  0.16941188144E+04 0.  0.
        3    1    3    3  502    0  0.62180929428E+03  0.13877014993E+03 -0.47111953932E+01  0.63712334640E+03  0.10100000352E+00 0. -1.
       -3    1    3    3    0  502 -0.62180929428E+03 -0.13877014993E+03  0.14724411324E+04  0.16043649371E+04  0.10100000352E+00 0.  1.
</event>
<event>
 5   0  0.3605571E-04  0.1694353E+04  0.7818609E-02  0.8764592E-01
       -2   -1    0    0    0  501  0.00000000000E+00  0.00000000000E+00  0.96071826893E+03  0.96071826893E+03  0.25500000920E-02 0. -1.
        2   -1    0    0  501    0  0.00000000000E+00  0.00000000000E+00 -0.74705342539E+03  0.74705342540E+03  0.25500000920E-02 0.  1.
    10030    2    1    2    0    0  0.00000000000E+00  0.00000000000E+00  0.21366484354E+03  0.17077716943E+04  0.16943528247E+04 0.  0.
        4    1    3    3  502    0 -0.16300343518E+03  0.92741587118E+02 -0.72586739196E+03  0.74970407860E+03  0.12699999809E+01 0.  1.
       -4    1    3    3    0  502  0.16300343518E+03 -0.92741587118E+02  0.93953223550E+03  0.95806761573E+03  0.12699999809E+01 0. -1.
</event>
<event>
 5   0  0.3516723E-04  0.1705213E+04  0.7818609E-02  0.8758397E-01
       -2   -1    0    0    0  501  0.00000000000E+00  0.00000000000E+00  0.87581172474E+03  0.87581172474E+03  0.25500000920E-02 0. -1.
        2   -1    0    0  501    0  0.00000000000E+00  0.00000000000E+00 -0.83001637788E+03  0.83001637789E+03  0.25500000920E-02 0.  1.
    10030    2    1    2    0    0  0.00000000000E+00  0.00000000000E+00  0.45795346857E+02  0.17058281026E+04  0.17052132717E+04 0.  0.
        1    1    3    3  502    0 -0.33115380543E+03  0.56798488035E+02 -0.76099775760E+03  0.83186927951E+03  0.50400001928E-02 0.  1.
       -1    1    3    3    0  502  0.33115380543E+03 -0.56798488035E+02  0.80679310445E+03  0.87395882312E+03  0.50400001928E-02 0. -1.
</event>
<event>
 5   0  0.1824538E-04  0.1695968E+04  0.7818609E-02  0.8763667E-01
       -1   -1    0    0    0  501  0.00000000000E+00  0.00000000000E+00  0.66922110167E+03  0.66922110169E+03  0.50400001928E-02 0.  1.
        1   -1    0    0  501    0  0.00000000000E+00  0.00000000000E+00 -0.10744981359E+04  0.10744981359E+04  0.50400001928E-02 0. -1.
    10030    2    1    2    0    0  0.00000000000E+00  0.00000000000E+00 -0.40527703423E+03  0.17437192376E+04  0.16959679552E+04 0.  0.
        3    1    3    3  502    0 -0.79375162357E+03  0.98376246444E+02 -0.49227437759E+03  0.93917708597E+03  0.10100000352E+00 0. -1.
       -3    1    3    3    0  502  0.79375162357E+03 -0.98376246444E+02  0.86997343358E+02  0.80454215162E+03  0.10100000352E+00 0.  1.
</event>
<event>
 5   0  0.3574092E-04  0.1684236E+04  0.7818609E-02  0.8770406E-01
       -2   -1    0    0    0  501  0.00000000000E+00  0.00000000000E+00  0.11490714103E+04  0.11490714103E+04  0.25500000920E-02 0.  1.
        2   -1    0    0  501    0  0.00000000000E+00  0.00000000000E+00 -0.61716187171E+03  0.61716187172E+03  0.25500000920E-02 0. -1.
    10030    2    1    2    0    0  0.00000000000E+00  0.00000000000E+00  0.53190953854E+03  0.17662332820E+04  0.16842363994E+04 0.  0.
        3    1    3    3  502    0 -0.44189328734E+03 -0.38318192186E+03 -0.36940029642E+03  0.69177644643E+03  0.10100000352E+00 0. -1.
       -3    1    3    3    0  502  0.44189328734E+03  0.38318192186E+03  0.90130983497E+03  0.10744568355E+04  0.10100000352E+00 0.  1.
</event>
<event>
 5   0  0.1824538E-04  0.1614081E+04  0.7818609E-02  0.8811944E-01
       -1   -1    0    0    0  501  0.00000000000E+00  0.00000000000E+00  0.62603595597E+03  0.62603595599E+03  0.50400001928E-02 0. -1.
        1   -1    0    0  501    0  0.00000000000E+00  0.00000000000E+00 -0.10403791188E+04  0.10403791188E+04  0.50400001928E-02 0.  1.
    10030    2    1    2    0    0  0.00000000000E+00  0.00000000000E+00 -0.41434316285E+03  0.16664150748E+04  0.16140814555E+04 0.  0.
        3    1    3    3  502    0 -0.44720778407E+03 -0.56679204757E+03 -0.57951252635E+03  0.92578766773E+03  0.10100000352E+00 0.  1.
       -3    1    3    3    0  502  0.44720778407E+03  0.56679204757E+03  0.16516936350E+03  0.74062740710E+03  0.10100000352E+00 0. -1.
</event>
<event>
 5   0  0.1815663E-04  0.1695761E+04  0.7818609E-02  0.8763785E-01
        1   -1    0    0  501    0  0.00000000000E+00  0.00000000000E+00  0.10989779406E+04  0.10989779407E+04  0.50400001928E-02 0. -1.
       -1   -1    0    0    0  501  0.00000000000E+00  0.00000000000E+00 -0.65415483227E+03  0.65415483229E+03  0.50400001928E-02 0.  1.
    10030    2    1    2    0    0  0.00000000000E+00  0.00000000000E+00  0.44482310838E+03  0.17531327729E+04  0.16957614578E+04 0.  0.
        5    1    3    3  502    0 -0.17541075057E+03  0.62491813144E+03  0.78638386674E+03  0.10196633161E+04  0.46999998093E+01 0. -1.
       -5    1    3    3    0  502  0.17541075057E+03 -0.62491813144E+03 -0.34156075836E+03  0.73346945680E+03  0.46999998093E+01 0.  1.
</event>
<event>
 5   0  0.1930116E-04  0.1701860E+04  0.7818609E-02  0.8760304E-01
        1   -1    0    0  501    0  0.00000000000E+00  0.00000000000E+00  0.50391080923E+03  0.50391080926E+03  0.50400001928E-02 0.  1.
       -1   -1    0    0    0  501  0.00000000000E+00  0.00000000000E+00 -0.14369247144E+04  0.14369247144E+04  0.50400001928E-02 0. -1.
    10030    2    1    2    0    0  0.00000000000E+00  0.00000000000E+00 -0.93301390516E+03  0.19408355237E+04  0.17018600362E+04 0.  0.
        1    1    3    3  502    0  0.58944561516E+02 -0.69055449600E+03 -0.10295349723E+04  0.12410810741E+04  0.50400001928E-02 0. -1.
       -1    1    3    3    0  502 -0.58944561516E+02  0.69055449600E+03  0.96521067107E+02  0.69975444958E+03  0.50400001928E-02 0.  1.
</event>
<event>
 5   0  0.1930116E-04  0.1727875E+04  0.7818609E-02  0.8745624E-01
        1   -1    0    0  501    0  0.00000000000E+00  0.00000000000E+00  0.15777601044E+04  0.15777601044E+04  0.50400001928E-02 0.  1.
       -1   -1    0    0    0  501  0.00000000000E+00  0.00000000000E+00 -0.47306795878E+03  0.47306795881E+03  0.50400001928E-02 0. -1.
    10030    2    1    2    0    0  0.00000000000E+00  0.00000000000E+00  0.11046921456E+04  0.20508280632E+04  0.17278747085E+04 0.  0.
        1    1    3    3  502    0 -0.24622870387E+03  0.80375914375E+03  0.31576578189E+03  0.89797848794E+03  0.50400001928E-02 0.  1.
       -1    1    3    3    0  502  0.24622870387E+03 -0.80375914375E+03  0.78892636372E+03  0.11528495753E+04  0.50400001928E-02 0. -1.
</event>
<event>
 5   0  0.3574092E-04  0.1698857E+04  0.7818609E-02  0.8762016E-01
       -2   -1    0    0    0  501  0.00000000000E+00  0.00000000000E+00  0.39406666617E+03  0.39406666618E+03  0.25500000920E-02 0. -1.
        2   -1    0    0  501    0  0.00000000000E+00  0.00000000000E+00 -0.18309824801E+04  0.18309824801E+04  0.25500000920E-02 0.  1.
    10030    2    1    2    0    0  0.00000000000E+00  0.00000000000E+00 -0.14369158139E+04  0.22250491463E+04  0.16988574534E+04 0.  0.
        3    1    3    3  502    0 -0.59289558372E+02 -0.20789433524E+02  0.39101919951E+03  0.39603469149E+03  0.10100000352E+00 0. -1.
       -3    1    3    3    0  502  0.59289558372E+02  0.20789433524E+02 -0.18279350135E+04  0.18290144548E+04  0.10100000352E+00 0.  1.
</event>
<event>
 5   0  0.1930116E-04  0.1686018E+04  0.7818609E-02  0.8769379E-01
        1   -1    0    0  501    0  0.00000000000E+00  0.00000000000E+00  0.12195337207E+04  0.12195337207E+04  0.50400001928E-02 0. -1.
       -1   -1    0    0    0  501  0.00000000000E+00  0.00000000000E+00 -0.58273413304E+03  0.58273413306E+03  0.50400001928E-02 0.  1.
    10030    2    1    2    0    0  0.00000000000E+00  0.00000000000E+00  0.63679958763E+03  0.18022678537E+04  0.16860177051E+04 0.  0.
        1    1    3    3  502    0  0.24137015887E+03  0.16532494139E+03 -0.52672771956E+03  0.60252301235E+03  0.50400001928E-02 0.  1.
       -1    1    3    3    0  502 -0.24137015887E+03 -0.16532494139E+03  0.11635273072E+04  0.11997448414E+04  0.50400001928E-02 0. -1.
</event>
<event>
 5   0  0.1893284E-04  0.1690952E+04  0.7818609E-02  0.8766542E-01
        1   -1    0    0  501    0  0.00000000000E+00  0.00000000000E+00  0.54590576474E+03  0.54590576477E+03  0.50400001928E-02 0. -1.
       -1   -1    0    0    0  501  0.00000000000E+00  0.00000000000E+00 -0.13094380046E+04  0.13094380047E+04  0.50400001928E-02 0.  1.
    10030    2    1    2    0    0  0.00000000000E+00  0.00000000000E+00 -0.76353223990E+03  0.18553437694E+04  0.16909521050E+04 0.  0.
        2    1    3    3  502    0 -0.62814338080E+03  0.52767606380E+03 -0.60615632448E+03  0.10200155023E+04  0.25500000920E-02 0. -1.
       -2    1    3    3    0  502  0.62814338080E+03 -0.52767606380E+03 -0.15737591542E+03  0.83532826716E+03  0.25500000920E-02 0.  1.
</event>
<event>
 5   0  0.1815663E-04  0.1705304E+04  0.7818609E-02  0.8758345E-01
       -1   -1    0    0    0  501  0.00000000000E+00  0.00000000000E+00  0.58573716166E+03  0.58573716168E+03  0.50400001928E-02 0. -1.
        1   -1    0    0  501    0  0.00000000000E+00  0.00000000000E+00 -0.12411979167E+04  0.12411979167E+04  0.50400001928E-02 0.  1.
    10030    2    1    2    0    0  0.00000000000E+00  0.00000000000E+00 -0.65546075500E+03  0.18269350784E+04  0.17053043656E+04 0.  0.
        5    1    3    3  502    0 -0.13321122381E+03  0.35984112882E+03 -0.11434602724E+04  0.12061319798E+04  0.46999998093E+01 0.  1.
       -5    1    3    3    0  502  0.13321122381E+03 -0.35984112882E+03  0.48799951743E+03  0.62080309853E+03  0.46999998093E+01 0. -1.
</event>
<event>
 5   0  0.3516723E-04  0.1708080E+04  0.7818609E-02  0.8756769E-01
        2   -1    0    0  501    0  0.00000000000E+00  0.00000000000E+00  0.23984538818E+04  0.23984538818E+04  0.25500000920E-02 0. -1.
       -2   -1    0    0    0  501  0.00000000000E+00  0.00000000000E+00 -0.30410616417E+03  0.30410616418E+03  0.25500000920E-02 0.  1.
    10030    2    1    2    0    0  0.00000000000E+00  0.00000000000E+00  0.20943477177E+04  0.27025600460E+04  0.17080803376E+04 0.  0.
        1    1    3    3  502    0 -0.32046950331E+03  0.33309096540E+03  0.21834400204E+04  0.22318289846E+04  0.50400001928E-02 0. -1.
       -1    1    3    3    0  502  0.32046950331E+03 -0.33309096540E+03 -0.89092302708E+02  0.47073106144E+03  0.50400001928E-02 0.  1.
</event>
<event>
 5   0  0.3574092E-04  0.1736672E+04  0.7818609E-02  0.8740721E-01
        2   -1    0    0  501    0  0.00000000000E+00  0.00000000000E+00  0.68661718899E+03  0.68661718899E+03  0.25500000920E-02 0. -1.
       -2   -1    0    0    0  501  0.00000000000E+00  0.00000000000E+00 -0.10981484657E+04  0.10981484657E+04  0.25500000920E-02 0.  1.
    10030    2    1    2    0    0  0.00000000000E+00  0.00000000000E+00 -0.41153127672E+03  0.17847656547E+04  0.17366722346E+04 0.  0.
        3    1    3    3  502    0  0.21853893966E+03  0.69442919995E+03 -0.69217650170E+03  0.10045394475E+04  0.10100000352E+00 0.  1.
       -3    1    3    3    0  502 -0.21853893966E+03 -0.69442919995E+03  0.28064522498E+03  0.78022620719E+03  0.10100000352E+00 0. -1.
</event>
<event>
 5   0  0.1920289E-04  0.1666429E+04  0.7818609E-02  0.8780746E-01
       -1   -1    0    0    0  501  0.00000000000E+00  0.00000000000E+00  0.84425052795E+03  0.84425052797E+03  0.50400001928E-02 0.  1.
        1   -1    0    0  501    0  0.00000000000E+00  0.00000000000E+00 -0.82232237798E+03  0.82232237800E+03  0.50400001928E-02 0. -1.
    10030    2    1    2    0    0  0.00000000000E+00  0.00000000000E+00  0.21928149974E+02  0.16665729060E+04  0.16664286385E+04 0.  0.
        4    1    3    3  502    0 -0.47013379245E+01  0.76100066863E+03 -0.32832974849E+03  0.82882215033E+03  0.12699999809E+01 0. -1.
       -4    1    3    3    0  502  0.47013379245E+01 -0.76100066863E+03  0.35025789846E+03  0.83775075564E+03  0.12699999809E+01 0.  1.
</event>
<event>
 5   0  0.1893284E-04  0.1691706E+04  0.7818609E-02  0.8766109E-01
        1   -1    0    0  501    0  0.00000000000E+00  0.00000000000E+00  0.11633851186E+04  0.11633851186E+04  0.50400001928E-02 0. -1.
       -1   -1    0    0    0  501  0.00000000000E+00  0.00000000000E+00 -0.61498753871E+03  0.61498753873E+03  0.50400001928E-02 0.  1.
    10030    2    1    2    0    0  0.00000000000E+00  0.00000000000E+00  0.54839757984E+03  0.17783726573E+04  0.16917060627E+04 0.  0.
        2    1    3    3  502    0  0.81474207685E+03  0.12481929914E+03  0.47388507224E+03  0.95076367775E+03  0.25500000920E-02 0. -1.
       -2    1    3    3    0  502 -0.81474207685E+03 -0.12481929914E+03  0.74512507601E+02  0.82760897954E+03  0.25500000920E-02 0.  1.
</event>
<event>
 5   0  0.1920289E-04  0.1712996E+04  0.7818609E-02  0.8753987E-01
       -1   -1    0    0    0  501  0.00000000000E+00  0.00000000000E+00  0.70239990211E+03  0.70239990213E+03  0.50400001928E-02 0.  1.
        1   -1    0    0  501    0  0.00000000000E+00  0.00000000000E+00 -0.10444039648E+04  0.10444039649E+04  0.50400001928E-02 0. -1.
    10030    2    1    2    0    0  0.00000000000E+00  0.00000000000E+00 -0.34200406273E+03  0.17468038670E+04  0.17129964888E+04 0.  0.
        4    1    3    3  502    0  0.33380667867E+03 -0.77340895561E+03 -0.13027481657E+02  0.84247233754E+03  0.12699999809E+01 0.  1.
       -4    1    3    3    0  502 -0.33380667867E+03  0.77340895561E+03 -0.32897658107E+03  0.90433152944E+03  0.12699999809E+01 0. -1.
</event>
<event>
 5   0  0.1824538E-04  0.1673763E+04  0.7818609E-02  0.8776471E-01
       -1   -1    0    0    0  501  0.00000000000E+00  0.00000000000E+00  0.52605816988E+03  0.52605816991E+03  0.50400001928E-02 0.  1.
        1   -1    0    0  501    0  0.00000000000E+00  0.00000000000E+00 -0.13313561806E+04  0.13313561806E+04  0.50400001928E-02 0. -1.
    10030    2    1    2    0    0  0.00000000000E+00  0.00000000000E+00 -0.80529801074E+03  0.18574143505E+04  0.16737631802E+04 0.  0.
        3    1    3    3  502    0 -0.37447524711E+03  0.74832933191E+03 -0.38941181432E+03  0.92296807693E+03  0.10100000352E+00 0. -1.
       -3    1    3    3    0  502  0.37447524711E+03 -0.74832933191E+03 -0.41588619642E+03  0.93444627361E+03  0.10100000352E+00 0.  1.
</event>
<event>
 5   0  0.1317625E-04  0.1693591E+04  0.7818609E-02  0.8765028E-01
       -3   -1    0    0    0  501  0.00000000000E+00  0.00000000000E+00  0.47290256750E+03  0.47290257828E+03  0.10100000352E+00 0.  1.
        3   -1    0    0  501    0  0.00000000000E+00  0.00000000000E+00 -0.15163010328E+04  0.15163010361E+04  0.10100000352E+00 0. -1.
    10030    2    1    2    0    0  0.00000000000E+00  0.00000000000E+00 -0.10433984653E+04  0.19892036144E+04  0.16935910552E+04 0.  0.
        5    1    3    3  502    0  0.45817084878E+03  0.70617280978E+03 -0.62960439212E+03  0.10512013815E+04  0.46999998093E+01 0. -1.
       -5    1    3    3    0  502 -0.45817084878E+03 -0.70617280978E+03 -0.41379407314E+03  0.93800223289E+03  0.46999998093E+01 0.  1.
</event>
<event>
 5   0  0.1930116E-04  0.1746470E+04  0.7818609E-02  0.8735296E-01
        1   -1    0    0  501    0  0.00000000000E+00  0.00000000000E+00  0.56898447875E+03  0.56898447877E+03  0.50400001928E-02 0.  1.
       -1   -1    0    0    0  501  0.00000000000E+00  0.00000000000E+00 -0.13401762286E+04  0.13401762286E+04  0.50400001928E-02 0. -1.
    10030    2    1    2    0    0  0.00000000000E+00  0.00000000000E+00 -0.77119174983E+03  0.19091607074E+04  0.17464701233E+04 0.  0.
        1    1    3    3  502    0  0.75002016582E+03  0.34017203654E+03 -0.68219171157E+02  0.82637831465E+03  0.50400001928E-02 0.  1.
       -1    1    3    3    0  502 -0.75002016582E+03 -0.34017203654E+03 -0.70297257867E+03  0.10827823927E+04  0.50400001928E-02 0. -1.
</event>
<event>
 5   0  0.3605571E-04  0.1687352E+04  0.7818609E-02  0.8768611E-01
        2   -1    0    0  501    0  0.00000000000E+00  0.00000000000E+00  0.78833341012E+03  0.78833341012E+03  0.25500000920E-02 0. -1.
       -2   -1    0    0    0  501  0.00000000000E+00  0.00000000000E+00 -0.90290404033E+03  0.90290404033E+03  0.25500000920E-02 0.  1.
    10030    2    1    2    0    0  0.00000000000E+00  0.00000000000E+00 -0.11457063021E+03  0.16912374505E+04  0.16873522704E+04 0.  0.
        4    1    3    3  502    0  0.14214551601E+03  0.82970701148E+03 -0.86417872820E+00  0.84179655043E+03  0.12699999809E+01 0.  1.
       -4    1    3    3    0  502 -0.14214551601E+03 -0.82970701148E+03 -0.11370645148E+03  0.84944090002E+03  0.12699999809E+01 0. -1.
</event>
<event>
 5   0  0.3605571E-04  0.1835083E+04  0.7818609E-02  0.8687862E-01
       -2   -1    0    0    0  501  0.00000000000E+00  0.00000000000E+00  0.13088360318E+04  0.13088360318E+04  0.25500000920E-02 0. -1.
        2   -1    0    0  501    0  0.00000000000E+00  0.00000000000E+00 -0.64323006261E+03  0.64323006262E+03  0.25500000920E-02 0.  1.
    10030    2    1    2    0    0  0.00000000000E+00  0.00000000000E+00  0.66560596916E+03  0.19520660944E+04  0.18350833035E+04 0.  0.
        4    1    3    3  502    0 -0.89445222989E+03  0.18663445805E+03  0.24377892829E+03  0.94567805900E+03  0.12699999809E+01 0.  1.
       -4    1    3    3    0  502  0.89445222989E+03 -0.18663445805E+03  0.42182704087E+03  0.10063880354E+04  0.12699999809E+01 0. -1.
</event>
<event>
 5   0  0.1930116E-04  0.1716847E+04  0.7818609E-02  0.8751814E-01
       -1   -1    0    0    0  501  0.00000000000E+00  0.00000000000E+00  0.68684920741E+03  0.68684920743E+03  0.50400001928E-02 0.  1.
        1   -1    0    0  501    0  0.00000000000E+00  0.00000000000E+00 -0.10728563418E+04  0.10728563418E+04  0.50400001928E-02 0. -1.
    10030    2    1    2    0    0  0.00000000000E+00  0.00000000000E+00 -0.38600713436E+03  0.17597055492E+04  0.17168465605E+04 0.  0.
        1    1    3    3  502    0  0.30362161742E+03  0.32935785466E+03 -0.94355974139E+03  0.10444939773E+04  0.50400001928E-02 0. -1.
       -1    1    3    3    0  502 -0.30362161742E+03 -0.32935785466E+03  0.55755260703E+03  0.71521157193E+03  0.50400001928E-02 0.  1.
</event>
<event>
 5   0  0.1920289E-04  0.1711901E+04  0.7818609E-02  0.8754606E-01
        1   -1    0    0  501    0  0.00000000000E+00  0.00000000000E+00  0.87547430409E+03  0.87547430410E+03  0.50400001928E-02 0. -1.
       -1   -1    0    0    0  501  0.00000000000E+00  0.00000000000E+00 -0.83686228314E+03  0.83686228316E+03  0.50400001928E-02 0.  1.
    10030    2    1    2    0    0  0.00000000000E+00  0.00000000000E+00  0.38612020945E+02  0.17123365873E+04  0.17119011945E+04 0.  0.
        4    1    3    3  502    0  0.54934274029E+03 -0.53564108751E+03 -0.36021240603E+03  0.84761041245E+03  0.12699999809E+01 0.  1.
       -4    1    3    3    0  502 -0.54934274029E+03  0.53564108751E+03  0.39882442698E+03  0.86472617480E+03  0.12699999809E+01 0. -1.
</event>
<event>
 5   0  0.3605571E-04  0.1662885E+04  0.7818609E-02  0.8782820E-01
        2   -1    0    0  501    0  0.00000000000E+00  0.00000000000E+00  0.88652201725E+03  0.88652201726E+03  0.25500000920E-02 0.  1.
       -2   -1    0    0    0  501  0.00000000000E+00  0.00000000000E+00 -0.77978545805E+03  0.77978545805E+03  0.25500000920E-02 0. -1.
    10030    2    1    2    0    0  0.00000000000E+00  0.00000000000E+00  0.10673655921E+03  0.16663074753E+04  0.16628854167E+04 0.  0.
        4    1    3    3  502    0  0.20106444131E+03  0.76882268824E+03  0.29837118894E+03  0.84884758043E+03  0.12699999809E+01 0.  1.
       -4    1    3    3    0  502 -0.20106444131E+03 -0.76882268824E+03 -0.19163462973E+03  0.81745989487E+03  0.12699999809E+01 0. -1.
</event>
<event>
 5   0  0.3605571E-04  0.1722959E+04  0.7818609E-02  0.8748377E-01
        2   -1    0    0  501    0  0.00000000000E+00  0.00000000000E+00  0.19428654392E+04  0.19428654392E+04  0.25500000920E-02 0. -1.
       -2   -1    0    0    0  501  0.00000000000E+00  0.00000000000E+00 -0.38198559436E+03  0.38198559437E+03  0.25500000920E-02 0.  1.
    10030    2    1    2    0    0  0.00000000000E+00  0.00000000000E+00  0.15608798448E+04  0.23248510336E+04  0.17229586293E+04 0.  0.
        4    1    3    3  502    0 -0.40160853430E+03  0.47372785262E+03 -0.25146202420E+02  0.62156370354E+03  0.12699999809E+01 0.  1.
       -4    1    3    3    0  502  0.40160853430E+03 -0.47372785262E+03  0.15860260472E+04  0.17032873300E+04  0.12699999809E+01 0. -1.
</event>
<event>
 5   0  0.3573262E-04  0.1695580E+04  0.7818609E-02  0.8763889E-01
        2   -1    0    0  501    0  0.00000000000E+00  0.00000000000E+00  0.72038523807E+03  0.72038523808E+03  0.25500000920E-02 0.  1.
       -2   -1    0    0    0  501  0.00000000000E+00  0.00000000000E+00 -0.99772671046E+03  0.99772671046E+03  0.25500000920E-02 0. -1.
    10030    2    1    2    0    0  0.00000000000E+00  0.00000000000E+00 -0.27734147239E+03  0.17181119485E+04  0.16955796576E+04 0.  0.
        5    1    3    3  502    0  0.62010465400E+02 -0.76848972631E+03 -0.49592331297E+03  0.91672448402E+03  0.46999998093E+01 0.  1.
       -5    1    3    3    0  502 -0.62010465400E+02  0.76848972631E+03  0.21858184059E+03  0.80138746452E+03  0.46999998093E+01 0. -1.
</event>
<event>
 5   0  0.3516723E-04  0.1689408E+04  0.7818609E-02  0.8767429E-01
        2   -1    0    0  501    0  0.00000000000E+00  0.00000000000E+00  0.13562644660E+04  0.13562644660E+04  0.25500000920E-02 0.  1.
       -2   -1    0    0    0  501  0.00000000000E+00  0.00000000000E+00 -0.52609552706E+03  0.52609552706E+03  0.25500000920E-02 0. -1.
    10030    2    1    2    0    0  0.00000000000E+00  0.00000000000E+00  0.83016893895E+03  0.18823599931E+04  0.16894077886E+04 0.  0.
        1    1    3    3  502    0  0.22972925529E+03 -0.36836706084E+03 -0.39228166335E+03  0.58511086614E+03  0.50400001928E-02 0. -1.
       -1    1    3    3    0  502 -0.22972925529E+03  0.36836706084E+03  0.12224506023E+04  0.12972491269E+04  0.50400001928E-02 0.  1.
</event>
<event>
 5   0  0.1815663E-04  0.1685297E+04  0.7818609E-02  0.8769795E-01
        1   -1    0    0  501    0  0.00000000000E+00  0.00000000000E+00  0.73660927253E+03  0.73660927255E+03  0.50400001928E-02 0. -1.
       -1   -1    0    0    0  501  0.00000000000E+00  0.00000000000E+00 -0.96395256058E+03  0.96395256059E+03  0.50400001928E-02 0.  1.
    10030    2    1    2    0    0  0.00000000000E+00  0.00000000000E+00 -0.22734328804E+03  0.17005618331E+04  0.16852968812E+04 0.  0.
        5    1    3    3  502    0 -0.41367673737E+03  0.73387376966E+03 -0.95198676989E+02  0.84781131800E+03  0.46999998093E+01 0.  1.
       -5    1    3    3    0  502  0.41367673737E+03 -0.73387376966E+03 -0.13214461106E+03  0.85275051514E+03  0.46999998093E+01 0. -1.
</event>
<event>
 5   0  0.3573262E-04  0.1749055E+04  0.7818609E-02  0.8733871E-01
        2   -1    0    0  501    0  0.00000000000E+00  0.00000000000E+00  0.12348933348E+04  0.12348933348E+04  0.25500000920E-02 0. -1.
       -2   -1    0    0    0  501  0.00000000000E+00  0.00000000000E+00 -0.61932307745E+03  0.61932307745E+03  0.25500000920E-02 0.  1.
    10030    2    1    2    0    0  0.00000000000E+00  0.00000000000E+00  0.61557025739E+03  0.18542164123E+04  0.17490545337E+04 0.  0.
        5    1    3    3  502    0 -0.68289506292E+03 -0.53690631322E+03  0.20091846023E+03  0.89163017771E+03  0.46999998093E+01 0.  1.
       -5    1    3    3    0  502  0.68289506292E+03  0.53690631322E+03  0.41465179715E+03  0.96258623459E+03  0.46999998093E+01 0. -1.
</event>
<event>
 5   0  0.1893284E-04  0.1696860E+04  0.7818609E-02  0.8763157E-01
        1   -1    0    0  501    0  0.00000000000E+00  0.00000000000E+00  0.83671671756E+03  0.83671671758E+03  0.50400001928E-02 0. -1.
       -1   -1    0    0    0  501  0.00000000000E+00  0.00000000000E+00 -0.86030770128E+03  0.86030770130E+03  0.50400001928E-02 0.  1.
    10030    2    1    2    0    0  0.00000000000E+00  0.00000000000E+00 -0.23590983722E+02  0.16970244189E+04  0.16968604373E+04 0.  0.
        2    1    3    3  502    0 -0.10148385461E+03  0.77605364062E+03 -0.33935669975E+03  0.85306576273E+03  0.25500000920E-02 0.  1.
       -2    1    3    3    0  502  0.10148385461E+03 -0.77605364062E+03  0.31576571603E+03  0.84395865615E+03  0.25500000920E-02 0. -1.
</event>
<event>
 5   0  0.3573262E-04  0.1696377E+04  0.7818609E-02  0.8763433E-01
        2   -1    0    0  501    0  0.00000000000E+00  0.00000000000E+00  0.11364548546E+04  0.11364548546E+04  0.25500000920E-02 0.  1.
       -2   -1    0    0    0  501  0.00000000000E+00  0.00000000000E+00 -0.63304218209E+03  0.63304218209E+03  0.25500000920E-02 0. -1.
    10030    2    1    2    0    0  0.00000000000E+00  0.00000000000E+00  0.50341267255E+03  0.17694970367E+04  0.16963771527E+04 0.  0.
        5    1    3    3  502    0  0.12268423127E+03  0.83900786961E+03  0.23042740321E+03  0.87869477296E+03  0.46999998093E+01 0. -1.
       -5    1    3    3    0  502 -0.12268423127E+03 -0.83900786961E+03  0.27298526933E+03  0.89080226377E+03  0.46999998093E+01 0.  1.
</event>
<event>
 5   0  0.1824538E-04  0.1679014E+04  0.7818609E-02  0.8773425E-01
       -1   -1    0    0    0  501  0.00000000000E+00  0.00000000000E+00  0.56552431688E+03  0.56552431690E+03  0.50400001928E-02 0. -1.
        1   -1    0    0  501    0  0.00000000000E+00  0.00000000000E+00 -0.12462273612E+04  0.12462273612E+04  0.50400001928E-02 0.  1.
    10030    2    1    2    0    0  0.00000000000E+00  0.00000000000E+00 -0.68070304427E+03  0.18117516781E+04  0.16790138500E+04 0.  0.
        3    1    3    3  502    0 -0.47260747410E+03 -0.10851485717E+03 -0.10798312475E+04  0.11837097753E+04  0.10100000352E+00 0.  1.
       -3    1    3    3    0  502  0.47260747410E+03  0.10851485717E+03  0.39912820325E+03  0.62804190277E+03  0.10100000352E+00 0. -1.
</event>
<event>
 5   0  0.1920289E-04  0.1691577E+04  0.7818609E-02  0.8766183E-01
        1   -1    0    0  501    0  0.00000000000E+00  0.00000000000E+00  0.92070215199E+03  0.92070215200E+03  0.50400001928E-02 0.  1.
       -1   -1    0    0    0  501  0.00000000000E+00  0.00000000000E+00 -0.77697052231E+03  0.77697052232E+03  0.50400001928E-02 0. -1.
    10030    2    1    2    0    0  0.00000000000E+00  0.00000000000E+00  0.14373162968E+03  0.16976726743E+04  0.16915772899E+04 0.  0.
        4    1    3    3  502    0 -0.67837831974E+03 -0.60634435265E+02 -0.43142215462E+03  0.80622600294E+03  0.12699999809E+01 0. -1.
       -4    1    3    3    0  502  0.67837831974E+03  0.60634435265E+02  0.57515378430E+03  0.89144667138E+03  0.12699999809E+01 0.  1.
</event>
<event>
 5   0  0.1824538E-04  0.1726635E+04  0.7818609E-02  0.8746318E-01
        1   -1    0    0  501    0  0.00000000000E+00  0.00000000000E+00  0.14724404513E+04  0.14724404513E+04  0.50400001928E-02 0.  1.
       -1   -1    0    0    0  501  0.00000000000E+00  0.00000000000E+00 -0.50617816516E+03  0.50617816519E+03  0.50400001928E-02 0. -1.
    10030    2    1    2    0    0  0.00000000000E+00  0.00000000000E+00  0.96626228609E+03  0.19786186164E+04  0.17266351160E+04 0.  0.
        3    1    3    3  502    0  0.40839799991E+03 -0.99402682098E+02 -0.38100673374E+03  0.56730587948E+03  0.10100000352E+00 0. -1.
       -3    1    3    3    0  502 -0.40839799991E+03  0.99402682098E+02  0.13472690198E+04  0.14113127370E+04  0.10100000352E+00 0.  1.
</event>
<event>
 5   0  0.1824538E-04  0.1707587E+04  0.7818609E-02  0.8757049E-01
       -1   -1    0    0    0  501  0.00000000000E+00  0.00000000000E+00  0.28171072161E+03  0.28171072165E+03  0.50400001928E-02 0.  1.
        1   -1    0    0  501    0  0.00000000000E+00  0.00000000000E+00 -0.25876322286E+04  0.25876322286E+04  0.50400001928E-02 0. -1.
    10030    2    1    2    0    0  0.00000000000E+00  0.00000000000E+00 -0.23059215070E+04  0.28693429503E+04  0.17075874706E+04 0.  0.
        3    1    3    3  502    0  0.67680676445E+03 -0.11900210112E+03 -0.20043769358E+04  0.21189043884E+04  0.10100000352E+00 0. -1.
       -3    1    3    3    0  502 -0.67680676445E+03  0.11900210112E+03 -0.30154457127E+03  0.75043856187E+03  0.10100000352E+00 0.  1.
</event>
<event>
 5   0  0.3678896E-04  0.1727822E+04  0.7818609E-02  0.8745654E-01
       -2   -1    0    0    0  501  0.00000000000E+00  0.00000000000E+00  0.36166076277E+03  0.36166076278E+03  0.25500000920E-02 0. -1.
        2   -1    0    0  501    0  0.00000000000E+00  0.00000000000E+00 -0.20636516552E+04  0.20636516552E+04  0.25500000920E-02 0.  1.
    10030    2    1    2    0    0  0.00000000000E+00  0.00000000000E+00 -0.17019908924E+04  0.24253124180E+04  0.17278215553E+04 0.  0.
        2    1    3    3  502    0 -0.23896370124E+03  0.82224168067E+03 -0.68998875118E+03  0.10996679084E+04  0.25500000920E-02 0. -1.
       -2    1    3    3    0  502  0.23896370124E+03 -0.82224168067E+03 -0.10120021413E+04  0.13256445096E+04  0.25500000920E-02 0.  1.
</event>
<event>
 5   0  0.1815663E-04  0.1699088E+04  0.7818609E-02  0.8761885E-01
        1   -1    0    0  501    0  0.00000000000E+00  0.00000000000E+00  0.12000872898E+04  0.12000872898E+04  0.50400001928E-02 0. -1.
       -1   -1    0    0    0  501  0.00000000000E+00  0.00000000000E+00 -0.60139349060E+03  0.60139349062E+03  0.50400001928E-02 0.  1.
    10030    2    1    2    0    0  0.00000000000E+00  0.00000000000E+00  0.59869379920E+03  0.18014807804E+04  0.16990876190E+04 0.  0.
        5    1    3    3  502    0 -0.49549591525E+03 -0.16292808539E+03 -0.41161565695E+03  0.66446316834E+03  0.46999998093E+01 0.  1.
       -5    1    3    3    0  502  0.49549591525E+03  0.16292808539E+03  0.10103094561E+04  0.11370176121E+04  0.46999998093E+01 0. -1.
</event>
<event>
 5   0  0.1893284E-04  0.1706173E+04  0.7818609E-02  0.8757851E-01
       -1   -1    0    0    0  501  0.00000000000E+00  0.00000000000E+00  0.16882605484E+04  0.16882605484E+04  0.50400001928E-02 0.  1.
        1   -1    0    0  501    0  0.00000000000E+00  0.00000000000E+00 -0.43106909043E+03  0.43106909046E+03  0.50400001928E-02 0. -1.
    10030    2    1    2    0    0  0.00000000000E+00  0.00000000000E+00  0.12571914579E+04  0.21193296388E+04  0.17061734250E+04 0.  0.
        2    1    3    3  502    0  0.13930632769E+03 -0.69329906552E+03  0.35882604939E+02  0.70806596340E+03  0.25500000920E-02 0. -1.
       -2    1    3    3    0  502 -0.13930632769E+03  0.69329906552E+03  0.12213088530E+04  0.14112636754E+04  0.25500000920E-02 0.  1.
</event>
<event>
 5   0  0.1824538E-04  0.1687337E+04  0.7818609E-02  0.8768620E-01
        1   -1    0    0  501    0  0.00000000000E+00  0.00000000000E+00  0.14586928894E+04  0.14586928894E+04  0.50400001928E-02 0. -1.
       -1   -1    0    0    0  501  0.00000000000E+00  0.00000000000E+00 -0.48795479180E+03  0.48795479182E+03  0.50400001928E-02 0.  1.
    10030    2    1    2    0    0  0.00000000000E+00  0.00000000000E+00  0.97073809758E+03  0.19466476812E+04  0.16873365819E+04 0.  0.
        3    1    3    3  502    0  0.38933759888E+03 -0.22544842118E+03  0.13087491421E+04  0.13839201868E+04  0.10100000352E+00 0. -1.
       -3    1    3    3    0  502 -0.38933759888E+03  0.22544842118E+03 -0.33801104448E+03  0.56272749436E+03  0.10100000352E+00 0.  1.
</event>
<event>
 5   0  0.3516723E-04  0.1697354E+04  0.7818609E-02  0.8762875E-01
        2   -1    0    0  501    0  0.00000000000E+00  0.00000000000E+00  0.17357013807E+04  0.17357013808E+04  0.25500000920E-02 0.  1.
       -2   -1    0    0    0  501  0.00000000000E+00  0.00000000000E+00 -0.41496362845E+03  0.41496362846E+03  0.25500000920E-02 0. -1.
    10030    2    1    2    0    0  0.00000000000E+00  0.00000000000E+00  0.13207377523E+04  0.21506650092E+04  0.16973543447E+04 0.  0.
        1    1    3    3  502    0 -0.64551465442E+03 -0.36265626506E+03  0.13481132536E+03  0.75258410103E+03  0.50400001928E-02 0. -1.
       -1    1    3    3    0  502  0.64551465442E+03  0.36265626506E+03  0.11859264269E+04  0.13980809082E+04  0.50400001928E-02 0.  1.
</event>
<event>
 5   0  0.3678896E-04  0.1684310E+04  0.7818609E-02  0.8770364E-01
       -2   -1    0    0    0  501  0.00000000000E+00  0.00000000000E+00  0.14189894571E+04  0.14189894571E+04  0.25500000920E-02 0. -1.
        2   -1    0    0  501    0  0.00000000000E+00  0.00000000000E+00 -0.49980994408E+03  0.49980994409E+03  0.25500000920E-02 0.  1.
    10030    2    1    2    0    0  0.00000000000E+00  0.00000000000E+00  0.91917951301E+03  0.19187994012E+04  0.16843099967E+04 0.  0.
        2    1    3    3  502    0 -0.63888008155E+02 -0.79097556192E+03  0.13837616787E+03  0.80552590336E+03  0.25500000920E-02 0. -1.
       -2    1    3    3    0  502  0.63888008155E+02  0.79097556192E+03  0.78080334514E+03  0.11132734978E+04  0.25500000920E-02 0.  1.
</event>
<event>
 5   0  0.1824538E-04  0.1709670E+04  0.7818609E-02  0.8755868E-01
        1   -1    0    0  501    0  0.00000000000E+00  0.00000000000E+00  0.63849622577E+03  0.63849622579E+03  0.50400001928E-02 0.  1.
       -1   -1    0    0    0  501  0.00000000000E+00  0.00000000000E+00 -0.11444752854E+04  0.11444752855E+04  0.50400001928E-02 0. -1.
    10030    2    1    2    0    0  0.00000000000E+00  0.00000000000E+00 -0.50597905968E+03  0.17829715112E+04  0.17096703194E+04 0.  0.
        3    1    3    3  502    0 -0.54264773646E+03 -0.27343342305E+03 -0.88002575583E+03  0.10694286998E+04  0.10100000352E+00 0. -1.
       -3    1    3    3    0  502  0.54264773646E+03  0.27343342305E+03  0.37404669615E+03  0.71354281149E+03  0.10100000352E+00 0.  1.
</event>
<event>
 5   0  0.3516723E-04  0.1699409E+04  0.7818609E-02  0.8761701E-01
        2   -1    0    0  501    0  0.00000000000E+00  0.00000000000E+00  0.97716893979E+03  0.97716893980E+03  0.25500000920E-02 0. -1.
       -2   -1    0    0    0  501  0.00000000000E+00  0.00000000000E+00 -0.73886703563E+03  0.73886703563E+03  0.25500000920E-02 0.  1.
    10030    2    1    2    0    0  0.00000000000E+00  0.00000000000E+00  0.23830190416E+03  0.17160359754E+04  0.16994092125E+04 0.  0.
        1    1    3    3  502    0  0.70324412517E+03  0.47644432857E+03  0.14048632588E+03  0.86098078120E+03  0.50400001928E-02 0.  1.
       -1    1    3    3    0  502 -0.70324412517E+03 -0.47644432857E+03  0.97815578289E+02  0.85505519423E+03  0.50400001928E-02 0. -1.
</event>
<event>
 5   0  0.1930116E-04  0.1700928E+04  0.7818609E-02  0.8760836E-01
       -1   -1    0    0    0  501  0.00000000000E+00  0.00000000000E+00  0.51750614305E+03  0.51750614307E+03  0.50400001928E-02 0. -1.
        1   -1    0    0  501    0  0.00000000000E+00  0.00000000000E+00 -0.13976425930E+04  0.13976425930E+04  0.50400001928E-02 0.  1.
    10030    2    1    2    0    0  0.00000000000E+00  0.00000000000E+00 -0.88013644996E+03  0.19151487361E+04  0.17009275443E+04 0.  0.
        1    1    3    3  502    0  0.84459602500E+03 -0.85791861476E+02 -0.49732485854E+03  0.98388754636E+03  0.50400001928E-02 0. -1.
       -1    1    3    3    0  502 -0.84459602500E+03  0.85791861476E+02 -0.38281159142E+03  0.93126118972E+03  0.50400001928E-02 0.  1.
</event>
<event>
 5   0  0.1824538E-04  0.1689872E+04  0.7818609E-02  0.8767162E-01
        1   -1    0    0  501    0  0.00000000000E+00  0.00000000000E+00  0.20884934467E+04  0.20884934467E+04  0.50400001928E-02 0. -1.
       -1   -1    0    0    0  501  0.00000000000E+00  0.00000000000E+00 -0.34183337363E+03  0.34183337367E+03  0.50400001928E-02 0.  1.
    10030    2    1    2    0    0  0.00000000000E+00  0.00000000000E+00  0.17466600731E+04  0.24303268204E+04  0.16898719014E+04 0.  0.
        3    1    3    3  502    0  0.42358114858E+03  0.33195932341E+03  0.18101298179E+04  0.18884353178E+04  0.10100000352E+00 0. -1.
       -3    1    3    3    0  502 -0.42358114858E+03 -0.33195932341E+03 -0.63469744816E+02  0.54189150255E+03  0.10100000352E+00 0.  1.
</event>
<event>
 5   0  0.3605571E-04  0.1687343E+04  0.7818609E-02  0.8768616E-01
       -2   -1    0    0    0  501  0.00000000000E+00  0.00000000000E+00  0.72953956834E+03  0.72953956834E+03  0.25500000920E-02 0. -1.
        2   -1    0    0  501    0  0.00000000000E+00  0.00000000000E+00 -0.97565885330E+03  0.97565885330E+03  0.25500000920E-02 0.  1.
    10030    2    1    2    0    0  0.00000000000E+00  0.00000000000E+00 -0.24611928496E+03  0.17051984216E+04  0.16873431645E+04 0.  0.
        4    1    3    3  502    0 -0.36096013648E+03 -0.30287246610E+03 -0.83029093049E+03  0.95467721928E+03  0.12699999809E+01 0.  1.
       -4    1    3    3    0  502  0.36096013648E+03  0.30287246610E+03  0.58417164554E+03  0.75052120236E+03  0.12699999809E+01 0. -1.
</event>
<event>
 5   0  0.1317625E-04  0.1802460E+04  0.7818609E-02  0.8704992E-01
       -4   -1    0    0    0  501  0.00000000000E+00  0.00000000000E+00  0.15457267236E+04  0.15457272453E+04  0.12699999809E+01 0. -1.
        4   -1    0    0  501    0  0.00000000000E+00  0.00000000000E+00 -0.52545736790E+03  0.52545890265E+03  0.12699999809E+01 0.  1.
    10030    2    1    2    0    0  0.00000000000E+00  0.00000000000E+00  0.10202693557E+04  0.20711861480E+04  0.18024601248E+04 0.  0.
        2    1    3    3  502    0  0.19967349420E+03  0.54954914404E+03  0.12981964899E+04  0.14237934866E+04  0.25500000920E-02 0. -1.
       -2    1    3    3    0  502 -0.19967349420E+03 -0.54954914404E+03 -0.27792713426E+03  0.64739266135E+03  0.25500000920E-02 0.  1.
</event>
<event>
 5   0  0.3516723E-04  0.1701220E+04  0.7818609E-02  0.8760669E-01
       -2   -1    0    0    0  501  0.00000000000E+00  0.00000000000E+00  0.71368490627E+03  0.71368490627E+03  0.25500000920E-02 0.  1.
        2   -1    0    0  501    0  0.00000000000E+00  0.00000000000E+00 -0.10138050436E+04  0.10138050436E+04  0.25500000920E-02 0. -1.
    10030    2    1    2    0    0  0.00000000000E+00  0.00000000000E+00 -0.30012013736E+03  0.17274899499E+04  0.17012199829E+04 0.  0.
        1    1    3    3  502    0 -0.21163157358E+03 -0.41920980534E+03 -0.87024573693E+03  0.98886421034E+03  0.50400001928E-02 0. -1.
       -1    1    3    3    0  502  0.21163157358E+03  0.41920980534E+03  0.57012559957E+03  0.73862573956E+03  0.50400001928E-02 0.  1.
</event>
<event>
 5   0  0.3573262E-04  0.1694568E+04  0.7818609E-02  0.8764468E-01
        2   -1    0    0  501    0  0.00000000000E+00  0.00000000000E+00  0.19050026416E+04  0.19050026416E+04  0.25500000920E-02 0. -1.
       -2   -1    0    0    0  501  0.00000000000E+00  0.00000000000E+00 -0.37684486348E+03  0.37684486349E+03  0.25500000920E-02 0.  1.
    10030    2    1    2    0    0  0.00000000000E+00  0.00000000000E+00  0.15281577781E+04  0.22818475051E+04  0.16945683349E+04 0.  0.
        5    1    3    3  502    0  0.58031151094E+03 -0.25321022585E+03  0.15222222575E+04  0.16486538628E+04  0.46999998093E+01 0. -1.
       -5    1    3    3    0  502 -0.58031151094E+03  0.25321022585E+03  0.59355206420E+01  0.63319364227E+03  0.46999998093E+01 0.  1.
</event>
<event>
 5   0  0.3605571E-04  0.1707764E+04  0.7818609E-02  0.8756949E-01
        2   -1    0    0  501    0  0.00000000000E+00  0.00000000000E+00  0.11281384979E+04  0.11281384979E+04  0.25500000920E-02 0.  1.
       -2   -1    0    0    0  501  0.00000000000E+00  0.00000000000E+00 -0.64629848736E+03  0.64629848736E+03  0.25500000920E-02 0. -1.
    10030    2    1    2    0    0  0.00000000000E+00  0.00000000000E+00  0.48184001055E+03  0.17744369853E+04  0.17077636894E+04 0.  0.
        4    1    3    3  502    0  0.62727382482E+03 -0.55120731669E+03  0.55601421767E+02  0.83689610364E+03  0.12699999809E+01 0. -1.
       -4    1    3    3    0  502 -0.62727382482E+03  0.55120731669E+03  0.42623858879E+03  0.93754088164E+03  0.12699999809E+01 0.  1.
</event>
<event>
 5   0  0.1824538E-04  0.1691983E+04  0.7818609E-02  0.8765950E-01
       -1   -1    0    0    0  501  0.00000000000E+00  0.00000000000E+00  0.66217131353E+03  0.66217131354E+03  0.50400001928E-02 0. -1.
        1   -1    0    0  501    0  0.00000000000E+00  0.00000000000E+00 -0.10808404060E+04  0.10808404060E+04  0.50400001928E-02 0.  1.
    10030    2    1    2    0    0  0.00000000000E+00  0.00000000000E+00 -0.41866909246E+03  0.17430117195E+04  0.16919828739E+04 0.  0.
        3    1    3    3  502    0  0.18620596730E+03 -0.26638386143E+03 -0.10139597590E+04  0.10647757637E+04  0.10100000352E+00 0.  1.
       -3    1    3    3    0  502 -0.18620596730E+03  0.26638386143E+03  0.59529066656E+03  0.67823595583E+03  0.10100000352E+00 0. -1.
</event>
<event>
 5   0  0.1824538E-04  0.1660440E+04  0.7818609E-02  0.8784254E-01
        1   -1    0    0  501    0  0.00000000000E+00  0.00000000000E+00  0.62178536803E+03  0.62178536805E+03  0.50400001928E-02 0. -1.
       -1   -1    0    0    0  501  0.00000000000E+00  0.00000000000E+00 -0.11085253995E+04  0.11085253995E+04  0.50400001928E-02 0.  1.
    10030    2    1    2    0    0  0.00000000000E+00  0.00000000000E+00 -0.48674003149E+03  0.17303107676E+04  0.16604395485E+04 0.  0.
        3    1    3    3  502    0 -0.36583152850E+03  0.38403232768E+01  0.53325394447E+03  0.64668944233E+03  0.10100000352E+00 0. -1.
       -3    1    3    3    0  502  0.36583152850E+03 -0.38403232768E+01 -0.10199939760E+04  0.10836213252E+04  0.10100000352E+00 0.  1.
</event>
<event>
 5   0  0.3574092E-04  0.1719472E+04  0.7818609E-02  0.8750336E-01
        2   -1    0    0  501    0  0.00000000000E+00  0.00000000000E+00  0.88477908677E+03  0.88477908678E+03  0.25500000920E-02 0. -1.
       -2   -1    0    0    0  501  0.00000000000E+00  0.00000000000E+00 -0.83540197934E+03  0.83540197934E+03  0.25500000920E-02 0.  1.
    10030    2    1    2    0    0  0.00000000000E+00  0.00000000000E+00  0.49377107434E+02  0.17201810661E+04  0.17194722451E+04 0.  0.
        3    1    3    3  502    0 -0.31951840584E+03 -0.28272040323E+03 -0.72202610039E+03  0.83865638847E+03  0.10100000352E+00 0.  1.
       -3    1    3    3    0  502  0.31951840584E+03  0.28272040323E+03  0.77140320782E+03  0.88152467765E+03  0.10100000352E+00 0. -1.
</event>
<event>
 5   0  0.3605571E-04  0.1699388E+04  0.7818609E-02  0.8761713E-01
        2   -1    0    0  501    0  0.00000000000E+00  0.00000000000E+00  0.11952416364E+04  0.11952416364E+04  0.25500000920E-02 0.  1.
       -2   -1    0    0    0  501  0.00000000000E+00  0.00000000000E+00 -0.60404547802E+03  0.60404547803E+03  0.25500000920E-02 0. -1.
    10030    2    1    2    0    0  0.00000000000E+00  0.00000000000E+00  0.59119615835E+03  0.17992871144E+04  0.16993884848E+04 0.  0.
        4    1    3    3  502    0 -0.43383482857E+03 -0.87783458276E+02 -0.47233872073E+03  0.64732068870E+03  0.12699999809E+01 0. -1.
       -4    1    3    3    0  502  0.43383482857E+03  0.87783458276E+02  0.10635348791E+04  0.11519664257E+04  0.12699999809E+01 0.  1.
</event>
<event>
 5   0  0.1893284E-04  0.1696279E+04  0.7818609E-02  0.8763489E-01
        1   -1    0    0  501    0  0.00000000000E+00  0.00000000000E+00  0.89236174972E+03  0.89236174974E+03  0.50400001928E-02 0.  1.
       -1   -1    0    0    0  501  0.00000000000E+00  0.00000000000E+00 -0.80610918019E+03  0.80610918021E+03  0.50400001928E-02 0. -1.
    10030    2    1    2    0    0  0.00000000000E+00  0.00000000000E+00  0.86252569534E+02  0.16984709299E+04  0.16962794564E+04 0.  0.
        2    1    3    3  502    0  0.15976921545E+03  0.40169747951E+03  0.77376340805E+03  0.88633903158E+03  0.25500000920E-02 0.  1.
       -2    1    3    3    0  502 -0.15976921545E+03 -0.40169747951E+03 -0.68751083852E+03  0.81213189836E+03  0.25500000920E-02 0. -1.
</event>
<event>
 5   0  0.1930116E-04  0.1564393E+04  0.7818609E-02  0.8842727E-01
       -1   -1    0    0    0  501  0.00000000000E+00  0.00000000000E+00  0.38855076736E+03  0.38855076740E+03  0.50400001928E-02 0. -1.
        1   -1    0    0  501    0  0.00000000000E+00  0.00000000000E+00 -0.15746492448E+04  0.15746492448E+04  0.50400001928E-02 0.  1.
    10030    2    1    2    0    0  0.00000000000E+00  0.00000000000E+00 -0.11860984774E+04  0.19632000122E+04  0.15643927543E+04 0.  0.
        1    1    3    3  502    0 -0.45443484351E+02  0.75843477449E+03 -0.82628612686E+03  0.11225137776E+04  0.50400001928E-02 0.  1.
       -1    1    3    3    0  502  0.45443484351E+02 -0.75843477449E+03 -0.35981235059E+03  0.84068623462E+03  0.50400001928E-02 0. -1.
</event>
<event>
 5   0  0.1893284E-04  0.1703976E+04  0.7818609E-02  0.8759100E-01
        1   -1    0    0  501    0  0.00000000000E+00  0.00000000000E+00  0.35349720198E+03  0.35349720202E+03  0.50400001928E-02 0. -1.
       -1   -1    0    0    0  501  0.00000000000E+00  0.00000000000E+00 -0.20534338779E+04  0.20534338779E+04  0.50400001928E-02 0.  1.
    10030    2    1    2    0    0  0.00000000000E+00  0.00000000000E+00 -0.16999366759E+04  0.24069310799E+04  0.17039755049E+04 0.  0.
        2    1    3    3  502    0 -0.83767598845E+03 -0.12835172368E+03 -0.97398169060E+03  0.12910521137E+04  0.25500000920E-02 0.  1.
       -2    1    3    3    0  502  0.83767598845E+03  0.12835172368E+03 -0.72595498530E+03  0.11158789662E+04  0.25500000920E-02 0. -1.
</event>
<event>
 5   0  0.3605571E-04  0.1690347E+04  0.7818609E-02  0.8766889E-01
        2   -1    0    0  501    0  0.00000000000E+00  0.00000000000E+00  0.93801476036E+03  0.93801476036E+03  0.25500000920E-02 0. -1.
       -2   -1    0    0    0  501  0.00000000000E+00  0.00000000000E+00 -0.76152145986E+03  0.76152145987E+03  0.25500000920E-02 0.  1.
    10030    2    1    2    0    0  0.00000000000E+00  0.00000000000E+00  0.17649330050E+03  0.16995362202E+04  0.16903471474E+04 0.  0.
        4    1    3    3  502    0 -0.40564593708E+03  0.33465863506E+03  0.75348668135E+03  0.91885190328E+03  0.12699999809E+01 0. -1.
       -4    1    3    3    0  502  0.40564593708E+03 -0.33465863506E+03 -0.57699338085E+03  0.78068431695E+03  0.12699999809E+01 0.  1.
</event>
<event>
 5   0  0.3605571E-04  0.1702422E+04  0.7818609E-02  0.8759984E-01
        2   -1    0    0  501    0  0.00000000000E+00  0.00000000000E+00  0.83049111576E+03  0.83049111577E+03  0.25500000920E-02 0.  1.
       -2   -1    0    0    0  501  0.00000000000E+00  0.00000000000E+00 -0.87244775729E+03  0.87244775730E+03  0.25500000920E-02 0. -1.
    10030    2    1    2    0    0  0.00000000000E+00  0.00000000000E+00 -0.41956641528E+02  0.17029388731E+04  0.17024219353E+04 0.  0.
        4    1    3    3  502    0 -0.61346983980E+03 -0.40286439353E+03  0.41032952341E+03  0.84084296667E+03  0.12699999809E+01 0.  1.
       -4    1    3    3    0  502  0.61346983980E+03  0.40286439353E+03 -0.45228616494E+03  0.86209590639E+03  0.12699999809E+01 0. -1.
</event>
<event>
 5   0  0.3573262E-04  0.1700661E+04  0.7818609E-02  0.8760988E-01
        2   -1    0    0  501    0  0.00000000000E+00  0.00000000000E+00  0.11645369944E+04  0.11645369944E+04  0.25500000920E-02 0.  1.
       -2   -1    0    0    0  501  0.00000000000E+00  0.00000000000E+00 -0.62090058939E+03  0.62090058940E+03  0.25500000920E-02 0. -1.
    10030    2    1    2    0    0  0.00000000000E+00  0.00000000000E+00  0.54363640499E+03  0.17854375838E+04  0.17006607024E+04 0.  0.
        5    1    3    3  502    0 -0.34169096406E+03  0.15084201048E+03  0.10737915326E+04  0.11369064925E+04  0.46999998093E+01 0.  1.
       -5    1    3    3    0  502  0.34169096406E+03 -0.15084201048E+03 -0.53015512764E+03  0.64853109132E+03  0.46999998093E+01 0. -1.
</event>
<event>
 5   0  0.1824538E-04  0.1723018E+04  0.7818609E-02  0.8748344E-01
        1   -1    0    0  501    0  0.00000000000E+00  0.00000000000E+00  0.12537518466E+04  0.12537518466E+04  0.50400001928E-02 0.  1.
       -1   -1    0    0    0  501  0.00000000000E+00  0.00000000000E+00 -0.59198143202E+03  0.59198143204E+03  0.50400001928E-02 0. -1.
    10030    2    1    2    0    0  0.00000000000E+00  0.00000000000E+00  0.66177041454E+03  0.18457332786E+04  0.17230180655E+04 0.  0.
        3    1    3    3  502    0  0.88186993086E+02  0.30467424885E+03  0.11889289216E+04  0.12305101927E+04  0.10100000352E+00 0.  1.
       -3    1    3    3    0  502 -0.88186993086E+02 -0.30467424885E+03 -0.52715850703E+03  0.61522308588E+03  0.10100000352E+00 0. -1.
</event>
<event>
 5   0  0.1893284E-04  0.1634107E+04  0.7818609E-02  0.8799865E-01
       -1   -1    0    0    0  501  0.00000000000E+00  0.00000000000E+00  0.86209714734E+03  0.86209714736E+03  0.50400001928E-02 0.  1.
        1   -1    0    0  501    0  0.00000000000E+00  0.00000000000E+00 -0.77436310632E+03  0.77436310633E+03  0.50400001928E-02 0. -1.
    10030    2    1    2    0    0  0.00000000000E+00  0.00000000000E+00  0.87734041023E+02  0.16364602537E+04  0.16341067590E+04 0.  0.
        2    1    3    3  502    0 -0.21389353600E+03  0.37282819849E+03 -0.65198977295E+03  0.78092379550E+03  0.25500000920E-02 0. -1.
       -2    1    3    3    0  502  0.21389353600E+03 -0.37282819849E+03  0.73972381397E+03  0.85553645819E+03  0.25500000920E-02 0.  1.
</event>
<event>
 5   0  0.3516723E-04  0.1677123E+04  0.7818609E-02  0.8774521E-01
        2   -1    0    0  501    0  0.00000000000E+00  0.00000000000E+00  0.13642262667E+04  0.13642262667E+04  0.25500000920E-02 0. -1.
       -2   -1    0    0    0  501  0.00000000000E+00  0.00000000000E+00 -0.51544634953E+03  0.51544634954E+03  0.25500000920E-02 0.  1.
    10030    2    1    2    0    0  0.00000000000E+00  0.00000000000E+00  0.84877991714E+03  0.18796726162E+04  0.16771230713E+04 0.  0.
        1    1    3    3  502    0  0.46319085836E+02  0.57351365927E+03  0.11080811705E+04  0.12485620751E+04  0.50400001928E-02 0. -1.
       -1    1    3    3    0  502 -0.46319085836E+02 -0.57351365927E+03 -0.25930125332E+03  0.63111054109E+03  0.50400001928E-02 0.  1.
</event>
<event>
 5   0  0.1920289E-04  0.1631021E+04  0.7818609E-02  0.8801714E-01
        1   -1    0    0  501    0  0.00000000000E+00  0.00000000000E+00  0.11781622557E+04  0.11781622557E+04  0.50400001928E-02 0.  1.
       -1   -1    0    0    0  501  0.00000000000E+00  0.00000000000E+00 -0.56448684352E+03  0.56448684354E+03  0.50400001928E-02 0. -1.
    10030    2    1    2    0    0  0.00000000000E+00  0.00000000000E+00  0.61367541221E+03  0.17426490993E+04  0.16310206534E+04 0.  0.
        4    1    3    3  502    0  0.61216541753E+03  0.53694261888E+03  0.35463900997E+03  0.88815782082E+03  0.12699999809E+01 0.  1.
       -4    1    3    3    0  502 -0.61216541753E+03 -0.53694261888E+03  0.25903640224E+03  0.85449127847E+03  0.12699999809E+01 0. -1.
</event>
<event>
 5   0  0.3516723E-04  0.1693860E+04  0.7818609E-02  0.8764874E-01
        2   -1    0    0  501    0  0.00000000000E+00  0.00000000000E+00  0.10733101059E+04  0.10733101059E+04  0.25500000920E-02 0. -1.
       -2   -1    0    0    0  501  0.00000000000E+00  0.00000000000E+00 -0.66829774231E+03  0.66829774231E+03  0.25500000920E-02 0.  1.
    10030    2    1    2    0    0  0.00000000000E+00  0.00000000000E+00  0.40501236360E+03  0.17416078482E+04  0.16938603491E+04 0.  0.
        1    1    3    3  502    0 -0.26037271409E+03  0.68341407579E+03  0.64167869348E+03  0.97293385948E+03  0.50400001928E-02 0. -1.
       -1    1    3    3    0  502  0.26037271409E+03 -0.68341407579E+03 -0.23666632988E+03  0.76867398874E+03  0.50400001928E-02 0.  1.
</event>
<event>
 5   0  0.1317625E-04  0.1685732E+04  0.7818609E-02  0.8769544E-01
        3   -1    0    0  501    0  0.00000000000E+00  0.00000000000E+00  0.46545112602E+03  0.46545113697E+03  0.10100000352E+00 0. -1.
       -3   -1    0    0    0  501  0.00000000000E+00  0.00000000000E+00 -0.15263114203E+04  0.15263114236E+04  0.10100000352E+00 0.  1.
    10030    2    1    2    0    0  0.00000000000E+00  0.00000000000E+00 -0.10608602942E+04  0.19917625606E+04  0.16857323435E+04 0.  0.
        5    1    3    3  502    0 -0.18705548288E+03  0.16377357086E+03  0.42112505534E+03  0.48906026052E+03  0.46999998093E+01 0. -1.
       -5    1    3    3    0  502  0.18705548288E+03 -0.16377357086E+03 -0.14819853496E+04  0.15027023000E+04  0.46999998093E+01 0.  1.
</event>
<event>
 5   0  0.3678896E-04  0.1733482E+04  0.7818609E-02  0.8742495E-01
        2   -1    0    0  501    0  0.00000000000E+00  0.00000000000E+00  0.88111736849E+03  0.88111736849E+03  0.25500000920E-02 0. -1.
       -2   -1    0    0    0  501  0.00000000000E+00  0.00000000000E+00 -0.85259919730E+03  0.85259919730E+03  0.25500000920E-02 0.  1.
    10030    2    1    2    0    0  0.00000000000E+00  0.00000000000E+00  0.28518171186E+02  0.17337165658E+04  0.17334820000E+04 0.  0.
        2    1    3    3  502    0  0.30312016328E+02 -0.40015941259E+03 -0.75408544776E+03  0.85421966516E+03  0.25500000920E-02 0.  1.
       -2    1    3    3    0  502 -0.30312016328E+02  0.40015941259E+03  0.78260361895E+03  0.87949690063E+03  0.25500000920E-02 0. -1.
</event>
<event>
 5   0  0.1920289E-04  0.1693236E+04  0.7818609E-02  0.8765232E-01
        1   -1    0    0  501    0  0.00000000000E+00  0.00000000000E+00  0.17956248613E+04  0.17956248613E+04  0.50400001928E-02 0.  1.
       -1   -1    0    0    0  501  0.00000000000E+00  0.00000000000E+00 -0.39917137889E+03  0.39917137892E+03  0.50400001928E-02 0. -1.
    10030    2    1    2    0    0  0.00000000000E+00  0.00000000000E+00  0.13964534824E+04  0.21947962402E+04  0.16932360165E+04 0.  0.
        4    1    3    3  502    0  0.54866865951E+03  0.14048940771E+03  0.15139006170E+04  0.16163759657E+04  0.12699999809E+01 0.  1.
       -4    1    3    3    0  502 -0.54866865951E+03 -0.14048940771E+03 -0.11744713458E+03  0.57842027448E+03  0.12699999809E+01 0. -1.
</event>
<event>
 5   0  0.3605571E-04  0.1725929E+04  0.7818609E-02  0.8746713E-01
       -2   -1    0    0    0  501  0.00000000000E+00  0.00000000000E+00  0.13012365602E+04  0.13012365602E+04  0.25500000920E-02 0. -1.
        2   -1    0    0  501    0  0.00000000000E+00  0.00000000000E+00 -0.57230759403E+03  0.57230759403E+03  0.25500000920E-02 0.  1.
    10030    2    1    2    0    0  0.00000000000E+00  0.00000000000E+00  0.72892896617E+03  0.18735441542E+04  0.17259288109E+04 0.  0.
        4    1    3    3  502    0  0.59453603582E+03  0.30862637346E+02  0.10426201545E+04  0.12006181740E+04  0.12699999809E+01 0. -1.
       -4    1    3    3    0  502 -0.59453603582E+03 -0.30862637346E+02 -0.31369118837E+03  0.67292598020E+03  0.12699999809E+01 0.  1.
</event>
<event>
 5   0  0.1824538E-04  0.1715278E+04  0.7818609E-02  0.8752698E-01
        1   -1    0    0  501    0  0.00000000000E+00  0.00000000000E+00  0.15223996284E+04  0.15223996284E+04  0.50400001928E-02 0.  1.
       -1   -1    0    0    0  501  0.00000000000E+00  0.00000000000E+00 -0.48314840787E+03  0.48314840789E+03  0.50400001928E-02 0. -1.
    10030    2    1    2    0    0  0.00000000000E+00  0.00000000000E+00  0.10392512205E+04  0.20055480363E+04  0.17152783525E+04 0.  0.
        3    1    3    3  502    0 -0.79121202364E+03 -0.25547203349E+03  0.76561508812E+03  0.11302428498E+04  0.10100000352E+00 0.  1.
       -3    1    3    3    0  502  0.79121202364E+03  0.25547203349E+03  0.27363613238E+03  0.87530518643E+03  0.10100000352E+00 0. -1.
</event>
<event>
 5   0  0.3573262E-04  0.1714639E+04  0.7818609E-02  0.8753059E-01
        2   -1    0    0  501    0  0.00000000000E+00  0.00000000000E+00  0.56566386884E+03  0.56566386884E+03  0.25500000920E-02 0. -1.
       -2   -1    0    0    0  501  0.00000000000E+00  0.00000000000E+00 -0.12993521641E+04  0.12993521641E+04  0.25500000920E-02 0.  1.
    10030    2    1    2    0    0  0.00000000000E+00  0.00000000000E+00 -0.73368829528E+03  0.18650160330E+04  0.17146388216E+04 0.  0.
        5    1    3    3  502    0  0.69186092170E+03 -0.69221421798E+02  0.17864825255E+03  0.71791394216E+03  0.46999998093E+01 0. -1.
       -5    1    3    3    0  502 -0.69186092170E+03  0.69221421798E+02 -0.91233654783E+03  0.11471020908E+04  0.46999998093E+01 0.  1.
</event>
<event>
 5   0  0.3573262E-04  0.1694967E+04  0.7818609E-02  0.8764240E-01
       -2   -1    0    0    0  501  0.00000000000E+00  0.00000000000E+00  0.37991726849E+03  0.37991726850E+03  0.25500000920E-02 0.  1.
        2   -1    0    0  501    0  0.00000000000E+00  0.00000000000E+00 -0.18904864993E+04  0.18904864993E+04  0.25500000920E-02 0. -1.
    10030    2    1    2    0    0  0.00000000000E+00  0.00000000000E+00 -0.15105692308E+04  0.22704037678E+04  0.16949672173E+04 0.  0.
        5    1    3    3  502    0 -0.74122280228E+03  0.33602624434E+03 -0.43863729764E+03  0.92452671589E+03  0.46999998093E+01 0. -1.
       -5    1    3    3    0  502  0.74122280228E+03 -0.33602624434E+03 -0.10719319332E+04  0.13458770519E+04  0.46999998093E+01 0.  1.
</event>
<event>
 5   0  0.3516723E-04  0.1718100E+04  0.7818609E-02  0.8751108E-01
        2   -1    0    0  501    0  0.00000000000E+00  0.00000000000E+00  0.21858435393E+04  0.21858435393E+04  0.25500000920E-02 0.  1.
       -2   -1    0    0    0  501  0.00000000000E+00  0.00000000000E+00 -0.33761193748E+03  0.33761193749E+03  0.25500000920E-02 0. -1.
    10030    2    1    2    0    0  0.00000000000E+00  0.00000000000E+00  0.18482316019E+04  0.25234554768E+04  0.17180999649E+04 0.  0.
        1    1    3    3  502    0  0.34513090279E+03  0.78243146407E+03  0.80432020728E+03  0.11739869386E+04  0.50400001928E-02 0. -1.
       -1    1    3    3    0  502 -0.34513090279E+03 -0.78243146407E+03  0.10439113946E+04  0.13494685383E+04  0.50400001928E-02 0.  1.
</event>
<event>
 5   0  0.1893284E-04  0.1692323E+04  0.7818609E-02  0.8765755E-01
       -1   -1    0    0    0  501  0.00000000000E+00  0.00000000000E+00  0.40346538487E+03  0.40346538490E+03  0.50400001928E-02 0. -1.
        1   -1    0    0  501    0  0.00000000000E+00  0.00000000000E+00 -0.17745999612E+04  0.17745999612E+04  0.50400001928E-02 0.  1.
    10030    2    1    2    0    0  0.00000000000E+00  0.00000000000E+00 -0.13711345764E+04  0.21780653461E+04  0.16923234400E+04 0.  0.
        2    1    3    3  502    0  0.67431081275E+03 -0.12063717483E+03 -0.46261816840E+02  0.68657742160E+03  0.25500000920E-02 0. -1.
       -2    1    3    3    0  502 -0.67431081275E+03  0.12063717483E+03 -0.13248727595E+04  0.14914879245E+04  0.25500000920E-02 0.  1.
</event>
<event>
 5   0  0.1824538E-04  0.1695355E+04  0.7818609E-02  0.8764018E-01
       -1   -1    0    0    0  501  0.00000000000E+00  0.00000000000E+00  0.46854361999E+03  0.46854362002E+03  0.50400001928E-02 0. -1.
        1   -1    0    0  501    0  0.00000000000E+00  0.00000000000E+00 -0.15335965993E+04  0.15335965993E+04  0.50400001928E-02 0.  1.
    10030    2    1    2    0    0  0.00000000000E+00  0.00000000000E+00 -0.10650529793E+04  0.20021402194E+04  0.16953547149E+04 0.  0.
        3    1    3    3  502    0 -0.28408090981E+03  0.76442211078E+03 -0.80571766490E+03  0.11463961325E+04  0.10100000352E+00 0.  1.
       -3    1    3    3    0  502  0.28408090981E+03 -0.76442211078E+03 -0.25933531444E+03  0.85574408691E+03  0.10100000352E+00 0. -1.
</event>
<event>
 5   0  0.1824538E-04  0.1693448E+04  0.7818609E-02  0.8765110E-01
       -1   -1    0    0    0  501  0.00000000000E+00  0.00000000000E+00  0.38296132386E+03  0.38296132389E+03  0.50400001928E-02 0.  1.
        1   -1    0    0  501    0  0.00000000000E+00  0.00000000000E+00 -0.18720993133E+04  0.18720993133E+04  0.50400001928E-02 0. -1.
    10030    2    1    2    0    0  0.00000000000E+00  0.00000000000E+00 -0.14891379894E+04  0.22550606372E+04  0.16934481173E+04 0.  0.
        3    1    3    3  502    0 -0.13051883460E+03 -0.13093173798E+02  0.36934878212E+03  0.39195041834E+03  0.10100000352E+00 0.  1.
       -3    1    3    3    0  502  0.13051883460E+03  0.13093173798E+02 -0.18584867715E+04  0.18631102189E+04  0.10100000352E+00 0. -1.
</event>
<event>
 5   0  0.3605571E-04  0.1672992E+04  0.7818609E-02  0.8776920E-01
        2   -1    0    0  501    0  0.00000000000E+00  0.00000000000E+00  0.13553523693E+04  0.13553523693E+04  0.25500000920E-02 0. -1.
       -2   -1    0    0    0  501  0.00000000000E+00  0.00000000000E+00 -0.51626850932E+03  0.51626850933E+03  0.25500000920E-02 0.  1.
    10030    2    1    2    0    0  0.00000000000E+00  0.00000000000E+00  0.83908386000E+03  0.18716208786E+04  0.16729922263E+04 0.  0.
        4    1    3    3  502    0 -0.21417236462E+03  0.35866087782E+03 -0.39121977003E+03  0.57233027913E+03  0.12699999809E+01 0.  1.
       -4    1    3    3    0  502  0.21417236462E+03 -0.35866087782E+03  0.12303036300E+04  0.12992905995E+04  0.12699999809E+01 0. -1.
</event>
<event>
 5   0  0.1815663E-04  0.1695073E+04  0.7818609E-02  0.8764180E-01
       -1   -1    0    0    0  501  0.00000000000E+00  0.00000000000E+00  0.78966140623E+03  0.78966140625E+03  0.50400001928E-02 0.  1.
        1   -1    0    0  501    0  0.00000000000E+00  0.00000000000E+00 -0.90965296487E+03  0.90965296489E+03  0.50400001928E-02 0. -1.
    10030    2    1    2    0    0  0.00000000000E+00  0.00000000000E+00 -0.11999155864E+03  0.16993143711E+04  0.16950726704E+04 0.  0.
        5    1    3    3  502    0 -0.18562980981E+03  0.82401107161E+03 -0.12976214441E+03  0.85458351058E+03  0.46999998093E+01 0.  1.
       -5    1    3    3    0  502  0.18562980981E+03 -0.82401107161E+03  0.97705857710E+01  0.84473086055E+03  0.46999998093E+01 0. -1.
</event>
<event>
 5   0  0.1920289E-04  0.1719806E+04  0.7818609E-02  0.8750148E-01
       -1   -1    0    0    0  501  0.00000000000E+00  0.00000000000E+00  0.85022885196E+03  0.85022885198E+03  0.50400001928E-02 0.  1.
        1   -1    0    0  501    0  0.00000000000E+00  0.00000000000E+00 -0.86968693483E+03  0.86968693485E+03  0.50400001928E-02 0. -1.
    10030    2    1    2    0    0  0.00000000000E+00  0.00000000000E+00 -0.19458082870E+02  0.17199157868E+04  0.17198057148E+04 0.  0.
        4    1    3    3  502    0 -0.63724765982E+03 -0.48862660090E+03 -0.31730486092E+03  0.86343761947E+03  0.12699999809E+01 0. -1.
       -4    1    3    3    0  502  0.63724765982E+03  0.48862660090E+03  0.29784677805E+03  0.85647816735E+03  0.12699999809E+01 0.  1.
</event>
<event>
 5   0  0.1893284E-04  0.1709388E+04  0.7818609E-02  0.8756028E-01
       -1   -1    0    0    0  501  0.00000000000E+00  0.00000000000E+00  0.45945541549E+03  0.45945541552E+03  0.50400001928E-02 0.  1.
        1   -1    0    0  501    0  0.00000000000E+00  0.00000000000E+00 -0.15899292690E+04  0.15899292690E+04  0.50400001928E-02 0. -1.
    10030    2    1    2    0    0  0.00000000000E+00  0.00000000000E+00 -0.11304738535E+04  0.20493846845E+04  0.17093877418E+04 0.  0.
        2    1    3    3  502    0 -0.77558766432E+03 -0.35780405180E+03 -0.52844713880E+03  0.10043984981E+04  0.25500000920E-02 0.  1.
       -2    1    3    3    0  502  0.77558766432E+03  0.35780405180E+03 -0.60202671471E+03  0.10449861864E+04  0.25500000920E-02 0. -1.
</event>
<event>
 5   0  0.3574092E-04  0.1693071E+04  0.7818609E-02  0.8765326E-01
       -2   -1    0    0    0  501  0.00000000000E+00  0.00000000000E+00  0.15482223099E+04  0.15482223099E+04  0.25500000920E-02 0.  1.
        2   -1    0    0  501    0  0.00000000000E+00  0.00000000000E+00 -0.46286782396E+03  0.46286782397E+03  0.25500000920E-02 0. -1.
    10030    2    1    2    0    0  0.00000000000E+00  0.00000000000E+00  0.10853544860E+04  0.20110901339E+04  0.16930709278E+04 0.  0.
        3    1    3    3  502    0 -0.37406380803E+03  0.59877231285E+03 -0.12145383475E+02  0.70611580896E+03  0.10100000352E+00 0. -1.
       -3    1    3    3    0  502  0.37406380803E+03 -0.59877231285E+03  0.10974998694E+04  0.13049743249E+04  0.10100000352E+00 0.  1.
</event>
<event>
 5   0  0.3605571E-04  0.1700773E+04  0.7818609E-02  0.8760924E-01
        2   -1    0    0  501    0  0.00000000000E+00  0.00000000000E+00  0.83418547189E+03  0.83418547189E+03  0.25500000920E-02 0. -1.
       -2   -1    0    0    0  501  0.00000000000E+00  0.00000000000E+00 -0.86690197885E+03  0.86690197886E+03  0.25500000920E-02 0.  1.
    10030    2    1    2    0    0  0.00000000000E+00  0.00000000000E+00 -0.32716506967E+02  0.17010874507E+04  0.17007728082E+04 0.  0.
        4    1    3    3  502    0 -0.63123982481E+03  0.42267063268E+03 -0.39858238071E+03  0.85789492788E+03  0.12699999809E+01 0.  1.
       -4    1    3    3    0  502  0.63123982481E+03 -0.42267063268E+03  0.36586587375E+03  0.84319252287E+03  0.12699999809E+01 0. -1.
</event>
<event>
 5   0  0.3516723E-04  0.1407482E+04  0.7818609E-02  0.8948420E-01
       -2   -1    0    0    0  501  0.00000000000E+00  0.00000000000E+00  0.37149036841E+03  0.37149036842E+03  0.25500000920E-02 0. -1.
        2   -1    0    0  501    0  0.00000000000E+00  0.00000000000E+00 -0.13331472349E+04  0.13331472349E+04  0.25500000920E-02 0.  1.
    10030    2    1    2    0    0  0.00000000000E+00  0.00000000000E+00 -0.96165686649E+03  0.17046376033E+04  0.14074819465E+04 0.  0.
        1    1    3    3  502    0  0.28377093395E+03  0.40403555576E+02 -0.12592469033E+04  0.12914569887E+04  0.50400001928E-02 0.  1.
       -1    1    3    3    0  502 -0.28377093395E+03 -0.40403555576E+02  0.29759003679E+03  0.41318061460E+03  0.50400001928E-02 0. -1.
</event>
<event>
 5   0  0.3574092E-04  0.1693209E+04  0.7818609E-02  0.8765247E-01
       -2   -1    0    0    0  501  0.00000000000E+00  0.00000000000E+00  0.39434110026E+03  0.39434110027E+03  0.25500000920E-02 0. -1.
        2   -1    0    0  501    0  0.00000000000E+00  0.00000000000E+00 -0.18175616682E+04  0.18175616682E+04  0.25500000920E-02 0.  1.
    10030    2    1    2    0    0  0.00000000000E+00  0.00000000000E+00 -0.14232205680E+04  0.22119027685E+04  0.16932091047E+04 0.  0.
        3    1    3    3  502    0 -0.66744091529E+02 -0.54617648193E+03  0.12889970645E+03  0.56513597274E+03  0.10100000352E+00 0. -1.
       -3    1    3    3    0  502  0.66744091529E+02  0.54617648193E+03 -0.15521202744E+04  0.16467667958E+04  0.10100000352E+00 0.  1.
</event>
<event>
 5   0  0.1815663E-04  0.1698311E+04  0.7818609E-02  0.8762328E-01
       -1   -1    0    0    0  501  0.00000000000E+00  0.00000000000E+00  0.46660335199E+03  0.46660335202E+03  0.50400001928E-02 0. -1.
        1   -1    0    0  501    0  0.00000000000E+00  0.00000000000E+00 -0.15453497629E+04  0.15453497629E+04  0.50400001928E-02 0.  1.
    10030    2    1    2    0    0  0.00000000000E+00  0.00000000000E+00 -0.10787464109E+04  0.20119531150E+04  0.16983113724E+04 0.  0.
        5    1    3    3  502    0  0.17462852482E+03  0.71609498002E+02  0.44142351044E+03  0.48010399649E+03  0.46999998093E+01 0. -1.
       -5    1    3    3    0  502 -0.17462852482E+03 -0.71609498002E+02 -0.15201699214E+04  0.15318491185E+04  0.46999998093E+01 0.  1.
</event>
<event>
 5   0  0.1920289E-04  0.1682115E+04  0.7818609E-02  0.8771631E-01
        1   -1    0    0  501    0  0.00000000000E+00  0.00000000000E+00  0.13021879552E+04  0.13021879552E+04  0.50400001928E-02 0.  1.
       -1   -1    0    0    0  501  0.00000000000E+00  0.00000000000E+00 -0.54322219808E+03  0.54322219811E+03  0.50400001928E-02 0. -1.
    10030    2    1    2    0    0  0.00000000000E+00  0.00000000000E+00  0.75896575709E+03  0.18454101533E+04  0.16821146255E+04 0.  0.
        4    1    3    3  502    0 -0.54177828668E+03  0.42975783717E+03  0.90466144195E+03  0.11386963809E+04  0.12699999809E+01 0.  1.
       -4    1    3    3    0  502  0.54177828668E+03 -0.42975783717E+03 -0.14569568486E+03  0.70671377234E+03  0.12699999809E+01 0. -1.
</event>
<event>
 5   0  0.1815663E-04  0.1703323E+04  0.7818609E-02  0.8759472E-01
       -1   -1    0    0    0  501  0.00000000000E+00  0.00000000000E+00  0.59177010338E+03  0.59177010340E+03  0.50400001928E-02 0. -1.
        1   -1    0    0  501    0  0.00000000000E+00  0.00000000000E+00 -0.12256904039E+04  0.12256904039E+04  0.50400001928E-02 0.  1.
    10030    2    1    2    0    0  0.00000000000E+00  0.00000000000E+00 -0.63392030051E+03  0.18174605073E+04  0.17033225614E+04 0.  0.
        5    1    3    3  502    0  0.61176626380E+03  0.39722566120E+03  0.15210974956E+03  0.74512123399E+03  0.46999998093E+01 0.  1.
       -5    1    3    3    0  502 -0.61176626380E+03 -0.39722566120E+03 -0.78603005007E+03  0.10723392733E+04  0.46999998093E+01 0. -1.
</event>
<event>
 5   0  0.1930116E-04  0.1714925E+04  0.7818609E-02  0.8752897E-01
        1   -1    0    0  501    0  0.00000000000E+00  0.00000000000E+00  0.98942371475E+03  0.98942371476E+03  0.50400001928E-02 0. -1.
       -1   -1    0    0    0  501  0.00000000000E+00  0.00000000000E+00 -0.74310146561E+03  0.74310146563E+03  0.50400001928E-02 0.  1.
    10030    2    1    2    0    0  0.00000000000E+00  0.00000000000E+00  0.24632224914E+03  0.17325251804E+04  0.17149253192E+04 0.  0.
        1    1    3    3  502    0  0.67881252381E+03  0.52190007184E+03  0.77129434943E+02  0.85971802193E+03  0.50400001928E-02 0. -1.
       -1    1    3    3    0  502 -0.67881252381E+03 -0.52190007184E+03  0.16919281420E+03  0.87280715847E+03  0.50400001928E-02 0.  1.
</event>
<event>
 5   0  0.3605571E-04  0.1712892E+04  0.7818609E-02  0.8754045E-01
       -2   -1    0    0    0  501  0.00000000000E+00  0.00000000000E+00  0.36459560923E+03  0.36459560924E+03  0.25500000920E-02 0.  1.
        2   -1    0    0  501    0  0.00000000000E+00  0.00000000000E+00 -0.20118177589E+04  0.20118177589E+04  0.25500000920E-02 0. -1.
    10030    2    1    2    0    0  0.00000000000E+00  0.00000000000E+00 -0.16472221496E+04  0.23764133681E+04  0.17128921991E+04 0.  0.
        4    1    3    3  502    0 -0.40190116542E+03 -0.24119759817E+03 -0.18180724971E+04  0.18775223156E+04  0.12699999809E+01 0. -1.
       -4    1    3    3    0  502  0.40190116542E+03  0.24119759817E+03  0.17085034744E+03  0.49889105249E+03  0.12699999809E+01 0.  1.
</event>
<event>
 5   0  0.3516723E-04  0.1694694E+04  0.7818609E-02  0.8764397E-01
       -2   -1    0    0    0  501  0.00000000000E+00  0.00000000000E+00  0.10026436829E+04  0.10026436829E+04  0.25500000920E-02 0. -1.
        2   -1    0    0  501    0  0.00000000000E+00  0.00000000000E+00 -0.71610344109E+03  0.71610344109E+03  0.25500000920E-02 0.  1.
    10030    2    1    2    0    0  0.00000000000E+00  0.00000000000E+00  0.28654024184E+03  0.17187471240E+04  0.16946935906E+04 0.  0.
        1    1    3    3  502    0 -0.48743389322E+03 -0.16001736067E+03  0.82723005303E+03  0.97339966952E+03  0.50400001928E-02 0. -1.
       -1    1    3    3    0  502  0.48743389322E+03  0.16001736067E+03 -0.54068981119E+03  0.74534745450E+03  0.50400001928E-02 0.  1.
</event>
<event>
 5   0  0.3678896E-04  0.1642425E+04  0.7818609E-02  0.8794900E-01
        2   -1    0    0  501    0  0.00000000000E+00  0.00000000000E+00  0.14473423231E+04  0.14473423231E+04  0.25500000920E-02 0.  1.
       -2   -1    0    0    0  501  0.00000000000E+00  0.00000000000E+00 -0.46595053099E+03  0.46595053100E+03  0.25500000920E-02 0. -1.
    10030    2    1    2    0    0  0.00000000000E+00  0.00000000000E+00  0.98139179216E+03  0.19132928541E+04  0.16424249438E+04 0.  0.
        2    1    3    3  502    0  0.92958202256E+01  0.59531437292E+03  0.11495753461E+04  0.12946076978E+04  0.25500000920E-02 0.  1.
       -2    1    3    3    0  502 -0.92958202256E+01 -0.59531437292E+03 -0.16818355391E+03  0.61868515636E+03  0.25500000920E-02 0. -1.
</event>
<event>
 5   0  0.1824538E-04  0.1699908E+04  0.7818609E-02  0.8761417E-01
       -1   -1    0    0    0  501  0.00000000000E+00  0.00000000000E+00  0.70196991398E+03  0.70196991400E+03  0.50400001928E-02 0.  1.
        1   -1    0    0  501    0  0.00000000000E+00  0.00000000000E+00 -0.10291355592E+04  0.10291355592E+04  0.50400001928E-02 0. -1.
    10030    2    1    2    0    0  0.00000000000E+00  0.00000000000E+00 -0.32716564518E+03  0.17311054732E+04  0.16999084681E+04 0.  0.
        3    1    3    3  502    0 -0.18162696264E+02  0.58962976088E+03  0.45955306082E+03  0.74778483828E+03  0.10100000352E+00 0.  1.
       -3    1    3    3    0  502  0.18162696264E+02 -0.58962976088E+03 -0.78671870599E+03  0.98332063490E+03  0.10100000352E+00 0. -1.
</event>
<event>
 5   0  0.3574092E-04  0.1699361E+04  0.7818609E-02  0.8761729E-01
       -2   -1    0    0    0  501  0.00000000000E+00  0.00000000000E+00  0.10257101166E+04  0.10257101166E+04  0.25500000920E-02 0. -1.
        2   -1    0    0  501    0  0.00000000000E+00  0.00000000000E+00 -0.70386066696E+03  0.70386066696E+03  0.25500000920E-02 0.  1.
    10030    2    1    2    0    0  0.00000000000E+00  0.00000000000E+00  0.32184944961E+03  0.17295707835E+04  0.16993610644E+04 0.  0.
        3    1    3    3  502    0 -0.98983143420E+02  0.67264486092E+03 -0.35775052990E+03  0.76826702614E+03  0.10100000352E+00 0.  1.
       -3    1    3    3    0  502  0.98983143420E+02 -0.67264486092E+03  0.67959997952E+03  0.96130375739E+03  0.10100000352E+00 0. -1.
</event>
<event>
 5   0  0.3573262E-04  0.1626826E+04  0.7818609E-02  0.8804235E-01
        2   -1    0    0  501    0  0.00000000000E+00  0.00000000000E+00  0.78598616612E+03  0.78598616613E+03  0.25500000920E-02 0.  1.
       -2   -1    0    0    0  501  0.00000000000E+00  0.00000000000E+00 -0.84179708678E+03  0.84179708678E+03  0.25500000920E-02 0. -1.
    10030    2    1    2    0    0  0.00000000000E+00  0.00000000000E+00 -0.55810920655E+02  0.16277832529E+04  0.16268261922E+04 0.  0.
        5    1    3    3  502    0 -0.42005218165E+02  0.43610934358E+03 -0.71362825005E+03  0.83740263146E+03  0.46999998093E+01 0.  1.
       -5    1    3    3    0  502  0.42005218165E+02 -0.43610934358E+03  0.65781732940E+03  0.79038062145E+03  0.46999998093E+01 0. -1.
</event>
<event>
 5   0  0.3516723E-04  0.1723702E+04  0.7818609E-02  0.8747961E-01
       -2   -1    0    0    0  501  0.00000000000E+00  0.00000000000E+00  0.98371271748E+03  0.98371271749E+03  0.25500000920E-02 0. -1.
        2   -1    0    0  501    0  0.00000000000E+00  0.00000000000E+00 -0.75508515008E+03  0.75508515008E+03  0.25500000920E-02 0.  1.
    10030    2    1    2    0    0  0.00000000000E+00  0.00000000000E+00  0.22862756741E+03  0.17387978676E+04  0.17237016736E+04 0.  0.
        1    1    3    3  502    0 -0.89414795019E+02 -0.16412277371E+03  0.96302379261E+03  0.98099241362E+03  0.50400001928E-02 0. -1.
       -1    1    3    3    0  502  0.89414795019E+02  0.16412277371E+03 -0.73439622520E+03  0.75780545395E+03  0.50400001928E-02 0.  1.
</event>
<event>
 5   0  0.1824538E-04  0.1709070E+04  0.7818609E-02  0.8756208E-01
        1   -1    0    0  501    0  0.00000000000E+00  0.00000000000E+00  0.60597103347E+03  0.60597103349E+03  0.50400001928E-02 0. -1.
       -1   -1    0    0    0  501  0.00000000000E+00  0.00000000000E+00 -0.12050574594E+04  0.12050574594E+04  0.50400001928E-02 0.  1.
    10030    2    1    2    0    0  0.00000000000E+00  0.00000000000E+00 -0.59908642592E+03  0.18110284929E+04  0.17090698220E+04 0.  0.
        3    1    3    3  502    0 -0.27781378671E+03  0.29971300727E+03 -0.10947958108E+04  0.11685830156E+04  0.10100000352E+00 0.  1.
       -3    1    3    3    0  502  0.27781378671E+03 -0.29971300727E+03  0.49570938488E+03  0.64244547728E+03  0.10100000352E+00 0. -1.
</event>
<event>
 5   0  0.1920289E-04  0.1681728E+04  0.7818609E-02  0.8771855E-01
        1   -1    0    0  501    0  0.00000000000E+00  0.00000000000E+00  0.12222964283E+04  0.12222964283E+04  0.50400001928E-02 0.  1.
       -1   -1    0    0    0  501  0.00000000000E+00  0.00000000000E+00 -0.57846208879E+03  0.57846208881E+03  0.50400001928E-02 0. -1.
    10030    2    1    2    0    0  0.00000000000E+00  0.00000000000E+00  0.64383433952E+03  0.18007585171E+04  0.16817278556E+04 0.  0.
        4    1    3    3  502    0  0.29398613403E+02  0.82103403880E+03  0.51373116581E+03  0.96895949088E+03  0.12699999809E+01 0.  1.
       -4    1    3    3    0  502 -0.29398613403E+02 -0.82103403880E+03  0.13010317371E+03  0.83179902624E+03  0.12699999809E+01 0. -1.
</event>
<event>
 5   0  0.1824538E-04  0.1695744E+04  0.7818609E-02  0.8763795E-01
        1   -1    0    0  501    0  0.00000000000E+00  0.00000000000E+00  0.13342175204E+04  0.13342175204E+04  0.50400001928E-02 0.  1.
       -1   -1    0    0    0  501  0.00000000000E+00  0.00000000000E+00 -0.53880805478E+03  0.53880805480E+03  0.50400001928E-02 0. -1.
    10030    2    1    2    0    0  0.00000000000E+00  0.00000000000E+00  0.79540946560E+03  0.18730255752E+04  0.16957442577E+04 0.  0.
        3    1    3    3  502    0  0.80731452284E+03 -0.13614711956E+03  0.64119201629E+03  0.10399134526E+04  0.10100000352E+00 0.  1.
       -3    1    3    3    0  502 -0.80731452284E+03  0.13614711956E+03  0.15421744932E+03  0.83311212260E+03  0.10100000352E+00 0. -1.
</event>
<event>
 5   0  0.3516723E-04  0.1566857E+04  0.7818609E-02  0.8841172E-01
        2   -1    0    0  501    0  0.00000000000E+00  0.00000000000E+00  0.14938633008E+04  0.14938633008E+04  0.25500000920E-02 0.  1.
       -2   -1    0    0    0  501  0.00000000000E+00  0.00000000000E+00 -0.41085433602E+03  0.41085433603E+03  0.25500000920E-02 0. -1.
    10030    2    1    2    0    0  0.00000000000E+00  0.00000000000E+00  0.10830089648E+04  0.19047176368E+04  0.15668569999E+04 0.  0.
        1    1    3    3  502    0 -0.33502320905E+03  0.32591170228E+03  0.13058070557E+04  0.13869358511E+04  0.50400001928E-02 0.  1.
       -1    1    3    3    0  502  0.33502320905E+03 -0.32591170228E+03 -0.22279809094E+03  0.51778178573E+03  0.50400001928E-02 0. -1.
</event>
<event>
 5   0  0.3573262E-04  0.1661237E+04  0.7818609E-02  0.8783786E-01
        2   -1    0    0  501    0  0.00000000000E+00  0.00000000000E+00  0.20286501567E+04  0.20286501567E+04  0.25500000920E-02 0.  1.
       -2   -1    0    0    0  501  0.00000000000E+00  0.00000000000E+00 -0.34009178499E+03  0.34009178500E+03  0.25500000920E-02 0. -1.
    10030    2    1    2    0    0  0.00000000000E+00  0.00000000000E+00  0.16885583717E+04  0.23687419417E+04  0.16612371931E+04 0.  0.
        5    1    3    3  502    0  0.52073087259E+03 -0.61934411963E+03  0.11116379176E+04  0.13749577193E+04  0.46999998093E+01 0.  1.
       -5    1    3    3    0  502 -0.52073087259E+03  0.61934411963E+03  0.57692045413E+03  0.99378422235E+03  0.46999998093E+01 0. -1.
</event>
<event>
 5   0  0.3678896E-04  0.1709435E+04  0.7818609E-02  0.8756001E-01
        2   -1    0    0  501    0  0.00000000000E+00  0.00000000000E+00  0.13137361827E+04  0.13137361827E+04  0.25500000920E-02 0.  1.
       -2   -1    0    0    0  501  0.00000000000E+00  0.00000000000E+00 -0.55607966019E+03  0.55607966019E+03  0.25500000920E-02 0. -1.
    10030    2    1    2    0    0  0.00000000000E+00  0.00000000000E+00  0.75765652253E+03  0.18698158429E+04  0.17094349594E+04 0.  0.
        2    1    3    3  502    0  0.33797651394E+03 -0.72658195473E+03  0.70403084314E+03  0.10666812500E+04  0.25500000920E-02 0.  1.
       -2    1    3    3    0  502 -0.33797651394E+03  0.72658195473E+03  0.53625679390E+02  0.80313459296E+03  0.25500000920E-02 0. -1.
</event>
<event>
 5   0  0.3574092E-04  0.1711001E+04  0.7818609E-02  0.8755115E-01
        2   -1    0    0  501    0  0.00000000000E+00  0.00000000000E+00  0.14897215562E+04  0.14897215562E+04  0.25500000920E-02 0. -1.
       -2   -1    0    0    0  501  0.00000000000E+00  0.00000000000E+00 -0.49128714112E+03  0.49128714113E+03  0.25500000920E-02 0.  1.
    10030    2    1    2    0    0  0.00000000000E+00  0.00000000000E+00  0.99843441512E+03  0.19810086974E+04  0.17110009286E+04 0.  0.
        3    1    3    3  502    0  0.56551067072E+03  0.24790523698E+03  0.11847931008E+04  0.13360366863E+04  0.10100000352E+00 0. -1.
       -3    1    3    3    0  502 -0.56551067072E+03 -0.24790523698E+03 -0.18635868563E+03  0.64497201112E+03  0.10100000352E+00 0.  1.
</event>
<event>
 5   0  0.3678896E-04  0.1685110E+04  0.7818609E-02  0.8769902E-01
        2   -1    0    0  501    0  0.00000000000E+00  0.00000000000E+00  0.89470094564E+03  0.89470094564E+03  0.25500000920E-02 0.  1.
       -2   -1    0    0    0  501  0.00000000000E+00  0.00000000000E+00 -0.79344835431E+03  0.79344835431E+03  0.25500000920E-02 0. -1.
    10030    2    1    2    0    0  0.00000000000E+00  0.00000000000E+00  0.10125259133E+03  0.16881493000E+04  0.16851100770E+04 0.  0.
        2    1    3    3  502    0  0.43730548991E+03  0.58831893823E+03  0.46675930422E+03  0.86903366601E+03  0.25500000920E-02 0.  1.
       -2    1    3    3    0  502 -0.43730548991E+03 -0.58831893823E+03 -0.36550671289E+03  0.81911563394E+03  0.25500000920E-02 0. -1.
</event>
<event>
 5   0  0.3574092E-04  0.1699618E+04  0.7818609E-02  0.8761582E-01
       -2   -1    0    0    0  501  0.00000000000E+00  0.00000000000E+00  0.49075345516E+03  0.49075345516E+03  0.25500000920E-02 0. -1.
        2   -1    0    0  501    0  0.00000000000E+00  0.00000000000E+00 -0.14715648382E+04  0.14715648382E+04  0.25500000920E-02 0.  1.
    10030    2    1    2    0    0  0.00000000000E+00  0.00000000000E+00 -0.98081138302E+03  0.19623182933E+04  0.16996182263E+04 0.  0.
        3    1    3    3  502    0 -0.78999649206E+03  0.71351867707E+02 -0.13832992653E+03  0.80518365934E+03  0.10100000352E+00 0. -1.
       -3    1    3    3    0  502  0.78999649206E+03 -0.71351867707E+02 -0.84248145649E+03  0.11571346340E+04  0.10100000352E+00 0.  1.
</event>
<event>
 5   0  0.3574092E-04  0.1696416E+04  0.7818609E-02  0.8763411E-01
        2   -1    0    0  501    0  0.00000000000E+00  0.00000000000E+00  0.48351310643E+03  0.48351310644E+03  0.25500000920E-02 0. -1.
       -2   -1    0    0    0  501  0.00000000000E+00  0.00000000000E+00 -0.14879771517E+04  0.14879771518E+04  0.25500000920E-02 0.  1.
    10030    2    1    2    0    0  0.00000000000E+00  0.00000000000E+00 -0.10044640453E+04  0.19714902582E+04  0.16964155799E+04 0.  0.
        3    1    3    3  502    0 -0.21995866357E+03  0.62612462104E+02  0.44700688583E+03  0.50211283619E+03  0.10100000352E+00 0. -1.
       -3    1    3    3    0  502  0.21995866357E+03 -0.62612462104E+02 -0.14514709311E+04  0.14693774220E+04  0.10100000352E+00 0.  1.
</event>
<event>
 5   0  0.3605571E-04  0.1692678E+04  0.7818609E-02  0.8765552E-01
       -2   -1    0    0    0  501  0.00000000000E+00  0.00000000000E+00  0.12029651632E+04  0.12029651632E+04  0.25500000920E-02 0.  1.
        2   -1    0    0  501    0  0.00000000000E+00  0.00000000000E+00 -0.59543650471E+03  0.59543650472E+03  0.25500000920E-02 0. -1.
    10030    2    1    2    0    0  0.00000000000E+00  0.00000000000E+00  0.60752865849E+03  0.17984016679E+04  0.16926776091E+04 0.  0.
        4    1    3    3  502    0  0.17609063120E+03  0.79496048401E+03  0.58435797512E+02  0.81632495788E+03  0.12699999809E+01 0.  1.
       -4    1    3    3    0  502 -0.17609063120E+03 -0.79496048401E+03  0.54909286098E+03  0.98207671005E+03  0.12699999809E+01 0. -1.
</event>
<event>
 5   0  0.1815663E-04  0.1699292E+04  0.7818609E-02  0.8761768E-01
        1   -1    0    0  501    0  0.00000000000E+00  0.00000000000E+00  0.78902096582E+03  0.78902096583E+03  0.50400001928E-02 0.  1.
       -1   -1    0    0    0  501  0.00000000000E+00  0.00000000000E+00 -0.91492891938E+03  0.91492891940E+03  0.50400001928E-02 0. -1.
    10030    2    1    2    0    0  0.00000000000E+00  0.00000000000E+00 -0.12590795356E+03  0.17039498852E+04  0.16992917344E+04 0.  0.
        5    1    3    3  502    0 -0.24486180677E+03 -0.11585328062E+03  0.74454645914E+03  0.79230726796E+03  0.46999998093E+01 0.  1.
       -5    1    3    3    0  502  0.24486180677E+03  0.11585328062E+03 -0.87045441270E+03  0.91164261727E+03  0.46999998093E+01 0. -1.
</event>
<event>
 5   0  0.1893284E-04  0.1709696E+04  0.7818609E-02  0.8755853E-01
        1   -1    0    0  501    0  0.00000000000E+00  0.00000000000E+00  0.90466860613E+03  0.90466860614E+03  0.50400001928E-02 0.  1.
       -1   -1    0    0    0  501  0.00000000000E+00  0.00000000000E+00 -0.80777138352E+03  0.80777138354E+03  0.50400001928E-02 0. -1.
    10030    2    1    2    0    0  0.00000000000E+00  0.00000000000E+00  0.96897222606E+02  0.17124399897E+04  0.17096963609E+04 0.  0.
        2    1    3    3  502    0 -0.24864487797E+03 -0.43526648626E+03 -0.64511058442E+03  0.81697543142E+03  0.25500000920E-02 0. -1.
       -2    1    3    3    0  502  0.24864487797E+03  0.43526648626E+03  0.74200780703E+03  0.89546455826E+03  0.25500000920E-02 0.  1.
</event>
<event>
 5   0  0.1893284E-04  0.1605464E+04  0.7818609E-02  0.8817198E-01
       -1   -1    0    0    0  501  0.00000000000E+00  0.00000000000E+00  0.93639444703E+03  0.93639444704E+03  0.50400001928E-02 0. -1.
        1   -1    0    0  501    0  0.00000000000E+00  0.00000000000E+00 -0.68814890312E+03  0.68814890314E+03  0.50400001928E-02 0.  1.
    10030    2    1    2    0    0  0.00000000000E+00  0.00000000000E+00  0.24824554391E+03  0.16245433502E+04  0.16054641841E+04 0.  0.
        2    1    3    3  502    0  0.66178228671E+03  0.38274202519E+03  0.37184128823E+03  0.85012540045E+03  0.25500000920E-02 0. -1.
       -2    1    3    3    0  502 -0.66178228671E+03 -0.38274202519E+03 -0.12359574432E+03  0.77441794973E+03  0.25500000920E-02 0.  1.
</event>
<event>
 5   0  0.1824538E-04  0.1676223E+04  0.7818609E-02  0.8775042E-01
        1   -1    0    0  501    0  0.00000000000E+00  0.00000000000E+00  0.62152282372E+03  0.62152282375E+03  0.50400001928E-02 0. -1.
       -1   -1    0    0    0  501  0.00000000000E+00  0.00000000000E+00 -0.11301775589E+04  0.11301775589E+04  0.50400001928E-02 0.  1.
    10030    2    1    2    0    0  0.00000000000E+00  0.00000000000E+00 -0.50865473517E+03  0.17517003827E+04  0.16762233118E+04 0.  0.
        3    1    3    3  502    0  0.54098455511E+03  0.11179963708E+03  0.40434519202E+03  0.68458636579E+03  0.10100000352E+00 0. -1.
       -3    1    3    3    0  502 -0.54098455511E+03 -0.11179963708E+03 -0.91299992719E+03  0.10671140169E+04  0.10100000352E+00 0.  1.
</event>
<event>
 5   0  0.3516723E-04  0.1724420E+04  0.7818609E-02  0.8747558E-01
       -2   -1    0    0    0  501  0.00000000000E+00  0.00000000000E+00  0.38882005271E+03  0.38882005272E+03  0.25500000920E-02 0.  1.
        2   -1    0    0  501    0  0.00000000000E+00  0.00000000000E+00 -0.19119544524E+04  0.19119544524E+04  0.25500000920E-02 0. -1.
    10030    2    1    2    0    0  0.00000000000E+00  0.00000000000E+00 -0.15231343997E+04  0.23007745052E+04  0.17244201704E+04 0.  0.
        1    1    3    3  502    0 -0.75376807152E+03  0.41665957926E+03 -0.70762201402E+03  0.11146750313E+04  0.50400001928E-02 0.  1.
       -1    1    3    3    0  502  0.75376807152E+03 -0.41665957926E+03 -0.81551238571E+03  0.11860994739E+04  0.50400001928E-02 0. -1.
</event>
<event>
 5   0  0.1824538E-04  0.1711769E+04  0.7818609E-02  0.8754680E-01
        1   -1    0    0  501    0  0.00000000000E+00  0.00000000000E+00  0.47254312124E+03  0.47254312127E+03  0.50400001928E-02 0. -1.
       -1   -1    0    0    0  501  0.00000000000E+00  0.00000000000E+00 -0.15502037705E+04  0.15502037705E+04  0.50400001928E-02 0.  1.
    10030    2    1    2    0    0  0.00000000000E+00  0.00000000000E+00 -0.10776606493E+04  0.20227468918E+04  0.17117688259E+04 0.  0.
        3    1    3    3  502    0 -0.14072252495E+02 -0.85177444974E+03 -0.44124138311E+03  0.95938089927E+03  0.10100000352E+00 0. -1.
       -3    1    3    3    0  502  0.14072252495E+02  0.85177444974E+03 -0.63641926618E+03  0.10633659925E+04  0.10100000352E+00 0.  1.
</event>
<event>
 5   0  0.3574092E-04  0.1664233E+04  0.7818609E-02  0.8782031E-01
       -2   -1    0    0    0  501  0.00000000000E+00  0.00000000000E+00  0.44367348358E+03  0.44367348359E+03  0.25500000920E-02 0. -1.
        2   -1    0    0  501    0  0.00000000000E+00  0.00000000000E+00 -0.15606473422E+04  0.15606473422E+04  0.25500000920E-02 0.  1.
    10030    2    1    2    0    0  0.00000000000E+00  0.00000000000E+00 -0.11169738586E+04  0.20043208258E+04  0.16642329680E+04 0.  0.
        3    1    3    3  502    0  0.75570152930E+02  0.45704779951E+03 -0.13909839476E+04  0.14660968221E+04  0.10100000352E+00 0.  1.
       -3    1    3    3    0  502 -0.75570152930E+02 -0.45704779951E+03  0.27401008901E+03  0.53822400368E+03  0.10100000352E+00 0. -1.
</event>
<event>
 5   0  0.1930116E-04  0.1703968E+04  0.7818609E-02  0.8759105E-01
       -1   -1    0    0    0  501  0.00000000000E+00  0.00000000000E+00  0.51954677360E+03  0.51954677363E+03  0.50400001928E-02 0. -1.
        1   -1    0    0  501    0  0.00000000000E+00  0.00000000000E+00 -0.13971345036E+04  0.13971345036E+04  0.50400001928E-02 0.  1.
    10030    2    1    2    0    0  0.00000000000E+00  0.00000000000E+00 -0.87758772997E+03  0.19166812772E+04  0.17039679852E+04 0.  0.
        1    1    3    3  502    0 -0.28783128559E+03  0.21991779939E+03 -0.13062050883E+04  0.13555008006E+04  0.50400001928E-02 0.  1.
       -1    1    3    3    0  502  0.28783128559E+03 -0.21991779939E+03  0.42861735838E+03  0.56118047665E+03  0.50400001928E-02 0. -1.
</event>
<event>
 5   0  0.3605571E-04  0.1671057E+04  0.7818609E-02  0.8778046E-01
        2   -1    0    0  501    0  0.00000000000E+00  0.00000000000E+00  0.86877880966E+03  0.86877880966E+03  0.25500000920E-02 0.  1.
       -2   -1    0    0    0  501  0.00000000000E+00  0.00000000000E+00 -0.80355079187E+03  0.80355079188E+03  0.25500000920E-02 0. -1.
    10030    2    1    2    0    0  0.00000000000E+00  0.00000000000E+00  0.65228017787E+02  0.16723296015E+04  0.16710570313E+04 0.  0.
        4    1    3    3  502    0 -0.64345616670E+03  0.52191271979E+03 -0.75531053757E+02  0.83194668009E+03  0.12699999809E+01 0.  1.
       -4    1    3    3    0  502  0.64345616670E+03 -0.52191271979E+03  0.14075907154E+03  0.84038292145E+03  0.12699999809E+01 0. -1.
</event>
<event>
 5   0  0.3605571E-04  0.1637494E+04  0.7818609E-02  0.8797839E-01
       -2   -1    0    0    0  501  0.00000000000E+00  0.00000000000E+00  0.40209903071E+03  0.40209903072E+03  0.25500000920E-02 0. -1.
        2   -1    0    0  501    0  0.00000000000E+00  0.00000000000E+00 -0.16671187791E+04  0.16671187791E+04  0.25500000920E-02 0.  1.
    10030    2    1    2    0    0  0.00000000000E+00  0.00000000000E+00 -0.12650197484E+04  0.20692178098E+04  0.16374942384E+04 0.  0.
        4    1    3    3  502    0 -0.14443728821E+03 -0.24371177309E+03  0.33818938584E+03  0.44117029837E+03  0.12699999809E+01 0. -1.
       -4    1    3    3    0  502  0.14443728821E+03  0.24371177309E+03 -0.16032091343E+04  0.16280475115E+04  0.12699999809E+01 0.  1.
</event>
<event>
 5   0  0.1815663E-04  0.1700887E+04  0.7818609E-02  0.8760859E-01
       -1   -1    0    0    0  501  0.00000000000E+00  0.00000000000E+00  0.11222110223E+04  0.11222110223E+04  0.50400001928E-02 0. -1.
        1   -1    0    0  501    0  0.00000000000E+00  0.00000000000E+00 -0.64449040142E+03  0.64449040144E+03  0.50400001928E-02 0.  1.
    10030    2    1    2    0    0  0.00000000000E+00  0.00000000000E+00  0.47772062086E+03  0.17667014237E+04  0.17008871006E+04 0.  0.
        5    1    3    3  502    0 -0.71162339118E+03 -0.45249027274E+03  0.12471333510E+03  0.85248507538E+03  0.46999998093E+01 0. -1.
       -5    1    3    3    0  502  0.71162339118E+03  0.45249027274E+03  0.35300728576E+03  0.91421634835E+03  0.46999998093E+01 0.  1.
</event>
<event>
 5   0  0.1824538E-04  0.1664718E+04  0.7818609E-02  0.8781747E-01
        1   -1    0    0  501    0  0.00000000000E+00  0.00000000000E+00  0.59391040239E+03  0.59391040242E+03  0.50400001928E-02 0. -1.
       -1   -1    0    0    0  501  0.00000000000E+00  0.00000000000E+00 -0.11665427789E+04  0.11665427789E+04  0.50400001928E-02 0.  1.
    10030    2    1    2    0    0  0.00000000000E+00  0.00000000000E+00 -0.57263237650E+03  0.17604531813E+04  0.16647184642E+04 0.  0.
        3    1    3    3  502    0  0.64177926477E+03 -0.40841703353E+03  0.70953768215E+02  0.76401540913E+03  0.10100000352E+00 0. -1.
       -3    1    3    3    0  502 -0.64177926477E+03  0.40841703353E+03 -0.64358614471E+03  0.99643777218E+03  0.10100000352E+00 0.  1.
</event>
<event>
 5   0  0.1893284E-04  0.1734412E+04  0.7818609E-02  0.8741978E-01
        1   -1    0    0  501    0  0.00000000000E+00  0.00000000000E+00  0.14651865503E+04  0.14651865503E+04  0.50400001928E-02 0. -1.
       -1   -1    0    0    0  501  0.00000000000E+00  0.00000000000E+00 -0.51327687468E+03  0.51327687471E+03  0.50400001928E-02 0.  1.
    10030    2    1    2    0    0  0.00000000000E+00  0.00000000000E+00  0.95190967562E+03  0.19784634250E+04  0.17344121464E+04 0.  0.
        2    1    3    3  502    0  0.51196267289E+03  0.64719840384E+02  0.12709838741E+04  0.13717486812E+04  0.25500000920E-02 0. -1.
       -2    1    3    3    0  502 -0.51196267289E+03 -0.64719840384E+02 -0.31907419850E+03  0.60671474379E+03  0.25500000920E-02 0.  1.
</event>
<event>
 5   0  0.3605571E-04  0.1691643E+04  0.7818609E-02  0.8766145E-01
       -2   -1    0    0    0  501  0.00000000000E+00  0.00000000000E+00  0.36227644157E+03  0.36227644158E+03  0.25500000920E-02 0. -1.
        2   -1    0    0  501    0  0.00000000000E+00  0.00000000000E+00 -0.19747733851E+04  0.19747733851E+04  0.25500000920E-02 0.  1.
    10030    2    1    2    0    0  0.00000000000E+00  0.00000000000E+00 -0.16124969435E+04  0.23370498266E+04  0.16916428404E+04 0.  0.
        4    1    3    3  502    0  0.34824051220E+03  0.76994366344E+03 -0.85658541325E+03  0.12032559505E+04  0.12699999809E+01 0.  1.
       -4    1    3    3    0  502 -0.34824051220E+03 -0.76994366344E+03 -0.75591153024E+03  0.11337938762E+04  0.12699999809E+01 0. -1.
</event>
<event>
 5   0  0.1824538E-04  0.1684730E+04  0.7818609E-02  0.8770122E-01
       -1   -1    0    0    0  501  0.00000000000E+00  0.00000000000E+00  0.61159747748E+03  0.61159747750E+03  0.50400001928E-02 0.  1.
        1   -1    0    0  501    0  0.00000000000E+00  0.00000000000E+00 -0.11602049413E+04  0.11602049413E+04  0.50400001928E-02 0. -1.
    10030    2    1    2    0    0  0.00000000000E+00  0.00000000000E+00 -0.54860746378E+03  0.17718024188E+04  0.16847295515E+04 0.  0.
        3    1    3    3  502    0  0.25316378858E+03  0.35554105224E+03  0.48340277210E+03  0.65129071386E+03  0.10100000352E+00 0.  1.
       -3    1    3    3    0  502 -0.25316378858E+03 -0.35554105224E+03 -0.10320102359E+04  0.11205117049E+04  0.10100000352E+00 0. -1.
</event>
<event>
 5   0  0.3678896E-04  0.1697610E+04  0.7818609E-02  0.8762729E-01
        2   -1    0    0  501    0  0.00000000000E+00  0.00000000000E+00  0.12384643531E+04  0.12384643531E+04  0.25500000920E-02 0.  1.
       -2   -1    0    0    0  501  0.00000000000E+00  0.00000000000E+00 -0.58174431441E+03  0.58174431442E+03  0.25500000920E-02 0. -1.
    10030    2    1    2    0    0  0.00000000000E+00  0.00000000000E+00  0.65672003865E+03  0.18202086675E+04  0.16976096088E+04 0.  0.
        2    1    3    3  502    0  0.61444789782E+03  0.26028815323E+03  0.89081351593E+03  0.11130340795E+04  0.25500000920E-02 0.  1.
       -2    1    3    3    0  502 -0.61444789782E+03 -0.26028815323E+03 -0.23409347728E+03  0.70717458803E+03  0.25500000920E-02 0. -1.
</event>
<event>
 5   0  0.3605571E-04  0.1542893E+04  0.7818609E-02  0.8856420E-01
       -2   -1    0    0    0  501  0.00000000000E+00  0.00000000000E+00  0.89480883640E+03  0.89480883640E+03  0.25500000920E-02 0.  1.
        2   -1    0    0  501    0  0.00000000000E+00  0.00000000000E+00 -0.66509124661E+03  0.66509124662E+03  0.25500000920E-02 0. -1.
    10030    2    1    2    0    0  0.00000000000E+00  0.00000000000E+00  0.22971758978E+03  0.15599000830E+04  0.15428927694E+04 0.  0.
        4    1    3    3  502    0 -0.45000268062E+03  0.53621245973E+03  0.44262630474E+03  0.82821849357E+03  0.12699999809E+01 0.  1.
       -4    1    3    3    0  502  0.45000268062E+03 -0.53621245973E+03 -0.21290871495E+03  0.73168158945E+03  0.12699999809E+01 0. -1.
</event>
<event>
 5   0  0.1815663E-04  0.1717861E+04  0.7818609E-02  0.8751243E-01
       -1   -1    0    0    0  501  0.00000000000E+00  0.00000000000E+00  0.36905409282E+03  0.36905409285E+03  0.50400001928E-02 0.  1.
        1   -1    0    0  501    0  0.00000000000E+00  0.00000000000E+00 -0.19990611948E+04  0.19990611948E+04  0.50400001928E-02 0. -1.
    10030    2    1    2    0    0  0.00000000000E+00  0.00000000000E+00 -0.16300071020E+04  0.23681152877E+04  0.17178611304E+04 0.  0.
        5    1    3    3  502    0  0.41349041693E+03  0.12944200796E+03  0.20734764132E+03  0.48035892068E+03  0.46999998093E+01 0.  1.
       -5    1    3    3    0  502 -0.41349041693E+03 -0.12944200796E+03 -0.18373547433E+04  0.18877563670E+04  0.46999998093E+01 0. -1.
</event>
<event>
 5   0  0.1893284E-04  0.1650026E+04  0.7818609E-02  0.8790391E-01
        1   -1    0    0  501    0  0.00000000000E+00  0.00000000000E+00  0.11219365337E+04  0.11219365337E+04  0.50400001928E-02 0.  1.
       -1   -1    0    0    0  501  0.00000000000E+00  0.00000000000E+00 -0.60667135767E+03  0.60667135769E+03  0.50400001928E-02 0. -1.
    10030    2    1    2    0    0  0.00000000000E+00  0.00000000000E+00  0.51526517603E+03  0.17286078914E+04  0.16500263757E+04 0.  0.
        2    1    3    3  502    0 -0.49053392176E+02  0.20556404515E+03  0.10930983984E+04  0.11133404334E+04  0.25500000920E-02 0.  1.
       -2    1    3    3    0  502  0.49053392176E+02 -0.20556404515E+03 -0.57783322242E+03  0.61526745800E+03  0.25500000920E-02 0. -1.
</event>
<event>
 5   0  0.3678896E-04  0.1701149E+04  0.7818609E-02  0.8760709E-01
       -2   -1    0    0    0  501  0.00000000000E+00  0.00000000000E+00  0.42721025301E+03  0.42721025302E+03  0.25500000920E-02 0.  1.
        2   -1    0    0  501    0  0.00000000000E+00  0.00000000000E+00 -0.16934912954E+04  0.16934912954E+04  0.25500000920E-02 0. -1.
    10030    2    1    2    0    0  0.00000000000E+00  0.00000000000E+00 -0.12662810424E+04  0.21207015484E+04  0.17011488410E+04 0.  0.
        2    1    3    3  502    0  0.84525401678E+03 -0.92297334964E+02 -0.66111877218E+03  0.10770567218E+04  0.25500000920E-02 0. -1.
       -2    1    3    3    0  502 -0.84525401678E+03  0.92297334964E+02 -0.60516227017E+03  0.10436448266E+04  0.25500000920E-02 0.  1.
</event>
<event>
 5   0  0.3574092E-04  0.1704547E+04  0.7818609E-02  0.8758775E-01
       -2   -1    0    0    0  501  0.00000000000E+00  0.00000000000E+00  0.13725218955E+04  0.13725218955E+04  0.25500000920E-02 0. -1.
        2   -1    0    0  501    0  0.00000000000E+00  0.00000000000E+00 -0.52922300469E+03  0.52922300470E+03  0.25500000920E-02 0.  1.
    10030    2    1    2    0    0  0.00000000000E+00  0.00000000000E+00  0.84329889081E+03  0.19017449002E+04  0.17045470502E+04 0.  0.
        3    1    3    3  502    0 -0.31963751678E+03 -0.64372673856E+03 -0.89401892966E+02  0.72425476508E+03  0.10100000352E+00 0.  1.
       -3    1    3    3    0  502  0.31963751678E+03  0.64372673856E+03  0.93270078377E+03  0.11774901351E+04  0.10100000352E+00 0. -1.
</event>
<event>
 5   0  0.3573262E-04  0.1726638E+04  0.7818609E-02  0.8746316E-01
        2   -1    0    0  501    0  0.00000000000E+00  0.00000000000E+00  0.14514736474E+04  0.14514736474E+04  0.25500000920E-02 0.  1.
       -2   -1    0    0    0  501  0.00000000000E+00  0.00000000000E+00 -0.51349153904E+03  0.51349153904E+03  0.25500000920E-02 0. -1.
    10030    2    1    2    0    0  0.00000000000E+00  0.00000000000E+00  0.93798210837E+03  0.19649651865E+04  0.17266377004E+04 0.  0.
        5    1    3    3  502    0 -0.10666065449E+03  0.25017487519E+03  0.14014350635E+04  0.14275875772E+04  0.46999998093E+01 0.  1.
       -5    1    3    3    0  502  0.10666065449E+03 -0.25017487519E+03 -0.46345295508E+03  0.53737760929E+03  0.46999998093E+01 0. -1.
</event>
<event>
 5   0  0.1893284E-04  0.1694436E+04  0.7818609E-02  0.8764544E-01
        1   -1    0    0  501    0  0.00000000000E+00  0.00000000000E+00  0.10418297154E+04  0.10418297154E+04  0.50400001928E-02 0. -1.
       -1   -1    0    0    0  501  0.00000000000E+00  0.00000000000E+00 -0.68895964393E+03  0.68895964394E+03  0.50400001928E-02 0.  1.
    10030    2    1    2    0    0  0.00000000000E+00  0.00000000000E+00  0.35287007143E+03  0.17307893593E+04  0.16944363426E+04 0.  0.
        2    1    3    3  502    0  0.63334214988E+03  0.54616495508E+03  0.38028188067E+02  0.83717655250E+03  0.25500000920E-02 0.  1.
       -2    1    3    3    0  502 -0.63334214988E+03 -0.54616495508E+03  0.31484188337E+03  0.89361280681E+03  0.25500000920E-02 0. -1.
</event>
<event>
 5   0  0.3678896E-04  0.1724429E+04  0.7818609E-02  0.8747553E-01
        2   -1    0    0  501    0  0.00000000000E+00  0.00000000000E+00  0.20247253885E+04  0.20247253885E+04  0.25500000920E-02 0. -1.
       -2   -1    0    0    0  501  0.00000000000E+00  0.00000000000E+00 -0.36716778767E+03  0.36716778767E+03  0.25500000920E-02 0.  1.
    10030    2    1    2    0    0  0.00000000000E+00  0.00000000000E+00  0.16575576008E+04  0.23918931762E+04  0.17244291131E+04 0.  0.
        2    1    3    3  502    0  0.45300255717E+02 -0.13585421840E+03 -0.35055619483E+03  0.37867945226E+03  0.25500000920E-02 0.  1.
       -2    1    3    3    0  502 -0.45300255717E+02  0.13585421840E+03  0.20081137956E+04  0.20132137239E+04  0.25500000920E-02 0. -1.
</event>
<event>
 5   0  0.1893284E-04  0.1702058E+04  0.7818609E-02  0.8760191E-01
        1   -1    0    0  501    0  0.00000000000E+00  0.00000000000E+00  0.11978353110E+04  0.11978353110E+04  0.50400001928E-02 0.  1.
       -1   -1    0    0    0  501  0.00000000000E+00  0.00000000000E+00 -0.60463294393E+03  0.60463294395E+03  0.50400001928E-02 0. -1.
    10030    2    1    2    0    0  0.00000000000E+00  0.00000000000E+00  0.59320236710E+03  0.18024682550E+04  0.17020583897E+04 0.  0.
        2    1    3    3  502    0  0.48080578801E+03  0.11686150568E+03 -0.43664732181E+03  0.65991795016E+03  0.25500000920E-02 0. -1.
       -2    1    3    3    0  502 -0.48080578801E+03 -0.11686150568E+03  0.10298496889E+04  0.11425503048E+04  0.25500000920E-02 0.  1.
</event>
<event>
 5   0  0.3573262E-04  0.1718992E+04  0.7818609E-02  0.8750606E-01
        2   -1    0    0  501    0  0.00000000000E+00  0.00000000000E+00  0.13225927435E+04  0.13225927435E+04  0.25500000920E-02 0. -1.
       -2   -1    0    0    0  501  0.00000000000E+00  0.00000000000E+00 -0.55854941618E+03  0.55854941618E+03  0.25500000920E-02 0.  1.
    10030    2    1    2    0    0  0.00000000000E+00  0.00000000000E+00  0.76404332733E+03  0.18811421597E+04  0.17189920357E+04 0.  0.
        5    1    3    3  502    0 -0.20772363915E+03 -0.69579104922E+03  0.88521892315E+03  0.11449493117E+04  0.46999998093E+01 0. -1.
       -5    1    3    3    0  502  0.20772363915E+03  0.69579104922E+03 -0.12117559583E+03  0.73619284800E+03  0.46999998093E+01 0.  1.
</event>
<event>
 5   0  0.1930116E-04  0.1672066E+04  0.7818609E-02  0.8777459E-01
        1   -1    0    0  501    0  0.00000000000E+00  0.00000000000E+00  0.67332117166E+03  0.67332117168E+03  0.50400001928E-02 0. -1.
       -1   -1    0    0    0  501  0.00000000000E+00  0.00000000000E+00 -0.10380647569E+04  0.10380647569E+04  0.50400001928E-02 0.  1.
    10030    2    1    2    0    0  0.00000000000E+00  0.00000000000E+00 -0.36474358520E+03  0.17113859285E+04  0.16720657623E+04 0.  0.
        1    1    3    3  502    0  0.63416164400E+03  0.46675252512E+03  0.10518348516E+03  0.79440699645E+03  0.50400001928E-02 0. -1.
       -1    1    3    3    0  502 -0.63416164400E+03 -0.46675252512E+03 -0.46992707036E+03  0.91697893210E+03  0.50400001928E-02 0.  1.
</event>
<event>
 5   0  0.1893284E-04  0.1696815E+04  0.7818609E-02  0.8763183E-01
       -1   -1    0    0    0  501  0.00000000000E+00  0.00000000000E+00  0.42177528999E+03  0.42177529002E+03  0.50400001928E-02 0.  1.
        1   -1    0    0  501    0  0.00000000000E+00  0.00000000000E+00 -0.17065848465E+04  0.17065848465E+04  0.50400001928E-02 0. -1.
    10030    2    1    2    0    0  0.00000000000E+00  0.00000000000E+00 -0.12848095565E+04  0.21283601365E+04  0.16968150383E+04 0.  0.
        2    1    3    3  502    0  0.12696760235E+03  0.42279321363E+03  0.26637228183E+03  0.51558613836E+03  0.25500000920E-02 0.  1.
       -2    1    3    3    0  502 -0.12696760235E+03 -0.42279321363E+03 -0.15511818383E+04  0.16127739982E+04  0.25500000920E-02 0. -1.
</event>
<event>
 5   0  0.1930116E-04  0.1749144E+04  0.7818609E-02  0.8733822E-01
        1   -1    0    0  501    0  0.00000000000E+00  0.00000000000E+00  0.12652210597E+04  0.12652210597E+04  0.50400001928E-02 0. -1.
       -1   -1    0    0    0  501  0.00000000000E+00  0.00000000000E+00 -0.60453952389E+03  0.60453952391E+03  0.50400001928E-02 0.  1.
    10030    2    1    2    0    0  0.00000000000E+00  0.00000000000E+00  0.66068153583E+03  0.18697605836E+04  0.17491439473E+04 0.  0.
        1    1    3    3  502    0  0.90190870711E+02 -0.48325651014E+03 -0.44286724400E+03  0.66166656526E+03  0.50400001928E-02 0.  1.
       -1    1    3    3    0  502 -0.90190870711E+02  0.48325651014E+03  0.11035487798E+04  0.12080940184E+04  0.50400001928E-02 0. -1.
</event>
<event>
 5   0  0.3573262E-04  0.1700951E+04  0.7818609E-02  0.8760822E-01
        2   -1    0    0  501    0  0.00000000000E+00  0.00000000000E+00  0.84780228412E+03  0.84780228412E+03  0.25500000920E-02 0.  1.
       -2   -1    0    0    0  501  0.00000000000E+00  0.00000000000E+00 -0.85315664493E+03  0.85315664494E+03  0.25500000920E-02 0. -1.
    10030    2    1    2    0    0  0.00000000000E+00  0.00000000000E+00 -0.53543608173E+01  0.17009589291E+04  0.17009505017E+04 0.  0.
        5    1    3    3  502    0  0.39671507505E+03  0.36520948063E+03 -0.66034695521E+03  0.85254970927E+03  0.46999998093E+01 0. -1.
       -5    1    3    3    0  502 -0.39671507505E+03 -0.36520948063E+03  0.65499259440E+03  0.84840921979E+03  0.46999998093E+01 0.  1.
</event>
<event>
 5   0  0.1815663E-04  0.1691691E+04  0.7818609E-02  0.8766117E-01
       -1   -1    0    0    0  501  0.00000000000E+00  0.00000000000E+00  0.51217777225E+03  0.51217777227E+03  0.50400001928E-02 0.  1.
        1   -1    0    0  501    0  0.00000000000E+00  0.00000000000E+00 -0.13968877242E+04  0.13968877242E+04  0.50400001928E-02 0. -1.
    10030    2    1    2    0    0  0.00000000000E+00  0.00000000000E+00 -0.88470995196E+03  0.19090654965E+04  0.16916912753E+04 0.  0.
        5    1    3    3  502    0  0.20233888109E+03  0.72239704001E+03 -0.88324037109E+03  0.11588503567E+04  0.46999998093E+01 0. -1.
       -5    1    3    3    0  502 -0.20233888109E+03 -0.72239704001E+03 -0.14695808709E+01  0.75021513974E+03  0.46999998093E+01 0.  1.
</event>
<event>
 5   0  0.1824538E-04  0.1713431E+04  0.7818609E-02  0.8753741E-01
       -1   -1    0    0    0  501  0.00000000000E+00  0.00000000000E+00  0.76884929928E+03  0.76884929930E+03  0.50400001928E-02 0. -1.
        1   -1    0    0  501    0  0.00000000000E+00  0.00000000000E+00 -0.95462310823E+03  0.95462310824E+03  0.50400001928E-02 0.  1.
    10030    2    1    2    0    0  0.00000000000E+00  0.00000000000E+00 -0.18577380895E+03  0.17234724075E+04  0.17134308365E+04 0.  0.
        3    1    3    3  502    0  0.54750615589E+03 -0.65699961705E+03 -0.14367847904E+03  0.86721104876E+03  0.10100000352E+00 0.  1.
       -3    1    3    3    0  502 -0.54750615589E+03  0.65699961705E+03 -0.42095329906E+02  0.85626135878E+03  0.10100000352E+00 0. -1.
</event>
<event>
 5   0  0.3516723E-04  0.1682395E+04  0.7818609E-02  0.8771469E-01
       -2   -1    0    0    0  501  0.00000000000E+00  0.00000000000E+00  0.10670484087E+04  0.10670484087E+04  0.25500000920E-02 0.  1.
        2   -1    0    0  501    0  0.00000000000E+00  0.00000000000E+00 -0.66315015751E+03  0.66315015752E+03  0.25500000920E-02 0. -1.
    10030    2    1    2    0    0  0.00000000000E+00  0.00000000000E+00  0.40389825115E+03  0.17301985662E+04  0.16823951026E+04 0.  0.
        1    1    3    3  502    0  0.72375188302E+03  0.14704355852E+03 -0.21220265802E+03  0.76841952368E+03  0.50400001928E-02 0. -1.
       -1    1    3    3    0  502 -0.72375188302E+03 -0.14704355852E+03  0.61610090916E+03  0.96177904249E+03  0.50400001928E-02 0.  1.
</event>
<event>
 5   0  0.1824538E-04  0.1782001E+04  0.7818609E-02  0.8715930E-01
       -1   -1    0    0    0  501  0.00000000000E+00  0.00000000000E+00  0.94856188308E+03  0.94856188309E+03  0.50400001928E-02 0.  1.
        1   -1    0    0  501    0  0.00000000000E+00  0.00000000000E+00 -0.83693205757E+03  0.83693205759E+03  0.50400001928E-02 0. -1.
    10030    2    1    2    0    0  0.00000000000E+00  0.00000000000E+00  0.11162982551E+03  0.17854939407E+04  0.17820009524E+04 0.  0.
        3    1    3    3  502    0  0.26729917722E+03 -0.48004375042E+03  0.75861049328E+03  0.93668604301E+03  0.10100000352E+00 0.  1.
       -3    1    3    3    0  502 -0.26729917722E+03  0.48004375042E+03 -0.64698066778E+03  0.84880789766E+03  0.10100000352E+00 0. -1.
</event>
<event>
 5   0  0.3574092E-04  0.1711466E+04  0.7818609E-02  0.8754852E-01
        2   -1    0    0  501    0  0.00000000000E+00  0.00000000000E+00  0.86332816849E+03  0.86332816849E+03  0.25500000920E-02 0.  1.
       -2   -1    0    0    0  501  0.00000000000E+00  0.00000000000E+00 -0.84820499290E+03  0.84820499290E+03  0.25500000920E-02 0. -1.
    10030    2    1    2    0    0  0.00000000000E+00  0.00000000000E+00  0.15123175587E+02  0.17115331614E+04  0.17114663456E+04 0.  0.
        3    1    3    3  502    0  0.28398770011E+03  0.78915055716E+03 -0.16236160513E+03  0.85426513255E+03  0.10100000352E+00 0. -1.
       -3    1    3    3    0  502 -0.28398770011E+03 -0.78915055716E+03  0.17748478072E+03  0.85726802884E+03  0.10100000352E+00 0.  1.
</event>
<event>
 5   0  0.1930116E-04  0.1703614E+04  0.7818609E-02  0.8759306E-01
       -1   -1    0    0    0  501  0.00000000000E+00  0.00000000000E+00  0.34682206963E+03  0.34682206966E+03  0.50400001928E-02 0.  1.
        1   -1    0    0  501    0  0.00000000000E+00  0.00000000000E+00 -0.20920673501E+04  0.20920673501E+04  0.50400001928E-02 0. -1.
    10030    2    1    2    0    0  0.00000000000E+00  0.00000000000E+00 -0.17452452805E+04  0.24388894198E+04  0.17036139565E+04 0.  0.
        1    1    3    3  502    0 -0.33192112363E+03 -0.48275814763E+03  0.12595631739E+02  0.58599122125E+03  0.50400001928E-02 0.  1.
       -1    1    3    3    0  502  0.33192112363E+03  0.48275814763E+03 -0.17578409122E+04  0.18528981985E+04  0.50400001928E-02 0. -1.
</event>
<event>
 5   0  0.1930116E-04  0.1707150E+04  0.7818609E-02  0.8757297E-01
       -1   -1    0    0    0  501  0.00000000000E+00  0.00000000000E+00  0.53241867787E+03  0.53241867789E+03  0.50400001928E-02 0.  1.
        1   -1    0    0  501    0  0.00000000000E+00  0.00000000000E+00 -0.13684542868E+04  0.13684542868E+04  0.50400001928E-02 0. -1.
    10030    2    1    2    0    0  0.00000000000E+00  0.00000000000E+00 -0.83603560896E+03  0.19008729647E+04  0.17071504001E+04 0.  0.
        1    1    3    3  502    0  0.49270559946E+03  0.34486008796E+03  0.25644365644E+03  0.65379709159E+03  0.50400001928E-02 0.  1.
       -1    1    3    3    0  502 -0.49270559946E+03 -0.34486008796E+03 -0.10924792654E+04  0.12470758731E+04  0.50400001928E-02 0. -1.
</event>
<event>
 5   0  0.3516723E-04  0.1732273E+04  0.7818609E-02  0.8743169E-01
        2   -1    0    0  501    0  0.00000000000E+00  0.00000000000E+00  0.65674018110E+03  0.65674018111E+03  0.25500000920E-02 0.  1.
       -2   -1    0    0    0  501  0.00000000000E+00  0.00000000000E+00 -0.11422972605E+04  0.11422972605E+04  0.25500000920E-02 0. -1.
    10030    2    1    2    0    0  0.00000000000E+00  0.00000000000E+00 -0.48555707937E+03  0.17990374416E+04  0.17322730844E+04 0.  0.
        1    1    3    3  502    0 -0.58233036105E+03 -0.38462336639E+03  0.28997271433E+03  0.75573008307E+03  0.50400001928E-02 0.  1.
       -1    1    3    3    0  502  0.58233036105E+03  0.38462336639E+03 -0.77552979370E+03  0.10433073585E+04  0.50400001928E-02 0. -1.
</event>
<event>
 5   0  0.1824538E-04  0.1673985E+04  0.7818609E-02  0.8776342E-01
       -1   -1    0    0    0  501  0.00000000000E+00  0.00000000000E+00  0.56687042482E+03  0.56687042484E+03  0.50400001928E-02 0.  1.
        1   -1    0    0  501    0  0.00000000000E+00  0.00000000000E+00 -0.12358315135E+04  0.12358315135E+04  0.50400001928E-02 0. -1.
    10030    2    1    2    0    0  0.00000000000E+00  0.00000000000E+00 -0.66896108868E+03  0.18027019383E+04  0.16739848686E+04 0.  0.
        3    1    3    3  502    0  0.57566419191E+03 -0.14590368754E+03  0.30068453736E+03  0.66564881814E+03  0.10100000352E+00 0. -1.
       -3    1    3    3    0  502 -0.57566419191E+03  0.14590368754E+03 -0.96964562604E+03  0.11370531202E+04  0.10100000352E+00 0.  1.
</event>
<event>
 5   0  0.1930116E-04  0.1704113E+04  0.7818609E-02  0.8759022E-01
       -1   -1    0    0    0  501  0.00000000000E+00  0.00000000000E+00  0.75025190059E+03  0.75025190060E+03  0.50400001928E-02 0. -1.
        1   -1    0    0  501    0  0.00000000000E+00  0.00000000000E+00 -0.96767510387E+03  0.96767510388E+03  0.50400001928E-02 0.  1.
    10030    2    1    2    0    0  0.00000000000E+00  0.00000000000E+00 -0.21742320328E+03  0.17179270045E+04  0.17041127731E+04 0.  0.
        1    1    3    3  502    0  0.75815896012E+03  0.37656842625E+03 -0.11017313825E+02  0.84659917888E+03  0.50400001928E-02 0. -1.
       -1    1    3    3    0  502 -0.75815896012E+03 -0.37656842625E+03 -0.20640588946E+03  0.87132782561E+03  0.50400001928E-02 0.  1.
</event>
<event>
 5   0  0.3574092E-04  0.1741283E+04  0.7818609E-02  0.8738163E-01
       -2   -1    0    0    0  501  0.00000000000E+00  0.00000000000E+00  0.29399609904E+03  0.29399609905E+03  0.25500000920E-02 0. -1.
        2   -1    0    0  501    0  0.00000000000E+00  0.00000000000E+00 -0.25783225664E+04  0.25783225664E+04  0.25500000920E-02 0.  1.
    10030    2    1    2    0    0  0.00000000000E+00  0.00000000000E+00 -0.22843264673E+04  0.28723186654E+04  0.17412831781E+04 0.  0.
        3    1    3    3  502    0 -0.78910843566E+02  0.24405838237E+03  0.23025653812E+03  0.34468753791E+03  0.10100000352E+00 0. -1.
       -3    1    3    3    0  502  0.78910843566E+02 -0.24405838237E+03 -0.25145830055E+04  0.25276311275E+04  0.10100000352E+00 0.  1.
</event>
<event>
 5   0  0.3573262E-04  0.1690914E+04  0.7818609E-02  0.8766564E-01
        2   -1    0    0  501    0  0.00000000000E+00  0.00000000000E+00  0.26795284446E+04  0.26795284446E+04  0.25500000920E-02 0.  1.
       -2   -1    0    0    0  501  0.00000000000E+00  0.00000000000E+00 -0.26676232464E+03  0.26676232465E+03  0.25500000920E-02 0. -1.
    10030    2    1    2    0    0  0.00000000000E+00  0.00000000000E+00  0.24127661200E+04  0.29462907693E+04  0.16909136428E+04 0.  0.
        5    1    3    3  502    0 -0.74986664452E+02 -0.80960613549E+03  0.80264369949E+03  0.11425165613E+04  0.46999998093E+01 0. -1.
       -5    1    3    3    0  502  0.74986664452E+02  0.80960613549E+03  0.16101224205E+04  0.18037742080E+04  0.46999998093E+01 0.  1.
</event>
<event>
 5   0  0.3678896E-04  0.1828963E+04  0.7818609E-02  0.8691047E-01
        2   -1    0    0  501    0  0.00000000000E+00  0.00000000000E+00  0.97425233515E+03  0.97425233516E+03  0.25500000920E-02 0. -1.
       -2   -1    0    0    0  501  0.00000000000E+00  0.00000000000E+00 -0.85837800422E+03  0.85837800423E+03  0.25500000920E-02 0.  1.
    10030    2    1    2    0    0  0.00000000000E+00  0.00000000000E+00  0.11587433093E+03  0.18326303394E+04  0.18289633950E+04 0.  0.
        2    1    3    3  502    0  0.76244719841E+03 -0.34364942499E+03  0.42861956526E+03  0.93975283420E+03  0.25500000920E-02 0. -1.
       -2    1    3    3    0  502 -0.76244719841E+03  0.34364942499E+03 -0.31274523433E+03  0.89287750518E+03  0.25500000920E-02 0.  1.
</event>
<event>
 5   0  0.3678896E-04  0.1661481E+04  0.7818609E-02  0.8783643E-01
        2   -1    0    0  501    0  0.00000000000E+00  0.00000000000E+00  0.18525152335E+04  0.18525152335E+04  0.25500000920E-02 0.  1.
       -2   -1    0    0    0  501  0.00000000000E+00  0.00000000000E+00 -0.37253648944E+03  0.37253648945E+03  0.25500000920E-02 0. -1.
    10030    2    1    2    0    0  0.00000000000E+00  0.00000000000E+00  0.14799787441E+04  0.22250517230E+04  0.16614806911E+04 0.  0.
        2    1    3    3  502    0  0.73079194936E+03 -0.97656550145E+01  0.21108703694E+03  0.76072989847E+03  0.25500000920E-02 0.  1.
       -2    1    3    3    0  502 -0.73079194936E+03  0.97656550145E+01  0.12688917071E+04  0.14643218245E+04  0.25500000920E-02 0. -1.
</event>
<event>
 5   0  0.3574092E-04  0.1684970E+04  0.7818609E-02  0.8769983E-01
       -2   -1    0    0    0  501  0.00000000000E+00  0.00000000000E+00  0.31303995016E+03  0.31303995017E+03  0.25500000920E-02 0.  1.
        2   -1    0    0  501    0  0.00000000000E+00  0.00000000000E+00 -0.22673803564E+04  0.22673803564E+04  0.25500000920E-02 0. -1.
    10030    2    1    2    0    0  0.00000000000E+00  0.00000000000E+00 -0.19543404063E+04  0.25804203066E+04  0.16849695947E+04 0.  0.
        3    1    3    3  502    0  0.24468584889E+03  0.33227443881E+02  0.25637653447E+03  0.35595528554E+03  0.10100000352E+00 0.  1.
       -3    1    3    3    0  502 -0.24468584889E+03 -0.33227443881E+02 -0.22107169407E+04  0.22244650210E+04  0.10100000352E+00 0. -1.
</event>
<event>
 5   0  0.1893284E-04  0.1714007E+04  0.7818609E-02  0.8753416E-01
       -1   -1    0    0    0  501  0.00000000000E+00  0.00000000000E+00  0.56416360972E+03  0.56416360974E+03  0.50400001928E-02 0.  1.
        1   -1    0    0  501    0  0.00000000000E+00  0.00000000000E+00 -0.13018468989E+04  0.13018468989E+04  0.50400001928E-02 0. -1.
    10030    2    1    2    0    0  0.00000000000E+00  0.00000000000E+00 -0.73768328918E+03  0.18660105087E+04  0.17140065879E+04 0.  0.
        2    1    3    3  502    0 -0.26505271590E+03 -0.66686463842E+03  0.14120769603E+03  0.73136926488E+03  0.25500000920E-02 0.  1.
       -2    1    3    3    0  502  0.26505271590E+03  0.66686463842E+03 -0.87889098522E+03  0.11346412438E+04  0.25500000920E-02 0. -1.
</event>
<event>
 5   0  0.3516723E-04  0.1703626E+04  0.7818609E-02  0.8759299E-01
       -2   -1    0    0    0  501  0.00000000000E+00  0.00000000000E+00  0.66373853845E+03  0.66373853846E+03  0.25500000920E-02 0. -1.
        2   -1    0    0  501    0  0.00000000000E+00  0.00000000000E+00 -0.10931797382E+04  0.10931797382E+04  0.25500000920E-02 0.  1.
    10030    2    1    2    0    0  0.00000000000E+00  0.00000000000E+00 -0.42944119975E+03  0.17569182767E+04  0.17036261582E+04 0.  0.
        1    1    3    3  502    0 -0.56697209899E+03 -0.17666026645E+03 -0.84449455701E+03  0.10323939498E+04  0.50400001928E-02 0.  1.
       -1    1    3    3    0  502  0.56697209899E+03  0.17666026645E+03  0.41505335727E+03  0.72452432684E+03  0.50400001928E-02 0. -1.
</event>
<event>
 5   0  0.1824538E-04  0.1704889E+04  0.7818609E-02  0.8758581E-01
       -1   -1    0    0    0  501  0.00000000000E+00  0.00000000000E+00  0.40187479914E+03  0.40187479917E+03  0.50400001928E-02 0. -1.
        1   -1    0    0  501    0  0.00000000000E+00  0.00000000000E+00 -0.18081791262E+04  0.18081791262E+04  0.50400001928E-02 0.  1.
    10030    2    1    2    0    0  0.00000000000E+00  0.00000000000E+00 -0.14063043270E+04  0.22100539254E+04  0.17048889972E+04 0.  0.
        3    1    3    3  502    0 -0.79533343943E+02  0.10898097984E+03  0.38794690932E+03  0.41073741175E+03  0.10100000352E+00 0. -1.
       -3    1    3    3    0  502  0.79533343943E+02 -0.10898097984E+03 -0.17942512363E+04  0.17993165136E+04  0.10100000352E+00 0.  1.
</event>
<event>
 5   0  0.1824538E-04  0.1675987E+04  0.7818609E-02  0.8775179E-01
        1   -1    0    0  501    0  0.00000000000E+00  0.00000000000E+00  0.16301330400E+04  0.16301330401E+04  0.50400001928E-02 0.  1.
       -1   -1    0    0    0  501  0.00000000000E+00  0.00000000000E+00 -0.43078278839E+03  0.43078278842E+03  0.50400001928E-02 0. -1.
    10030    2    1    2    0    0  0.00000000000E+00  0.00000000000E+00  0.11993502516E+04  0.20609158285E+04  0.16759871795E+04 0.  0.
        3    1    3    3  502    0 -0.50496754107E+02  0.59306060263E+03 -0.12568846049E+03  0.60833247478E+03  0.10100000352E+00 0. -1.
       -3    1    3    3    0  502  0.50496754107E+02 -0.59306060263E+03  0.13250387121E+04  0.14525833537E+04  0.10100000352E+00 0.  1.
</event>
<event>
 5   0  0.1920289E-04  0.1725713E+04  0.7818609E-02  0.8746834E-01
        1   -1    0    0  501    0  0.00000000000E+00  0.00000000000E+00  0.11520487570E+04  0.11520487570E+04  0.50400001928E-02 0. -1.
       -1   -1    0    0    0  501  0.00000000000E+00  0.00000000000E+00 -0.64625863400E+03  0.64625863402E+03  0.50400001928E-02 0.  1.
    10030    2    1    2    0    0  0.00000000000E+00  0.00000000000E+00  0.50579012297E+03  0.17983073910E+04  0.17257131349E+04 0.  0.
        4    1    3    3  502    0 -0.71449583246E+03  0.25057530214E+03 -0.17830832878E+03  0.77787386488E+03  0.12699999809E+01 0.  1.
       -4    1    3    3    0  502  0.71449583246E+03 -0.25057530214E+03  0.68409845175E+03  0.10204335261E+04  0.12699999809E+01 0. -1.
</event>
<event>
 5   0  0.3605571E-04  0.1710228E+04  0.7818609E-02  0.8755552E-01
       -2   -1    0    0    0  501  0.00000000000E+00  0.00000000000E+00  0.51218201154E+03  0.51218201154E+03  0.25500000920E-02 0. -1.
        2   -1    0    0  501    0  0.00000000000E+00  0.00000000000E+00 -0.14276569524E+04  0.14276569524E+04  0.25500000920E-02 0.  1.
    10030    2    1    2    0    0  0.00000000000E+00  0.00000000000E+00 -0.91547494085E+03  0.19398389639E+04  0.17102283002E+04 0.  0.
        4    1    3    3  502    0 -0.52349788370E+03  0.53092720584E+03 -0.93261738211E+03  0.11940312083E+04  0.12699999809E+01 0.  1.
       -4    1    3    3    0  502  0.52349788370E+03 -0.53092720584E+03  0.17142441253E+02  0.74580775561E+03  0.12699999809E+01 0. -1.
</event>
<event>
 5   0  0.1824538E-04  0.1701284E+04  0.7818609E-02  0.8760632E-01
        1   -1    0    0  501    0  0.00000000000E+00  0.00000000000E+00  0.61138189181E+03  0.61138189183E+03  0.50400001928E-02 0.  1.
       -1   -1    0    0    0  501  0.00000000000E+00  0.00000000000E+00 -0.11835347706E+04  0.11835347706E+04  0.50400001928E-02 0. -1.
    10030    2    1    2    0    0  0.00000000000E+00  0.00000000000E+00 -0.57215287883E+03  0.17949166625E+04  0.17012839000E+04 0.  0.
        3    1    3    3  502    0 -0.23056885212E+03  0.73378745258E+03  0.97216597925E+02  0.77527872294E+03  0.10100000352E+00 0.  1.
       -3    1    3    3    0  502  0.23056885212E+03 -0.73378745258E+03 -0.66936947675E+03  0.10196379395E+04  0.10100000352E+00 0. -1.
</event>
<event>
 5   0  0.3573262E-04  0.1684416E+04  0.7818609E-02  0.8770303E-01
        2   -1    0    0  501    0  0.00000000000E+00  0.00000000000E+00  0.17239490247E+04  0.17239490247E+04  0.25500000920E-02 0. -1.
       -2   -1    0    0    0  501  0.00000000000E+00  0.00000000000E+00 -0.41144715288E+03  0.41144715289E+03  0.25500000920E-02 0.  1.
    10030    2    1    2    0    0  0.00000000000E+00  0.00000000000E+00  0.13125018718E+04  0.21353961776E+04  0.16844155282E+04 0.  0.
        5    1    3    3  502    0  0.55538392008E+03  0.37258529364E+03  0.13051797363E+04  0.14665562839E+04  0.46999998093E+01 0. -1.
       -5    1    3    3    0  502 -0.55538392008E+03 -0.37258529364E+03  0.73221354896E+01  0.66883989369E+03  0.46999998093E+01 0.  1.
</event>
<event>
 5   0  0.1824538E-04  0.1723701E+04  0.7818609E-02  0.8747961E-01
       -1   -1    0    0    0  501  0.00000000000E+00  0.00000000000E+00  0.60930558338E+03  0.60930558340E+03  0.50400001928E-02 0.  1.
        1   -1    0    0  501    0  0.00000000000E+00  0.00000000000E+00 -0.12190704451E+04  0.12190704451E+04  0.50400001928E-02 0. -1.
    10030    2    1    2    0    0  0.00000000000E+00  0.00000000000E+00 -0.60976486170E+03  0.18283760285E+04  0.17237011675E+04 0.  0.
        3    1    3    3  502    0  0.78618142676E+03 -0.27253494535E+03 -0.66679260455E+02  0.83474706720E+03  0.10100000352E+00 0.  1.
       -3    1    3    3    0  502 -0.78618142676E+03  0.27253494535E+03 -0.54308560125E+03  0.99362896129E+03  0.10100000352E+00 0. -1.
</event>
<event>
 5   0  0.3516723E-04  0.1699850E+04  0.7818609E-02  0.8761450E-01
       -2   -1    0    0    0  501  0.00000000000E+00  0.00000000000E+00  0.25055780827E+03  0.25055780828E+03  0.25500000920E-02 0. -1.
        2   -1    0    0  501    0  0.00000000000E+00  0.00000000000E+00 -0.28830575672E+04  0.28830575672E+04  0.25500000920E-02 0.  1.
    10030    2    1    2    0    0  0.00000000000E+00  0.00000000000E+00 -0.26324997589E+04  0.31336153754E+04  0.16998500936E+04 0.  0.
        1    1    3    3  502    0  0.78036337865E+03  0.31538168071E+03 -0.15339036064E+04  0.17496550749E+04  0.50400001928E-02 0.  1.
       -1    1    3    3    0  502 -0.78036337865E+03 -0.31538168071E+03 -0.10985961525E+04  0.13839603006E+04  0.50400001928E-02 0. -1.
</event>
<event>
 5   0  0.1824538E-04  0.1682814E+04  0.7818609E-02  0.8771227E-01
        1   -1    0    0  501    0  0.00000000000E+00  0.00000000000E+00  0.97882859905E+03  0.97882859907E+03  0.50400001928E-02 0.  1.
       -1   -1    0    0    0  501  0.00000000000E+00  0.00000000000E+00 -0.72327840290E+03  0.72327840292E+03  0.50400001928E-02 0. -1.
    10030    2    1    2    0    0  0.00000000000E+00  0.00000000000E+00  0.25555019615E+03  0.17021070020E+04  0.16828138172E+04 0.  0.
        3    1    3    3  502    0 -0.38985412997E+03 -0.50939490438E+03  0.67853248250E+03  0.93374287214E+03  0.10100000352E+00 0.  1.
       -3    1    3    3    0  502  0.38985412997E+03  0.50939490438E+03 -0.42298228635E+03  0.76836412985E+03  0.10100000352E+00 0. -1.
</event>
<event>
 5   0  0.3573262E-04  0.1696282E+04  0.7818609E-02  0.8763488E-01
       -2   -1    0    0    0  501  0.00000000000E+00  0.00000000000E+00  0.57259614825E+03  0.57259614826E+03  0.25500000920E-02 0.  1.
        2   -1    0    0  501    0  0.00000000000E+00  0.00000000000E+00 -0.12562832102E+04  0.12562832102E+04  0.25500000920E-02 0. -1.
    10030    2    1    2    0    0  0.00000000000E+00  0.00000000000E+00 -0.68368706193E+03  0.18288793584E+04  0.16962817305E+04 0.  0.
        5    1    3    3  502    0  0.12487869613E+03  0.71375321841E+03  0.13338653184E+03  0.73678518064E+03  0.46999998093E+01 0.  1.
       -5    1    3    3    0  502 -0.12487869613E+03 -0.71375321841E+03 -0.81707359377E+03  0.10920941778E+04  0.46999998093E+01 0. -1.
</event>
<event>
 5   0  0.3574092E-04  0.1713168E+04  0.7818609E-02  0.8753889E-01
       -2   -1    0    0    0  501  0.00000000000E+00  0.00000000000E+00  0.50623016915E+03  0.50623016916E+03  0.25500000920E-02 0. -1.
        2   -1    0    0  501    0  0.00000000000E+00  0.00000000000E+00 -0.14494129534E+04  0.14494129534E+04  0.25500000920E-02 0.  1.
    10030    2    1    2    0    0  0.00000000000E+00  0.00000000000E+00 -0.94318278427E+03  0.19556431226E+04  0.17131684851E+04 0.  0.
        3    1    3    3  502    0 -0.84993564235E+03 -0.87711553882E+02 -0.54058249011E+03  0.10110951249E+04  0.10100000352E+00 0.  1.
       -3    1    3    3    0  502  0.84993564235E+03  0.87711553882E+02 -0.40260029417E+03  0.94454799766E+03  0.10100000352E+00 0. -1.
</event>
<event>
 5   0  0.3574092E-04  0.1714702E+04  0.7818609E-02  0.8753023E-01
       -2   -1    0    0    0  501  0.00000000000E+00  0.00000000000E+00  0.41178876938E+03  0.41178876939E+03  0.25500000920E-02 0.  1.
        2   -1    0    0  501    0  0.00000000000E+00  0.00000000000E+00 -0.17850191955E+04  0.17850191955E+04  0.25500000920E-02 0. -1.
    10030    2    1    2    0    0  0.00000000000E+00  0.00000000000E+00 -0.13732304261E+04  0.21968079648E+04  0.17147021407E+04 0.  0.
        3    1    3    3  502    0  0.36978138545E+03  0.40798478904E+03 -0.15285440614E+04  0.16246959158E+04  0.10100000352E+00 0. -1.
       -3    1    3    3    0  502 -0.36978138545E+03 -0.40798478904E+03  0.15531363532E+03  0.57211204901E+03  0.10100000352E+00 0.  1.
</event>
<event>
 5   0  0.1930116E-04  0.1708036E+04  0.7818609E-02  0.8756795E-01
       -1   -1    0    0    0  501  0.00000000000E+00  0.00000000000E+00  0.68832866749E+03  0.68832866751E+03  0.50400001928E-02 0.  1.
        1   -1    0    0  501    0  0.00000000000E+00  0.00000000000E+00 -0.10595904975E+04  0.10595904975E+04  0.50400001928E-02 0. -1.
    10030    2    1    2    0    0  0.00000000000E+00  0.00000000000E+00 -0.37126182997E+03  0.17479191650E+04  0.17080357318E+04 0.  0.
        1    1    3    3  502    0 -0.23654878318E+03 -0.32940362033E+03 -0.95476879292E+03  0.10373261396E+04  0.50400001928E-02 0. -1.
       -1    1    3    3    0  502  0.23654878318E+03  0.32940362033E+03  0.58350696295E+03  0.71059302540E+03  0.50400001928E-02 0.  1.
</event>
<event>
 5   0  0.1920289E-04  0.1736413E+04  0.7818609E-02  0.8740865E-01
       -1   -1    0    0    0  501  0.00000000000E+00  0.00000000000E+00  0.53069807449E+03  0.53069807451E+03  0.50400001928E-02 0. -1.
        1   -1    0    0  501    0  0.00000000000E+00  0.00000000000E+00 -0.14203600331E+04  0.14203600331E+04  0.50400001928E-02 0.  1.
    10030    2    1    2    0    0  0.00000000000E+00  0.00000000000E+00 -0.88966195865E+03  0.19510581077E+04  0.17364127789E+04 0.  0.
        4    1    3    3  502    0  0.71161322077E+03  0.22320512767E+03 -0.94426052597E+03  0.12032636697E+04  0.12699999809E+01 0.  1.
       -4    1    3    3    0  502 -0.71161322077E+03 -0.22320512767E+03  0.54598567317E+02  0.74779443796E+03  0.12699999809E+01 0. -1.
</event>
<event>
 5   0  0.1930116E-04  0.1706882E+04  0.7818609E-02  0.8757449E-01
        1   -1    0    0  501    0  0.00000000000E+00  0.00000000000E+00  0.38579470693E+03  0.38579470696E+03  0.50400001928E-02 0. -1.
       -1   -1    0    0    0  501  0.00000000000E+00  0.00000000000E+00 -0.18879520456E+04  0.18879520456E+04  0.50400001928E-02 0.  1.
    10030    2    1    2    0    0  0.00000000000E+00  0.00000000000E+00 -0.15021573386E+04  0.22737467525E+04  0.17068824285E+04 0.  0.
        1    1    3    3  502    0  0.80880040960E+03 -0.20412770563E+03 -0.51079821153E+03  0.97813140002E+03  0.50400001928E-02 0.  1.
       -1    1    3    3    0  502 -0.80880040960E+03  0.20412770563E+03 -0.99135912711E+03  0.12956153525E+04  0.50400001928E-02 0. -1.
</event>
<event>
 5   0  0.1317625E-04  0.1685544E+04  0.7818609E-02  0.8769652E-01
       -3   -1    0    0    0  501  0.00000000000E+00  0.00000000000E+00  0.12705858933E+04  0.12705858973E+04  0.10100000352E+00 0.  1.
        3   -1    0    0  501    0  0.00000000000E+00  0.00000000000E+00 -0.55900550069E+03  0.55900550981E+03  0.10100000352E+00 0. -1.
    10030    2    1    2    0    0  0.00000000000E+00  0.00000000000E+00  0.71158039261E+03  0.18295914071E+04  0.16855438475E+04 0.  0.
        4    1    3    3  502    0 -0.14658948886E+03  0.11700481900E+03 -0.53606235727E+03  0.56792875406E+03  0.12699999809E+01 0. -1.
       -4    1    3    3    0  502  0.14658948886E+03 -0.11700481900E+03  0.12476427499E+04  0.12616626531E+04  0.12699999809E+01 0.  1.
</event>
<event>
 5   0  0.1815663E-04  0.1693518E+04  0.7818609E-02  0.8765070E-01
        1   -1    0    0  501    0  0.00000000000E+00  0.00000000000E+00  0.21013914981E+04  0.21013914981E+04  0.50400001928E-02 0. -1.
       -1   -1    0    0    0  501  0.00000000000E+00  0.00000000000E+00 -0.34120299456E+03  0.34120299460E+03  0.50400001928E-02 0.  1.
    10030    2    1    2    0    0  0.00000000000E+00  0.00000000000E+00  0.17601885035E+04  0.24425944927E+04  0.16935183163E+04 0.  0.
        5    1    3    3  502    0 -0.40506136217E+02  0.75182698599E+03  0.14388779736E+04  0.16239693583E+04  0.46999998093E+01 0. -1.
       -5    1    3    3    0  502  0.40506136217E+02 -0.75182698599E+03  0.32131052992E+03  0.81862513434E+03  0.46999998093E+01 0.  1.
</event>
<event>
 5   0  0.1920289E-04  0.1713486E+04  0.7818609E-02  0.8753710E-01
        1   -1    0    0  501    0  0.00000000000E+00  0.00000000000E+00  0.84208797705E+03  0.84208797706E+03  0.50400001928E-02 0. -1.
       -1   -1    0    0    0  501  0.00000000000E+00  0.00000000000E+00 -0.87165323926E+03  0.87165323927E+03  0.50400001928E-02 0.  1.
    10030    2    1    2    0    0  0.00000000000E+00  0.00000000000E+00 -0.29565262209E+02  0.17137412163E+04  0.17134861691E+04 0.  0.
        4    1    3    3  502    0 -0.30573060126E+03  0.68323575580E+03  0.40208248158E+03  0.84967890020E+03  0.12699999809E+01 0. -1.
       -4    1    3    3    0  502  0.30573060126E+03 -0.68323575580E+03 -0.43164774379E+03  0.86406231614E+03  0.12699999809E+01 0.  1.
</event>
<event>
 5   0  0.1893284E-04  0.1694826E+04  0.7818609E-02  0.8764321E-01
        1   -1    0    0  501    0  0.00000000000E+00  0.00000000000E+00  0.84795642907E+03  0.84795642909E+03  0.50400001928E-02 0.  1.
       -1   -1    0    0    0  501  0.00000000000E+00  0.00000000000E+00 -0.84686968355E+03  0.84686968357E+03  0.50400001928E-02 0. -1.
    10030    2    1    2    0    0  0.00000000000E+00  0.00000000000E+00  0.10867455197E+01  0.16948261127E+04  0.16948257642E+04 0.  0.
        2    1    3    3  502    0 -0.54818701337E+03  0.61912622964E+03 -0.18461147328E+03  0.84729433252E+03  0.25500000920E-02 0. -1.
       -2    1    3    3    0  502  0.54818701337E+03 -0.61912622964E+03  0.18569821880E+03  0.84753178013E+03  0.25500000920E-02 0.  1.
</event>
<event>
 5   0  0.3678896E-04  0.1726225E+04  0.7818609E-02  0.8746547E-01
        2   -1    0    0  501    0  0.00000000000E+00  0.00000000000E+00  0.20297459680E+04  0.20297459680E+04  0.25500000920E-02 0. -1.
       -2   -1    0    0    0  501  0.00000000000E+00  0.00000000000E+00 -0.36702284281E+03  0.36702284282E+03  0.25500000920E-02 0.  1.
    10030    2    1    2    0    0  0.00000000000E+00  0.00000000000E+00  0.16627231252E+04  0.23967688108E+04  0.17262249394E+04 0.  0.
        2    1    3    3  502    0 -0.35620566506E+03  0.67499248574E+03  0.27172028475E+03  0.81014149676E+03  0.25500000920E-02 0.  1.
       -2    1    3    3    0  502  0.35620566506E+03 -0.67499248574E+03  0.13910028404E+04  0.15866273141E+04  0.25500000920E-02 0. -1.
</event>
<event>
 5   0  0.1815663E-04  0.1705161E+04  0.7818609E-02  0.8758426E-01
        1   -1    0    0  501    0  0.00000000000E+00  0.00000000000E+00  0.55521757065E+03  0.55521757067E+03  0.50400001928E-02 0.  1.
       -1   -1    0    0    0  501  0.00000000000E+00  0.00000000000E+00 -0.13092054182E+04  0.13092054182E+04  0.50400001928E-02 0. -1.
    10030    2    1    2    0    0  0.00000000000E+00  0.00000000000E+00 -0.75398784757E+03  0.18644229889E+04  0.17051614021E+04 0.  0.
        5    1    3    3  502    0 -0.11890050776E+03 -0.82785241735E+03 -0.19602122134E+03  0.85902465906E+03  0.46999998093E+01 0.  1.
       -5    1    3    3    0  502  0.11890050776E+03  0.82785241735E+03 -0.55796662624E+03  0.10053983298E+04  0.46999998093E+01 0. -1.
</event>
<event>
 5   0  0.1824538E-04  0.1685029E+04  0.7818609E-02  0.8769949E-01
        1   -1    0    0  501    0  0.00000000000E+00  0.00000000000E+00  0.16264143758E+04  0.16264143758E+04  0.50400001928E-02 0.  1.
       -1   -1    0    0    0  501  0.00000000000E+00  0.00000000000E+00 -0.43643913116E+03  0.43643913119E+03  0.50400001928E-02 0. -1.
    10030    2    1    2    0    0  0.00000000000E+00  0.00000000000E+00  0.11899752446E+04  0.20628535070E+04  0.16850292307E+04 0.  0.
        3    1    3    3  502    0 -0.46918480061E+03 -0.63556891180E+02 -0.25816313402E+03  0.53927921294E+03  0.10100000352E+00 0. -1.
       -3    1    3    3    0  502  0.46918480061E+03  0.63556891180E+02  0.14481383786E+04  0.15235742940E+04  0.10100000352E+00 0.  1.
</event>
<event>
 5   0  0.3678896E-04  0.1715630E+04  0.7818609E-02  0.8752500E-01
       -2   -1    0    0    0  501  0.00000000000E+00  0.00000000000E+00  0.80272861914E+03  0.80272861915E+03  0.25500000920E-02 0. -1.
        2   -1    0    0  501    0  0.00000000000E+00  0.00000000000E+00 -0.91668199281E+03  0.91668199281E+03  0.25500000920E-02 0.  1.
    10030    2    1    2    0    0  0.00000000000E+00  0.00000000000E+00 -0.11395337366E+03  0.17194106120E+04  0.17156303451E+04 0.  0.
        2    1    3    3  502    0 -0.24892242671E+02  0.57638573169E+03 -0.69320359887E+03  0.90187103564E+03  0.25500000920E-02 0.  1.
       -2    1    3    3    0  502  0.24892242671E+02 -0.57638573169E+03  0.57925022520E+03  0.81753957632E+03  0.25500000920E-02 0. -1.
</event>
<event>
 5   0  0.1893284E-04  0.1588221E+04  0.7818609E-02  0.8827817E-01
        1   -1    0    0  501    0  0.00000000000E+00  0.00000000000E+00  0.19944614521E+04  0.19944614521E+04  0.50400001928E-02 0.  1.
       -1   -1    0    0    0  501  0.00000000000E+00  0.00000000000E+00 -0.31618139062E+03  0.31618139066E+03  0.50400001928E-02 0. -1.
    10030    2    1    2    0    0  0.00000000000E+00  0.00000000000E+00  0.16782800615E+04  0.23106428428E+04  0.15882211376E+04 0.  0.
        2    1    3    3  502    0 -0.41489905950E+03 -0.20621348361E+03  0.17774374385E+04  0.18368312601E+04  0.25500000920E-02 0.  1.
       -2    1    3    3    0  502  0.41489905950E+03  0.20621348361E+03 -0.99157377041E+02  0.47381158262E+03  0.25500000920E-02 0. -1.
</event>
<event>
 5   0  0.1815663E-04  0.1676259E+04  0.7818609E-02  0.8775022E-01
        1   -1    0    0  501    0  0.00000000000E+00  0.00000000000E+00  0.87838709584E+03  0.87838709585E+03  0.50400001928E-02 0. -1.
       -1   -1    0    0    0  501  0.00000000000E+00  0.00000000000E+00 -0.79971724992E+03  0.79971724994E+03  0.50400001928E-02 0.  1.
    10030    2    1    2    0    0  0.00000000000E+00  0.00000000000E+00  0.78669845918E+02  0.16781043458E+04  0.16762593029E+04 0.  0.
        5    1    3    3  502    0 -0.37927841901E+03  0.50483205752E+03 -0.51239027537E+03  0.81318719230E+03  0.46999998093E+01 0.  1.
       -5    1    3    3    0  502  0.37927841901E+03 -0.50483205752E+03  0.59106012129E+03  0.86491715349E+03  0.46999998093E+01 0. -1.
</event>
<event>
 5   0  0.3516723E-04  0.1687679E+04  0.7818609E-02  0.8768423E-01
        2   -1    0    0  501    0  0.00000000000E+00  0.00000000000E+00  0.20821081515E+04  0.20821081515E+04  0.25500000920E-02 0.  1.
       -2   -1    0    0    0  501  0.00000000000E+00  0.00000000000E+00 -0.34199228917E+03  0.34199228918E+03  0.25500000920E-02 0. -1.
    10030    2    1    2    0    0  0.00000000000E+00  0.00000000000E+00  0.17401158623E+04  0.24241004407E+04  0.16876788001E+04 0.  0.
        1    1    3    3  502    0 -0.65009980073E+03  0.23165199523E+03  0.17261701491E+03  0.71139934753E+03  0.50400001928E-02 0. -1.
       -1    1    3    3    0  502  0.65009980073E+03 -0.23165199523E+03  0.15674988474E+04  0.17127010931E+04  0.50400001928E-02 0.  1.
</event>
<event>
 5   0  0.3678896E-04  0.1700366E+04  0.7818609E-02  0.8761155E-01
        2   -1    0    0  501    0  0.00000000000E+00  0.00000000000E+00  0.83338670190E+03  0.83338670191E+03  0.25500000920E-02 0. -1.
       -2   -1    0    0    0  501  0.00000000000E+00  0.00000000000E+00 -0.86731815358E+03  0.86731815358E+03  0.25500000920E-02 0.  1.
    10030    2    1    2    0    0  0.00000000000E+00  0.00000000000E+00 -0.33931451675E+02  0.17007048555E+04  0.17003663317E+04 0.  0.
        2    1    3    3  502    0 -0.40849146160E+03  0.26487980757E+03  0.68015569592E+03  0.83644387579E+03  0.25500000920E-02 0. -1.
       -2    1    3    3    0  502  0.40849146160E+03 -0.26487980757E+03 -0.71408714759E+03  0.86426097969E+03  0.25500000920E-02 0.  1.
</event>
<event>
 5   0  0.3605571E-04  0.1691088E+04  0.7818609E-02  0.8766464E-01
        2   -1    0    0  501    0  0.00000000000E+00  0.00000000000E+00  0.23619919164E+04  0.23619919164E+04  0.25500000920E-02 0. -1.
       -2   -1    0    0    0  501  0.00000000000E+00  0.00000000000E+00 -0.30268719820E+03  0.30268719821E+03  0.25500000920E-02 0.  1.
    10030    2    1    2    0    0  0.00000000000E+00  0.00000000000E+00  0.20593047182E+04  0.26646791146E+04  0.16910880703E+04 0.  0.
        4    1    3    3  502    0  0.58647518351E+02 -0.76020657070E+03  0.16055760196E+04  0.17774221584E+04  0.12699999809E+01 0. -1.
       -4    1    3    3    0  502 -0.58647518351E+02  0.76020657070E+03  0.45372869864E+03  0.88725695625E+03  0.12699999809E+01 0.  1.
</event>
<event>
 5   0  0.3573262E-04  0.1687110E+04  0.7818609E-02  0.8768750E-01
       -2   -1    0    0    0  501  0.00000000000E+00  0.00000000000E+00  0.72174557360E+03  0.72174557361E+03  0.25500000920E-02 0.  1.
        2   -1    0    0  501    0  0.00000000000E+00  0.00000000000E+00 -0.98592263481E+03  0.98592263481E+03  0.25500000920E-02 0. -1.
    10030    2    1    2    0    0  0.00000000000E+00  0.00000000000E+00 -0.26417706121E+03  0.17076682084E+04  0.16871103077E+04 0.  0.
        5    1    3    3  502    0 -0.50241103561E+03  0.34767842459E+03 -0.72078202241E+03  0.94490525951E+03  0.46999998093E+01 0. -1.
       -5    1    3    3    0  502  0.50241103561E+03 -0.34767842459E+03  0.45660496120E+03  0.76276294891E+03  0.46999998093E+01 0.  1.
</event>
<event>
 5   0  0.3605571E-04  0.1699670E+04  0.7818609E-02  0.8761552E-01
        2   -1    0    0  501    0  0.00000000000E+00  0.00000000000E+00  0.90498796991E+03  0.90498796992E+03  0.25500000920E-02 0.  1.
       -2   -1    0    0    0  501  0.00000000000E+00  0.00000000000E+00 -0.79804365402E+03  0.79804365403E+03  0.25500000920E-02 0. -1.
    10030    2    1    2    0    0  0.00000000000E+00  0.00000000000E+00  0.10694431589E+03  0.17030316239E+04  0.16996704461E+04 0.  0.
        4    1    3    3  502    0 -0.15895258613E+03  0.83481834895E+03  0.47921069013E+02  0.85116722337E+03  0.12699999809E+01 0. -1.
       -4    1    3    3    0  502  0.15895258613E+03 -0.83481834895E+03  0.59023246877E+02  0.85186440057E+03  0.12699999809E+01 0.  1.
</event>
<event>
 5   0  0.3516723E-04  0.1696328E+04  0.7818609E-02  0.8763461E-01
        2   -1    0    0  501    0  0.00000000000E+00  0.00000000000E+00  0.58519950530E+03  0.58519950530E+03  0.25500000920E-02 0. -1.
       -2   -1    0    0    0  501  0.00000000000E+00  0.00000000000E+00 -0.12292941547E+04  0.12292941547E+04  0.25500000920E-02 0.  1.
    10030    2    1    2    0    0  0.00000000000E+00  0.00000000000E+00 -0.64409464937E+03  0.18144936600E+04  0.16963281890E+04 0.  0.
        1    1    3    3  502    0 -0.70718831075E+03  0.14049678835E+03 -0.79984842865E+03  0.10768528977E+04  0.50400001928E-02 0.  1.
       -1    1    3    3    0  502  0.70718831075E+03 -0.14049678835E+03  0.15575377928E+03  0.73764076229E+03  0.50400001928E-02 0. -1.
</event>
<event>
 5   0  0.1893284E-04  0.1700748E+04  0.7818609E-02  0.8760938E-01
       -1   -1    0    0    0  501  0.00000000000E+00  0.00000000000E+00  0.24263275183E+04  0.24263275183E+04  0.50400001928E-02 0.  1.
        1   -1    0    0  501    0  0.00000000000E+00  0.00000000000E+00 -0.29803722087E+03  0.29803722091E+03  0.50400001928E-02 0. -1.
    10030    2    1    2    0    0  0.00000000000E+00  0.00000000000E+00  0.21282902975E+04  0.27243647392E+04  0.17007479655E+04 0.  0.
        2    1    3    3  502    0  0.39134061024E+03  0.75470758265E+03  0.10319121843E+04  0.13370017818E+04  0.25500000920E-02 0.  1.
       -2    1    3    3    0  502 -0.39134061024E+03 -0.75470758265E+03  0.10963781132E+04  0.13873629574E+04  0.25500000920E-02 0. -1.
</event>
<event>
 5   0  0.3678896E-04  0.1745605E+04  0.7818609E-02  0.8735773E-01
        2   -1    0    0  501    0  0.00000000000E+00  0.00000000000E+00  0.13425348847E+04  0.13425348848E+04  0.25500000920E-02 0.  1.
       -2   -1    0    0    0  501  0.00000000000E+00  0.00000000000E+00 -0.56742203663E+03  0.56742203664E+03  0.25500000920E-02 0. -1.
    10030    2    1    2    0    0  0.00000000000E+00  0.00000000000E+00  0.77511284812E+03  0.19099569214E+04  0.17456046271E+04 0.  0.
        2    1    3    3  502    0 -0.27224248474E+03  0.68883139589E+03  0.89274104133E+03  0.11599962195E+04  0.25500000920E-02 0.  1.
       -2    1    3    3    0  502  0.27224248474E+03 -0.68883139589E+03 -0.11762819322E+03  0.74996070185E+03  0.25500000920E-02 0. -1.
</event>
<event>
 5   0  0.3574092E-04  0.1709174E+04  0.7818609E-02  0.8756149E-01
        2   -1    0    0  501    0  0.00000000000E+00  0.00000000000E+00  0.12536679390E+04  0.12536679390E+04  0.25500000920E-02 0. -1.
       -2   -1    0    0    0  501  0.00000000000E+00  0.00000000000E+00 -0.58254582658E+03  0.58254582658E+03  0.25500000920E-02 0.  1.
    10030    2    1    2    0    0  0.00000000000E+00  0.00000000000E+00  0.67112211241E+03  0.18362137656E+04  0.17091740997E+04 0.  0.
        3    1    3    3  502    0 -0.36053100249E+03  0.50543954519E+03  0.96646454707E+03  0.11486972919E+04  0.10100000352E+00 0. -1.
       -3    1    3    3    0  502  0.36053100249E+03 -0.50543954519E+03 -0.29534243466E+03  0.68751647362E+03  0.10100000352E+00 0.  1.
</event>
<event>
 5   0  0.3573262E-04  0.1716205E+04  0.7818609E-02  0.8752175E-01
        2   -1    0    0  501    0  0.00000000000E+00  0.00000000000E+00  0.13874299379E+04  0.13874299379E+04  0.25500000920E-02 0. -1.
       -2   -1    0    0    0  501  0.00000000000E+00  0.00000000000E+00 -0.53072245807E+03  0.53072245807E+03  0.25500000920E-02 0.  1.
    10030    2    1    2    0    0  0.00000000000E+00  0.00000000000E+00  0.85670747982E+03  0.19181523960E+04  0.17162053805E+04 0.  0.
        5    1    3    3  502    0  0.64457196452E+03  0.56042828563E+03  0.33642401190E+03  0.91801747618E+03  0.46999998093E+01 0.  1.
       -5    1    3    3    0  502 -0.64457196452E+03 -0.56042828563E+03  0.52028346793E+03  0.10001349198E+04  0.46999998093E+01 0. -1.
</event>
<event>
 5   0  0.3516723E-04  0.1699963E+04  0.7818609E-02  0.8761385E-01
        2   -1    0    0  501    0  0.00000000000E+00  0.00000000000E+00  0.18087656399E+04  0.18087656399E+04  0.25500000920E-02 0. -1.
       -2   -1    0    0    0  501  0.00000000000E+00  0.00000000000E+00 -0.39942631698E+03  0.39942631699E+03  0.25500000920E-02 0.  1.
    10030    2    1    2    0    0  0.00000000000E+00  0.00000000000E+00  0.14093393229E+04  0.22081919569E+04  0.16999630559E+04 0.  0.
        1    1    3    3  502    0 -0.41287594896E+03  0.42202417612E+01  0.16697438021E+04  0.17200374194E+04  0.50400001928E-02 0. -1.
       -1    1    3    3    0  502  0.41287594896E+03 -0.42202417612E+01 -0.26040447914E+03  0.48815453747E+03  0.50400001928E-02 0.  1.
</event>
<event>
 5   0  0.1930116E-04  0.1700180E+04  0.7818609E-02  0.8761262E-01
       -1   -1    0    0    0  501  0.00000000000E+00  0.00000000000E+00  0.10081760358E+04  0.10081760358E+04  0.50400001928E-02 0.  1.
        1   -1    0    0  501    0  0.00000000000E+00  0.00000000000E+00 -0.71679249993E+03  0.71679249995E+03  0.50400001928E-02 0. -1.
    10030    2    1    2    0    0  0.00000000000E+00  0.00000000000E+00  0.29138353589E+03  0.17249685358E+04  0.17001800153E+04 0.  0.
        1    1    3    3  502    0  0.71158964048E+03 -0.44959106733E+03  0.26642710818E+03  0.88287901111E+03  0.50400001928E-02 0.  1.
       -1    1    3    3    0  502 -0.71158964048E+03  0.44959106733E+03  0.24956427709E+02  0.84208952468E+03  0.50400001928E-02 0. -1.
</event>
<event>
 5   0  0.3678896E-04  0.1777078E+04  0.7818609E-02  0.8718585E-01
        2   -1    0    0  501    0  0.00000000000E+00  0.00000000000E+00  0.24877217596E+04  0.24877217596E+04  0.25500000920E-02 0. -1.
       -2   -1    0    0    0  501  0.00000000000E+00  0.00000000000E+00 -0.31735923487E+03  0.31735923488E+03  0.25500000920E-02 0.  1.
    10030    2    1    2    0    0  0.00000000000E+00  0.00000000000E+00  0.21703625247E+04  0.28050809945E+04  0.17770779096E+04 0.  0.
        2    1    3    3  502    0 -0.73398576307E+03 -0.37497876942E+02  0.29695195494E+03  0.79266743008E+03  0.25500000920E-02 0.  1.
       -2    1    3    3    0  502  0.73398576307E+03  0.37497876942E+02  0.18734105698E+04  0.20124135644E+04  0.25500000920E-02 0. -1.
</event>
<event>
 5   0  0.1815663E-04  0.1711094E+04  0.7818609E-02  0.8755062E-01
        1   -1    0    0  501    0  0.00000000000E+00  0.00000000000E+00  0.75049985745E+03  0.75049985747E+03  0.50400001928E-02 0. -1.
       -1   -1    0    0    0  501  0.00000000000E+00  0.00000000000E+00 -0.97529721606E+03  0.97529721608E+03  0.50400001928E-02 0.  1.
    10030    2    1    2    0    0  0.00000000000E+00  0.00000000000E+00 -0.22479735861E+03  0.17257970735E+04  0.17110937107E+04 0.  0.
        5    1    3    3  502    0  0.10629378022E+03  0.65373245637E+03  0.43380245240E+03  0.79175194975E+03  0.46999998093E+01 0. -1.
       -5    1    3    3    0  502 -0.10629378022E+03 -0.65373245637E+03 -0.65859981101E+03  0.93404512380E+03  0.46999998093E+01 0.  1.
</event>
<event>
 5   0  0.3573262E-04  0.1739061E+04  0.7818609E-02  0.8739395E-01
        2   -1    0    0  501    0  0.00000000000E+00  0.00000000000E+00  0.14470514947E+04  0.14470514947E+04  0.25500000920E-02 0.  1.
       -2   -1    0    0    0  501  0.00000000000E+00  0.00000000000E+00 -0.52249922311E+03  0.52249922312E+03  0.25500000920E-02 0. -1.
    10030    2    1    2    0    0  0.00000000000E+00  0.00000000000E+00  0.92455227155E+03  0.19695507178E+04  0.17390609900E+04 0.  0.
        5    1    3    3  502    0 -0.43104215874E+03  0.56758129463E+02 -0.39054922903E+03  0.58443957615E+03  0.46999998093E+01 0. -1.
       -5    1    3    3    0  502  0.43104215874E+03 -0.56758129463E+02  0.13151015006E+04  0.13851111416E+04  0.46999998093E+01 0.  1.
</event>
<event>
 5   0  0.1920289E-04  0.1718240E+04  0.7818609E-02  0.8751029E-01
       -1   -1    0    0    0  501  0.00000000000E+00  0.00000000000E+00  0.52736734096E+03  0.52736734098E+03  0.50400001928E-02 0.  1.
        1   -1    0    0  501    0  0.00000000000E+00  0.00000000000E+00 -0.13995698911E+04  0.13995698911E+04  0.50400001928E-02 0. -1.
    10030    2    1    2    0    0  0.00000000000E+00  0.00000000000E+00 -0.87220255011E+03  0.19269372321E+04  0.17182403231E+04 0.  0.
        4    1    3    3  502    0  0.42876493294E+03 -0.34347768983E+03 -0.11768332830E+04  0.12987511232E+04  0.12699999809E+01 0. -1.
       -4    1    3    3    0  502 -0.42876493294E+03  0.34347768983E+03  0.30463073284E+03  0.62818610891E+03  0.12699999809E+01 0.  1.
</event>
<event>
 5   0  0.3605571E-04  0.1695809E+04  0.7818609E-02  0.8763758E-01
        2   -1    0    0  501    0  0.00000000000E+00  0.00000000000E+00  0.69829445741E+03  0.69829445742E+03  0.25500000920E-02 0. -1.
       -2   -1    0    0    0  501  0.00000000000E+00  0.00000000000E+00 -0.10295687794E+04  0.10295687794E+04  0.25500000920E-02 0.  1.
    10030    2    1    2    0    0  0.00000000000E+00  0.00000000000E+00 -0.33127432198E+03  0.17278632368E+04  0.16958091546E+04 0.  0.
        4    1    3    3  502    0  0.46738550268E+03 -0.15550085757E+03 -0.86883514850E+03  0.99875214793E+03  0.12699999809E+01 0.  1.
       -4    1    3    3    0  502 -0.46738550268E+03  0.15550085757E+03  0.53756082652E+03  0.72911108888E+03  0.12699999809E+01 0. -1.
</event>
<event>
 5   0  0.1930116E-04  0.1698818E+04  0.7818609E-02  0.8762039E-01
        1   -1    0    0  501    0  0.00000000000E+00  0.00000000000E+00  0.11059495034E+04  0.11059495035E+04  0.50400001928E-02 0.  1.
       -1   -1    0    0    0  501  0.00000000000E+00  0.00000000000E+00 -0.65237650770E+03  0.65237650772E+03  0.50400001928E-02 0. -1.
    10030    2    1    2    0    0  0.00000000000E+00  0.00000000000E+00  0.45357299575E+03  0.17583260112E+04  0.16988177946E+04 0.  0.
        1    1    3    3  502    0  0.73755813786E+03 -0.30047238059E+02  0.66174590239E+03  0.99136395062E+03  0.50400001928E-02 0.  1.
       -1    1    3    3    0  502 -0.73755813786E+03  0.30047238059E+02 -0.20817290664E+03  0.76696206055E+03  0.50400001928E-02 0. -1.
</event>
<event>
 5   0  0.3516723E-04  0.1710476E+04  0.7818609E-02  0.8755412E-01
        2   -1    0    0  501    0  0.00000000000E+00  0.00000000000E+00  0.89160019947E+03  0.89160019947E+03  0.25500000920E-02 0.  1.
       -2   -1    0    0    0  501  0.00000000000E+00  0.00000000000E+00 -0.82035848739E+03  0.82035848740E+03  0.25500000920E-02 0. -1.
    10030    2    1    2    0    0  0.00000000000E+00  0.00000000000E+00  0.71241712075E+02  0.17119586869E+04  0.17104757128E+04 0.  0.
        1    1    3    3  502    0  0.61413632600E+03 -0.49089353393E+03  0.37250130163E+03  0.86999833811E+03  0.50400001928E-02 0.  1.
       -1    1    3    3    0  502 -0.61413632600E+03  0.49089353393E+03 -0.30125958955E+03  0.84196034876E+03  0.50400001928E-02 0. -1.
</event>
<event>
 5   0  0.1920289E-04  0.1706477E+04  0.7818609E-02  0.8757679E-01
        1   -1    0    0  501    0  0.00000000000E+00  0.00000000000E+00  0.81671078154E+03  0.81671078156E+03  0.50400001928E-02 0. -1.
       -1   -1    0    0    0  501  0.00000000000E+00  0.00000000000E+00 -0.89139954369E+03  0.89139954371E+03  0.50400001928E-02 0.  1.
    10030    2    1    2    0    0  0.00000000000E+00  0.00000000000E+00 -0.74688762149E+02  0.17081103253E+04  0.17064766251E+04 0.  0.
        4    1    3    3  502    0 -0.62732181996E+03 -0.36878144504E+02  0.54037482095E+03  0.82879383646E+03  0.12699999809E+01 0. -1.
       -4    1    3    3    0  502  0.62732181996E+03  0.36878144504E+02 -0.61506358310E+03  0.87931648881E+03  0.12699999809E+01 0.  1.
</event>
<event>
 5   0  0.3574092E-04  0.1703116E+04  0.7818609E-02  0.8759589E-01
        2   -1    0    0  501    0  0.00000000000E+00  0.00000000000E+00  0.90122334003E+03  0.90122334003E+03  0.25500000920E-02 0.  1.
       -2   -1    0    0    0  501  0.00000000000E+00  0.00000000000E+00 -0.80462972219E+03  0.80462972219E+03  0.25500000920E-02 0. -1.
    10030    2    1    2    0    0  0.00000000000E+00  0.00000000000E+00  0.96593617840E+02  0.17058530622E+04  0.17031160685E+04 0.  0.
        3    1    3    3  502    0 -0.30966764742E+03  0.17522499001E+03 -0.72660872274E+03  0.80904764702E+03  0.10100000352E+00 0. -1.
       -3    1    3    3    0  502  0.30966764742E+03 -0.17522499001E+03  0.82320234058E+03  0.89680541520E+03  0.10100000352E+00 0.  1.
</event>
<event>
 5   0  0.1824538E-04  0.1726166E+04  0.7818609E-02  0.8746580E-01
        1   -1    0    0  501    0  0.00000000000E+00  0.00000000000E+00  0.15680015611E+04  0.15680015611E+04  0.50400001928E-02 0.  1.
       -1   -1    0    0    0  501  0.00000000000E+00  0.00000000000E+00 -0.47507096014E+03  0.47507096017E+03  0.50400001928E-02 0. -1.
    10030    2    1    2    0    0  0.00000000000E+00  0.00000000000E+00  0.10929306009E+04  0.20430725212E+04  0.17261657014E+04 0.  0.
        3    1    3    3  502    0  0.28695613252E+03 -0.22178920668E+03 -0.38050388850E+03  0.52565910394E+03  0.10100000352E+00 0. -1.
       -3    1    3    3    0  502 -0.28695613252E+03  0.22178920668E+03  0.14734344894E+04  0.15174134173E+04  0.10100000352E+00 0.  1.
</event>
<event>
 5   0  0.3516723E-04  0.1708348E+04  0.7818609E-02  0.8756618E-01
        2   -1    0    0  501    0  0.00000000000E+00  0.00000000000E+00  0.13676358267E+04  0.13676358267E+04  0.25500000920E-02 0.  1.
       -2   -1    0    0    0  501  0.00000000000E+00  0.00000000000E+00 -0.53348483249E+03  0.53348483249E+03  0.25500000920E-02 0. -1.
    10030    2    1    2    0    0  0.00000000000E+00  0.00000000000E+00  0.83415099422E+03  0.19011206592E+04  0.17083477046E+04 0.  0.
        1    1    3    3  502    0 -0.71218789644E+03  0.41907737560E+03  0.17639397999E+03  0.84495697096E+03  0.50400001928E-02 0.  1.
       -1    1    3    3    0  502  0.71218789644E+03 -0.41907737560E+03  0.65775701423E+03  0.10561636882E+04  0.50400001928E-02 0. -1.
</event>
<event>
 5   0  0.1920289E-04  0.1701182E+04  0.7818609E-02  0.8760690E-01
       -1   -1    0    0    0  501  0.00000000000E+00  0.00000000000E+00  0.45470725669E+03  0.45470725672E+03  0.50400001928E-02 0. -1.
        1   -1    0    0  501    0  0.00000000000E+00  0.00000000000E+00 -0.15911448950E+04  0.15911448950E+04  0.50400001928E-02 0.  1.
    10030    2    1    2    0    0  0.00000000000E+00  0.00000000000E+00 -0.11364376383E+04  0.20458521517E+04  0.17011820952E+04 0.  0.
        4    1    3    3  502    0 -0.14407255173E+03  0.49255949217E+03 -0.13839828446E+04  0.14760697411E+04  0.12699999809E+01 0.  1.
       -4    1    3    3    0  502  0.14407255173E+03 -0.49255949217E+03  0.24754520625E+03  0.56978241068E+03  0.12699999809E+01 0. -1.
</event>
<event>
 5   0  0.3574092E-04  0.1703753E+04  0.7818609E-02  0.8759227E-01
        2   -1    0    0  501    0  0.00000000000E+00  0.00000000000E+00  0.61067588078E+03  0.61067588079E+03  0.25500000920E-02 0.  1.
       -2   -1    0    0    0  501  0.00000000000E+00  0.00000000000E+00 -0.11883449871E+04  0.11883449871E+04  0.25500000920E-02 0. -1.
    10030    2    1    2    0    0  0.00000000000E+00  0.00000000000E+00 -0.57766910630E+03  0.17990208679E+04  0.17037530592E+04 0.  0.
        3    1    3    3  502    0 -0.10756000157E+03  0.28852553548E+02 -0.11806258408E+04  0.11858663542E+04  0.10100000352E+00 0. -1.
       -3    1    3    3    0  502  0.10756000157E+03 -0.28852553548E+02  0.60295673451E+03  0.61315451370E+03  0.10100000352E+00 0.  1.
</event>
<event>
 5   0  0.1920289E-04  0.1701285E+04  0.7818609E-02  0.8760632E-01
       -1   -1    0    0    0  501  0.00000000000E+00  0.00000000000E+00  0.35038720919E+03  0.35038720923E+03  0.50400001928E-02 0.  1.
        1   -1    0    0  501    0  0.00000000000E+00  0.00000000000E+00 -0.20651232950E+04  0.20651232950E+04  0.50400001928E-02 0. -1.
    10030    2    1    2    0    0  0.00000000000E+00  0.00000000000E+00 -0.17147360858E+04  0.24155105042E+04  0.17012851472E+04 0.  0.
        4    1    3    3  502    0 -0.50534185309E+03  0.17304668700E+03 -0.17973196217E+04  0.18750133279E+04  0.12699999809E+01 0. -1.
       -4    1    3    3    0  502  0.50534185309E+03 -0.17304668700E+03  0.82583535861E+02  0.54049717637E+03  0.12699999809E+01 0.  1.
</event>
<event>
 5   0  0.1317625E-04  0.1716672E+04  0.7818609E-02  0.8751913E-01
        3   -1    0    0  501    0  0.00000000000E+00  0.00000000000E+00  0.13241608701E+04  0.13241608739E+04  0.10100000352E+00 0.  1.
       -3   -1    0    0    0  501  0.00000000000E+00  0.00000000000E+00 -0.55638286420E+03  0.55638287336E+03  0.10100000352E+00 0. -1.
    10030    2    1    2    0    0  0.00000000000E+00  0.00000000000E+00  0.76777800587E+03  0.18805437473E+04  0.17166716981E+04 0.  0.
        4    1    3    3  502    0  0.13817964269E+03 -0.84676966010E+03  0.41130495515E+03  0.95146510706E+03  0.12699999809E+01 0. -1.
       -4    1    3    3    0  502 -0.13817964269E+03  0.84676966010E+03  0.35647305072E+03  0.92907864022E+03  0.12699999809E+01 0.  1.
</event>
<event>
 5   0  0.1920289E-04  0.1696381E+04  0.7818609E-02  0.8763431E-01
        1   -1    0    0  501    0  0.00000000000E+00  0.00000000000E+00  0.95332857581E+03  0.95332857583E+03  0.50400001928E-02 0. -1.
       -1   -1    0    0    0  501  0.00000000000E+00  0.00000000000E+00 -0.75464758258E+03  0.75464758259E+03  0.50400001928E-02 0.  1.
    10030    2    1    2    0    0  0.00000000000E+00  0.00000000000E+00  0.19868099324E+03  0.17079761584E+04  0.16963809775E+04 0.  0.
        4    1    3    3  502    0  0.55268622094E+03 -0.21622668765E+03 -0.51077960875E+03  0.78301561983E+03  0.12699999809E+01 0.  1.
       -4    1    3    3    0  502 -0.55268622094E+03  0.21622668765E+03  0.70946060199E+03  0.92496053859E+03  0.12699999809E+01 0. -1.
</event>
<event>
 5   0  0.1815663E-04  0.1744373E+04  0.7818609E-02  0.8736454E-01
        1   -1    0    0  501    0  0.00000000000E+00  0.00000000000E+00  0.97541250869E+03  0.97541250870E+03  0.50400001928E-02 0. -1.
       -1   -1    0    0    0  501  0.00000000000E+00  0.00000000000E+00 -0.77988467872E+03  0.77988467874E+03  0.50400001928E-02 0.  1.
    10030    2    1    2    0    0  0.00000000000E+00  0.00000000000E+00  0.19552782997E+03  0.17552971874E+04  0.17443729773E+04 0.  0.
        5    1    3    3  502    0 -0.64105892329E+03  0.72889279812E+01  0.69280253908E+03  0.94393173469E+03  0.46999998093E+01 0.  1.
       -5    1    3    3    0  502  0.64105892329E+03 -0.72889279812E+01 -0.49727470911E+03  0.81136545275E+03  0.46999998093E+01 0. -1.
</event>
<event>
 5   0  0.3678896E-04  0.1693085E+04  0.7818609E-02  0.8765318E-01
       -2   -1    0    0    0  501  0.00000000000E+00  0.00000000000E+00  0.42577191997E+03  0.42577191997E+03  0.25500000920E-02 0. -1.
        2   -1    0    0  501    0  0.00000000000E+00  0.00000000000E+00 -0.16831413742E+04  0.16831413742E+04  0.25500000920E-02 0.  1.
    10030    2    1    2    0    0  0.00000000000E+00  0.00000000000E+00 -0.12573694543E+04  0.21089132942E+04  0.16930851538E+04 0.  0.
        2    1    3    3  502    0  0.84435672843E+03  0.57976796788E+02 -0.65147419429E+03  0.10680441094E+04  0.25500000920E-02 0.  1.
       -2    1    3    3    0  502 -0.84435672843E+03 -0.57976796788E+02 -0.60589525999E+03  0.10408691848E+04  0.25500000920E-02 0. -1.
</event>
<event>
 5   0  0.3605571E-04  0.1738407E+04  0.7818609E-02  0.8739757E-01
       -2   -1    0    0    0  501  0.00000000000E+00  0.00000000000E+00  0.49062481537E+03  0.49062481537E+03  0.25500000920E-02 0.  1.
        2   -1    0    0  501    0  0.00000000000E+00  0.00000000000E+00 -0.15399036255E+04  0.15399036255E+04  0.25500000920E-02 0. -1.
    10030    2    1    2    0    0  0.00000000000E+00  0.00000000000E+00 -0.10492788101E+04  0.20305284409E+04  0.17384072388E+04 0.  0.
        4    1    3    3  502    0  0.54516230033E+03 -0.67061791481E+03 -0.63285181088E+03  0.10711831537E+04  0.12699999809E+01 0.  1.
       -4    1    3    3    0  502 -0.54516230033E+03  0.67061791481E+03 -0.41642699924E+03  0.95934528714E+03  0.12699999809E+01 0. -1.
</event>
<event>
 5   0  0.3573262E-04  0.1673376E+04  0.7818609E-02  0.8776696E-01
       -2   -1    0    0    0  501  0.00000000000E+00  0.00000000000E+00  0.56662782954E+03  0.56662782955E+03  0.25500000920E-02 0. -1.
        2   -1    0    0  501    0  0.00000000000E+00  0.00000000000E+00 -0.12354613530E+04  0.12354613530E+04  0.25500000920E-02 0.  1.
    10030    2    1    2    0    0  0.00000000000E+00  0.00000000000E+00 -0.66883352345E+03  0.18020891825E+04  0.16733759708E+04 0.  0.
        5    1    3    3  502    0 -0.16420945217E+03 -0.21808754233E+03 -0.11861343895E+04  0.12171539756E+04  0.46999998093E+01 0.  1.
       -5    1    3    3    0  502  0.16420945217E+03  0.21808754233E+03  0.51730086607E+03  0.58493520695E+03  0.46999998093E+01 0. -1.
</event>
<event>
 5   0  0.3573262E-04  0.1771639E+04  0.7818609E-02  0.8721529E-01
       -2   -1    0    0    0  501  0.00000000000E+00  0.00000000000E+00  0.44346379540E+03  0.44346379541E+03  0.25500000920E-02 0.  1.
        2   -1    0    0  501    0  0.00000000000E+00  0.00000000000E+00 -0.17694259517E+04  0.17694259517E+04  0.25500000920E-02 0. -1.
    10030    2    1    2    0    0  0.00000000000E+00  0.00000000000E+00 -0.13259621563E+04  0.22128897472E+04  0.17716391825E+04 0.  0.
        5    1    3    3  502    0  0.81263887668E+03 -0.25839923940E+03 -0.36346059217E+03  0.92697238518E+03  0.46999998093E+01 0.  1.
       -5    1    3    3    0  502 -0.81263887668E+03  0.25839923940E+03 -0.96250156416E+03  0.12859173620E+04  0.46999998093E+01 0. -1.
</event>
<event>
 5   0  0.1920289E-04  0.1682715E+04  0.7818609E-02  0.8771284E-01
        1   -1    0    0  501    0  0.00000000000E+00  0.00000000000E+00  0.20110442423E+04  0.20110442423E+04  0.50400001928E-02 0.  1.
       -1   -1    0    0    0  501  0.00000000000E+00  0.00000000000E+00 -0.35199752185E+03  0.35199752189E+03  0.50400001928E-02 0. -1.
    10030    2    1    2    0    0  0.00000000000E+00  0.00000000000E+00  0.16590467205E+04  0.23630417642E+04  0.16827151746E+04 0.  0.
        4    1    3    3  502    0  0.21073006927E+01 -0.63871895588E+03  0.15985822789E+04  0.17214625353E+04  0.12699999809E+01 0.  1.
       -4    1    3    3    0  502 -0.21073006927E+01  0.63871895588E+03  0.60464441574E+02  0.64157922887E+03  0.12699999809E+01 0. -1.
</event>
<event>
 5   0  0.1930116E-04  0.1694185E+04  0.7818609E-02  0.8764688E-01
       -1   -1    0    0    0  501  0.00000000000E+00  0.00000000000E+00  0.56427844271E+03  0.56427844273E+03  0.50400001928E-02 0. -1.
        1   -1    0    0  501    0  0.00000000000E+00  0.00000000000E+00 -0.12716515870E+04  0.12716515870E+04  0.50400001928E-02 0.  1.
    10030    2    1    2    0    0  0.00000000000E+00  0.00000000000E+00 -0.70737314432E+03  0.18359300298E+04  0.16941848509E+04 0.  0.
        1    1    3    3  502    0 -0.78203309160E+03 -0.32197689871E+03 -0.40589067081E+03  0.93807894995E+03  0.50400001928E-02 0. -1.
       -1    1    3    3    0  502  0.78203309160E+03  0.32197689871E+03 -0.30148247351E+03  0.89785107981E+03  0.50400001928E-02 0.  1.
</event>
<event>
 5   0  0.3574092E-04  0.1705217E+04  0.7818609E-02  0.8758395E-01
       -2   -1    0    0    0  501  0.00000000000E+00  0.00000000000E+00  0.45236173321E+03  0.45236173322E+03  0.25500000920E-02 0.  1.
        2   -1    0    0  501    0  0.00000000000E+00  0.00000000000E+00 -0.16069903125E+04  0.16069903125E+04  0.25500000920E-02 0. -1.
    10030    2    1    2    0    0  0.00000000000E+00  0.00000000000E+00 -0.11546285792E+04  0.20593520457E+04  0.17052166115E+04 0.  0.
        3    1    3    3  502    0 -0.53857311167E+03 -0.12374831695E+03  0.20680830537E+03  0.59003756485E+03  0.10100000352E+00 0.  1.
       -3    1    3    3    0  502  0.53857311167E+03  0.12374831695E+03 -0.13614368846E+04  0.14693144808E+04  0.10100000352E+00 0. -1.
</event>
<event>
 5   0  0.3516723E-04  0.1706884E+04  0.7818609E-02  0.8757448E-01
       -2   -1    0    0    0  501  0.00000000000E+00  0.00000000000E+00  0.59107105937E+03  0.59107105937E+03  0.25500000920E-02 0. -1.
        2   -1    0    0  501    0  0.00000000000E+00  0.00000000000E+00 -0.12322771270E+04  0.12322771270E+04  0.25500000920E-02 0.  1.
    10030    2    1    2    0    0  0.00000000000E+00  0.00000000000E+00 -0.64120606765E+03  0.18233481864E+04  0.17068841166E+04 0.  0.
        1    1    3    3  502    0  0.18990598054E+03  0.20863431150E+02  0.56793468964E+03  0.59920728961E+03  0.50400001928E-02 0. -1.
       -1    1    3    3    0  502 -0.18990598054E+03 -0.20863431150E+02 -0.12091407573E+04  0.12241408968E+04  0.50400001928E-02 0.  1.
</event>
<event>
 5   0  0.3573262E-04  0.1683203E+04  0.7818609E-02  0.8771003E-01
       -2   -1    0    0    0  501  0.00000000000E+00  0.00000000000E+00  0.35535106547E+03  0.35535106548E+03  0.25500000920E-02 0. -1.
        2   -1    0    0  501    0  0.00000000000E+00  0.00000000000E+00 -0.19932210198E+04  0.19932210198E+04  0.25500000920E-02 0.  1.
    10030    2    1    2    0    0  0.00000000000E+00  0.00000000000E+00 -0.16378699543E+04  0.23485720853E+04  0.16832031525E+04 0.  0.
        5    1    3    3  502    0  0.74931334257E+03  0.18488096720E+03 -0.12871814080E+04  0.15008362751E+04  0.46999998093E+01 0.  1.
       -5    1    3    3    0  502 -0.74931334257E+03 -0.18488096720E+03 -0.35068854629E+03  0.84773581019E+03  0.46999998093E+01 0. -1.
</event>
<event>
 5   0  0.1824538E-04  0.1707016E+04  0.7818609E-02  0.8757373E-01
       -1   -1    0    0    0  501  0.00000000000E+00  0.00000000000E+00  0.83227219385E+03  0.83227219387E+03  0.50400001928E-02 0.  1.
        1   -1    0    0  501    0  0.00000000000E+00  0.00000000000E+00 -0.87528540696E+03  0.87528540697E+03  0.50400001928E-02 0. -1.
    10030    2    1    2    0    0  0.00000000000E+00  0.00000000000E+00 -0.43013213102E+02  0.17075576008E+04  0.17070157655E+04 0.  0.
        3    1    3    3  502    0  0.43796329008E+03 -0.44235854150E+03 -0.60562926032E+03  0.86849279436E+03  0.10100000352E+00 0. -1.
       -3    1    3    3    0  502 -0.43796329008E+03  0.44235854150E+03  0.56261604722E+03  0.83906480648E+03  0.10100000352E+00 0.  1.
</event>
<event>
 5   0  0.3678896E-04  0.1686092E+04  0.7818609E-02  0.8769337E-01
       -2   -1    0    0    0  501  0.00000000000E+00  0.00000000000E+00  0.63980884379E+03  0.63980884380E+03  0.25500000920E-02 0.  1.
        2   -1    0    0  501    0  0.00000000000E+00  0.00000000000E+00 -0.11108421812E+04  0.11108421812E+04  0.25500000920E-02 0. -1.
    10030    2    1    2    0    0  0.00000000000E+00  0.00000000000E+00 -0.47103333738E+03  0.17506510250E+04  0.16860921109E+04 0.  0.
        2    1    3    3  502    0  0.76858613494E+03 -0.74321634568E+02  0.11578472330E+03  0.78080372332E+03  0.25500000920E-02 0.  1.
       -2    1    3    3    0  502 -0.76858613494E+03  0.74321634568E+02 -0.58681806068E+03  0.96984730166E+03  0.25500000920E-02 0. -1.
</event>
<event>
 5   0  0.1930116E-04  0.1695556E+04  0.7818609E-02  0.8763903E-01
       -1   -1    0    0    0  501  0.00000000000E+00  0.00000000000E+00  0.21789166757E+04  0.21789166757E+04  0.50400001928E-02 0.  1.
        1   -1    0    0  501    0  0.00000000000E+00  0.00000000000E+00 -0.32985532942E+03  0.32985532946E+03  0.50400001928E-02 0. -1.
    10030    2    1    2    0    0  0.00000000000E+00  0.00000000000E+00  0.18490613463E+04  0.25087720052E+04  0.16955556941E+04 0.  0.
        1    1    3    3  502    0  0.54036638892E+03 -0.64224730108E+03  0.74790482957E+03  0.11242059705E+04  0.50400001928E-02 0.  1.
       -1    1    3    3    0  502 -0.54036638892E+03  0.64224730108E+03  0.11011565167E+04  0.13845660347E+04  0.50400001928E-02 0. -1.
</event>
<event>
 5   0  0.3574092E-04  0.1733185E+04  0.7818609E-02  0.8742661E-01
       -2   -1    0    0    0  501  0.00000000000E+00  0.00000000000E+00  0.65059528842E+03  0.65059528843E+03  0.25500000920E-02 0.  1.
        2   -1    0    0  501    0  0.00000000000E+00  0.00000000000E+00 -0.11543006727E+04  0.11543006727E+04  0.25500000920E-02 0. -1.
    10030    2    1    2    0    0  0.00000000000E+00  0.00000000000E+00 -0.50370538432E+03  0.18048959612E+04  0.17331850208E+04 0.  0.
        3    1    3    3  502    0  0.98294755570E+02  0.74871717406E+03 -0.69458208285E+03  0.10260036772E+04  0.10100000352E+00 0. -1.
       -3    1    3    3    0  502 -0.98294755570E+02 -0.74871717406E+03  0.19087669853E+03  0.77889228392E+03  0.10100000352E+00 0.  1.
</event>
<event>
 5   0  0.3678896E-04  0.1695947E+04  0.7818609E-02  0.8763679E-01
        2   -1    0    0  501    0  0.00000000000E+00  0.00000000000E+00  0.13744872535E+04  0.13744872535E+04  0.25500000920E-02 0.  1.
       -2   -1    0    0    0  501  0.00000000000E+00  0.00000000000E+00 -0.52314691938E+03  0.52314691939E+03  0.25500000920E-02 0. -1.
    10030    2    1    2    0    0  0.00000000000E+00  0.00000000000E+00  0.85134033414E+03  0.18976341729E+04  0.16959466648E+04 0.  0.
        2    1    3    3  502    0 -0.33803503185E+03 -0.45384074920E+03  0.11322944929E+04  0.12658317135E+04  0.25500000920E-02 0.  1.
       -2    1    3    3    0  502  0.33803503185E+03  0.45384074920E+03 -0.28095415872E+03  0.63180245939E+03  0.25500000920E-02 0. -1.
</event>
<event>
 5   0  0.1930116E-04  0.1710539E+04  0.7818609E-02  0.8755376E-01
       -1   -1    0    0    0  501  0.00000000000E+00  0.00000000000E+00  0.12573826857E+04  0.12573826857E+04  0.50400001928E-02 0. -1.
        1   -1    0    0  501    0  0.00000000000E+00  0.00000000000E+00 -0.58175283073E+03  0.58175283076E+03  0.50400001928E-02 0.  1.
    10030    2    1    2    0    0  0.00000000000E+00  0.00000000000E+00  0.67562985492E+03  0.18391355164E+04  0.17105390223E+04 0.  0.
        1    1    3    3  502    0 -0.83441408343E+02  0.74072676293E+03  0.78868212051E+03  0.10851995638E+04  0.50400001928E-02 0. -1.
       -1    1    3    3    0  502  0.83441408343E+02 -0.74072676293E+03 -0.11305226558E+03  0.75393595267E+03  0.50400001928E-02 0.  1.
</event>
<event>
 5   0  0.3573262E-04  0.1693774E+04  0.7818609E-02  0.8764923E-01
        2   -1    0    0  501    0  0.00000000000E+00  0.00000000000E+00  0.31978045800E+04  0.31978045800E+04  0.25500000920E-02 0. -1.
       -2   -1    0    0    0  501  0.00000000000E+00  0.00000000000E+00 -0.22428431256E+03  0.22428431258E+03  0.25500000920E-02 0.  1.
    10030    2    1    2    0    0  0.00000000000E+00  0.00000000000E+00  0.29735202674E+04  0.34220888925E+04  0.16937737771E+04 0.  0.
        5    1    3    3  502    0 -0.83943117888E+03 -0.10857813306E+03  0.14310105750E+04  0.16626025595E+04  0.46999998093E+01 0.  1.
       -5    1    3    3    0  502  0.83943117888E+03  0.10857813306E+03  0.15425096924E+04  0.17594863331E+04  0.46999998093E+01 0. -1.
</event>
<event>
 5   0  0.3678896E-04  0.1703869E+04  0.7818609E-02  0.8759161E-01
        2   -1    0    0  501    0  0.00000000000E+00  0.00000000000E+00  0.15389094540E+04  0.15389094540E+04  0.25500000920E-02 0. -1.
       -2   -1    0    0    0  501  0.00000000000E+00  0.00000000000E+00 -0.47162783930E+03  0.47162783931E+03  0.25500000920E-02 0.  1.
    10030    2    1    2    0    0  0.00000000000E+00  0.00000000000E+00  0.10672816147E+04  0.20105372933E+04  0.17038691742E+04 0.  0.
        2    1    3    3  502    0  0.73275858890E+03  0.17502995288E+03  0.64277436532E+02  0.75610992777E+03  0.25500000920E-02 0.  1.
       -2    1    3    3    0  502 -0.73275858890E+03 -0.17502995288E+03  0.10030041782E+04  0.12544273656E+04  0.25500000920E-02 0. -1.
</event>
<event>
 5   0  0.3573262E-04  0.1734737E+04  0.7818609E-02  0.8741797E-01
       -2   -1    0    0    0  501  0.00000000000E+00  0.00000000000E+00  0.10005524011E+04  0.10005524011E+04  0.25500000920E-02 0. -1.
        2   -1    0    0  501    0  0.00000000000E+00  0.00000000000E+00 -0.75191260148E+03  0.75191260148E+03  0.25500000920E-02 0.  1.
    10030    2    1    2    0    0  0.00000000000E+00  0.00000000000E+00  0.24863979962E+03  0.17524650026E+04  0.17347368202E+04 0.  0.
        5    1    3    3  502    0 -0.35285334525E+03  0.39623729734E+03 -0.56883822641E+03  0.77788720061E+03  0.46999998093E+01 0.  1.
       -5    1    3    3    0  502  0.35285334525E+03 -0.39623729734E+03  0.81747802602E+03  0.97457780197E+03  0.46999998093E+01 0. -1.
</event>
<event>
 5   0  0.1930116E-04  0.1754027E+04  0.7818609E-02  0.8731137E-01
        1   -1    0    0  501    0  0.00000000000E+00  0.00000000000E+00  0.18748189442E+04  0.18748189442E+04  0.50400001928E-02 0.  1.
       -1   -1    0    0    0  501  0.00000000000E+00  0.00000000000E+00 -0.41025434112E+03  0.41025434115E+03  0.50400001928E-02 0. -1.
    10030    2    1    2    0    0  0.00000000000E+00  0.00000000000E+00  0.14645646031E+04  0.22850732854E+04  0.17540269219E+04 0.  0.
        1    1    3    3  502    0  0.80806844558E+03  0.32537825229E+03  0.60002190381E+03  0.10577674153E+04  0.50400001928E-02 0. -1.
       -1    1    3    3    0  502 -0.80806844558E+03 -0.32537825229E+03  0.86454269928E+03  0.12273058701E+04  0.50400001928E-02 0.  1.
</event>
<event>
 5   0  0.3605571E-04  0.1675858E+04  0.7818609E-02  0.8775255E-01
        2   -1    0    0  501    0  0.00000000000E+00  0.00000000000E+00  0.10909155159E+04  0.10909155159E+04  0.25500000920E-02 0.  1.
       -2   -1    0    0    0  501  0.00000000000E+00  0.00000000000E+00 -0.64361061674E+03  0.64361061675E+03  0.25500000920E-02 0. -1.
    10030    2    1    2    0    0  0.00000000000E+00  0.00000000000E+00  0.44730489919E+03  0.17345261327E+04  0.16758577601E+04 0.  0.
        4    1    3    3  502    0 -0.12909525581E+03  0.59747133123E+03 -0.36954854809E+03  0.71428658045E+03  0.12699999809E+01 0. -1.
       -4    1    3    3    0  502  0.12909525581E+03 -0.59747133123E+03  0.81685344728E+03  0.10202395522E+04  0.12699999809E+01 0.  1.
</event>
<event>
 5   0  0.3574092E-04  0.1701306E+04  0.7818609E-02  0.8760620E-01
        2   -1    0    0  501    0  0.00000000000E+00  0.00000000000E+00  0.14482486896E+04  0.14482486896E+04  0.25500000920E-02 0. -1.
       -2   -1    0    0    0  501  0.00000000000E+00  0.00000000000E+00 -0.49964507321E+03  0.49964507321E+03  0.25500000920E-02 0.  1.
    10030    2    1    2    0    0  0.00000000000E+00  0.00000000000E+00  0.94860361641E+03  0.19478937628E+04  0.17013057604E+04 0.  0.
        3    1    3    3  502    0  0.94774902023E+00 -0.25138597725E+03  0.14047478572E+04  0.14270642453E+04  0.10100000352E+00 0. -1.
       -3    1    3    3    0  502 -0.94774902023E+00  0.25138597725E+03 -0.45614424074E+03  0.52082951755E+03  0.10100000352E+00 0.  1.
</event>
<event>
 5   0  0.3573262E-04  0.1819554E+04  0.7818609E-02  0.8695969E-01
        2   -1    0    0  501    0  0.00000000000E+00  0.00000000000E+00  0.20274402704E+04  0.20274402704E+04  0.25500000920E-02 0.  1.
       -2   -1    0    0    0  501  0.00000000000E+00  0.00000000000E+00 -0.40824598338E+03  0.40824598338E+03  0.25500000920E-02 0. -1.
    10030    2    1    2    0    0  0.00000000000E+00  0.00000000000E+00  0.16191942870E+04  0.24356862538E+04  0.18195541728E+04 0.  0.
        5    1    3    3  502    0 -0.29396104906E+03 -0.69173545246E+03  0.12341882440E+03  0.76168584782E+03  0.46999998093E+01 0. -1.
       -5    1    3    3    0  502  0.29396104906E+03  0.69173545246E+03  0.14957754626E+04  0.16740004059E+04  0.46999998093E+01 0.  1.
</event>
<event>
 5   0  0.3574092E-04  0.1641625E+04  0.7818609E-02  0.8795377E-01
       -2   -1    0    0    0  501  0.00000000000E+00  0.00000000000E+00  0.76746181011E+03  0.76746181011E+03  0.25500000920E-02 0. -1.
        2   -1    0    0  501    0  0.00000000000E+00  0.00000000000E+00 -0.87787145326E+03  0.87787145327E+03  0.25500000920E-02 0.  1.
    10030    2    1    2    0    0  0.00000000000E+00  0.00000000000E+00 -0.11040964315E+03  0.16453332634E+04  0.16416245790E+04 0.  0.
        3    1    3    3  502    0 -0.42013845718E+03  0.36492607563E+03 -0.65992969180E+03  0.86324653037E+03  0.10100000352E+00 0.  1.
       -3    1    3    3    0  502  0.42013845718E+03 -0.36492607563E+03  0.54952004865E+03  0.78208673301E+03  0.10100000352E+00 0. -1.
</event>
<event>
 5   0  0.1824538E-04  0.1672079E+04  0.7818609E-02  0.8777451E-01
       -1   -1    0    0    0  501  0.00000000000E+00  0.00000000000E+00  0.10504571518E+04  0.10504571518E+04  0.50400001928E-02 0.  1.
        1   -1    0    0  501    0  0.00000000000E+00  0.00000000000E+00 -0.66538835664E+03  0.66538835666E+03  0.50400001928E-02 0. -1.
    10030    2    1    2    0    0  0.00000000000E+00  0.00000000000E+00  0.38506879519E+03  0.17158455085E+04  0.16720788953E+04 0.  0.
        3    1    3    3  502    0 -0.51958183992E+03  0.45793270665E+03  0.67308052781E+03  0.96576656564E+03  0.10100000352E+00 0.  1.
       -3    1    3    3    0  502  0.51958183992E+03 -0.45793270665E+03 -0.28801173262E+03  0.75007894286E+03  0.10100000352E+00 0. -1.
</event>
<event>
 5   0  0.1824538E-04  0.1742297E+04  0.7818609E-02  0.8737602E-01
        1   -1    0    0  501    0  0.00000000000E+00  0.00000000000E+00  0.10434760969E+04  0.10434760969E+04  0.50400001928E-02 0. -1.
       -1   -1    0    0    0  501  0.00000000000E+00  0.00000000000E+00 -0.72728025078E+03  0.72728025079E+03  0.50400001928E-02 0.  1.
    10030    2    1    2    0    0  0.00000000000E+00  0.00000000000E+00  0.31619584614E+03  0.17707563477E+04  0.17422968260E+04 0.  0.
        3    1    3    3  502    0 -0.58002429599E+03 -0.16994478679E+03 -0.47951742578E+03  0.77152212303E+03  0.10100000352E+00 0.  1.
       -3    1    3    3    0  502  0.58002429599E+03  0.16994478679E+03  0.79571327192E+03  0.99923422470E+03  0.10100000352E+00 0. -1.
</event>
<event>
 5   0  0.3605571E-04  0.1701221E+04  0.7818609E-02  0.8760668E-01
       -2   -1    0    0    0  501  0.00000000000E+00  0.00000000000E+00  0.36431816082E+03  0.36431816083E+03  0.25500000920E-02 0. -1.
        2   -1    0    0  501    0  0.00000000000E+00  0.00000000000E+00 -0.19860073737E+04  0.19860073737E+04  0.25500000920E-02 0.  1.
    10030    2    1    2    0    0  0.00000000000E+00  0.00000000000E+00 -0.16216892128E+04  0.23503255345E+04  0.17012213892E+04 0.  0.
        4    1    3    3  502    0  0.21906475813E+03 -0.63120685189E+03 -0.83558291291E+02  0.67334616585E+03  0.12699999809E+01 0. -1.
       -4    1    3    3    0  502 -0.21906475813E+03  0.63120685189E+03 -0.15381309215E+04  0.16769793686E+04  0.12699999809E+01 0.  1.
</event>
<event>
 5   0  0.1815663E-04  0.1722476E+04  0.7818609E-02  0.8748649E-01
        1   -1    0    0  501    0  0.00000000000E+00  0.00000000000E+00  0.15576579580E+04  0.15576579580E+04  0.50400001928E-02 0.  1.
       -1   -1    0    0    0  501  0.00000000000E+00  0.00000000000E+00 -0.47618318532E+03  0.47618318535E+03  0.50400001928E-02 0. -1.
    10030    2    1    2    0    0  0.00000000000E+00  0.00000000000E+00  0.10814747726E+04  0.20338411433E+04  0.17224755767E+04 0.  0.
        5    1    3    3  502    0 -0.33004718815E+03 -0.28684755159E+03  0.14168117069E+04  0.14827643667E+04  0.46999998093E+01 0.  1.
       -5    1    3    3    0  502  0.33004718815E+03  0.28684755159E+03 -0.33533693428E+03  0.55107677663E+03  0.46999998093E+01 0. -1.
</event>
<event>
 5   0  0.1815663E-04  0.1702745E+04  0.7818609E-02  0.8759800E-01
       -1   -1    0    0    0  501  0.00000000000E+00  0.00000000000E+00  0.84547912413E+03  0.84547912414E+03  0.50400001928E-02 0.  1.
        1   -1    0    0  501    0  0.00000000000E+00  0.00000000000E+00 -0.85730675126E+03  0.85730675127E+03  0.50400001928E-02 0. -1.
    10030    2    1    2    0    0  0.00000000000E+00  0.00000000000E+00 -0.11827627130E+02  0.17027858754E+04  0.17027447973E+04 0.  0.
        5    1    3    3  502    0 -0.62125956782E+03  0.12541132923E+03 -0.57436522718E+03  0.85534142674E+03  0.46999998093E+01 0. -1.
       -5    1    3    3    0  502  0.62125956782E+03 -0.12541132923E+03  0.56253760005E+03  0.84744444867E+03  0.46999998093E+01 0.  1.
</event>
<event>
 5   0  0.1317625E-04  0.1704461E+04  0.7818609E-02  0.8758824E-01
       -3   -1    0    0    0  501  0.00000000000E+00  0.00000000000E+00  0.16269850855E+04  0.16269850886E+04  0.10100000352E+00 0.  1.
        3   -1    0    0  501    0  0.00000000000E+00  0.00000000000E+00 -0.44640673394E+03  0.44640674537E+03  0.10100000352E+00 0. -1.
    10030    2    1    2    0    0  0.00000000000E+00  0.00000000000E+00  0.11805783516E+04  0.20733918340E+04  0.17044613381E+04 0.  0.
        1    1    3    3  502    0  0.21515284463E+03  0.77397818751E+03  0.93642022679E+03  0.12337811080E+04  0.50400001928E-02 0.  1.
       -1    1    3    3    0  502 -0.21515284463E+03 -0.77397818751E+03  0.24415812477E+03  0.83961072600E+03  0.50400001928E-02 0. -1.
</event>
<event>
 5   0  0.1824538E-04  0.1705367E+04  0.7818609E-02  0.8758309E-01
       -1   -1    0    0    0  501  0.00000000000E+00  0.00000000000E+00  0.11162391354E+04  0.11162391354E+04  0.50400001928E-02 0. -1.
        1   -1    0    0  501    0  0.00000000000E+00  0.00000000000E+00 -0.65135592666E+03  0.65135592668E+03  0.50400001928E-02 0.  1.
    10030    2    1    2    0    0  0.00000000000E+00  0.00000000000E+00  0.46488320875E+03  0.17675950621E+04  0.17053667951E+04 0.  0.
        3    1    3    3  502    0 -0.58272761673E+03 -0.43195874304E+03  0.69702621449E+03  0.10059847836E+04  0.10100000352E+00 0. -1.
       -3    1    3    3    0  502  0.58272761673E+03  0.43195874304E+03 -0.23214300574E+03  0.76161027849E+03  0.10100000352E+00 0.  1.
</event>
<event>
 5   0  0.3516723E-04  0.1710853E+04  0.7818609E-02  0.8755198E-01
       -2   -1    0    0    0  501  0.00000000000E+00  0.00000000000E+00  0.75305500126E+03  0.75305500127E+03  0.25500000920E-02 0. -1.
        2   -1    0    0  501    0  0.00000000000E+00  0.00000000000E+00 -0.97171477364E+03  0.97171477364E+03  0.25500000920E-02 0.  1.
    10030    2    1    2    0    0  0.00000000000E+00  0.00000000000E+00 -0.21865977238E+03  0.17247697749E+04  0.17108532025E+04 0.  0.
        1    1    3    3  502    0 -0.54335166927E+03 -0.93805975354E+02  0.54999615993E+03  0.77879803125E+03  0.50400001928E-02 0. -1.
       -1    1    3    3    0  502  0.54335166927E+03  0.93805975354E+02 -0.76865593231E+03  0.94597174366E+03  0.50400001928E-02 0.  1.
</event>
<event>
 5   0  0.1893284E-04  0.1720770E+04  0.7818609E-02  0.8749606E-01
        1   -1    0    0  501    0  0.00000000000E+00  0.00000000000E+00  0.18501348641E+04  0.18501348641E+04  0.50400001928E-02 0. -1.
       -1   -1    0    0    0  501  0.00000000000E+00  0.00000000000E+00 -0.40011262032E+03  0.40011262036E+03  0.50400001928E-02 0.  1.
    10030    2    1    2    0    0  0.00000000000E+00  0.00000000000E+00  0.14500222438E+04  0.22502474844E+04  0.17207699538E+04 0.  0.
        2    1    3    3  502    0 -0.15557106972E+03  0.83818027605E+03  0.87702940439E+03  0.12230818080E+04  0.25500000920E-02 0. -1.
       -2    1    3    3    0  502  0.15557106972E+03 -0.83818027605E+03  0.57299283936E+03  0.10271656764E+04  0.25500000920E-02 0.  1.
</event>
<event>
 5   0  0.1824538E-04  0.1703118E+04  0.7818609E-02  0.8759588E-01
       -1   -1    0    0    0  501  0.00000000000E+00  0.00000000000E+00  0.13963075165E+04  0.13963075165E+04  0.50400001928E-02 0. -1.
        1   -1    0    0  501    0  0.00000000000E+00  0.00000000000E+00 -0.51933607328E+03  0.51933607330E+03  0.50400001928E-02 0.  1.
    10030    2    1    2    0    0  0.00000000000E+00  0.00000000000E+00  0.87697144325E+03  0.19156435898E+04  0.17031181553E+04 0.  0.
        3    1    3    3  502    0 -0.48209339029E+03 -0.46113301368E+03  0.10337676985E+04  0.12303387167E+04  0.10100000352E+00 0. -1.
       -3    1    3    3    0  502  0.48209339029E+03  0.46113301368E+03 -0.15679625522E+03  0.68530487312E+03  0.10100000352E+00 0.  1.
</event>
<event>
 5   0  0.1893284E-04  0.1750803E+04  0.7818609E-02  0.8732908E-01
       -1   -1    0    0    0  501  0.00000000000E+00  0.00000000000E+00  0.89583984672E+03  0.89583984674E+03  0.50400001928E-02 0. -1.
        1   -1    0    0  501    0  0.00000000000E+00  0.00000000000E+00 -0.85542946779E+03  0.85542946781E+03  0.50400001928E-02 0.  1.
    10030    2    1    2    0    0  0.00000000000E+00  0.00000000000E+00  0.40410378927E+02  0.17512693145E+04  0.17508030196E+04 0.  0.
        2    1    3    3  502    0  0.59481537666E+03 -0.49099049901E+03  0.43438164793E+03  0.88519174109E+03  0.25500000920E-02 0. -1.
       -2    1    3    3    0  502 -0.59481537666E+03  0.49099049901E+03 -0.39397126901E+03  0.86607757345E+03  0.25500000920E-02 0.  1.
</event>
<event>
 5   0  0.1824538E-04  0.1696313E+04  0.7818609E-02  0.8763470E-01
        1   -1    0    0  501    0  0.00000000000E+00  0.00000000000E+00  0.10919740441E+04  0.10919740442E+04  0.50400001928E-02 0.  1.
       -1   -1    0    0    0  501  0.00000000000E+00  0.00000000000E+00 -0.65877922393E+03  0.65877922395E+03  0.50400001928E-02 0. -1.
    10030    2    1    2    0    0  0.00000000000E+00  0.00000000000E+00  0.43319482021E+03  0.17507532681E+04  0.16963134302E+04 0.  0.
        3    1    3    3  502    0 -0.71446312386E+03 -0.45168730660E+03  0.14441856954E+03  0.85751717868E+03  0.10100000352E+00 0.  1.
       -3    1    3    3    0  502  0.71446312386E+03  0.45168730660E+03  0.28877625067E+03  0.89323608943E+03  0.10100000352E+00 0. -1.
</event>
<event>
 5   0  0.3573262E-04  0.1729090E+04  0.7818609E-02  0.8744945E-01
        2   -1    0    0  501    0  0.00000000000E+00  0.00000000000E+00  0.10008961651E+04  0.10008961651E+04  0.25500000920E-02 0.  1.
       -2   -1    0    0    0  501  0.00000000000E+00  0.00000000000E+00 -0.74676841988E+03  0.74676841988E+03  0.25500000920E-02 0. -1.
    10030    2    1    2    0    0  0.00000000000E+00  0.00000000000E+00  0.25412774526E+03  0.17476645850E+04  0.17290895266E+04 0.  0.
        5    1    3    3  502    0 -0.23401353078E+03 -0.33536802447E+03  0.89694300597E+03  0.98578034591E+03  0.46999998093E+01 0.  1.
       -5    1    3    3    0  502  0.23401353078E+03  0.33536802447E+03 -0.64281526071E+03  0.76188423912E+03  0.46999998093E+01 0. -1.
</event>
<event>
 5   0  0.3516723E-04  0.1700060E+04  0.7818609E-02  0.8761330E-01
       -2   -1    0    0    0  501  0.00000000000E+00  0.00000000000E+00  0.10818354313E+04  0.10818354313E+04  0.25500000920E-02 0. -1.
        2   -1    0    0  501    0  0.00000000000E+00  0.00000000000E+00 -0.66789390147E+03  0.66789390147E+03  0.25500000920E-02 0.  1.
    10030    2    1    2    0    0  0.00000000000E+00  0.00000000000E+00  0.41394152986E+03  0.17497293328E+04  0.17000603366E+04 0.  0.
        1    1    3    3  502    0  0.26901580794E+02 -0.32470011251E+03  0.10150183685E+04  0.10660282109E+04  0.50400001928E-02 0. -1.
       -1    1    3    3    0  502 -0.26901580794E+02  0.32470011251E+03 -0.60107683862E+03  0.68370112188E+03  0.50400001928E-02 0.  1.
</event>
<event>
 5   0  0.1930116E-04  0.1683741E+04  0.7818609E-02  0.8770692E-01
        1   -1    0    0  501    0  0.00000000000E+00  0.00000000000E+00  0.11325835077E+04  0.11325835077E+04  0.50400001928E-02 0. -1.
       -1   -1    0    0    0  501  0.00000000000E+00  0.00000000000E+00 -0.62577823103E+03  0.62577823105E+03  0.50400001928E-02 0.  1.
    10030    2    1    2    0    0  0.00000000000E+00  0.00000000000E+00  0.50680527666E+03  0.17583617387E+04  0.16837411962E+04 0.  0.
        1    1    3    3  502    0 -0.78707150843E+03  0.27040576809E+03  0.38609791913E+03  0.91742707720E+03  0.50400001928E-02 0. -1.
       -1    1    3    3    0  502  0.78707150843E+03 -0.27040576809E+03  0.12070735753E+03  0.84093466154E+03  0.50400001928E-02 0.  1.
</event>
<event>
 5   0  0.3678896E-04  0.1688352E+04  0.7818609E-02  0.8768036E-01
       -2   -1    0    0    0  501  0.00000000000E+00  0.00000000000E+00  0.11191318422E+04  0.11191318422E+04  0.25500000920E-02 0.  1.
        2   -1    0    0  501    0  0.00000000000E+00  0.00000000000E+00 -0.63677316456E+03  0.63677316457E+03  0.25500000920E-02 0. -1.
    10030    2    1    2    0    0  0.00000000000E+00  0.00000000000E+00  0.48235867767E+03  0.17559050068E+04  0.16883520068E+04 0.  0.
        2    1    3    3  502    0  0.79445603617E+03 -0.28416572874E+03  0.21322314990E+03  0.87027275406E+03  0.25500000920E-02 0. -1.
       -2    1    3    3    0  502 -0.79445603617E+03  0.28416572874E+03  0.26913552777E+03  0.88563225275E+03  0.25500000920E-02 0.  1.
</event>
<event>
 5   0  0.3573262E-04  0.1698373E+04  0.7818609E-02  0.8762293E-01
       -2   -1    0    0    0  501  0.00000000000E+00  0.00000000000E+00  0.30034901978E+03  0.30034901979E+03  0.25500000920E-02 0. -1.
        2   -1    0    0  501    0  0.00000000000E+00  0.00000000000E+00 -0.24009314806E+04  0.24009314806E+04  0.25500000920E-02 0.  1.
    10030    2    1    2    0    0  0.00000000000E+00  0.00000000000E+00 -0.21005824608E+04  0.27012805004E+04  0.16983726526E+04 0.  0.
        5    1    3    3  502    0 -0.49254132678E+02 -0.49763489966E+03  0.41301050155E+02  0.50179112157E+03  0.46999998093E+01 0. -1.
       -5    1    3    3    0  502  0.49254132678E+02  0.49763489966E+03 -0.21418835110E+04  0.21994893788E+04  0.46999998093E+01 0.  1.
</event>
<event>
 5   0  0.1893284E-04  0.1686072E+04  0.7818609E-02  0.8769348E-01
        1   -1    0    0  501    0  0.00000000000E+00  0.00000000000E+00  0.12339603416E+04  0.12339603416E+04  0.50400001928E-02 0. -1.
       -1   -1    0    0    0  501  0.00000000000E+00  0.00000000000E+00 -0.57595821879E+03  0.57595821881E+03  0.50400001928E-02 0.  1.
    10030    2    1    2    0    0  0.00000000000E+00  0.00000000000E+00  0.65800212279E+03  0.18099185604E+04  0.16860718851E+04 0.  0.
        2    1    3    3  502    0 -0.35034061416E+03  0.46622579724E+03  0.98249012909E+03  0.11425374802E+04  0.25500000920E-02 0. -1.
       -2    1    3    3    0  502  0.35034061416E+03 -0.46622579724E+03 -0.32448800630E+03  0.66738108018E+03  0.25500000920E-02 0.  1.
</event>
<event>
 5   0  0.3678896E-04  0.1703313E+04  0.7818609E-02  0.8759477E-01
        2   -1    0    0  501    0  0.00000000000E+00  0.00000000000E+00  0.14821938626E+04  0.14821938626E+04  0.25500000920E-02 0.  1.
       -2   -1    0    0    0  501  0.00000000000E+00  0.00000000000E+00 -0.48935499522E+03  0.48935499523E+03  0.25500000920E-02 0. -1.
    10030    2    1    2    0    0  0.00000000000E+00  0.00000000000E+00  0.99283886736E+03  0.19715488578E+04  0.17033132073E+04 0.  0.
        2    1    3    3  502    0 -0.12366526978E+03 -0.51666741532E+03 -0.27404824361E+03  0.59777985650E+03  0.25500000920E-02 0. -1.
       -2    1    3    3    0  502  0.12366526978E+03  0.51666741532E+03  0.12668871110E+04  0.13737690013E+04  0.25500000920E-02 0.  1.
</event>
<event>
 5   0  0.3574092E-04  0.1735384E+04  0.7818609E-02  0.8741437E-01
        2   -1    0    0  501    0  0.00000000000E+00  0.00000000000E+00  0.91700931560E+03  0.91700931560E+03  0.25500000920E-02 0. -1.
       -2   -1    0    0    0  501  0.00000000000E+00  0.00000000000E+00 -0.82102731827E+03  0.82102731828E+03  0.25500000920E-02 0.  1.
    10030    2    1    2    0    0  0.00000000000E+00  0.00000000000E+00  0.95981997324E+02  0.17380366339E+04  0.17353843369E+04 0.  0.
        3    1    3    3  502    0 -0.32400552442E+03  0.28419580868E+03 -0.70624886796E+03  0.82736588715E+03  0.10100000352E+00 0.  1.
       -3    1    3    3    0  502  0.32400552442E+03 -0.28419580868E+03  0.80223086529E+03  0.91067074673E+03  0.10100000352E+00 0. -1.
</event>
<event>
 5   0  0.1317625E-04  0.1685261E+04  0.7818609E-02  0.8769815E-01
        3   -1    0    0  501    0  0.00000000000E+00  0.00000000000E+00  0.13003136569E+04  0.13003136608E+04  0.10100000352E+00 0.  1.
       -3   -1    0    0    0  501  0.00000000000E+00  0.00000000000E+00 -0.54604234921E+03  0.54604235855E+03  0.10100000352E+00 0. -1.
    10030    2    1    2    0    0  0.00000000000E+00  0.00000000000E+00  0.75427130769E+03  0.18463560194E+04  0.16852612096E+04 0.  0.
        4    1    3    3  502    0 -0.36042902429E+03  0.57370791921E+03 -0.17172656482E+03  0.69895742652E+03  0.12699999809E+01 0. -1.
       -4    1    3    3    0  502  0.36042902429E+03 -0.57370791921E+03  0.92599787251E+03  0.11473985929E+04  0.12699999809E+01 0.  1.
</event>
<event>
 5   0  0.1815663E-04  0.1697482E+04  0.7818609E-02  0.8762802E-01
        1   -1    0    0  501    0  0.00000000000E+00  0.00000000000E+00  0.13104063893E+04  0.13104063893E+04  0.50400001928E-02 0. -1.
       -1   -1    0    0    0  501  0.00000000000E+00  0.00000000000E+00 -0.54972330414E+03  0.54972330416E+03  0.50400001928E-02 0.  1.
    10030    2    1    2    0    0  0.00000000000E+00  0.00000000000E+00  0.76068308518E+03  0.18601296935E+04  0.16974815818E+04 0.  0.
        5    1    3    3  502    0 -0.18699289191E+03 -0.77550568415E+03  0.62812651484E+02  0.80021430064E+03  0.46999998093E+01 0.  1.
       -5    1    3    3    0  502  0.18699289191E+03  0.77550568415E+03  0.69787043370E+03  0.10599153928E+04  0.46999998093E+01 0. -1.
</event>
<event>
 5   0  0.3516723E-04  0.1687728E+04  0.7818609E-02  0.8768395E-01
        2   -1    0    0  501    0  0.00000000000E+00  0.00000000000E+00  0.13312269683E+04  0.13312269683E+04  0.25500000920E-02 0. -1.
       -2   -1    0    0    0  501  0.00000000000E+00  0.00000000000E+00 -0.53492482000E+03  0.53492482000E+03  0.25500000920E-02 0.  1.
    10030    2    1    2    0    0  0.00000000000E+00  0.00000000000E+00  0.79630214830E+03  0.18661517883E+04  0.16877278766E+04 0.  0.
        1    1    3    3  502    0 -0.62197760629E+03  0.34667953115E+03 -0.10256176892E+03  0.71941765096E+03  0.50400001928E-02 0.  1.
       -1    1    3    3    0  502  0.62197760629E+03 -0.34667953115E+03  0.89886391723E+03  0.11467341373E+04  0.50400001928E-02 0. -1.
</event>
<event>
 5   0  0.1920289E-04  0.1706281E+04  0.7818609E-02  0.8757790E-01
        1   -1    0    0  501    0  0.00000000000E+00  0.00000000000E+00  0.68050432833E+03  0.68050432835E+03  0.50400001928E-02 0.  1.
       -1   -1    0    0    0  501  0.00000000000E+00  0.00000000000E+00 -0.10695723001E+04  0.10695723001E+04  0.50400001928E-02 0. -1.
    10030    2    1    2    0    0  0.00000000000E+00  0.00000000000E+00 -0.38906797173E+03  0.17500766284E+04  0.17062808440E+04 0.  0.
        4    1    3    3  502    0 -0.30134067458E+03  0.74734264932E+03  0.92872090840E+02  0.81114368382E+03  0.12699999809E+01 0.  1.
       -4    1    3    3    0  502  0.30134067458E+03 -0.74734264932E+03 -0.48194006257E+03  0.93893294460E+03  0.12699999809E+01 0. -1.
</event>
<event>
 5   0  0.1893284E-04  0.1688012E+04  0.7818609E-02  0.8768231E-01
        1   -1    0    0  501    0  0.00000000000E+00  0.00000000000E+00  0.11073754396E+04  0.11073754397E+04  0.50400001928E-02 0.  1.
       -1   -1    0    0    0  501  0.00000000000E+00  0.00000000000E+00 -0.64327456636E+03  0.64327456638E+03  0.50400001928E-02 0. -1.
    10030    2    1    2    0    0  0.00000000000E+00  0.00000000000E+00  0.46410087328E+03  0.17506500060E+04  0.16880123883E+04 0.  0.
        2    1    3    3  502    0 -0.74530428953E+03 -0.19510833634E+03 -0.12541430847E+03  0.78056037285E+03  0.25500000920E-02 0.  1.
       -2    1    3    3    0  502  0.74530428953E+03  0.19510833634E+03  0.58951518175E+03  0.97008963319E+03  0.25500000920E-02 0. -1.
</event>
<event>
 5   0  0.3605571E-04  0.1752640E+04  0.7818609E-02  0.8731899E-01
        2   -1    0    0  501    0  0.00000000000E+00  0.00000000000E+00  0.14750782066E+04  0.14750782066E+04  0.25500000920E-02 0. -1.
       -2   -1    0    0    0  501  0.00000000000E+00  0.00000000000E+00 -0.52060735289E+03  0.52060735290E+03  0.25500000920E-02 0.  1.
    10030    2    1    2    0    0  0.00000000000E+00  0.00000000000E+00  0.95447085373E+03  0.19956855595E+04  0.17526397924E+04 0.  0.
        4    1    3    3  502    0 -0.20779718437E+03 -0.83385497227E+03  0.67261399729E+03  0.10912859327E+04  0.12699999809E+01 0. -1.
       -4    1    3    3    0  502  0.20779718437E+03  0.83385497227E+03  0.28185685644E+03  0.90439962685E+03  0.12699999809E+01 0.  1.
</event>
<event>
 5   0  0.3678896E-04  0.1670112E+04  0.7818609E-02  0.8778596E-01
       -2   -1    0    0    0  501  0.00000000000E+00  0.00000000000E+00  0.93922485908E+03  0.93922485909E+03  0.25500000920E-02 0. -1.
        2   -1    0    0  501    0  0.00000000000E+00  0.00000000000E+00 -0.74244084533E+03  0.74244084534E+03  0.25500000920E-02 0.  1.
    10030    2    1    2    0    0  0.00000000000E+00  0.00000000000E+00  0.19678401375E+03  0.16816657044E+04  0.16701124493E+04 0.  0.
        2    1    3    3  502    0 -0.18922110374E+03 -0.78372320365E+03  0.31736409974E+03  0.86645637966E+03  0.25500000920E-02 0. -1.
       -2    1    3    3    0  502  0.18922110374E+03  0.78372320365E+03 -0.12058008599E+03  0.81520932476E+03  0.25500000920E-02 0.  1.
</event>
<event>
 5   0  0.3574092E-04  0.1675445E+04  0.7818609E-02  0.8775494E-01
        2   -1    0    0  501    0  0.00000000000E+00  0.00000000000E+00  0.85144742777E+03  0.85144742778E+03  0.25500000920E-02 0. -1.
       -2   -1    0    0    0  501  0.00000000000E+00  0.00000000000E+00 -0.82421873023E+03  0.82421873023E+03  0.25500000920E-02 0.  1.
    10030    2    1    2    0    0  0.00000000000E+00  0.00000000000E+00  0.27228697542E+02  0.16756661580E+04  0.16754449174E+04 0.  0.
        3    1    3    3  502    0 -0.60293334700E+03  0.23447049758E+03  0.54591942047E+03  0.84648275766E+03  0.10100000352E+00 0. -1.
       -3    1    3    3    0  502  0.60293334700E+03 -0.23447049758E+03 -0.51869072293E+03  0.82918340035E+03  0.10100000352E+00 0.  1.
</event>
<event>
 5   0  0.1317625E-04  0.1654329E+04  0.7818609E-02  0.8787850E-01
        4   -1    0    0  501    0  0.00000000000E+00  0.00000000000E+00  0.77369983086E+03  0.77370087319E+03  0.12699999809E+01 0.  1.
       -4   -1    0    0    0  501  0.00000000000E+00  0.00000000000E+00 -0.88432135185E+03  0.88432226379E+03  0.12699999809E+01 0. -1.
    10030    2    1    2    0    0  0.00000000000E+00  0.00000000000E+00 -0.11062152099E+03  0.16580231370E+04  0.16543287466E+04 0.  0.
        5    1    3    3  502    0  0.25035112450E+03  0.68038503254E+03 -0.45442025819E+03  0.85563972505E+03  0.46999998093E+01 0. -1.
       -5    1    3    3    0  502 -0.25035112450E+03 -0.68038503254E+03  0.34379873720E+03  0.80238341193E+03  0.46999998093E+01 0.  1.
</event>
<event>
 5   0  0.3605571E-04  0.1678627E+04  0.7818609E-02  0.8773649E-01
        2   -1    0    0  501    0  0.00000000000E+00  0.00000000000E+00  0.44158999660E+03  0.44158999661E+03  0.25500000920E-02 0. -1.
       -2   -1    0    0    0  501  0.00000000000E+00  0.00000000000E+00 -0.15952517284E+04  0.15952517284E+04  0.25500000920E-02 0.  1.
    10030    2    1    2    0    0  0.00000000000E+00  0.00000000000E+00 -0.11536617318E+04  0.20368417250E+04  0.16786270644E+04 0.  0.
        4    1    3    3  502    0 -0.38015466639E+03  0.63532656542E+03 -0.10565268970E+04  0.12901194178E+04  0.12699999809E+01 0.  1.
       -4    1    3    3    0  502  0.38015466639E+03 -0.63532656542E+03 -0.97134834800E+02  0.74672230725E+03  0.12699999809E+01 0. -1.
</event>
<event>
 5   0  0.3574092E-04  0.1699230E+04  0.7818609E-02  0.8761804E-01
       -2   -1    0    0    0  501  0.00000000000E+00  0.00000000000E+00  0.75589536691E+03  0.75589536691E+03  0.25500000920E-02 0. -1.
        2   -1    0    0  501    0  0.00000000000E+00  0.00000000000E+00 -0.95495419090E+03  0.95495419090E+03  0.25500000920E-02 0.  1.
    10030    2    1    2    0    0  0.00000000000E+00  0.00000000000E+00 -0.19905882399E+03  0.17108495578E+04  0.16992297649E+04 0.  0.
        3    1    3    3  502    0 -0.19738423768E+03  0.22186440363E+03  0.70194236579E+03  0.76217284520E+03  0.10100000352E+00 0. -1.
       -3    1    3    3    0  502  0.19738423768E+03 -0.22186440363E+03 -0.90100118977E+03  0.94867671261E+03  0.10100000352E+00 0.  1.
</event>
<event>
 5   0  0.1824538E-04  0.1720206E+04  0.7818609E-02  0.8749923E-01
        1   -1    0    0  501    0  0.00000000000E+00  0.00000000000E+00  0.10789427037E+04  0.10789427037E+04  0.50400001928E-02 0.  1.
       -1   -1    0    0    0  501  0.00000000000E+00  0.00000000000E+00 -0.68565014233E+03  0.68565014234E+03  0.50400001928E-02 0. -1.
    10030    2    1    2    0    0  0.00000000000E+00  0.00000000000E+00  0.39329256137E+03  0.17645928460E+04  0.17202060555E+04 0.  0.
        3    1    3    3  502    0 -0.55302928419E+03 -0.37516354305E+03  0.75208638968E+03  0.10060929485E+04  0.10100000352E+00 0.  1.
       -3    1    3    3    0  502  0.55302928419E+03  0.37516354305E+03 -0.35879382831E+03  0.75849989759E+03  0.10100000352E+00 0. -1.
</event>
<event>
 5   0  0.3574092E-04  0.1665882E+04  0.7818609E-02  0.8781066E-01
       -2   -1    0    0    0  501  0.00000000000E+00  0.00000000000E+00  0.88010744722E+03  0.88010744722E+03  0.25500000920E-02 0. -1.
        2   -1    0    0  501    0  0.00000000000E+00  0.00000000000E+00 -0.78830224887E+03  0.78830224887E+03  0.25500000920E-02 0.  1.
    10030    2    1    2    0    0  0.00000000000E+00  0.00000000000E+00  0.91805198351E+02  0.16684096961E+04  0.16658819645E+04 0.  0.
        3    1    3    3  502    0  0.13832816951E+03 -0.28714195140E+03  0.81661916213E+03  0.87661396800E+03  0.10100000352E+00 0. -1.
       -3    1    3    3    0  502 -0.13832816951E+03  0.28714195140E+03 -0.72481396378E+03  0.79179572809E+03  0.10100000352E+00 0.  1.
</event>
<event>
 5   0  0.1893284E-04  0.1703263E+04  0.7818609E-02  0.8759506E-01
       -1   -1    0    0    0  501  0.00000000000E+00  0.00000000000E+00  0.37449252964E+03  0.37449252967E+03  0.50400001928E-02 0. -1.
        1   -1    0    0  501    0  0.00000000000E+00  0.00000000000E+00 -0.19366900879E+04  0.19366900879E+04  0.50400001928E-02 0.  1.
    10030    2    1    2    0    0  0.00000000000E+00  0.00000000000E+00 -0.15621975582E+04  0.23111826175E+04  0.17032627163E+04 0.  0.
        2    1    3    3  502    0  0.64362183460E+03  0.29363907296E+03 -0.14244582119E+04  0.15904572200E+04  0.25500000920E-02 0.  1.
       -2    1    3    3    0  502 -0.64362183460E+03 -0.29363907296E+03 -0.13773934632E+03  0.72072539755E+03  0.25500000920E-02 0. -1.
</event>
<event>
 5   0  0.1930116E-04  0.1688295E+04  0.7818609E-02  0.8768068E-01
        1   -1    0    0  501    0  0.00000000000E+00  0.00000000000E+00  0.18423340347E+04  0.18423340347E+04  0.50400001928E-02 0.  1.
       -1   -1    0    0    0  501  0.00000000000E+00  0.00000000000E+00 -0.38678380541E+03  0.38678380545E+03  0.50400001928E-02 0. -1.
    10030    2    1    2    0    0  0.00000000000E+00  0.00000000000E+00  0.14555502293E+04  0.22291178402E+04  0.16882949610E+04 0.  0.
        1    1    3    3  502    0 -0.70538171404E+03  0.35624361625E+03  0.11196996572E+04  0.13704744431E+04  0.50400001928E-02 0. -1.
       -1    1    3    3    0  502  0.70538171404E+03 -0.35624361625E+03  0.33585057206E+03  0.85864339711E+03  0.50400001928E-02 0.  1.
</event>
<event>
 5   0  0.3605571E-04  0.1698776E+04  0.7818609E-02  0.8762063E-01
       -2   -1    0    0    0  501  0.00000000000E+00  0.00000000000E+00  0.28857422589E+03  0.28857422590E+03  0.25500000920E-02 0.  1.
        2   -1    0    0  501    0  0.00000000000E+00  0.00000000000E+00 -0.25000845505E+04  0.25000845505E+04  0.25500000920E-02 0. -1.
    10030    2    1    2    0    0  0.00000000000E+00  0.00000000000E+00 -0.22115103246E+04  0.27886587764E+04  0.16987759874E+04 0.  0.
        4    1    3    3  502    0 -0.90751905775E+02 -0.63953319266E+03 -0.20111811535E+04  0.21123659384E+04  0.12699999809E+01 0. -1.
       -4    1    3    3    0  502  0.90751905775E+02  0.63953319266E+03 -0.20032917108E+03  0.67629283791E+03  0.12699999809E+01 0.  1.
</event>
<event>
 5   0  0.3605571E-04  0.1726712E+04  0.7818609E-02  0.8746275E-01
       -2   -1    0    0    0  501  0.00000000000E+00  0.00000000000E+00  0.32664222871E+03  0.32664222872E+03  0.25500000920E-02 0. -1.
        2   -1    0    0  501    0  0.00000000000E+00  0.00000000000E+00 -0.22819571046E+04  0.22819571046E+04  0.25500000920E-02 0.  1.
    10030    2    1    2    0    0  0.00000000000E+00  0.00000000000E+00 -0.19553148759E+04  0.26085993333E+04  0.17267119673E+04 0.  0.
        4    1    3    3  502    0 -0.81571115827E+03  0.23635506416E+03 -0.12123492396E+04  0.14802164374E+04  0.12699999809E+01 0.  1.
       -4    1    3    3    0  502  0.81571115827E+03 -0.23635506416E+03 -0.74296563635E+03  0.11283828959E+04  0.12699999809E+01 0. -1.
</event>
<event>
 5   0  0.3605571E-04  0.1691118E+04  0.7818609E-02  0.8766446E-01
       -2   -1    0    0    0  501  0.00000000000E+00  0.00000000000E+00  0.14559426822E+04  0.14559426822E+04  0.25500000920E-02 0.  1.
        2   -1    0    0  501    0  0.00000000000E+00  0.00000000000E+00 -0.49107002078E+03  0.49107002079E+03  0.25500000920E-02 0. -1.
    10030    2    1    2    0    0  0.00000000000E+00  0.00000000000E+00  0.96487266140E+03  0.19470127030E+04  0.16911177407E+04 0.  0.
        4    1    3    3  502    0  0.41411844253E+03  0.36571211670E+03  0.12193950486E+04  0.13387177949E+04  0.12699999809E+01 0. -1.
       -4    1    3    3    0  502 -0.41411844253E+03 -0.36571211670E+03 -0.25452238722E+03  0.60829490812E+03  0.12699999809E+01 0.  1.
</event>
<event>
 5   0  0.1930116E-04  0.1692744E+04  0.7818609E-02  0.8765513E-01
       -1   -1    0    0    0  501  0.00000000000E+00  0.00000000000E+00  0.69056253787E+03  0.69056253789E+03  0.50400001928E-02 0.  1.
        1   -1    0    0  501    0  0.00000000000E+00  0.00000000000E+00 -0.10373367439E+04  0.10373367440E+04  0.50400001928E-02 0. -1.
    10030    2    1    2    0    0  0.00000000000E+00  0.00000000000E+00 -0.34677420608E+03  0.17278992819E+04  0.16927443925E+04 0.  0.
        1    1    3    3  502    0 -0.61417587992E+03  0.44799493151E+03  0.20640776319E+03  0.78772814782E+03  0.50400001928E-02 0. -1.
       -1    1    3    3    0  502  0.61417587992E+03 -0.44799493151E+03 -0.55318196926E+03  0.94017113404E+03  0.50400001928E-02 0.  1.
</event>
<event>
 5   0  0.3574092E-04  0.1718410E+04  0.7818609E-02  0.8750933E-01
        2   -1    0    0  501    0  0.00000000000E+00  0.00000000000E+00  0.14603124798E+04  0.14603124798E+04  0.25500000920E-02 0. -1.
       -2   -1    0    0    0  501  0.00000000000E+00  0.00000000000E+00 -0.50553126959E+03  0.50553126959E+03  0.25500000920E-02 0.  1.
    10030    2    1    2    0    0  0.00000000000E+00  0.00000000000E+00  0.95478121024E+03  0.19658437494E+04  0.17184104538E+04 0.  0.
        3    1    3    3  502    0  0.51421827097E+03  0.68059950663E+03  0.59515761849E+03  0.10401195699E+04  0.10100000352E+00 0. -1.
       -3    1    3    3    0  502 -0.51421827097E+03 -0.68059950663E+03  0.35962359175E+03  0.92572417953E+03  0.10100000352E+00 0.  1.
</event>
<event>
 5   0  0.3516723E-04  0.1692559E+04  0.7818609E-02  0.8765620E-01
       -2   -1    0    0    0  501  0.00000000000E+00  0.00000000000E+00  0.74389788357E+03  0.74389788358E+03  0.25500000920E-02 0.  1.
        2   -1    0    0  501    0  0.00000000000E+00  0.00000000000E+00 -0.96275167755E+03  0.96275167755E+03  0.25500000920E-02 0. -1.
    10030    2    1    2    0    0  0.00000000000E+00  0.00000000000E+00 -0.21885379397E+03  0.17066495611E+04  0.16925589329E+04 0.  0.
        1    1    3    3  502    0  0.83802561262E+03 -0.10378171592E+03 -0.53002453292E+02  0.84608913954E+03  0.50400001928E-02 0. -1.
       -1    1    3    3    0  502 -0.83802561262E+03  0.10378171592E+03 -0.16585134068E+03  0.86056042158E+03  0.50400001928E-02 0.  1.
</event>
<event>
 5   0  0.1317625E-04  0.1692603E+04  0.7818609E-02  0.8765595E-01
       -4   -1    0    0    0  501  0.00000000000E+00  0.00000000000E+00  0.62255025238E+03  0.62255154777E+03  0.12699999809E+01 0.  1.
        4   -1    0    0  501    0  0.00000000000E+00  0.00000000000E+00 -0.11504681854E+04  0.11504688863E+04  0.12699999809E+01 0. -1.
    10030    2    1    2    0    0  0.00000000000E+00  0.00000000000E+00 -0.52791793298E+03  0.17730204341E+04  0.16926027637E+04 0.  0.
        5    1    3    3  502    0  0.70887948371E+03 -0.36037010014E+03 -0.56724415032E+03  0.97681356848E+03  0.46999998093E+01 0. -1.
       -5    1    3    3    0  502 -0.70887948371E+03  0.36037010014E+03  0.39326217333E+02  0.79620686563E+03  0.46999998093E+01 0.  1.
</event>
<event>
 5   0  0.1930116E-04  0.1588756E+04  0.7818609E-02  0.8827485E-01
       -1   -1    0    0    0  501  0.00000000000E+00  0.00000000000E+00  0.49335137103E+03  0.49335137106E+03  0.50400001928E-02 0. -1.
        1   -1    0    0  501    0  0.00000000000E+00  0.00000000000E+00 -0.12790814415E+04  0.12790814415E+04  0.50400001928E-02 0.  1.
    10030    2    1    2    0    0  0.00000000000E+00  0.00000000000E+00 -0.78573007043E+03  0.17724328125E+04  0.15887562215E+04 0.  0.
        1    1    3    3  502    0  0.78865261110E+03 -0.24391859397E+02 -0.29020052178E+03  0.84070461321E+03  0.50400001928E-02 0. -1.
       -1    1    3    3    0  502 -0.78865261110E+03  0.24391859397E+02 -0.49552954866E+03  0.93172819933E+03  0.50400001928E-02 0.  1.
</event>
<event>
 5   0  0.1893284E-04  0.1678366E+04  0.7818609E-02  0.8773800E-01
        1   -1    0    0  501    0  0.00000000000E+00  0.00000000000E+00  0.96473384287E+03  0.96473384288E+03  0.50400001928E-02 0.  1.
       -1   -1    0    0    0  501  0.00000000000E+00  0.00000000000E+00 -0.72997128751E+03  0.72997128753E+03  0.50400001928E-02 0. -1.
    10030    2    1    2    0    0  0.00000000000E+00  0.00000000000E+00  0.23476255535E+03  0.16947051304E+04  0.16783658784E+04 0.  0.
        2    1    3    3  502    0 -0.30519509400E+03  0.62564636376E+03 -0.35585026818E+03  0.78179718039E+03  0.25500000920E-02 0. -1.
       -2    1    3    3    0  502  0.30519509400E+03 -0.62564636376E+03  0.59061282354E+03  0.91290795003E+03  0.25500000920E-02 0.  1.
</event>
<event>
 5   0  0.3574092E-04  0.1676054E+04  0.7818609E-02  0.8775141E-01
       -2   -1    0    0    0  501  0.00000000000E+00  0.00000000000E+00  0.45080353130E+03  0.45080353131E+03  0.25500000920E-02 0.  1.
        2   -1    0    0  501    0  0.00000000000E+00  0.00000000000E+00 -0.15578605308E+04  0.15578605308E+04  0.25500000920E-02 0. -1.
    10030    2    1    2    0    0  0.00000000000E+00  0.00000000000E+00 -0.11070569995E+04  0.20086640622E+04  0.16760537325E+04 0.  0.
        3    1    3    3  502    0 -0.61766527587E+02 -0.63894648852E+03  0.92101962197E+02  0.64849865132E+03  0.10100000352E+00 0.  1.
       -3    1    3    3    0  502  0.61766527587E+02  0.63894648852E+03 -0.11991589617E+04  0.13601654108E+04  0.10100000352E+00 0. -1.
</event>
<event>
 5   0  0.1893284E-04  0.1675515E+04  0.7818609E-02  0.8775453E-01
        1   -1    0    0  501    0  0.00000000000E+00  0.00000000000E+00  0.13143994713E+04  0.13143994713E+04  0.50400001928E-02 0.  1.
       -1   -1    0    0    0  501  0.00000000000E+00  0.00000000000E+00 -0.53396091890E+03  0.53396091892E+03  0.50400001928E-02 0. -1.
    10030    2    1    2    0    0  0.00000000000E+00  0.00000000000E+00  0.78043855236E+03  0.18483603902E+04  0.16755153828E+04 0.  0.
        2    1    3    3  502    0 -0.18652584391E+03 -0.99816833317E+02  0.12844472191E+04  0.13017526452E+04  0.25500000920E-02 0.  1.
       -2    1    3    3    0  502  0.18652584391E+03  0.99816833317E+02 -0.50400866676E+03  0.54660774495E+03  0.25500000920E-02 0. -1.
</event>
<event>
 5   0  0.3605571E-04  0.1703467E+04  0.7818609E-02  0.8759389E-01
       -2   -1    0    0    0  501  0.00000000000E+00  0.00000000000E+00  0.51262632767E+03  0.51262632767E+03  0.25500000920E-02 0. -1.
        2   -1    0    0  501    0  0.00000000000E+00  0.00000000000E+00 -0.14151634607E+04  0.14151634607E+04  0.25500000920E-02 0.  1.
    10030    2    1    2    0    0  0.00000000000E+00  0.00000000000E+00 -0.90253713298E+03  0.19277897883E+04  0.17034671090E+04 0.  0.
        4    1    3    3  502    0  0.60004235633E+03 -0.21786122255E+03  0.18683985114E+03  0.66515042250E+03  0.12699999809E+01 0. -1.
       -4    1    3    3    0  502 -0.60004235633E+03  0.21786122255E+03 -0.10893769841E+04  0.12626393658E+04  0.12699999809E+01 0.  1.
</event>
<event>
 5   0  0.1824538E-04  0.1735353E+04  0.7818609E-02  0.8741454E-01
        1   -1    0    0  501    0  0.00000000000E+00  0.00000000000E+00  0.76320939813E+03  0.76320939814E+03  0.50400001928E-02 0.  1.
       -1   -1    0    0    0  501  0.00000000000E+00  0.00000000000E+00 -0.98644285249E+03  0.98644285250E+03  0.50400001928E-02 0. -1.
    10030    2    1    2    0    0  0.00000000000E+00  0.00000000000E+00 -0.22323345436E+03  0.17496522506E+04  0.17353529390E+04 0.  0.
        3    1    3    3  502    0  0.19446155779E+03 -0.75869958531E+03  0.26485270096E+03  0.82679339718E+03  0.10100000352E+00 0.  1.
       -3    1    3    3    0  502 -0.19446155779E+03  0.75869958531E+03 -0.48808615532E+03  0.92285885347E+03  0.10100000352E+00 0. -1.
</event>
<event>
 5   0  0.1930116E-04  0.1693897E+04  0.7818609E-02  0.8764853E-01
        1   -1    0    0  501    0  0.00000000000E+00  0.00000000000E+00  0.20826976294E+04  0.20826976294E+04  0.50400001928E-02 0.  1.
       -1   -1    0    0    0  501  0.00000000000E+00  0.00000000000E+00 -0.34441966614E+03  0.34441966618E+03  0.50400001928E-02 0. -1.
    10030    2    1    2    0    0  0.00000000000E+00  0.00000000000E+00  0.17382779633E+04  0.24271172956E+04  0.16938973077E+04 0.  0.
        1    1    3    3  502    0 -0.41795266003E+03 -0.55385165766E+03  0.17322636085E+03  0.71515275070E+03  0.50400001928E-02 0. -1.
       -1    1    3    3    0  502  0.41795266003E+03  0.55385165766E+03  0.15650516024E+04  0.17119645449E+04  0.50400001928E-02 0.  1.
</event>
<event>
 5   0  0.3605571E-04  0.1706686E+04  0.7818609E-02  0.8757560E-01
        2   -1    0    0  501    0  0.00000000000E+00  0.00000000000E+00  0.24269432349E+04  0.24269432349E+04  0.25500000920E-02 0.  1.
       -2   -1    0    0    0  501  0.00000000000E+00  0.00000000000E+00 -0.30004594835E+03  0.30004594836E+03  0.25500000920E-02 0. -1.
    10030    2    1    2    0    0  0.00000000000E+00  0.00000000000E+00  0.21268972866E+04  0.27269891833E+04  0.17066862448E+04 0.  0.
        4    1    3    3  502    0  0.11954580730E+03  0.31853285970E+03 -0.18698590746E+03  0.38822638401E+03  0.12699999809E+01 0. -1.
       -4    1    3    3    0  502 -0.11954580730E+03 -0.31853285970E+03  0.23138831940E+04  0.23387627993E+04  0.12699999809E+01 0.  1.
</event>
<event>
 5   0  0.3573262E-04  0.1724600E+04  0.7818609E-02  0.8747457E-01
       -2   -1    0    0    0  501  0.00000000000E+00  0.00000000000E+00  0.85659319789E+03  0.85659319790E+03  0.25500000920E-02 0. -1.
        2   -1    0    0  501    0  0.00000000000E+00  0.00000000000E+00 -0.86804479801E+03  0.86804479801E+03  0.25500000920E-02 0.  1.
    10030    2    1    2    0    0  0.00000000000E+00  0.00000000000E+00 -0.11451600117E+02  0.17246379959E+04  0.17245999762E+04 0.  0.
        5    1    3    3  502    0 -0.59071698673E+03 -0.37025702793E+03  0.50173228490E+03  0.85894947515E+03  0.46999998093E+01 0.  1.
       -5    1    3    3    0  502  0.59071698673E+03  0.37025702793E+03 -0.51318388501E+03  0.86568852076E+03  0.46999998093E+01 0. -1.
</event>
<event>
 5   0  0.1893284E-04  0.1706486E+04  0.7818609E-02  0.8757674E-01
        1   -1    0    0  501    0  0.00000000000E+00  0.00000000000E+00  0.12523434735E+04  0.12523434735E+04  0.50400001928E-02 0. -1.
       -1   -1    0    0    0  501  0.00000000000E+00  0.00000000000E+00 -0.58132924778E+03  0.58132924780E+03  0.50400001928E-02 0.  1.
    10030    2    1    2    0    0  0.00000000000E+00  0.00000000000E+00  0.67101422569E+03  0.18336727213E+04  0.17064863192E+04 0.  0.
        2    1    3    3  502    0 -0.19947876911E+02  0.12069876357E+03  0.12428707581E+04  0.12488770279E+04  0.25500000920E-02 0. -1.
       -2    1    3    3    0  502  0.19947876911E+02 -0.12069876357E+03 -0.57185653244E+03  0.58479569340E+03  0.25500000920E-02 0.  1.
</event>
<event>
 5   0  0.1893284E-04  0.1694314E+04  0.7818609E-02  0.8764614E-01
       -1   -1    0    0    0  501  0.00000000000E+00  0.00000000000E+00  0.90386778566E+03  0.90386778568E+03  0.50400001928E-02 0. -1.
        1   -1    0    0  501    0  0.00000000000E+00  0.00000000000E+00 -0.79400442627E+03  0.79400442629E+03  0.50400001928E-02 0.  1.
    10030    2    1    2    0    0  0.00000000000E+00  0.00000000000E+00  0.10986335939E+03  0.16978722120E+04  0.16943140472E+04 0.  0.
        2    1    3    3  502    0 -0.71191307480E+03 -0.10015400760E+03 -0.39414330582E+03  0.81987803778E+03  0.25500000920E-02 0.  1.
       -2    1    3    3    0  502  0.71191307480E+03  0.10015400760E+03  0.50400666521E+03  0.87799417418E+03  0.25500000920E-02 0. -1.
</event>
<event>
 5   0  0.1930116E-04  0.1698220E+04  0.7818609E-02  0.8762380E-01
        1   -1    0    0  501    0  0.00000000000E+00  0.00000000000E+00  0.13431759824E+04  0.13431759824E+04  0.50400001928E-02 0.  1.
       -1   -1    0    0    0  501  0.00000000000E+00  0.00000000000E+00 -0.53677824424E+03  0.53677824426E+03  0.50400001928E-02 0. -1.
    10030    2    1    2    0    0  0.00000000000E+00  0.00000000000E+00  0.80639773816E+03  0.18799542267E+04  0.16982198274E+04 0.  0.
        1    1    3    3  502    0  0.10467402129E+03  0.63934561154E+03 -0.20441825200E+03  0.67934253768E+03  0.50400001928E-02 0. -1.
       -1    1    3    3    0  502 -0.10467402129E+03 -0.63934561154E+03  0.10108159902E+04  0.12006116890E+04  0.50400001928E-02 0.  1.
</event>
<event>
 5   0  0.1815663E-04  0.1670409E+04  0.7818609E-02  0.8778423E-01
        1   -1    0    0  501    0  0.00000000000E+00  0.00000000000E+00  0.86941025233E+03  0.86941025235E+03  0.50400001928E-02 0.  1.
       -1   -1    0    0    0  501  0.00000000000E+00  0.00000000000E+00 -0.80234490658E+03  0.80234490660E+03  0.50400001928E-02 0. -1.
    10030    2    1    2    0    0  0.00000000000E+00  0.00000000000E+00  0.67065345753E+02  0.16717551589E+04  0.16704093962E+04 0.  0.
        5    1    3    3  502    0 -0.46244531022E+03 -0.14025545462E+03  0.71526980069E+03  0.86322664189E+03  0.46999998093E+01 0.  1.
       -5    1    3    3    0  502  0.46244531022E+03  0.14025545462E+03 -0.64820445493E+03  0.80852851706E+03  0.46999998093E+01 0. -1.
</event>
<event>
 5   0  0.1824538E-04  0.1713458E+04  0.7818609E-02  0.8753726E-01
        1   -1    0    0  501    0  0.00000000000E+00  0.00000000000E+00  0.69608712175E+03  0.69608712177E+03  0.50400001928E-02 0. -1.
       -1   -1    0    0    0  501  0.00000000000E+00  0.00000000000E+00 -0.10544432741E+04  0.10544432741E+04  0.50400001928E-02 0.  1.
    10030    2    1    2    0    0  0.00000000000E+00  0.00000000000E+00 -0.35835615236E+03  0.17505303959E+04  0.17134577716E+04 0.  0.
        3    1    3    3  502    0  0.59780102838E+03  0.60958462619E+03 -0.25159822675E+03  0.89009053692E+03  0.10100000352E+00 0.  1.
       -3    1    3    3    0  502 -0.59780102838E+03 -0.60958462619E+03 -0.10675792560E+03  0.86043985896E+03  0.10100000352E+00 0. -1.
</event>
<event>
 5   0  0.3516723E-04  0.1591128E+04  0.7818609E-02  0.8826017E-01
       -2   -1    0    0    0  501  0.00000000000E+00  0.00000000000E+00  0.58437443190E+03  0.58437443190E+03  0.25500000920E-02 0.  1.
        2   -1    0    0  501    0  0.00000000000E+00  0.00000000000E+00 -0.10830765545E+04  0.10830765545E+04  0.25500000920E-02 0. -1.
    10030    2    1    2    0    0  0.00000000000E+00  0.00000000000E+00 -0.49870212258E+03  0.16674509864E+04  0.15911282113E+04 0.  0.
        1    1    3    3  502    0 -0.46536189328E+03 -0.61891319672E+03 -0.44060734854E+03  0.89092652470E+03  0.50400001928E-02 0. -1.
       -1    1    3    3    0  502  0.46536189328E+03  0.61891319672E+03 -0.58094774038E+02  0.77652446169E+03  0.50400001928E-02 0.  1.
</event>
<event>
 5   0  0.1815663E-04  0.1666703E+04  0.7818609E-02  0.8780586E-01
        1   -1    0    0  501    0  0.00000000000E+00  0.00000000000E+00  0.53756600365E+03  0.53756600367E+03  0.50400001928E-02 0. -1.
       -1   -1    0    0    0  501  0.00000000000E+00  0.00000000000E+00 -0.12918876088E+04  0.12918876088E+04  0.50400001928E-02 0.  1.
    10030    2    1    2    0    0  0.00000000000E+00  0.00000000000E+00 -0.75432160514E+03  0.18294536125E+04  0.16667031638E+04 0.  0.
        5    1    3    3  502    0  0.48047962818E+03 -0.50048675419E+02 -0.11225012462E+04  0.12220461042E+04  0.46999998093E+01 0.  1.
       -5    1    3    3    0  502 -0.48047962818E+03  0.50048675419E+02  0.36817964108E+03  0.60740750828E+03  0.46999998093E+01 0. -1.
</event>
<event>
 5   0  0.1930116E-04  0.1668933E+04  0.7818609E-02  0.8779284E-01
       -1   -1    0    0    0  501  0.00000000000E+00  0.00000000000E+00  0.11889820817E+04  0.11889820818E+04  0.50400001928E-02 0.  1.
        1   -1    0    0  501    0  0.00000000000E+00  0.00000000000E+00 -0.58565554549E+03  0.58565554551E+03  0.50400001928E-02 0. -1.
    10030    2    1    2    0    0  0.00000000000E+00  0.00000000000E+00  0.60332653626E+03  0.17746376273E+04  0.16689325327E+04 0.  0.
        1    1    3    3  502    0  0.48618922021E+03  0.56300728458E+03  0.70373512464E+03  0.10240118583E+04  0.50400001928E-02 0.  1.
       -1    1    3    3    0  502 -0.48618922021E+03 -0.56300728458E+03 -0.10040858838E+03  0.75062576893E+03  0.50400001928E-02 0. -1.
</event>
<event>
 5   0  0.1824538E-04  0.1705181E+04  0.7818609E-02  0.8758415E-01
        1   -1    0    0  501    0  0.00000000000E+00  0.00000000000E+00  0.15332962624E+04  0.15332962624E+04  0.50400001928E-02 0.  1.
       -1   -1    0    0    0  501  0.00000000000E+00  0.00000000000E+00 -0.47408365555E+03  0.47408365558E+03  0.50400001928E-02 0. -1.
    10030    2    1    2    0    0  0.00000000000E+00  0.00000000000E+00  0.10592126069E+04  0.20073799180E+04  0.17051811601E+04 0.  0.
        3    1    3    3  502    0  0.68824756464E+03 -0.43905953681E+02 -0.60531962724E+02  0.69229803677E+03  0.10100000352E+00 0. -1.
       -3    1    3    3    0  502 -0.68824756464E+03  0.43905953681E+02  0.11197445696E+04  0.13150818812E+04  0.10100000352E+00 0.  1.
</event>
<event>
 5   0  0.1920289E-04  0.1798455E+04  0.7818609E-02  0.8707122E-01
       -1   -1    0    0    0  501  0.00000000000E+00  0.00000000000E+00  0.10126498134E+04  0.10126498134E+04  0.50400001928E-02 0. -1.
        1   -1    0    0  501    0  0.00000000000E+00  0.00000000000E+00 -0.79850901045E+03  0.79850901046E+03  0.50400001928E-02 0.  1.
    10030    2    1    2    0    0  0.00000000000E+00  0.00000000000E+00  0.21414080290E+03  0.18111588238E+04  0.17984548929E+04 0.  0.
        4    1    3    3  502    0  0.31812816790E+03 -0.81159396487E+03 -0.11521048707E+03  0.87929822259E+03  0.12699999809E+01 0.  1.
       -4    1    3    3    0  502 -0.31812816790E+03  0.81159396487E+03  0.32935128997E+03  0.93186060123E+03  0.12699999809E+01 0. -1.
</event>
<event>
 5   0  0.1824538E-04  0.1700896E+04  0.7818609E-02  0.8760853E-01
       -1   -1    0    0    0  501  0.00000000000E+00  0.00000000000E+00  0.73316094234E+03  0.73316094236E+03  0.50400001928E-02 0. -1.
        1   -1    0    0  501    0  0.00000000000E+00  0.00000000000E+00 -0.98649806832E+03  0.98649806833E+03  0.50400001928E-02 0.  1.
    10030    2    1    2    0    0  0.00000000000E+00  0.00000000000E+00 -0.25333712598E+03  0.17196590107E+04  0.17008960620E+04 0.  0.
        3    1    3    3  502    0  0.51886936692E+03 -0.65774961924E+03  0.21238986036E+02  0.83804002665E+03  0.10100000352E+00 0.  1.
       -3    1    3    3    0  502 -0.51886936692E+03  0.65774961924E+03 -0.27457611201E+03  0.88161898404E+03  0.10100000352E+00 0. -1.
</event>
<event>
 5   0  0.3516723E-04  0.1705400E+04  0.7818609E-02  0.8758290E-01
       -2   -1    0    0    0  501  0.00000000000E+00  0.00000000000E+00  0.77921714643E+03  0.77921714643E+03  0.25500000920E-02 0. -1.
        2   -1    0    0  501    0  0.00000000000E+00  0.00000000000E+00 -0.93311290114E+03  0.93311290115E+03  0.25500000920E-02 0.  1.
    10030    2    1    2    0    0  0.00000000000E+00  0.00000000000E+00 -0.15389575471E+03  0.17123300476E+04  0.17054003309E+04 0.  0.
        1    1    3    3  502    0  0.15836052074E+03 -0.62323532243E+03 -0.63922091413E+03  0.90669934308E+03  0.50400001928E-02 0.  1.
       -1    1    3    3    0  502 -0.15836052074E+03  0.62323532243E+03  0.48532515941E+03  0.80563070450E+03  0.50400001928E-02 0. -1.
</event>
<event>
 5   0  0.3574092E-04  0.1702862E+04  0.7818609E-02  0.8759734E-01
       -2   -1    0    0    0  501  0.00000000000E+00  0.00000000000E+00  0.76992419040E+03  0.76992419040E+03  0.25500000920E-02 0.  1.
        2   -1    0    0  501    0  0.00000000000E+00  0.00000000000E+00 -0.94156635359E+03  0.94156635360E+03  0.25500000920E-02 0. -1.
    10030    2    1    2    0    0  0.00000000000E+00  0.00000000000E+00 -0.17164216319E+03  0.17114905440E+04  0.17028619586E+04 0.  0.
        3    1    3    3  502    0  0.15312709711E+03  0.12308152844E+03  0.74683181649E+03  0.77224008109E+03  0.10100000352E+00 0.  1.
       -3    1    3    3    0  502 -0.15312709711E+03 -0.12308152844E+03 -0.91847397969E+03  0.93925046291E+03  0.10100000352E+00 0. -1.
</event>
<event>
 5   0  0.1824538E-04  0.1756555E+04  0.7818609E-02  0.8729750E-01
       -1   -1    0    0    0  501  0.00000000000E+00  0.00000000000E+00  0.11056036925E+04  0.11056036925E+04  0.50400001928E-02 0. -1.
        1   -1    0    0  501    0  0.00000000000E+00  0.00000000000E+00 -0.69769264232E+03  0.69769264233E+03  0.50400001928E-02 0.  1.
    10030    2    1    2    0    0  0.00000000000E+00  0.00000000000E+00  0.40791105022E+03  0.18032963349E+04  0.17565552216E+04 0.  0.
        3    1    3    3  502    0 -0.11070759582E+03 -0.37948760402E+03 -0.60119996411E+03  0.71951957612E+03  0.10100000352E+00 0.  1.
       -3    1    3    3    0  502  0.11070759582E+03  0.37948760402E+03  0.10091110143E+04  0.10837767588E+04  0.10100000352E+00 0. -1.
</event>
<event>
 5   0  0.1317625E-04  0.1701972E+04  0.7818609E-02  0.8760241E-01
        4   -1    0    0  501    0  0.00000000000E+00  0.00000000000E+00  0.77572949819E+03  0.77573053780E+03  0.12699999809E+01 0. -1.
       -4   -1    0    0    0  501  0.00000000000E+00  0.00000000000E+00 -0.93354078036E+03  0.93354164422E+03  0.12699999809E+01 0.  1.
    10030    2    1    2    0    0  0.00000000000E+00  0.00000000000E+00 -0.15781128217E+03  0.17092721820E+04  0.17019715014E+04 0.  0.
        2    1    3    3  502    0  0.16868233805E+03  0.80440037800E+03  0.14263764698E+03  0.83418175336E+03  0.25500000920E-02 0.  1.
       -2    1    3    3    0  502 -0.16868233805E+03 -0.80440037800E+03 -0.30044892914E+03  0.87509042866E+03  0.25500000920E-02 0. -1.
</event>
<event>
 5   0  0.1920289E-04  0.1706746E+04  0.7818609E-02  0.8757526E-01
        1   -1    0    0  501    0  0.00000000000E+00  0.00000000000E+00  0.67059135537E+03  0.67059135539E+03  0.50400001928E-02 0. -1.
       -1   -1    0    0    0  501  0.00000000000E+00  0.00000000000E+00 -0.10859747302E+04  0.10859747302E+04  0.50400001928E-02 0.  1.
    10030    2    1    2    0    0  0.00000000000E+00  0.00000000000E+00 -0.41538337479E+03  0.17565660856E+04  0.17067457529E+04 0.  0.
        4    1    3    3  502    0 -0.27334804612E+03 -0.72223432522E+03 -0.58147635437E+03  0.96667364629E+03  0.12699999809E+01 0.  1.
       -4    1    3    3    0  502  0.27334804612E+03  0.72223432522E+03  0.16609297958E+03  0.78989243927E+03  0.12699999809E+01 0. -1.
</event>
<event>
 5   0  0.1893284E-04  0.1803207E+04  0.7818609E-02  0.8704596E-01
       -1   -1    0    0    0  501  0.00000000000E+00  0.00000000000E+00  0.64307267328E+03  0.64307267330E+03  0.50400001928E-02 0.  1.
        1   -1    0    0  501    0  0.00000000000E+00  0.00000000000E+00 -0.12640694635E+04  0.12640694635E+04  0.50400001928E-02 0. -1.
    10030    2    1    2    0    0  0.00000000000E+00  0.00000000000E+00 -0.62099679020E+03  0.19071421368E+04  0.18032066206E+04 0.  0.
        2    1    3    3  502    0 -0.30701886383E+03 -0.27031582482E+03 -0.11602753848E+04  0.12302724074E+04  0.25500000920E-02 0. -1.
       -2    1    3    3    0  502  0.30701886383E+03  0.27031582482E+03  0.53927859461E+03  0.67686972935E+03  0.25500000920E-02 0.  1.
</event>
<event>
 5   0  0.1930116E-04  0.1657973E+04  0.7818609E-02  0.8785704E-01
        1   -1    0    0  501    0  0.00000000000E+00  0.00000000000E+00  0.10369741424E+04  0.10369741424E+04  0.50400001928E-02 0.  1.
       -1   -1    0    0    0  501  0.00000000000E+00  0.00000000000E+00 -0.66271492745E+03  0.66271492746E+03  0.50400001928E-02 0. -1.
    10030    2    1    2    0    0  0.00000000000E+00  0.00000000000E+00  0.37425921494E+03  0.16996890699E+04  0.16579725493E+04 0.  0.
        1    1    3    3  502    0 -0.60767696931E+03  0.13481072993E+02 -0.39076057475E+03  0.72259730498E+03  0.50400001928E-02 0. -1.
       -1    1    3    3    0  502  0.60767696931E+03 -0.13481072993E+02  0.76501978969E+03  0.97709176488E+03  0.50400001928E-02 0.  1.
</event>
<event>
 5   0  0.1815663E-04  0.1740066E+04  0.7818609E-02  0.8738838E-01
       -1   -1    0    0    0  501  0.00000000000E+00  0.00000000000E+00  0.76072850177E+03  0.76072850179E+03  0.50400001928E-02 0. -1.
        1   -1    0    0  501    0  0.00000000000E+00  0.00000000000E+00 -0.99504270832E+03  0.99504270833E+03  0.50400001928E-02 0.  1.
    10030    2    1    2    0    0  0.00000000000E+00  0.00000000000E+00 -0.23431420655E+03  0.17557712101E+04  0.17400659168E+04 0.  0.
        5    1    3    3  502    0 -0.41245151921E+03 -0.29455130312E+03  0.59637356493E+03  0.78266228018E+03  0.46999998093E+01 0. -1.
       -5    1    3    3    0  502  0.41245151921E+03  0.29455130312E+03 -0.83068777148E+03  0.97310892995E+03  0.46999998093E+01 0.  1.
</event>
<event>
 5   0  0.3573262E-04  0.1620662E+04  0.7818609E-02  0.8807954E-01
       -2   -1    0    0    0  501  0.00000000000E+00  0.00000000000E+00  0.57812851961E+03  0.57812851961E+03  0.25500000920E-02 0. -1.
        2   -1    0    0  501    0  0.00000000000E+00  0.00000000000E+00 -0.11357963698E+04  0.11357963698E+04  0.25500000920E-02 0.  1.
    10030    2    1    2    0    0  0.00000000000E+00  0.00000000000E+00 -0.55766785015E+03  0.17139248894E+04  0.16206619312E+04 0.  0.
        5    1    3    3  502    0 -0.49515430082E+03  0.43703225487E+03  0.21769411389E+03  0.69540476748E+03  0.46999998093E+01 0. -1.
       -5    1    3    3    0  502  0.49515430082E+03 -0.43703225487E+03 -0.77536196404E+03  0.10185201219E+04  0.46999998093E+01 0.  1.
</event>
<event>
 5   0  0.3605571E-04  0.1715327E+04  0.7818609E-02  0.8752671E-01
       -2   -1    0    0    0  501  0.00000000000E+00  0.00000000000E+00  0.83306335399E+03  0.83306335399E+03  0.25500000920E-02 0.  1.
        2   -1    0    0  501    0  0.00000000000E+00  0.00000000000E+00 -0.88299058838E+03  0.88299058838E+03  0.25500000920E-02 0. -1.
    10030    2    1    2    0    0  0.00000000000E+00  0.00000000000E+00 -0.49927234387E+02  0.17160539424E+04  0.17153274919E+04 0.  0.
        4    1    3    3  502    0  0.45161449508E+03  0.72606765948E+03 -0.91742091483E+02  0.85996983816E+03  0.12699999809E+01 0. -1.
       -4    1    3    3    0  502 -0.45161449508E+03 -0.72606765948E+03  0.41814857095E+02  0.85608410421E+03  0.12699999809E+01 0.  1.
</event>
<event>
 5   0  0.1815663E-04  0.1700447E+04  0.7818609E-02  0.8761110E-01
       -1   -1    0    0    0  501  0.00000000000E+00  0.00000000000E+00  0.63394857897E+03  0.63394857899E+03  0.50400001928E-02 0.  1.
        1   -1    0    0  501    0  0.00000000000E+00  0.00000000000E+00 -0.11402815785E+04  0.11402815785E+04  0.50400001928E-02 0. -1.
    10030    2    1    2    0    0  0.00000000000E+00  0.00000000000E+00 -0.50633299950E+03  0.17742301575E+04  0.17004468664E+04 0.  0.
        5    1    3    3  502    0 -0.51589044429E+03  0.19369698399E+03  0.42238058420E+03  0.69432623458E+03  0.46999998093E+01 0.  1.
       -5    1    3    3    0  502  0.51589044429E+03 -0.19369698399E+03 -0.92871358370E+03  0.10799039229E+04  0.46999998093E+01 0. -1.
</event>
<event>
 5   0  0.1317625E-04  0.1659363E+04  0.7818609E-02  0.8784887E-01
        3   -1    0    0  501    0  0.00000000000E+00  0.00000000000E+00  0.42056062292E+03  0.42056063505E+03  0.10100000352E+00 0.  1.
       -3   -1    0    0    0  501  0.00000000000E+00  0.00000000000E+00 -0.16367942545E+04  0.16367942576E+04  0.10100000352E+00 0. -1.
    10030    2    1    2    0    0  0.00000000000E+00  0.00000000000E+00 -0.12162336316E+04  0.20573548927E+04  0.16593628017E+04 0.  0.
        1    1    3    3  502    0  0.73110317390E+03  0.29431416525E+03 -0.92961389175E+03  0.12187348631E+04  0.50400001928E-02 0. -1.
       -1    1    3    3    0  502 -0.73110317390E+03 -0.29431416525E+03 -0.28661973986E+03  0.83862002960E+03  0.50400001928E-02 0.  1.
</event>
<event>
 5   0  0.3516723E-04  0.1668188E+04  0.7818609E-02  0.8779719E-01
        2   -1    0    0  501    0  0.00000000000E+00  0.00000000000E+00  0.94383796875E+03  0.94383796876E+03  0.25500000920E-02 0. -1.
       -2   -1    0    0    0  501  0.00000000000E+00  0.00000000000E+00 -0.73711085096E+03  0.73711085097E+03  0.25500000920E-02 0.  1.
    10030    2    1    2    0    0  0.00000000000E+00  0.00000000000E+00  0.20672711779E+03  0.16809488197E+04  0.16681884885E+04 0.  0.
        1    1    3    3  502    0  0.47275906242E+03 -0.49117545612E+03 -0.38089419058E+03  0.78091923029E+03  0.50400001928E-02 0.  1.
       -1    1    3    3    0  502 -0.47275906242E+03  0.49117545612E+03  0.58762130837E+03  0.90002958944E+03  0.50400001928E-02 0. -1.
</event>
<event>
 5   0  0.3605571E-04  0.1698373E+04  0.7818609E-02  0.8762293E-01
        2   -1    0    0  501    0  0.00000000000E+00  0.00000000000E+00  0.16991877790E+04  0.16991877790E+04  0.25500000920E-02 0.  1.
       -2   -1    0    0    0  501  0.00000000000E+00  0.00000000000E+00 -0.42438959608E+03  0.42438959609E+03  0.25500000920E-02 0. -1.
    10030    2    1    2    0    0  0.00000000000E+00  0.00000000000E+00  0.12747981829E+04  0.21235773751E+04  0.16983728863E+04 0.  0.
        4    1    3    3  502    0  0.21241222544E+03 -0.81400657375E+03  0.49271161159E+03  0.97493179285E+03  0.12699999809E+01 0. -1.
       -4    1    3    3    0  502 -0.21241222544E+03  0.81400657375E+03  0.78208657135E+03  0.11486455822E+04  0.12699999809E+01 0.  1.
</event>
<event>
 5   0  0.3605571E-04  0.1694680E+04  0.7818609E-02  0.8764404E-01
        2   -1    0    0  501    0  0.00000000000E+00  0.00000000000E+00  0.16627943419E+04  0.16627943419E+04  0.25500000920E-02 0. -1.
       -2   -1    0    0    0  501  0.00000000000E+00  0.00000000000E+00 -0.43179427435E+03  0.43179427436E+03  0.25500000920E-02 0.  1.
    10030    2    1    2    0    0  0.00000000000E+00  0.00000000000E+00  0.12310000676E+04  0.20945886163E+04  0.16946800008E+04 0.  0.
        4    1    3    3  502    0  0.26184740622E+03 -0.40569412901E+03 -0.24511024012E+03  0.54150940265E+03  0.12699999809E+01 0.  1.
       -4    1    3    3    0  502 -0.26184740622E+03  0.40569412901E+03  0.14761103077E+04  0.15530792136E+04  0.12699999809E+01 0. -1.
</event>
<event>
 5   0  0.1930116E-04  0.1705218E+04  0.7818609E-02  0.8758394E-01
        1   -1    0    0  501    0  0.00000000000E+00  0.00000000000E+00  0.65276454076E+03  0.65276454078E+03  0.50400001928E-02 0.  1.
       -1   -1    0    0    0  501  0.00000000000E+00  0.00000000000E+00 -0.11136365227E+04  0.11136365228E+04  0.50400001928E-02 0. -1.
    10030    2    1    2    0    0  0.00000000000E+00  0.00000000000E+00 -0.46087198198E+03  0.17664010635E+04  0.17052183829E+04 0.  0.
        1    1    3    3  502    0 -0.17047485503E+03 -0.63604622722E+03 -0.79146401791E+03  0.10295784434E+04  0.50400001928E-02 0. -1.
       -1    1    3    3    0  502  0.17047485503E+03  0.63604622722E+03  0.33059203593E+03  0.73682262018E+03  0.50400001928E-02 0.  1.
</event>
<event>
 5   0  0.1824538E-04  0.1698483E+04  0.7818609E-02  0.8762230E-01
       -1   -1    0    0    0  501  0.00000000000E+00  0.00000000000E+00  0.27134465218E+03  0.27134465222E+03  0.50400001928E-02 0.  1.
        1   -1    0    0  501    0  0.00000000000E+00  0.00000000000E+00 -0.26579143808E+04  0.26579143808E+04  0.50400001928E-02 0. -1.
    10030    2    1    2    0    0  0.00000000000E+00  0.00000000000E+00 -0.23865697286E+04  0.29292590330E+04  0.16984826796E+04 0.  0.
        3    1    3    3  502    0  0.10642169894E+03 -0.58828981941E+03 -0.22335120836E+04  0.23121389940E+04  0.10100000352E+00 0. -1.
       -3    1    3    3    0  502 -0.10642169894E+03  0.58828981941E+03 -0.15305764494E+03  0.61712003897E+03  0.10100000352E+00 0.  1.
</event>
<event>
 5   0  0.1824538E-04  0.1735379E+04  0.7818609E-02  0.8741440E-01
        1   -1    0    0  501    0  0.00000000000E+00  0.00000000000E+00  0.81853090165E+03  0.81853090167E+03  0.50400001928E-02 0.  1.
       -1   -1    0    0    0  501  0.00000000000E+00  0.00000000000E+00 -0.91980069513E+03  0.91980069514E+03  0.50400001928E-02 0. -1.
    10030    2    1    2    0    0  0.00000000000E+00  0.00000000000E+00 -0.10126979347E+03  0.17383315968E+04  0.17353792581E+04 0.  0.
        3    1    3    3  502    0 -0.57795153957E+03  0.23606730395E+03  0.55299258577E+03  0.83400033826E+03  0.10100000352E+00 0.  1.
       -3    1    3    3    0  502  0.57795153957E+03 -0.23606730395E+03 -0.65426237925E+03  0.90433125855E+03  0.10100000352E+00 0. -1.
</event>
<event>
 5   0  0.3516723E-04  0.1710916E+04  0.7818609E-02  0.8755163E-01
       -2   -1    0    0    0  501  0.00000000000E+00  0.00000000000E+00  0.35651175621E+03  0.35651175622E+03  0.25500000920E-02 0.  1.
        2   -1    0    0  501    0  0.00000000000E+00  0.00000000000E+00 -0.20526917881E+04  0.20526917881E+04  0.25500000920E-02 0. -1.
    10030    2    1    2    0    0  0.00000000000E+00  0.00000000000E+00 -0.16961800319E+04  0.24092035443E+04  0.17109164262E+04 0.  0.
        1    1    3    3  502    0 -0.33007548462E+03  0.77719597880E+03 -0.10412940116E+04  0.13406254636E+04  0.50400001928E-02 0. -1.
       -1    1    3    3    0  502  0.33007548462E+03 -0.77719597880E+03 -0.65488602023E+03  0.10685780807E+04  0.50400001928E-02 0.  1.
</event>
<event>
 5   0  0.1920289E-04  0.1721097E+04  0.7818609E-02  0.8749423E-01
        1   -1    0    0  501    0  0.00000000000E+00  0.00000000000E+00  0.13238016810E+04  0.13238016810E+04  0.50400001928E-02 0. -1.
       -1   -1    0    0    0  501  0.00000000000E+00  0.00000000000E+00 -0.55940686984E+03  0.55940686986E+03  0.50400001928E-02 0.  1.
    10030    2    1    2    0    0  0.00000000000E+00  0.00000000000E+00  0.76439481116E+03  0.18832085509E+04  0.17210970393E+04 0.  0.
        4    1    3    3  502    0  0.66616948328E+03 -0.51145994029E+03  0.17699916605E+03  0.85831425985E+03  0.12699999809E+01 0.  1.
       -4    1    3    3    0  502 -0.66616948328E+03  0.51145994029E+03  0.58739564511E+03  0.10248942910E+04  0.12699999809E+01 0. -1.
</event>
<event>
 5   0  0.3516723E-04  0.1685419E+04  0.7818609E-02  0.8769724E-01
       -2   -1    0    0    0  501  0.00000000000E+00  0.00000000000E+00  0.51936110755E+03  0.51936110755E+03  0.25500000920E-02 0.  1.
        2   -1    0    0  501    0  0.00000000000E+00  0.00000000000E+00 -0.13673709252E+04  0.13673709252E+04  0.25500000920E-02 0. -1.
    10030    2    1    2    0    0  0.00000000000E+00  0.00000000000E+00 -0.84800981768E+03  0.18867320328E+04  0.16854189724E+04 0.  0.
        1    1    3    3  502    0 -0.67819808426E+03  0.46902750907E+03 -0.61860738859E+03  0.10308319684E+04  0.50400001928E-02 0.  1.
       -1    1    3    3    0  502  0.67819808426E+03 -0.46902750907E+03 -0.22940242909E+03  0.85590006442E+03  0.50400001928E-02 0. -1.
</event>
<event>
 5   0  0.1815663E-04  0.1794777E+04  0.7818609E-02  0.8709082E-01
        1   -1    0    0  501    0  0.00000000000E+00  0.00000000000E+00  0.89483163290E+03  0.89483163291E+03  0.50400001928E-02 0. -1.
       -1   -1    0    0    0  501  0.00000000000E+00  0.00000000000E+00 -0.89995314051E+03  0.89995314053E+03  0.50400001928E-02 0.  1.
    10030    2    1    2    0    0  0.00000000000E+00  0.00000000000E+00 -0.51215076166E+01  0.17947847734E+04  0.17947774662E+04 0.  0.
        5    1    3    3  502    0 -0.28064833563E+03 -0.68740367786E+03 -0.50654409868E+03  0.89883052826E+03  0.46999998093E+01 0.  1.
       -5    1    3    3    0  502  0.28064833563E+03  0.68740367786E+03  0.50142259106E+03  0.89595424518E+03  0.46999998093E+01 0. -1.
</event>
<event>
 5   0  0.3574092E-04  0.1702092E+04  0.7818609E-02  0.8760172E-01
        2   -1    0    0  501    0  0.00000000000E+00  0.00000000000E+00  0.22122414232E+04  0.22122414232E+04  0.25500000920E-02 0. -1.
       -2   -1    0    0    0  501  0.00000000000E+00  0.00000000000E+00 -0.32739599557E+03  0.32739599558E+03  0.25500000920E-02 0.  1.
    10030    2    1    2    0    0  0.00000000000E+00  0.00000000000E+00  0.18848454276E+04  0.25396374187E+04  0.17020916347E+04 0.  0.
        3    1    3    3  502    0 -0.48323455696E+03 -0.31287059579E+03  0.18776478208E+04  0.19639157303E+04  0.10100000352E+00 0. -1.
       -3    1    3    3    0  502  0.48323455696E+03  0.31287059579E+03  0.71976067939E+01  0.57572168840E+03  0.10100000352E+00 0.  1.
</event>
<event>
 5   0  0.3516723E-04  0.1725530E+04  0.7818609E-02  0.8746936E-01
       -2   -1    0    0    0  501  0.00000000000E+00  0.00000000000E+00  0.67307968067E+03  0.67307968068E+03  0.25500000920E-02 0. -1.
        2   -1    0    0  501    0  0.00000000000E+00  0.00000000000E+00 -0.11059068004E+04  0.11059068004E+04  0.25500000920E-02 0.  1.
    10030    2    1    2    0    0  0.00000000000E+00  0.00000000000E+00 -0.43282711974E+03  0.17789864811E+04  0.17255299430E+04 0.  0.
        1    1    3    3  502    0  0.26818520569E+03  0.63174493457E+03 -0.75542811777E+03  0.10206353943E+04  0.50400001928E-02 0.  1.
       -1    1    3    3    0  502 -0.26818520569E+03 -0.63174493457E+03  0.32260099804E+03  0.75835108681E+03  0.50400001928E-02 0. -1.
</event>
<event>
 5   0  0.1815663E-04  0.1698871E+04  0.7818609E-02  0.8762009E-01
        1   -1    0    0  501    0  0.00000000000E+00  0.00000000000E+00  0.65811427856E+03  0.65811427858E+03  0.50400001928E-02 0.  1.
       -1   -1    0    0    0  501  0.00000000000E+00  0.00000000000E+00 -0.10963759310E+04  0.10963759310E+04  0.50400001928E-02 0. -1.
    10030    2    1    2    0    0  0.00000000000E+00  0.00000000000E+00 -0.43826165242E+03  0.17544902096E+04  0.16988709838E+04 0.  0.
        5    1    3    3  502    0  0.41632606563E+03  0.69428983063E+03  0.46491561150E+02  0.81089414667E+03  0.46999998093E+01 0.  1.
       -5    1    3    3    0  502 -0.41632606563E+03 -0.69428983063E+03 -0.48475321357E+03  0.94359606290E+03  0.46999998093E+01 0. -1.
</event>
<event>
 5   0  0.1893284E-04  0.1627429E+04  0.7818609E-02  0.8803873E-01
        1   -1    0    0  501    0  0.00000000000E+00  0.00000000000E+00  0.17743350449E+04  0.17743350449E+04  0.50400001928E-02 0.  1.
       -1   -1    0    0    0  501  0.00000000000E+00  0.00000000000E+00 -0.37317132390E+03  0.37317132393E+03  0.50400001928E-02 0. -1.
    10030    2    1    2    0    0  0.00000000000E+00  0.00000000000E+00  0.14011637210E+04  0.21475063689E+04  0.16274285948E+04 0.  0.
        2    1    3    3  502    0  0.47053732305E+03 -0.66212044205E+03  0.76416961717E+03  0.11152417029E+04  0.25500000920E-02 0.  1.
       -2    1    3    3    0  502 -0.47053732305E+03  0.66212044205E+03  0.63699410385E+03  0.10322646659E+04  0.25500000920E-02 0. -1.
</event>
<event>
 5   0  0.3678896E-04  0.1701226E+04  0.7818609E-02  0.8760666E-01
       -2   -1    0    0    0  501  0.00000000000E+00  0.00000000000E+00  0.78612576018E+03  0.78612576018E+03  0.25500000920E-02 0. -1.
        2   -1    0    0  501    0  0.00000000000E+00  0.00000000000E+00 -0.92039010675E+03  0.92039010676E+03  0.25500000920E-02 0.  1.
    10030    2    1    2    0    0  0.00000000000E+00  0.00000000000E+00 -0.13426434657E+03  0.17065158669E+04  0.17012258784E+04 0.  0.
        2    1    3    3  502    0  0.25049795602E+03 -0.71374714466E+03  0.32312533720E+03  0.82255346089E+03  0.25500000920E-02 0. -1.
       -2    1    3    3    0  502 -0.25049795602E+03  0.71374714466E+03 -0.45738968377E+03  0.88396240605E+03  0.25500000920E-02 0.  1.
</event>
<event>
 5   0  0.3678896E-04  0.1695708E+04  0.7818609E-02  0.8763816E-01
        2   -1    0    0  501    0  0.00000000000E+00  0.00000000000E+00  0.15962859181E+04  0.15962859181E+04  0.25500000920E-02 0. -1.
       -2   -1    0    0    0  501  0.00000000000E+00  0.00000000000E+00 -0.45033040585E+03  0.45033040586E+03  0.25500000920E-02 0.  1.
    10030    2    1    2    0    0  0.00000000000E+00  0.00000000000E+00  0.11459555123E+04  0.20466163240E+04  0.16957076226E+04 0.  0.
        2    1    3    3  502    0 -0.26393236479E+03  0.14277180541E+03 -0.38409702587E+03  0.48741625629E+03  0.25500000920E-02 0.  1.
       -2    1    3    3    0  502  0.26393236479E+03 -0.14277180541E+03  0.15300525381E+04  0.15592000677E+04  0.25500000920E-02 0. -1.
</event>
<event>
 5   0  0.1824538E-04  0.1646842E+04  0.7818609E-02  0.8792277E-01
        1   -1    0    0  501    0  0.00000000000E+00  0.00000000000E+00  0.12224738034E+04  0.12224738034E+04  0.50400001928E-02 0.  1.
       -1   -1    0    0    0  501  0.00000000000E+00  0.00000000000E+00 -0.55463095595E+03  0.55463095597E+03  0.50400001928E-02 0. -1.
    10030    2    1    2    0    0  0.00000000000E+00  0.00000000000E+00  0.66784284744E+03  0.17771047594E+04  0.16468416004E+04 0.  0.
        3    1    3    3  502    0  0.27241781355E+03  0.15488391827E+03  0.11556119648E+04  0.11973468657E+04  0.10100000352E+00 0.  1.
       -3    1    3    3    0  502 -0.27241781355E+03 -0.15488391827E+03 -0.48776911736E+03  0.57975789372E+03  0.10100000352E+00 0. -1.
</event>
<event>
 5   0  0.1893284E-04  0.1721260E+04  0.7818609E-02  0.8749331E-01
       -1   -1    0    0    0  501  0.00000000000E+00  0.00000000000E+00  0.79398214331E+03  0.79398214333E+03  0.50400001928E-02 0. -1.
        1   -1    0    0  501    0  0.00000000000E+00  0.00000000000E+00 -0.93287261460E+03  0.93287261461E+03  0.50400001928E-02 0.  1.
    10030    2    1    2    0    0  0.00000000000E+00  0.00000000000E+00 -0.13889047128E+03  0.17268547579E+04  0.17212602337E+04 0.  0.
        2    1    3    3  502    0  0.14097505619E+03  0.45768383253E+03 -0.78684685237E+03  0.92112780119E+03  0.25500000920E-02 0.  1.
       -2    1    3    3    0  502 -0.14097505619E+03 -0.45768383253E+03  0.64795638109E+03  0.80572695675E+03  0.25500000920E-02 0. -1.
</event>
<event>
 5   0  0.3516723E-04  0.1670299E+04  0.7818609E-02  0.8778488E-01
       -2   -1    0    0    0  501  0.00000000000E+00  0.00000000000E+00  0.11499059692E+04  0.11499059692E+04  0.25500000920E-02 0. -1.
        2   -1    0    0  501    0  0.00000000000E+00  0.00000000000E+00 -0.60654899541E+03  0.60654899541E+03  0.25500000920E-02 0.  1.
    10030    2    1    2    0    0  0.00000000000E+00  0.00000000000E+00  0.54335697377E+03  0.17564549646E+04  0.16702985487E+04 0.  0.
        1    1    3    3  502    0 -0.78356648881E+03  0.18153131369E+03  0.50809553707E+03  0.95136277784E+03  0.50400001928E-02 0. -1.
       -1    1    3    3    0  502  0.78356648881E+03 -0.18153131369E+03  0.35261436705E+02  0.80509218676E+03  0.50400001928E-02 0.  1.
</event>
<event>
 5   0  0.1920289E-04  0.1758979E+04  0.7818609E-02  0.8728424E-01
       -1   -1    0    0    0  501  0.00000000000E+00  0.00000000000E+00  0.57322609267E+03  0.57322609269E+03  0.50400001928E-02 0. -1.
        1   -1    0    0  501    0  0.00000000000E+00  0.00000000000E+00 -0.13493828735E+04  0.13493828735E+04  0.50400001928E-02 0.  1.
    10030    2    1    2    0    0  0.00000000000E+00  0.00000000000E+00 -0.77615678084E+03  0.19226089662E+04  0.17589786492E+04 0.  0.
        4    1    3    3  502    0 -0.60158770254E+03  0.14956368912E+03  0.29383549010E+03  0.68601601227E+03  0.12699999809E+01 0.  1.
       -4    1    3    3    0  502  0.60158770254E+03 -0.14956368912E+03 -0.10699922709E+04  0.12365929539E+04  0.12699999809E+01 0. -1.
</event>
<event>
 5   0  0.3516723E-04  0.1696331E+04  0.7818609E-02  0.8763460E-01
        2   -1    0    0  501    0  0.00000000000E+00  0.00000000000E+00  0.68820248358E+03  0.68820248358E+03  0.25500000920E-02 0.  1.
       -2   -1    0    0    0  501  0.00000000000E+00  0.00000000000E+00 -0.10453094059E+04  0.10453094059E+04  0.25500000920E-02 0. -1.
    10030    2    1    2    0    0  0.00000000000E+00  0.00000000000E+00 -0.35710692227E+03  0.17335118894E+04  0.16963307805E+04 0.  0.
        1    1    3    3  502    0  0.70595322043E+03  0.42734381563E+03  0.21679588805E+02  0.82550753527E+03  0.50400001928E-02 0.  1.
       -1    1    3    3    0  502 -0.70595322043E+03 -0.42734381563E+03 -0.37878651108E+03  0.90800435417E+03  0.50400001928E-02 0. -1.
</event>
<event>
 5   0  0.1930116E-04  0.1711470E+04  0.7818609E-02  0.8754849E-01
        1   -1    0    0  501    0  0.00000000000E+00  0.00000000000E+00  0.23296102053E+04  0.23296102053E+04  0.50400001928E-02 0.  1.
       -1   -1    0    0    0  501  0.00000000000E+00  0.00000000000E+00 -0.31433692560E+03  0.31433692564E+03  0.50400001928E-02 0. -1.
    10030    2    1    2    0    0  0.00000000000E+00  0.00000000000E+00  0.20152732797E+04  0.26439471309E+04  0.17114701398E+04 0.  0.
        1    1    3    3  502    0 -0.14739787984E+03 -0.77096365661E+03  0.48109456563E+03  0.92063188946E+03  0.50400001928E-02 0. -1.
       -1    1    3    3    0  502  0.14739787984E+03  0.77096365661E+03  0.15341787141E+04  0.17233152415E+04  0.50400001928E-02 0.  1.
</event>
<event>
 5   0  0.3605571E-04  0.1687239E+04  0.7818609E-02  0.8768676E-01
       -2   -1    0    0    0  501  0.00000000000E+00  0.00000000000E+00  0.35749380800E+03  0.35749380801E+03  0.25500000920E-02 0.  1.
        2   -1    0    0  501    0  0.00000000000E+00  0.00000000000E+00 -0.19907877166E+04  0.19907877166E+04  0.25500000920E-02 0. -1.
    10030    2    1    2    0    0  0.00000000000E+00  0.00000000000E+00 -0.16332939086E+04  0.23482815246E+04  0.16872394990E+04 0.  0.
        4    1    3    3  502    0 -0.47792387137E+03  0.81255377962E+02  0.14427129134E+03  0.50579588934E+03  0.12699999809E+01 0.  1.
       -4    1    3    3    0  502  0.47792387137E+03 -0.81255377962E+02 -0.17775651999E+04  0.18424856353E+04  0.12699999809E+01 0. -1.
</event>
<event>
 5   0  0.1317625E-04  0.1722063E+04  0.7818609E-02  0.8748880E-01
        3   -1    0    0  501    0  0.00000000000E+00  0.00000000000E+00  0.67190739118E+03  0.67190739877E+03  0.10100000352E+00 0.  1.
       -3   -1    0    0    0  501  0.00000000000E+00  0.00000000000E+00 -0.11033890233E+04  0.11033890279E+04  0.10100000352E+00 0. -1.
    10030    2    1    2    0    0  0.00000000000E+00  0.00000000000E+00 -0.43148163212E+03  0.17752964267E+04  0.17220630081E+04 0.  0.
        1    1    3    3  502    0 -0.74895973325E+03 -0.40871139365E+03 -0.33503110344E+03  0.91664143787E+03  0.50400001928E-02 0. -1.
       -1    1    3    3    0  502  0.74895973325E+03  0.40871139365E+03 -0.96450528680E+02  0.85865498883E+03  0.50400001928E-02 0.  1.
</event>
<event>
 5   0  0.3574092E-04  0.1703031E+04  0.7818609E-02  0.8759638E-01
       -2   -1    0    0    0  501  0.00000000000E+00  0.00000000000E+00  0.43969045374E+03  0.43969045375E+03  0.25500000920E-02 0.  1.
        2   -1    0    0  501    0  0.00000000000E+00  0.00000000000E+00 -0.16490659426E+04  0.16490659426E+04  0.25500000920E-02 0. -1.
    10030    2    1    2    0    0  0.00000000000E+00  0.00000000000E+00 -0.12093754888E+04  0.20887563963E+04  0.17030308894E+04 0.  0.
        3    1    3    3  502    0  0.42480308359E+03 -0.46691804696E+02 -0.15080073259E+04  0.15673939804E+04  0.10100000352E+00 0. -1.
       -3    1    3    3    0  502 -0.42480308359E+03  0.46691804696E+02  0.29863183709E+03  0.52136241596E+03  0.10100000352E+00 0.  1.
</event>
<event>
 5   0  0.3678896E-04  0.1685462E+04  0.7818609E-02  0.8769700E-01
       -2   -1    0    0    0  501  0.00000000000E+00  0.00000000000E+00  0.35659197440E+03  0.35659197441E+03  0.25500000920E-02 0.  1.
        2   -1    0    0  501    0  0.00000000000E+00  0.00000000000E+00 -0.19916187564E+04  0.19916187564E+04  0.25500000920E-02 0. -1.
    10030    2    1    2    0    0  0.00000000000E+00  0.00000000000E+00 -0.16350267820E+04  0.23482107309E+04  0.16854616752E+04 0.  0.
        2    1    3    3  502    0  0.33676427060E+03 -0.17781252317E+03 -0.18648996952E+04  0.19033860198E+04  0.25500000920E-02 0. -1.
       -2    1    3    3    0  502 -0.33676427060E+03  0.17781252317E+03  0.22987291314E+03  0.44482471104E+03  0.25500000920E-02 0.  1.
</event>
<event>
 5   0  0.3516723E-04  0.1705106E+04  0.7818609E-02  0.8758458E-01
        2   -1    0    0  501    0  0.00000000000E+00  0.00000000000E+00  0.12987365194E+04  0.12987365194E+04  0.25500000920E-02 0. -1.
       -2   -1    0    0    0  501  0.00000000000E+00  0.00000000000E+00 -0.55965642827E+03  0.55965642827E+03  0.25500000920E-02 0.  1.
    10030    2    1    2    0    0  0.00000000000E+00  0.00000000000E+00  0.73908009112E+03  0.18583929477E+04  0.17051055589E+04 0.  0.
        1    1    3    3  502    0  0.67033226040E+03 -0.15613713345E+02  0.94342868527E+03  0.11574311261E+04  0.50400001928E-02 0. -1.
       -1    1    3    3    0  502 -0.67033226040E+03  0.15613713345E+02 -0.20434859415E+03  0.70096182160E+03  0.50400001928E-02 0.  1.
</event>
<event>
 5   0  0.1893284E-04  0.1699166E+04  0.7818609E-02  0.8761840E-01
       -1   -1    0    0    0  501  0.00000000000E+00  0.00000000000E+00  0.70372582515E+03  0.70372582517E+03  0.50400001928E-02 0.  1.
        1   -1    0    0  501    0  0.00000000000E+00  0.00000000000E+00 -0.10256706827E+04  0.10256706827E+04  0.50400001928E-02 0. -1.
    10030    2    1    2    0    0  0.00000000000E+00  0.00000000000E+00 -0.32194485752E+03  0.17293965079E+04  0.16991656158E+04 0.  0.
        2    1    3    3  502    0 -0.42492205686E+03 -0.73399187026E+03 -0.11020382931E+03  0.85524715960E+03  0.25500000920E-02 0.  1.
       -2    1    3    3    0  502  0.42492205686E+03  0.73399187026E+03 -0.21174102821E+03  0.87414934825E+03  0.25500000920E-02 0. -1.
</event>
<event>
 5   0  0.3678896E-04  0.1624998E+04  0.7818609E-02  0.8805336E-01
        2   -1    0    0  501    0  0.00000000000E+00  0.00000000000E+00  0.17439902628E+04  0.17439902628E+04  0.25500000920E-02 0. -1.
       -2   -1    0    0    0  501  0.00000000000E+00  0.00000000000E+00 -0.37853102156E+03  0.37853102157E+03  0.25500000920E-02 0.  1.
    10030    2    1    2    0    0  0.00000000000E+00  0.00000000000E+00  0.13654592412E+04  0.21225212844E+04  0.16249977425E+04 0.  0.
        2    1    3    3  502    0 -0.49156921124E+03  0.49181408759E+03  0.13377650918E+03  0.70810842433E+03  0.25500000920E-02 0. -1.
       -2    1    3    3    0  502  0.49156921124E+03 -0.49181408759E+03  0.12316827320E+04  0.14144128600E+04  0.25500000920E-02 0.  1.
</event>
<event>
 5   0  0.1815663E-04  0.1715014E+04  0.7818609E-02  0.8752847E-01
       -1   -1    0    0    0  501  0.00000000000E+00  0.00000000000E+00  0.74876160441E+03  0.74876160443E+03  0.50400001928E-02 0. -1.
        1   -1    0    0  501    0  0.00000000000E+00  0.00000000000E+00 -0.98204561816E+03  0.98204561817E+03  0.50400001928E-02 0.  1.
    10030    2    1    2    0    0  0.00000000000E+00  0.00000000000E+00 -0.23328401375E+03  0.17308072226E+04  0.17150137640E+04 0.  0.
        5    1    3    3  502    0  0.65716292743E+03 -0.22607790219E+03 -0.62358407371E+03  0.93373096662E+03  0.46999998093E+01 0.  1.
       -5    1    3    3    0  502 -0.65716292743E+03  0.22607790219E+03  0.39030005996E+03  0.79707625598E+03  0.46999998093E+01 0. -1.
</event>
<event>
 5   0  0.1920289E-04  0.1678569E+04  0.7818609E-02  0.8773682E-01
       -1   -1    0    0    0  501  0.00000000000E+00  0.00000000000E+00  0.76627710993E+03  0.76627710994E+03  0.50400001928E-02 0. -1.
        1   -1    0    0  501    0  0.00000000000E+00  0.00000000000E+00 -0.91924801766E+03  0.91924801768E+03  0.50400001928E-02 0.  1.
    10030    2    1    2    0    0  0.00000000000E+00  0.00000000000E+00 -0.15297090774E+03  0.16855251276E+04  0.16785692888E+04 0.  0.
        4    1    3    3  502    0  0.14842480116E+03 -0.27304161878E+03 -0.85934135109E+03  0.91381114995E+03  0.12699999809E+01 0.  1.
       -4    1    3    3    0  502 -0.14842480116E+03  0.27304161878E+03  0.70637044335E+03  0.77171397767E+03  0.12699999809E+01 0. -1.
</event>
<event>
 5   0  0.1893284E-04  0.1699150E+04  0.7818609E-02  0.8761849E-01
       -1   -1    0    0    0  501  0.00000000000E+00  0.00000000000E+00  0.11376603410E+04  0.11376603410E+04  0.50400001928E-02 0.  1.
        1   -1    0    0  501    0  0.00000000000E+00  0.00000000000E+00 -0.63444013541E+03  0.63444013543E+03  0.50400001928E-02 0. -1.
    10030    2    1    2    0    0  0.00000000000E+00  0.00000000000E+00  0.50322020554E+03  0.17721004764E+04  0.16991496471E+04 0.  0.
        2    1    3    3  502    0  0.73791193050E+03 -0.22331083428E+03 -0.12063928015E+03  0.78034324614E+03  0.25500000920E-02 0. -1.
       -2    1    3    3    0  502 -0.73791193050E+03  0.22331083428E+03  0.62385948569E+03  0.99175723026E+03  0.25500000920E-02 0.  1.
</event>
<event>
 5   0  0.1815663E-04  0.1697937E+04  0.7818609E-02  0.8762542E-01
        1   -1    0    0  501    0  0.00000000000E+00  0.00000000000E+00  0.11915136171E+04  0.11915136171E+04  0.50400001928E-02 0.  1.
       -1   -1    0    0    0  501  0.00000000000E+00  0.00000000000E+00 -0.60490102152E+03  0.60490102154E+03  0.50400001928E-02 0. -1.
    10030    2    1    2    0    0  0.00000000000E+00  0.00000000000E+00  0.58661259562E+03  0.17964146387E+04  0.16979373418E+04 0.  0.
        5    1    3    3  502    0 -0.25422415104E+03  0.29887302011E+02  0.11496985181E+04  0.11778590503E+04  0.46999998093E+01 0.  1.
       -5    1    3    3    0  502  0.25422415104E+03 -0.29887302011E+02 -0.56308592251E+03  0.61855558839E+03  0.46999998093E+01 0. -1.
</event>
<event>
 5   0  0.3574092E-04  0.1766728E+04  0.7818609E-02  0.8724196E-01
       -2   -1    0    0    0  501  0.00000000000E+00  0.00000000000E+00  0.67868412982E+03  0.67868412982E+03  0.25500000920E-02 0.  1.
        2   -1    0    0  501    0  0.00000000000E+00  0.00000000000E+00 -0.11497717269E+04  0.11497717269E+04  0.25500000920E-02 0. -1.
    10030    2    1    2    0    0  0.00000000000E+00  0.00000000000E+00 -0.47108759713E+03  0.18284558568E+04  0.17667278500E+04 0.  0.
        3    1    3    3  502    0  0.80300420908E+03  0.32822250831E+03 -0.40805930818E+03  0.95867522340E+03  0.10100000352E+00 0.  1.
       -3    1    3    3    0  502 -0.80300420908E+03 -0.32822250831E+03 -0.63028288943E+02  0.86978063336E+03  0.10100000352E+00 0. -1.
</event>
<event>
 5   0  0.3605571E-04  0.1676480E+04  0.7818609E-02  0.8774893E-01
        2   -1    0    0  501    0  0.00000000000E+00  0.00000000000E+00  0.14756832313E+04  0.14756832313E+04  0.25500000920E-02 0.  1.
       -2   -1    0    0    0  501  0.00000000000E+00  0.00000000000E+00 -0.47615009722E+03  0.47615009723E+03  0.25500000920E-02 0. -1.
    10030    2    1    2    0    0  0.00000000000E+00  0.00000000000E+00  0.99953313409E+03  0.19518333285E+04  0.16764804968E+04 0.  0.
        4    1    3    3  502    0 -0.82473115421E+03 -0.88152647524E+02  0.64088883568E+03  0.10481853265E+04  0.12699999809E+01 0.  1.
       -4    1    3    3    0  502  0.82473115421E+03  0.88152647524E+02  0.35864429840E+03  0.90364800208E+03  0.12699999809E+01 0. -1.
</event>
<event>
 5   0  0.3574092E-04  0.1766163E+04  0.7818609E-02  0.8724504E-01
       -2   -1    0    0    0  501  0.00000000000E+00  0.00000000000E+00  0.71108623482E+03  0.71108623483E+03  0.25500000920E-02 0.  1.
        2   -1    0    0  501    0  0.00000000000E+00  0.00000000000E+00 -0.10966781651E+04  0.10966781651E+04  0.25500000920E-02 0. -1.
    10030    2    1    2    0    0  0.00000000000E+00  0.00000000000E+00 -0.38559193030E+03  0.18077644000E+04  0.17661627867E+04 0.  0.
        3    1    3    3  502    0  0.31583096004E+02  0.16359045611E+03  0.69485292874E+03  0.71454876116E+03  0.10100000352E+00 0.  1.
       -3    1    3    3    0  502 -0.31583096004E+02 -0.16359045611E+03 -0.10804448590E+04  0.10932156388E+04  0.10100000352E+00 0. -1.
</event>
<event>
 5   0  0.1893284E-04  0.1692491E+04  0.7818609E-02  0.8765658E-01
        1   -1    0    0  501    0  0.00000000000E+00  0.00000000000E+00  0.87003341044E+03  0.87003341046E+03  0.50400001928E-02 0. -1.
       -1   -1    0    0    0  501  0.00000000000E+00  0.00000000000E+00 -0.82310827736E+03  0.82310827738E+03  0.50400001928E-02 0.  1.
    10030    2    1    2    0    0  0.00000000000E+00  0.00000000000E+00  0.46925133077E+02  0.16931416878E+04  0.16924913019E+04 0.  0.
        2    1    3    3  502    0 -0.65526385432E+02 -0.65144200533E+03  0.55982278168E+03  0.86143597579E+03  0.25500000920E-02 0. -1.
       -2    1    3    3    0  502  0.65526385432E+02  0.65144200533E+03 -0.51289764861E+03  0.83170571204E+03  0.25500000920E-02 0.  1.
</event>
<event>
 5   0  0.1317625E-04  0.1696204E+04  0.7818609E-02  0.8763533E-01
        4   -1    0    0  501    0  0.00000000000E+00  0.00000000000E+00  0.97715900010E+03  0.97715982540E+03  0.12699999809E+01 0.  1.
       -4   -1    0    0    0  501  0.00000000000E+00  0.00000000000E+00 -0.73608804081E+03  0.73608913640E+03  0.12699999809E+01 0. -1.
    10030    2    1    2    0    0  0.00000000000E+00  0.00000000000E+00  0.24107095929E+03  0.17132489618E+04  0.16962036428E+04 0.  0.
        5    1    3    3  502    0  0.35247297371E+03  0.68745138882E+03 -0.23287779948E+03  0.80689576072E+03  0.46999998093E+01 0. -1.
       -5    1    3    3    0  502 -0.35247297371E+03 -0.68745138882E+03  0.47394875877E+03  0.90635320108E+03  0.46999998093E+01 0.  1.
</event>
<event>
 5   0  0.1317625E-04  0.1706196E+04  0.7818609E-02  0.8757838E-01
        3   -1    0    0  501    0  0.00000000000E+00  0.00000000000E+00  0.44735640978E+03  0.44735642118E+03  0.10100000352E+00 0. -1.
       -3   -1    0    0    0  501  0.00000000000E+00  0.00000000000E+00 -0.16268378066E+04  0.16268378098E+04  0.10100000352E+00 0.  1.
    10030    2    1    2    0    0  0.00000000000E+00  0.00000000000E+00 -0.11794813969E+04  0.20741942309E+04  0.17061961617E+04 0.  0.
        3    1    3    3  502    0  0.42471036735E+02  0.14862460472E+03  0.43019027516E+03  0.45711786788E+03  0.10100000352E+00 0. -1.
       -3    1    3    3    0  502 -0.42471036735E+02 -0.14862460472E+03 -0.16096716720E+04  0.16170763631E+04  0.10100000352E+00 0.  1.
</event>
<event>
 5   0  0.1317625E-04  0.1687407E+04  0.7818609E-02  0.8768579E-01
       -3   -1    0    0    0  501  0.00000000000E+00  0.00000000000E+00  0.10663266359E+04  0.10663266407E+04  0.10100000352E+00 0.  1.
        3   -1    0    0  501    0  0.00000000000E+00  0.00000000000E+00 -0.66755893771E+03  0.66755894536E+03  0.10100000352E+00 0. -1.
    10030    2    1    2    0    0  0.00000000000E+00  0.00000000000E+00  0.39876769823E+03  0.17338855861E+04  0.16874073452E+04 0.  0.
        1    1    3    3  502    0 -0.56189385373E+03 -0.18781132855E+03  0.81662758076E+03  0.10088996004E+04  0.50400001928E-02 0.  1.
       -1    1    3    3    0  502  0.56189385373E+03  0.18781132855E+03 -0.41785988253E+03  0.72498598569E+03  0.50400001928E-02 0. -1.
</event>
<event>
 5   0  0.1920289E-04  0.1702135E+04  0.7818609E-02  0.8760147E-01
        1   -1    0    0  501    0  0.00000000000E+00  0.00000000000E+00  0.10068060964E+04  0.10068060964E+04  0.50400001928E-02 0.  1.
       -1   -1    0    0    0  501  0.00000000000E+00  0.00000000000E+00 -0.71941972574E+03  0.71941972576E+03  0.50400001928E-02 0. -1.
    10030    2    1    2    0    0  0.00000000000E+00  0.00000000000E+00  0.28738637069E+03  0.17262258222E+04  0.17021353246E+04 0.  0.
        4    1    3    3  502    0 -0.37158793449E+03  0.56730015906E+03  0.66517647953E+03  0.94993074765E+03  0.12699999809E+01 0.  1.
       -4    1    3    3    0  502  0.37158793449E+03 -0.56730015906E+03 -0.37779010884E+03  0.77629507454E+03  0.12699999809E+01 0. -1.
</event>
<event>
 5   0  0.1824538E-04  0.1689240E+04  0.7818609E-02  0.8767525E-01
        1   -1    0    0  501    0  0.00000000000E+00  0.00000000000E+00  0.12934109667E+04  0.12934109667E+04  0.50400001928E-02 0.  1.
       -1   -1    0    0    0  501  0.00000000000E+00  0.00000000000E+00 -0.55155135691E+03  0.55155135694E+03  0.50400001928E-02 0. -1.
    10030    2    1    2    0    0  0.00000000000E+00  0.00000000000E+00  0.74185960976E+03  0.18449623236E+04  0.16892395612E+04 0.  0.
        3    1    3    3  502    0  0.79331736871E+03 -0.11720577346E+03  0.66049879969E+03  0.10389168953E+04  0.10100000352E+00 0.  1.
       -3    1    3    3    0  502 -0.79331736871E+03  0.11720577346E+03  0.81360810075E+02  0.80604542828E+03  0.10100000352E+00 0. -1.
</event>
<event>
 5   0  0.3605571E-04  0.1702693E+04  0.7818609E-02  0.8759830E-01
        2   -1    0    0  501    0  0.00000000000E+00  0.00000000000E+00  0.21906131317E+04  0.21906131317E+04  0.25500000920E-02 0. -1.
       -2   -1    0    0    0  501  0.00000000000E+00  0.00000000000E+00 -0.33086219664E+03  0.33086219665E+03  0.25500000920E-02 0.  1.
    10030    2    1    2    0    0  0.00000000000E+00  0.00000000000E+00  0.18597509351E+04  0.25214753283E+04  0.17026932463E+04 0.  0.
        4    1    3    3  502    0 -0.50976855548E+02  0.45032982487E+03  0.19971268329E+04  0.20479044876E+04  0.12699999809E+01 0. -1.
       -4    1    3    3    0  502  0.50976855548E+02 -0.45032982487E+03 -0.13737589782E+03  0.47357084071E+03  0.12699999809E+01 0.  1.
</event>
<event>
 5   0  0.3573262E-04  0.1715450E+04  0.7818609E-02  0.8752602E-01
       -2   -1    0    0    0  501  0.00000000000E+00  0.00000000000E+00  0.10033686216E+04  0.10033686216E+04  0.25500000920E-02 0. -1.
        2   -1    0    0  501    0  0.00000000000E+00  0.00000000000E+00 -0.73322201821E+03  0.73322201821E+03  0.25500000920E-02 0.  1.
    10030    2    1    2    0    0  0.00000000000E+00  0.00000000000E+00  0.27014660334E+03  0.17365906398E+04  0.17154497553E+04 0.  0.
        5    1    3    3  502    0 -0.35147164629E+03  0.26673652521E+02 -0.65650053443E+03  0.74515692548E+03  0.46999998093E+01 0.  1.
       -5    1    3    3    0  502  0.35147164629E+03 -0.26673652521E+02  0.92664713778E+03  0.99143371429E+03  0.46999998093E+01 0. -1.
</event>
<event>
 5   0  0.1815663E-04  0.1746897E+04  0.7818609E-02  0.8735060E-01
        1   -1    0    0  501    0  0.00000000000E+00  0.00000000000E+00  0.15727920587E+04  0.15727920587E+04  0.50400001928E-02 0.  1.
       -1   -1    0    0    0  501  0.00000000000E+00  0.00000000000E+00 -0.48506900381E+03  0.48506900384E+03  0.50400001928E-02 0. -1.
    10030    2    1    2    0    0  0.00000000000E+00  0.00000000000E+00  0.10877230549E+04  0.20578610625E+04  0.17468974522E+04 0.  0.
        5    1    3    3  502    0  0.30440165385E+03  0.55487701424E+02 -0.41832842647E+03  0.52034605242E+03  0.46999998093E+01 0. -1.
       -5    1    3    3    0  502 -0.30440165385E+03 -0.55487701424E+02  0.15060514813E+04  0.15375150101E+04  0.46999998093E+01 0.  1.
</event>
<event>
 5   0  0.3516723E-04  0.1702799E+04  0.7818609E-02  0.8759770E-01
        2   -1    0    0  501    0  0.00000000000E+00  0.00000000000E+00  0.10892977568E+04  0.10892977568E+04  0.25500000920E-02 0. -1.
       -2   -1    0    0    0  501  0.00000000000E+00  0.00000000000E+00 -0.66545709632E+03  0.66545709633E+03  0.25500000920E-02 0.  1.
    10030    2    1    2    0    0  0.00000000000E+00  0.00000000000E+00  0.42384066051E+03  0.17547548532E+04  0.17027987812E+04 0.  0.
        1    1    3    3  502    0  0.13049414231E+03 -0.55310327037E+03 -0.44140241528E+03  0.71957490306E+03  0.50400001928E-02 0.  1.
       -1    1    3    3    0  502 -0.13049414231E+03  0.55310327037E+03  0.86524307579E+03  0.10351799501E+04  0.50400001928E-02 0. -1.
</event>
<event>
 5   0  0.3678896E-04  0.1693319E+04  0.7818609E-02  0.8765184E-01
       -2   -1    0    0    0  501  0.00000000000E+00  0.00000000000E+00  0.13054152284E+04  0.13054152284E+04  0.25500000920E-02 0. -1.
        2   -1    0    0  501    0  0.00000000000E+00  0.00000000000E+00 -0.54912211863E+03  0.54912211863E+03  0.25500000920E-02 0.  1.
    10030    2    1    2    0    0  0.00000000000E+00  0.00000000000E+00  0.75629310977E+03  0.18545373470E+04  0.16933190791E+04 0.  0.
        2    1    3    3  502    0  0.25967280345E+03 -0.78264152823E+03  0.16783616352E+03  0.84150264667E+03  0.25500000920E-02 0.  1.
       -2    1    3    3    0  502 -0.25967280345E+03  0.78264152823E+03  0.58845694626E+03  0.10130347004E+04  0.25500000920E-02 0. -1.
</event>
<event>
 5   0  0.3678896E-04  0.1683003E+04  0.7818609E-02  0.8771118E-01
        2   -1    0    0  501    0  0.00000000000E+00  0.00000000000E+00  0.99001409151E+03  0.99001409151E+03  0.25500000920E-02 0.  1.
       -2   -1    0    0    0  501  0.00000000000E+00  0.00000000000E+00 -0.71526725475E+03  0.71526725475E+03  0.25500000920E-02 0. -1.
    10030    2    1    2    0    0  0.00000000000E+00  0.00000000000E+00  0.27474683677E+03  0.17052813463E+04  0.16830028656E+04 0.  0.
        2    1    3    3  502    0 -0.57524930720E+03  0.33679477053E+03 -0.38302253559E+03  0.76879694697E+03  0.25500000920E-02 0. -1.
       -2    1    3    3    0  502  0.57524930720E+03 -0.33679477053E+03  0.65776937236E+03  0.93648439929E+03  0.25500000920E-02 0.  1.
</event>
<event>
 5   0  0.1920289E-04  0.1710024E+04  0.7818609E-02  0.8755668E-01
       -1   -1    0    0    0  501  0.00000000000E+00  0.00000000000E+00  0.59890250374E+03  0.59890250376E+03  0.50400001928E-02 0.  1.
        1   -1    0    0  501    0  0.00000000000E+00  0.00000000000E+00 -0.12206419119E+04  0.12206419119E+04  0.50400001928E-02 0. -1.
    10030    2    1    2    0    0  0.00000000000E+00  0.00000000000E+00 -0.62173940812E+03  0.18195444156E+04  0.17100239732E+04 0.  0.
        4    1    3    3  502    0  0.59669995581E+03 -0.16906313272E+02 -0.96220782237E+03  0.11323348299E+04  0.12699999809E+01 0. -1.
       -4    1    3    3    0  502 -0.59669995581E+03  0.16906313272E+02  0.34046841425E+03  0.68720958571E+03  0.12699999809E+01 0.  1.
</event>
<event>
 5   0  0.1930116E-04  0.1711356E+04  0.7818609E-02  0.8754914E-01
       -1   -1    0    0    0  501  0.00000000000E+00  0.00000000000E+00  0.31232153894E+03  0.31232153898E+03  0.50400001928E-02 0. -1.
        1   -1    0    0  501    0  0.00000000000E+00  0.00000000000E+00 -0.23443306667E+04  0.23443306667E+04  0.50400001928E-02 0.  1.
    10030    2    1    2    0    0  0.00000000000E+00  0.00000000000E+00 -0.20320091277E+04  0.26566522057E+04  0.17113561425E+04 0.  0.
        1    1    3    3  502    0 -0.11989439723E+03  0.68299359543E+03 -0.23775926112E+03  0.73306506134E+03  0.50400001928E-02 0. -1.
       -1    1    3    3    0  502  0.11989439723E+03 -0.68299359543E+03 -0.17942498666E+04  0.19235871443E+04  0.50400001928E-02 0.  1.
</event>
<event>
 5   0  0.3573262E-04  0.1692381E+04  0.7818609E-02  0.8765722E-01
       -2   -1    0    0    0  501  0.00000000000E+00  0.00000000000E+00  0.72922108739E+03  0.72922108740E+03  0.25500000920E-02 0.  1.
        2   -1    0    0  501    0  0.00000000000E+00  0.00000000000E+00 -0.98192245439E+03  0.98192245439E+03  0.25500000920E-02 0. -1.
    10030    2    1    2    0    0  0.00000000000E+00  0.00000000000E+00 -0.25270136700E+03  0.17111435418E+04  0.16923812336E+04 0.  0.
        5    1    3    3  502    0 -0.80260654566E+03  0.12118664895E+03 -0.36806799400E+03  0.89126853934E+03  0.46999998093E+01 0. -1.
       -5    1    3    3    0  502  0.80260654566E+03 -0.12118664895E+03  0.11536662700E+03  0.81987500245E+03  0.46999998093E+01 0.  1.
</event>
<event>
 5   0  0.1815663E-04  0.1702010E+04  0.7818609E-02  0.8760219E-01
        1   -1    0    0  501    0  0.00000000000E+00  0.00000000000E+00  0.65890172362E+03  0.65890172364E+03  0.50400001928E-02 0.  1.
       -1   -1    0    0    0  501  0.00000000000E+00  0.00000000000E+00 -0.10991167252E+04  0.10991167252E+04  0.50400001928E-02 0. -1.
    10030    2    1    2    0    0  0.00000000000E+00  0.00000000000E+00 -0.44021500158E+03  0.17580184489E+04  0.17020104638E+04 0.  0.
        5    1    3    3  502    0 -0.10633954739E+03 -0.16434699485E+03  0.63531769270E+03  0.66480726133E+03  0.46999998093E+01 0.  1.
       -5    1    3    3    0  502  0.10633954739E+03  0.16434699485E+03 -0.10755326943E+04  0.10932111875E+04  0.46999998093E+01 0. -1.
</event>
<event>
 5   0  0.3678896E-04  0.1768205E+04  0.7818609E-02  0.8723393E-01
        2   -1    0    0  501    0  0.00000000000E+00  0.00000000000E+00  0.68293803155E+03  0.68293803155E+03  0.25500000920E-02 0.  1.
       -2   -1    0    0    0  501  0.00000000000E+00  0.00000000000E+00 -0.11445215207E+04  0.11445215207E+04  0.25500000920E-02 0. -1.
    10030    2    1    2    0    0  0.00000000000E+00  0.00000000000E+00 -0.46158348917E+03  0.18274595523E+04  0.17682050497E+04 0.  0.
        2    1    3    3  502    0  0.29533182437E+03 -0.18460061898E+03 -0.10706357381E+04  0.11258592979E+04  0.25500000920E-02 0. -1.
       -2    1    3    3    0  502 -0.29533182437E+03  0.18460061898E+03  0.60905224891E+03  0.70160025436E+03  0.25500000920E-02 0.  1.
</event>
<event>
 5   0  0.3605571E-04  0.1693692E+04  0.7818609E-02  0.8764970E-01
       -2   -1    0    0    0  501  0.00000000000E+00  0.00000000000E+00  0.41468416696E+03  0.41468416697E+03  0.25500000920E-02 0.  1.
        2   -1    0    0  501    0  0.00000000000E+00  0.00000000000E+00 -0.17293839435E+04  0.17293839435E+04  0.25500000920E-02 0. -1.
    10030    2    1    2    0    0  0.00000000000E+00  0.00000000000E+00 -0.13146997765E+04  0.21440681105E+04  0.16936919909E+04 0.  0.
        4    1    3    3  502    0 -0.66253528319E+03 -0.15285659776E+03 -0.12963898917E+04  0.14638806321E+04  0.12699999809E+01 0. -1.
       -4    1    3    3    0  502  0.66253528319E+03  0.15285659776E+03 -0.18309884878E+02  0.68018747837E+03  0.12699999809E+01 0.  1.
</event>
<event>
 5   0  0.1920289E-04  0.1717478E+04  0.7818609E-02  0.8751458E-01
        1   -1    0    0  501    0  0.00000000000E+00  0.00000000000E+00  0.81734146008E+03  0.81734146010E+03  0.50400001928E-02 0.  1.
       -1   -1    0    0    0  501  0.00000000000E+00  0.00000000000E+00 -0.90223344474E+03  0.90223344476E+03  0.50400001928E-02 0. -1.
    10030    2    1    2    0    0  0.00000000000E+00  0.00000000000E+00 -0.84891984661E+02  0.17195749049E+04  0.17174781525E+04 0.  0.
        4    1    3    3  502    0 -0.31751252431E+03  0.13893211029E+03 -0.82909906033E+03  0.89862294601E+03  0.12699999809E+01 0. -1.
       -4    1    3    3    0  502  0.31751252431E+03 -0.13893211029E+03  0.74420707567E+03  0.82095195885E+03  0.12699999809E+01 0.  1.
</event>
<event>
 5   0  0.3573262E-04  0.1696779E+04  0.7818609E-02  0.8763204E-01
        2   -1    0    0  501    0  0.00000000000E+00  0.00000000000E+00  0.26239182895E+04  0.26239182895E+04  0.25500000920E-02 0. -1.
       -2   -1    0    0    0  501  0.00000000000E+00  0.00000000000E+00 -0.27430902965E+03  0.27430902967E+03  0.25500000920E-02 0.  1.
    10030    2    1    2    0    0  0.00000000000E+00  0.00000000000E+00  0.23496092599E+04  0.28982273192E+04  0.16967786891E+04 0.  0.
        5    1    3    3  502    0 -0.35616252651E+03 -0.18052335561E+03 -0.10374713715E+03  0.41258451943E+03  0.46999998093E+01 0.  1.
       -5    1    3    3    0  502  0.35616252651E+03  0.18052335561E+03  0.24533563970E+04  0.24856427998E+04  0.46999998093E+01 0. -1.
</event>
<event>
 5   0  0.3574092E-04  0.1688337E+04  0.7818609E-02  0.8768044E-01
        2   -1    0    0  501    0  0.00000000000E+00  0.00000000000E+00  0.20983429245E+04  0.20983429245E+04  0.25500000920E-02 0.  1.
       -2   -1    0    0    0  501  0.00000000000E+00  0.00000000000E+00 -0.33961116998E+03  0.33961116999E+03  0.25500000920E-02 0. -1.
    10030    2    1    2    0    0  0.00000000000E+00  0.00000000000E+00  0.17587317545E+04  0.24379540945E+04  0.16883372834E+04 0.  0.
        3    1    3    3  502    0 -0.52565605774E+03  0.33944589383E+03  0.61136840613E+02  0.62870941568E+03  0.10100000352E+00 0. -1.
       -3    1    3    3    0  502  0.52565605774E+03 -0.33944589383E+03  0.16975949139E+04  0.18092446788E+04  0.10100000352E+00 0.  1.
</event>
<event>
 5   0  0.3605571E-04  0.1679172E+04  0.7818609E-02  0.8773333E-01
        2   -1    0    0  501    0  0.00000000000E+00  0.00000000000E+00  0.63749608410E+03  0.63749608410E+03  0.25500000920E-02 0.  1.
       -2   -1    0    0    0  501  0.00000000000E+00  0.00000000000E+00 -0.11057393337E+04  0.11057393337E+04  0.25500000920E-02 0. -1.
    10030    2    1    2    0    0  0.00000000000E+00  0.00000000000E+00 -0.46824324963E+03  0.17432354178E+04  0.16791718141E+04 0.  0.
        4    1    3    3  502    0  0.36540028777E+01  0.83950071539E+03 -0.24587062065E+03  0.87477355805E+03  0.12699999809E+01 0. -1.
       -4    1    3    3    0  502 -0.36540028777E+01 -0.83950071539E+03 -0.22237262898E+03  0.86846185978E+03  0.12699999809E+01 0.  1.
</event>
<event>
 5   0  0.1893284E-04  0.1698193E+04  0.7818609E-02  0.8762396E-01
        1   -1    0    0  501    0  0.00000000000E+00  0.00000000000E+00  0.13902578114E+04  0.13902578114E+04  0.50400001928E-02 0.  1.
       -1   -1    0    0    0  501  0.00000000000E+00  0.00000000000E+00 -0.51858353307E+03  0.51858353310E+03  0.50400001928E-02 0. -1.
    10030    2    1    2    0    0  0.00000000000E+00  0.00000000000E+00  0.87167427831E+03  0.19088413445E+04  0.16981929310E+04 0.  0.
        2    1    3    3  502    0  0.22624437245E+03 -0.59707900060E+03  0.10649747445E+04  0.12417169788E+04  0.25500000920E-02 0. -1.
       -2    1    3    3    0  502 -0.22624437245E+03  0.59707900060E+03 -0.19330046621E+03  0.66712436567E+03  0.25500000920E-02 0.  1.
</event>
<event>
 5   0  0.3573262E-04  0.1694929E+04  0.7818609E-02  0.8764262E-01
        2   -1    0    0  501    0  0.00000000000E+00  0.00000000000E+00  0.72739636468E+03  0.72739636468E+03  0.25500000920E-02 0. -1.
       -2   -1    0    0    0  501  0.00000000000E+00  0.00000000000E+00 -0.98735223553E+03  0.98735223553E+03  0.25500000920E-02 0.  1.
    10030    2    1    2    0    0  0.00000000000E+00  0.00000000000E+00 -0.25995587085E+03  0.17147486002E+04  0.16949294107E+04 0.  0.
        5    1    3    3  502    0  0.70615147756E+03  0.16299252133E+03 -0.57438411011E+03  0.92474627180E+03  0.46999998093E+01 0.  1.
       -5    1    3    3    0  502 -0.70615147756E+03 -0.16299252133E+03  0.31442823926E+03  0.79000232842E+03  0.46999998093E+01 0. -1.
</event>
<event>
 5   0  0.1815663E-04  0.1748038E+04  0.7818609E-02  0.8734431E-01
        1   -1    0    0  501    0  0.00000000000E+00  0.00000000000E+00  0.13210971769E+04  0.13210971769E+04  0.50400001928E-02 0.  1.
       -1   -1    0    0    0  501  0.00000000000E+00  0.00000000000E+00 -0.57823863151E+03  0.57823863153E+03  0.50400001928E-02 0. -1.
    10030    2    1    2    0    0  0.00000000000E+00  0.00000000000E+00  0.74285854536E+03  0.18993358084E+04  0.17480382418E+04 0.  0.
        5    1    3    3  502    0  0.86697873744E+03 -0.90637019595E+02  0.44032163034E+03  0.97661273217E+03  0.46999998093E+01 0. -1.
       -5    1    3    3    0  502 -0.86697873744E+03  0.90637019595E+02  0.30253691502E+03  0.92272307625E+03  0.46999998093E+01 0.  1.
</event>
<event>
 5   0  0.3605571E-04  0.1689372E+04  0.7818609E-02  0.8767449E-01
       -2   -1    0    0    0  501  0.00000000000E+00  0.00000000000E+00  0.62797434111E+03  0.62797434112E+03  0.25500000920E-02 0. -1.
        2   -1    0    0  501    0  0.00000000000E+00  0.00000000000E+00 -0.11361835784E+04  0.11361835784E+04  0.25500000920E-02 0.  1.
    10030    2    1    2    0    0  0.00000000000E+00  0.00000000000E+00 -0.50820923729E+03  0.17641579195E+04  0.16893716394E+04 0.  0.
        4    1    3    3  502    0  0.83823568399E+03 -0.58969469783E+02 -0.34379058768E+03  0.90791521705E+03  0.12699999809E+01 0.  1.
       -4    1    3    3    0  502 -0.83823568399E+03  0.58969469783E+02 -0.16441864960E+03  0.85624270246E+03  0.12699999809E+01 0. -1.
</event>
<event>
 5   0  0.1930116E-04  0.1701910E+04  0.7818609E-02  0.8760276E-01
        1   -1    0    0  501    0  0.00000000000E+00  0.00000000000E+00  0.12539214997E+04  0.12539214997E+04  0.50400001928E-02 0. -1.
       -1   -1    0    0    0  501  0.00000000000E+00  0.00000000000E+00 -0.57748750495E+03  0.57748750497E+03  0.50400001928E-02 0.  1.
    10030    2    1    2    0    0  0.00000000000E+00  0.00000000000E+00  0.67643399479E+03  0.18314090047E+04  0.17019095138E+04 0.  0.
        1    1    3    3  502    0  0.50701451371E+03 -0.34403116998E+03 -0.29722602976E+03  0.68100255200E+03  0.50400001928E-02 0.  1.
       -1    1    3    3    0  502 -0.50701451371E+03  0.34403116998E+03  0.97366002455E+03  0.11504064527E+04  0.50400001928E-02 0. -1.
</event>
<event>
 5   0  0.3573262E-04  0.1698896E+04  0.7818609E-02  0.8761994E-01
       -2   -1    0    0    0  501  0.00000000000E+00  0.00000000000E+00  0.56460747143E+03  0.56460747144E+03  0.25500000920E-02 0.  1.
        2   -1    0    0  501    0  0.00000000000E+00  0.00000000000E+00 -0.12779885824E+04  0.12779885824E+04  0.25500000920E-02 0. -1.
    10030    2    1    2    0    0  0.00000000000E+00  0.00000000000E+00 -0.71338111094E+03  0.18425960538E+04  0.16988959968E+04 0.  0.
        5    1    3    3  502    0 -0.11596777703E+01 -0.82259565591E+03 -0.58644550089E+03  0.10102501539E+04  0.46999998093E+01 0. -1.
       -5    1    3    3    0  502  0.11596777703E+01  0.82259565591E+03 -0.12693561006E+03  0.83234589990E+03  0.46999998093E+01 0.  1.
</event>
<event>
 5   0  0.1815663E-04  0.1690537E+04  0.7818609E-02  0.8766780E-01
        1   -1    0    0  501    0  0.00000000000E+00  0.00000000000E+00  0.10347966937E+04  0.10347966937E+04  0.50400001928E-02 0. -1.
       -1   -1    0    0    0  501  0.00000000000E+00  0.00000000000E+00 -0.69045337319E+03  0.69045337321E+03  0.50400001928E-02 0.  1.
    10030    2    1    2    0    0  0.00000000000E+00  0.00000000000E+00  0.34434332053E+03  0.17252500669E+04  0.16905370363E+04 0.  0.
        5    1    3    3  502    0  0.29265103640E+03  0.10863298519E+03 -0.62945808673E+03  0.70262744576E+03  0.46999998093E+01 0.  1.
       -5    1    3    3    0  502 -0.29265103640E+03 -0.10863298519E+03  0.97380140726E+03  0.10226226212E+04  0.46999998093E+01 0. -1.
</event>
<event>
 5   0  0.1815663E-04  0.1673174E+04  0.7818609E-02  0.8776814E-01
       -1   -1    0    0    0  501  0.00000000000E+00  0.00000000000E+00  0.70683454859E+03  0.70683454860E+03  0.50400001928E-02 0.  1.
        1   -1    0    0  501    0  0.00000000000E+00  0.00000000000E+00 -0.99015773417E+03  0.99015773418E+03  0.50400001928E-02 0. -1.
    10030    2    1    2    0    0  0.00000000000E+00  0.00000000000E+00 -0.28332318558E+03  0.16969922828E+04  0.16731738643E+04 0.  0.
        5    1    3    3  502    0 -0.19942968893E+03  0.77859793682E+03 -0.37706181558E+03  0.88779764069E+03  0.46999998093E+01 0.  1.
       -5    1    3    3    0  502  0.19942968893E+03 -0.77859793682E+03  0.93738630000E+02  0.80919464210E+03  0.46999998093E+01 0. -1.
</event>
<event>
 5   0  0.3573262E-04  0.1655624E+04  0.7818609E-02  0.8787087E-01
        2   -1    0    0  501    0  0.00000000000E+00  0.00000000000E+00  0.79336352807E+03  0.79336352807E+03  0.25500000920E-02 0. -1.
       -2   -1    0    0    0  501  0.00000000000E+00  0.00000000000E+00 -0.86375590550E+03  0.86375590550E+03  0.25500000920E-02 0.  1.
    10030    2    1    2    0    0  0.00000000000E+00  0.00000000000E+00 -0.70392377431E+02  0.16571194336E+04  0.16556236681E+04 0.  0.
        5    1    3    3  502    0  0.65604724345E+03  0.32824239070E+03 -0.41909099251E+03  0.84486709173E+03  0.46999998093E+01 0.  1.
       -5    1    3    3    0  502 -0.65604724345E+03 -0.32824239070E+03  0.34869861508E+03  0.81225234185E+03  0.46999998093E+01 0. -1.
</event>
<event>
 5   0  0.1920289E-04  0.1698450E+04  0.7818609E-02  0.8762249E-01
        1   -1    0    0  501    0  0.00000000000E+00  0.00000000000E+00  0.14534880778E+04  0.14534880778E+04  0.50400001928E-02 0. -1.
       -1   -1    0    0    0  501  0.00000000000E+00  0.00000000000E+00 -0.49617425212E+03  0.49617425214E+03  0.50400001928E-02 0.  1.
    10030    2    1    2    0    0  0.00000000000E+00  0.00000000000E+00  0.95731382565E+03  0.19496623299E+04  0.16984503054E+04 0.  0.
        4    1    3    3  502    0  0.74684918547E+03 -0.28175689753E+03  0.81137382045E+03  0.11382002216E+04  0.12699999809E+01 0. -1.
       -4    1    3    3    0  502 -0.74684918547E+03  0.28175689753E+03  0.14594000520E+03  0.81146210827E+03  0.12699999809E+01 0.  1.
</event>
<event>
 5   0  0.1920289E-04  0.1682076E+04  0.7818609E-02  0.8771654E-01
        1   -1    0    0  501    0  0.00000000000E+00  0.00000000000E+00  0.14356917834E+04  0.14356917834E+04  0.50400001928E-02 0. -1.
       -1   -1    0    0    0  501  0.00000000000E+00  0.00000000000E+00 -0.49268586806E+03  0.49268586809E+03  0.50400001928E-02 0.  1.
    10030    2    1    2    0    0  0.00000000000E+00  0.00000000000E+00  0.94300591529E+03  0.19283776515E+04  0.16820761607E+04 0.  0.
        4    1    3    3  502    0 -0.65413332094E+02  0.59304786249E+03  0.11510536073E+04  0.12964993987E+04  0.12699999809E+01 0. -1.
       -4    1    3    3    0  502  0.65413332094E+02 -0.59304786249E+03 -0.20804769198E+03  0.63187825272E+03  0.12699999809E+01 0.  1.
</event>
<event>
 5   0  0.1815663E-04  0.1675143E+04  0.7818609E-02  0.8775670E-01
        1   -1    0    0  501    0  0.00000000000E+00  0.00000000000E+00  0.14969968605E+04  0.14969968605E+04  0.50400001928E-02 0. -1.
       -1   -1    0    0    0  501  0.00000000000E+00  0.00000000000E+00 -0.46862206053E+03  0.46862206055E+03  0.50400001928E-02 0.  1.
    10030    2    1    2    0    0  0.00000000000E+00  0.00000000000E+00  0.10283747999E+04  0.19656189210E+04  0.16751426845E+04 0.  0.
        5    1    3    3  502    0  0.56369710284E+03 -0.46698103658E+03  0.36570289896E+02  0.73292918374E+03  0.46999998093E+01 0.  1.
       -5    1    3    3    0  502 -0.56369710284E+03  0.46698103658E+03  0.99180451005E+03  0.12326897373E+04  0.46999998093E+01 0. -1.
</event>
<event>
 5   0  0.1920289E-04  0.1679799E+04  0.7818609E-02  0.8772970E-01
        1   -1    0    0  501    0  0.00000000000E+00  0.00000000000E+00  0.31919336797E+03  0.31919336801E+03  0.50400001928E-02 0. -1.
       -1   -1    0    0    0  501  0.00000000000E+00  0.00000000000E+00 -0.22100425271E+04  0.22100425271E+04  0.50400001928E-02 0.  1.
    10030    2    1    2    0    0  0.00000000000E+00  0.00000000000E+00 -0.18908491591E+04  0.25292358951E+04  0.16797986994E+04 0.  0.
        4    1    3    3  502    0 -0.15634080170E+02  0.94853755902E+02  0.31088089419E+03  0.32540774844E+03  0.12699999809E+01 0. -1.
       -4    1    3    3    0  502  0.15634080170E+02 -0.94853755902E+02 -0.22017300533E+04  0.22038281467E+04  0.12699999809E+01 0.  1.
</event>
<event>
 5   0  0.1920289E-04  0.1705318E+04  0.7818609E-02  0.8758337E-01
        1   -1    0    0  501    0  0.00000000000E+00  0.00000000000E+00  0.10327636443E+04  0.10327636443E+04  0.50400001928E-02 0. -1.
       -1   -1    0    0    0  501  0.00000000000E+00  0.00000000000E+00 -0.70396271701E+03  0.70396271702E+03  0.50400001928E-02 0.  1.
    10030    2    1    2    0    0  0.00000000000E+00  0.00000000000E+00  0.32880092730E+03  0.17367263613E+04  0.17053176843E+04 0.  0.
        4    1    3    3  502    0 -0.51522465863E+03 -0.21604395778E+03  0.82038666292E+03  0.99255595820E+03  0.12699999809E+01 0. -1.
       -4    1    3    3    0  502  0.51522465863E+03  0.21604395778E+03 -0.49158573562E+03  0.74417040315E+03  0.12699999809E+01 0.  1.
</event>
<event>
 5   0  0.1920289E-04  0.1701503E+04  0.7818609E-02  0.8760508E-01
       -1   -1    0    0    0  501  0.00000000000E+00  0.00000000000E+00  0.10087238332E+04  0.10087238332E+04  0.50400001928E-02 0.  1.
        1   -1    0    0  501    0  0.00000000000E+00  0.00000000000E+00 -0.71751871141E+03  0.71751871143E+03  0.50400001928E-02 0. -1.
    10030    2    1    2    0    0  0.00000000000E+00  0.00000000000E+00  0.29120512175E+03  0.17262425446E+04  0.17015031295E+04 0.  0.
        4    1    3    3  502    0 -0.84345094519E+03  0.10603769886E+03  0.17960283684E+03  0.86885688259E+03  0.12699999809E+01 0.  1.
       -4    1    3    3    0  502  0.84345094519E+03 -0.10603769886E+03  0.11160228491E+03  0.85738566201E+03  0.12699999809E+01 0. -1.
</event>
<event>
 5   0  0.1930116E-04  0.1709739E+04  0.7818609E-02  0.8755829E-01
       -1   -1    0    0    0  501  0.00000000000E+00  0.00000000000E+00  0.49674749774E+03  0.49674749776E+03  0.50400001928E-02 0. -1.
        1   -1    0    0  501    0  0.00000000000E+00  0.00000000000E+00 -0.14711731127E+04  0.14711731127E+04  0.50400001928E-02 0.  1.
    10030    2    1    2    0    0  0.00000000000E+00  0.00000000000E+00 -0.97442561499E+03  0.19679206105E+04  0.17097386496E+04 0.  0.
        1    1    3    3  502    0  0.17965253431E+03 -0.82430518273E+03 -0.32835931026E+03  0.90530321110E+03  0.50400001928E-02 0.  1.
       -1    1    3    3    0  502 -0.17965253431E+03  0.82430518273E+03 -0.64606630473E+03  0.10626173994E+04  0.50400001928E-02 0. -1.
</event>
<event>
 5   0  0.3678896E-04  0.1701770E+04  0.7818609E-02  0.8760356E-01
        2   -1    0    0  501    0  0.00000000000E+00  0.00000000000E+00  0.10873559477E+04  0.10873559477E+04  0.25500000920E-02 0. -1.
       -2   -1    0    0    0  501  0.00000000000E+00  0.00000000000E+00 -0.66584003256E+03  0.66584003256E+03  0.25500000920E-02 0.  1.
    10030    2    1    2    0    0  0.00000000000E+00  0.00000000000E+00  0.42151591511E+03  0.17531959802E+04  0.17017698077E+04 0.  0.
        2    1    3    3  502    0 -0.79787932806E+03 -0.20308703306E+03 -0.10557866558E+02  0.82338765700E+03  0.25500000920E-02 0.  1.
       -2    1    3    3    0  502  0.79787932806E+03  0.20308703306E+03  0.43207378166E+03  0.92980832323E+03  0.25500000920E-02 0. -1.
</event>
<event>
 5   0  0.1930116E-04  0.1692153E+04  0.7818609E-02  0.8765853E-01
        1   -1    0    0  501    0  0.00000000000E+00  0.00000000000E+00  0.36096000490E+03  0.36096000493E+03  0.50400001928E-02 0. -1.
       -1   -1    0    0    0  501  0.00000000000E+00  0.00000000000E+00 -0.19831704490E+04  0.19831704490E+04  0.50400001928E-02 0.  1.
    10030    2    1    2    0    0  0.00000000000E+00  0.00000000000E+00 -0.16222104441E+04  0.23441304540E+04  0.16921527296E+04 0.  0.
        1    1    3    3  502    0  0.33769450241E+02 -0.38838972980E+03 -0.18513299908E+04  0.18919327929E+04  0.50400001928E-02 0.  1.
       -1    1    3    3    0  502 -0.33769450241E+02  0.38838972980E+03  0.22911954667E+03  0.45219766107E+03  0.50400001928E-02 0. -1.
</event>
<event>
 5   0  0.1930116E-04  0.1690969E+04  0.7818609E-02  0.8766532E-01
        1   -1    0    0  501    0  0.00000000000E+00  0.00000000000E+00  0.72801396318E+03  0.72801396320E+03  0.50400001928E-02 0.  1.
       -1   -1    0    0    0  501  0.00000000000E+00  0.00000000000E+00 -0.98191001773E+03  0.98191001774E+03  0.50400001928E-02 0. -1.
    10030    2    1    2    0    0  0.00000000000E+00  0.00000000000E+00 -0.25389605455E+03  0.17099239809E+04  0.16909691937E+04 0.  0.
        1    1    3    3  502    0  0.52680902674E+03  0.23346401170E+03 -0.75260071765E+03  0.94786129557E+03  0.50400001928E-02 0. -1.
       -1    1    3    3    0  502 -0.52680902674E+03 -0.23346401170E+03  0.49870466309E+03  0.76206268537E+03  0.50400001928E-02 0.  1.
</event>
<event>
 5   0  0.3573262E-04  0.1689805E+04  0.7818609E-02  0.8767200E-01
       -2   -1    0    0    0  501  0.00000000000E+00  0.00000000000E+00  0.55050956868E+03  0.55050956868E+03  0.25500000920E-02 0.  1.
        2   -1    0    0  501    0  0.00000000000E+00  0.00000000000E+00 -0.12967261775E+04  0.12967261775E+04  0.25500000920E-02 0. -1.
    10030    2    1    2    0    0  0.00000000000E+00  0.00000000000E+00 -0.74621660886E+03  0.18472357462E+04  0.16898049221E+04 0.  0.
        5    1    3    3  502    0  0.35971215179E+03 -0.65278699007E+03  0.61848322636E+02  0.74791108533E+03  0.46999998093E+01 0.  1.
       -5    1    3    3    0  502 -0.35971215179E+03  0.65278699007E+03 -0.80806493150E+03  0.10993246609E+04  0.46999998093E+01 0. -1.
</event>
<event>
 5   0  0.1317625E-04  0.1702832E+04  0.7818609E-02  0.8759751E-01
        4   -1    0    0  501    0  0.00000000000E+00  0.00000000000E+00  0.11854750883E+04  0.11854757686E+04  0.12699999809E+01 0.  1.
       -4   -1    0    0    0  501  0.00000000000E+00  0.00000000000E+00 -0.61149139058E+03  0.61149270940E+03  0.12699999809E+01 0. -1.
    10030    2    1    2    0    0  0.00000000000E+00  0.00000000000E+00  0.57398369771E+03  0.17969684780E+04  0.17028324714E+04 0.  0.
        4    1    3    3  502    0  0.17268107401E+03  0.62730624384E+03  0.86650995313E+03  0.10835926304E+04  0.12699999809E+01 0.  1.
       -4    1    3    3    0  502 -0.17268107401E+03 -0.62730624384E+03 -0.29252625542E+03  0.71337584757E+03  0.12699999809E+01 0. -1.
</event>
<event>
 5   0  0.1824538E-04  0.1703326E+04  0.7818609E-02  0.8759469E-01
        1   -1    0    0  501    0  0.00000000000E+00  0.00000000000E+00  0.25184882858E+04  0.25184882858E+04  0.50400001928E-02 0. -1.
       -1   -1    0    0    0  501  0.00000000000E+00  0.00000000000E+00 -0.28800222072E+03  0.28800222076E+03  0.50400001928E-02 0.  1.
    10030    2    1    2    0    0  0.00000000000E+00  0.00000000000E+00  0.22304860651E+04  0.28064905066E+04  0.17033264153E+04 0.  0.
        3    1    3    3  502    0 -0.82707161912E+03  0.19422921779E+03  0.10169655945E+04  0.13251382882E+04  0.10100000352E+00 0.  1.
       -3    1    3    3    0  502  0.82707161912E+03 -0.19422921779E+03  0.12135204705E+04  0.14813522184E+04  0.10100000352E+00 0. -1.
</event>
<event>
 5   0  0.1920289E-04  0.1722078E+04  0.7818609E-02  0.8748872E-01
        1   -1    0    0  501    0  0.00000000000E+00  0.00000000000E+00  0.19749087054E+04  0.19749087054E+04  0.50400001928E-02 0.  1.
       -1   -1    0    0    0  501  0.00000000000E+00  0.00000000000E+00 -0.37540384992E+03  0.37540384995E+03  0.50400001928E-02 0. -1.
    10030    2    1    2    0    0  0.00000000000E+00  0.00000000000E+00  0.15995048555E+04  0.23503125554E+04  0.17220781995E+04 0.  0.
        4    1    3    3  502    0  0.11692026363E+03 -0.74305937436E+03  0.22786676855E+03  0.78595957847E+03  0.12699999809E+01 0. -1.
       -4    1    3    3    0  502 -0.11692026363E+03  0.74305937436E+03  0.13716380870E+04  0.15643529769E+04  0.12699999809E+01 0.  1.
</event>
<event>
 5   0  0.1920289E-04  0.1671313E+04  0.7818609E-02  0.8777897E-01
        1   -1    0    0  501    0  0.00000000000E+00  0.00000000000E+00  0.73582090698E+03  0.73582090699E+03  0.50400001928E-02 0. -1.
       -1   -1    0    0    0  501  0.00000000000E+00  0.00000000000E+00 -0.94903743956E+03  0.94903743957E+03  0.50400001928E-02 0.  1.
    10030    2    1    2    0    0  0.00000000000E+00  0.00000000000E+00 -0.21321653258E+03  0.16848583466E+04  0.16713127649E+04 0.  0.
        4    1    3    3  502    0  0.52727206324E+03 -0.38198357728E+02 -0.75903590172E+03  0.92499300333E+03  0.12699999809E+01 0.  1.
       -4    1    3    3    0  502 -0.52727206324E+03  0.38198357728E+02  0.54581936914E+03  0.75986534323E+03  0.12699999809E+01 0. -1.
</event>
<event>
 5   0  0.3605571E-04  0.1703058E+04  0.7818609E-02  0.8759622E-01
       -2   -1    0    0    0  501  0.00000000000E+00  0.00000000000E+00  0.47106115967E+03  0.47106115968E+03  0.25500000920E-02 0. -1.
        2   -1    0    0  501    0  0.00000000000E+00  0.00000000000E+00 -0.15392940664E+04  0.15392940664E+04  0.25500000920E-02 0.  1.
    10030    2    1    2    0    0  0.00000000000E+00  0.00000000000E+00 -0.10682329067E+04  0.20103552261E+04  0.17030580119E+04 0.  0.
        4    1    3    3  502    0 -0.67355616668E+03  0.47307826825E+03 -0.79170933089E+03  0.11420535167E+04  0.12699999809E+01 0.  1.
       -4    1    3    3    0  502  0.67355616668E+03 -0.47307826825E+03 -0.27652357583E+03  0.86830170935E+03  0.12699999809E+01 0. -1.
</event>
<event>
 5   0  0.1317625E-04  0.1691803E+04  0.7818609E-02  0.8766053E-01
       -3   -1    0    0    0  501  0.00000000000E+00  0.00000000000E+00  0.54437599955E+03  0.54437600892E+03  0.10100000352E+00 0.  1.
        3   -1    0    0  501    0  0.00000000000E+00  0.00000000000E+00 -0.13144401205E+04  0.13144401243E+04  0.10100000352E+00 0. -1.
    10030    2    1    2    0    0  0.00000000000E+00  0.00000000000E+00 -0.77006412091E+03  0.18588161333E+04  0.16918033772E+04 0.  0.
        3    1    3    3  502    0 -0.64119625134E+03  0.37678218791E+03  0.57810500010E+02  0.74594873414E+03  0.10100000352E+00 0.  1.
       -3    1    3    3    0  502  0.64119625134E+03 -0.37678218791E+03 -0.82787462092E+03  0.11128673991E+04  0.10100000352E+00 0. -1.
</event>
<event>
 5   0  0.1824538E-04  0.1712082E+04  0.7818609E-02  0.8754503E-01
       -1   -1    0    0    0  501  0.00000000000E+00  0.00000000000E+00  0.47290675635E+03  0.47290675638E+03  0.50400001928E-02 0. -1.
        1   -1    0    0  501    0  0.00000000000E+00  0.00000000000E+00 -0.15495785727E+04  0.15495785727E+04  0.50400001928E-02 0.  1.
    10030    2    1    2    0    0  0.00000000000E+00  0.00000000000E+00 -0.10766718163E+04  0.20224853291E+04  0.17120819800E+04 0.  0.
        3    1    3    3  502    0 -0.83718278594E+03 -0.10909415823E+03 -0.70552083250E+03  0.11002437038E+04  0.10100000352E+00 0.  1.
       -3    1    3    3    0  502  0.83718278594E+03  0.10909415823E+03 -0.37115098384E+03  0.92224162530E+03  0.10100000352E+00 0. -1.
</event>
<event>
 5   0  0.3678896E-04  0.1694981E+04  0.7818609E-02  0.8764232E-01
       -2   -1    0    0    0  501  0.00000000000E+00  0.00000000000E+00  0.45302450427E+03  0.45302450428E+03  0.25500000920E-02 0.  1.
        2   -1    0    0  501    0  0.00000000000E+00  0.00000000000E+00 -0.15854331732E+04  0.15854331732E+04  0.25500000920E-02 0. -1.
    10030    2    1    2    0    0  0.00000000000E+00  0.00000000000E+00 -0.11324086689E+04  0.20384576775E+04  0.16949809171E+04 0.  0.
        2    1    3    3  502    0 -0.91032392427E+02 -0.45233993530E+03 -0.14211322181E+04  0.14941603310E+04  0.25500000920E-02 0. -1.
       -2    1    3    3    0  502  0.91032392427E+02  0.45233993530E+03  0.28872354914E+03  0.54429734646E+03  0.25500000920E-02 0.  1.
</event>
<event>
 5   0  0.3573262E-04  0.1686229E+04  0.7818609E-02  0.8769257E-01
        2   -1    0    0  501    0  0.00000000000E+00  0.00000000000E+00  0.10609312533E+04  0.10609312533E+04  0.25500000920E-02 0. -1.
       -2   -1    0    0    0  501  0.00000000000E+00  0.00000000000E+00 -0.67001739705E+03  0.67001739705E+03  0.25500000920E-02 0.  1.
    10030    2    1    2    0    0  0.00000000000E+00  0.00000000000E+00  0.39091385624E+03  0.17309486503E+04  0.16862293993E+04 0.  0.
        5    1    3    3  502    0  0.15715368961E+03  0.42319782449E+03 -0.53548506101E+03  0.70039990104E+03  0.46999998093E+01 0.  1.
       -5    1    3    3    0  502 -0.15715368961E+03 -0.42319782449E+03  0.92639891725E+03  0.10305487493E+04  0.46999998093E+01 0. -1.
</event>
<event>
 5   0  0.3574092E-04  0.1702960E+04  0.7818609E-02  0.8759678E-01
        2   -1    0    0  501    0  0.00000000000E+00  0.00000000000E+00  0.77851433999E+03  0.77851433999E+03  0.25500000920E-02 0. -1.
       -2   -1    0    0    0  501  0.00000000000E+00  0.00000000000E+00 -0.93128458713E+03  0.93128458714E+03  0.25500000920E-02 0.  1.
    10030    2    1    2    0    0  0.00000000000E+00  0.00000000000E+00 -0.15277024715E+03  0.17097989271E+04  0.17029602529E+04 0.  0.
        3    1    3    3  502    0 -0.13518364485E+03  0.79246712914E+03  0.20534754238E+03  0.82972669715E+03  0.10100000352E+00 0. -1.
       -3    1    3    3    0  502  0.13518364485E+03 -0.79246712914E+03 -0.35811778953E+03  0.88007222998E+03  0.10100000352E+00 0.  1.
</event>
<event>
 5   0  0.1893284E-04  0.1616251E+04  0.7818609E-02  0.8810626E-01
        1   -1    0    0  501    0  0.00000000000E+00  0.00000000000E+00  0.20205439058E+04  0.20205439059E+04  0.50400001928E-02 0.  1.
       -1   -1    0    0    0  501  0.00000000000E+00  0.00000000000E+00 -0.32321335128E+03  0.32321335132E+03  0.50400001928E-02 0. -1.
    10030    2    1    2    0    0  0.00000000000E+00  0.00000000000E+00  0.16973305546E+04  0.23437572572E+04  0.16162509301E+04 0.  0.
        2    1    3    3  502    0  0.48956796303E+02 -0.24618029219E+03  0.19625849303E+04  0.19785704721E+04  0.25500000920E-02 0.  1.
       -2    1    3    3    0  502 -0.48956796303E+02  0.24618029219E+03 -0.26525437575E+03  0.36518678512E+03  0.25500000920E-02 0. -1.
</event>
<event>
 5   0  0.3574092E-04  0.1683941E+04  0.7818609E-02  0.8770577E-01
       -2   -1    0    0    0  501  0.00000000000E+00  0.00000000000E+00  0.51478695143E+03  0.51478695144E+03  0.25500000920E-02 0. -1.
        2   -1    0    0  501    0  0.00000000000E+00  0.00000000000E+00 -0.13771027165E+04  0.13771027165E+04  0.25500000920E-02 0.  1.
    10030    2    1    2    0    0  0.00000000000E+00  0.00000000000E+00 -0.86231576512E+03  0.18918896680E+04  0.16839412214E+04 0.  0.
        3    1    3    3  502    0 -0.67354140185E+03  0.11240205652E+03 -0.98455156413E+03  0.11981794669E+04  0.10100000352E+00 0.  1.
       -3    1    3    3    0  502  0.67354140185E+03 -0.11240205652E+03  0.12223579901E+03  0.69371020107E+03  0.10100000352E+00 0. -1.
</event>
<event>
 5   0  0.1815663E-04  0.1672158E+04  0.7818609E-02  0.8777405E-01
        1   -1    0    0  501    0  0.00000000000E+00  0.00000000000E+00  0.67297264258E+03  0.67297264260E+03  0.50400001928E-02 0.  1.
       -1   -1    0    0    0  501  0.00000000000E+00  0.00000000000E+00 -0.10387168762E+04  0.10387168762E+04  0.50400001928E-02 0. -1.
    10030    2    1    2    0    0  0.00000000000E+00  0.00000000000E+00 -0.36574423362E+03  0.17116895188E+04  0.16721579364E+04 0.  0.
        5    1    3    3  502    0 -0.32107693646E+03 -0.25199273810E+03 -0.92979011508E+03  0.10154420157E+04  0.46999998093E+01 0. -1.
       -5    1    3    3    0  502  0.32107693646E+03  0.25199273810E+03  0.56404588146E+03  0.69624750310E+03  0.46999998093E+01 0.  1.
</event>
<event>
 5   0  0.1824538E-04  0.1681044E+04  0.7818609E-02  0.8772250E-01
       -1   -1    0    0    0  501  0.00000000000E+00  0.00000000000E+00  0.89430217358E+03  0.89430217360E+03  0.50400001928E-02 0.  1.
        1   -1    0    0  501    0  0.00000000000E+00  0.00000000000E+00 -0.78997600156E+03  0.78997600158E+03  0.50400001928E-02 0. -1.
    10030    2    1    2    0    0  0.00000000000E+00  0.00000000000E+00  0.10432617202E+03  0.16842781752E+04  0.16810440271E+04 0.  0.
        3    1    3    3  502    0  0.24329557028E+03  0.25335560540E+03  0.81723905085E+03  0.88952879310E+03  0.10100000352E+00 0.  1.
       -3    1    3    3    0  502 -0.24329557028E+03 -0.25335560540E+03 -0.71291287884E+03  0.79474938208E+03  0.10100000352E+00 0. -1.
</event>
<event>
 5   0  0.1920289E-04  0.1666214E+04  0.7818609E-02  0.8780872E-01
       -1   -1    0    0    0  501  0.00000000000E+00  0.00000000000E+00  0.48115913737E+03  0.48115913740E+03  0.50400001928E-02 0. -1.
        1   -1    0    0  501    0  0.00000000000E+00  0.00000000000E+00 -0.14424899906E+04  0.14424899906E+04  0.50400001928E-02 0.  1.
    10030    2    1    2    0    0  0.00000000000E+00  0.00000000000E+00 -0.96133085323E+03  0.19236491280E+04  0.16662139593E+04 0.  0.
        4    1    3    3  502    0  0.27194144852E+03 -0.49723296811E+03  0.22431242491E+03  0.60951657308E+03  0.12699999809E+01 0. -1.
       -4    1    3    3    0  502 -0.27194144852E+03  0.49723296811E+03 -0.11856432781E+04  0.13141325549E+04  0.12699999809E+01 0.  1.
</event>
<event>
 5   0  0.3605571E-04  0.1701598E+04  0.7818609E-02  0.8760453E-01
       -2   -1    0    0    0  501  0.00000000000E+00  0.00000000000E+00  0.89053831014E+03  0.89053831014E+03  0.25500000920E-02 0. -1.
        2   -1    0    0  501    0  0.00000000000E+00  0.00000000000E+00 -0.81283304022E+03  0.81283304023E+03  0.25500000920E-02 0.  1.
    10030    2    1    2    0    0  0.00000000000E+00  0.00000000000E+00  0.77705269914E+02  0.17033713504E+04  0.17015980278E+04 0.  0.
        4    1    3    3  502    0  0.43537934208E+03  0.44635099510E+03  0.61831076475E+03  0.87811969403E+03  0.12699999809E+01 0. -1.
       -4    1    3    3    0  502 -0.43537934208E+03 -0.44635099510E+03 -0.54060549484E+03  0.82525165633E+03  0.12699999809E+01 0.  1.
</event>
<event>
 5   0  0.1920289E-04  0.1728424E+04  0.7818609E-02  0.8745317E-01
       -1   -1    0    0    0  501  0.00000000000E+00  0.00000000000E+00  0.79641964227E+03  0.79641964228E+03  0.50400001928E-02 0.  1.
        1   -1    0    0  501    0  0.00000000000E+00  0.00000000000E+00 -0.93777519345E+03  0.93777519346E+03  0.50400001928E-02 0. -1.
    10030    2    1    2    0    0  0.00000000000E+00  0.00000000000E+00 -0.14135555118E+03  0.17341948357E+04  0.17284242351E+04 0.  0.
        4    1    3    3  502    0 -0.61792238190E+02  0.36776530493E+03 -0.85289037397E+03  0.93085616672E+03  0.12699999809E+01 0. -1.
       -4    1    3    3    0  502  0.61792238190E+02 -0.36776530493E+03  0.71153482279E+03  0.80333866903E+03  0.12699999809E+01 0.  1.
</event>
<event>
 5   0  0.3573262E-04  0.1707856E+04  0.7818609E-02  0.8756897E-01
        2   -1    0    0  501    0  0.00000000000E+00  0.00000000000E+00  0.87381748607E+03  0.87381748608E+03  0.25500000920E-02 0. -1.
       -2   -1    0    0    0  501  0.00000000000E+00  0.00000000000E+00 -0.83449112459E+03  0.83449112459E+03  0.25500000920E-02 0.  1.
    10030    2    1    2    0    0  0.00000000000E+00  0.00000000000E+00  0.39326361482E+02  0.17083086107E+04  0.17078558916E+04 0.  0.
        5    1    3    3  502    0  0.63158125076E+03 -0.55440484644E+03 -0.13174152470E+03  0.85066887177E+03  0.46999998093E+01 0.  1.
       -5    1    3    3    0  502 -0.63158125076E+03  0.55440484644E+03  0.17106788618E+03  0.85763973890E+03  0.46999998093E+01 0. -1.
</event>
<event>
 5   0  0.1824538E-04  0.1691961E+04  0.7818609E-02  0.8765962E-01
        1   -1    0    0  501    0  0.00000000000E+00  0.00000000000E+00  0.14470739050E+04  0.14470739050E+04  0.50400001928E-02 0.  1.
       -1   -1    0    0    0  501  0.00000000000E+00  0.00000000000E+00 -0.49457267753E+03  0.49457267756E+03  0.50400001928E-02 0. -1.
    10030    2    1    2    0    0  0.00000000000E+00  0.00000000000E+00  0.95250122745E+03  0.19416465825E+04  0.16919612476E+04 0.  0.
        3    1    3    3  502    0  0.41579234309E+03 -0.17399656619E+03  0.12978069553E+04  0.13738489659E+04  0.10100000352E+00 0.  1.
       -3    1    3    3    0  502 -0.41579234309E+03  0.17399656619E+03 -0.34530572784E+03  0.56779761667E+03  0.10100000352E+00 0. -1.
</event>
<event>
 5   0  0.3678896E-04  0.1700892E+04  0.7818609E-02  0.8760856E-01
        2   -1    0    0  501    0  0.00000000000E+00  0.00000000000E+00  0.11019270513E+04  0.11019270513E+04  0.25500000920E-02 0.  1.
       -2   -1    0    0    0  501  0.00000000000E+00  0.00000000000E+00 -0.65635809069E+03  0.65635809070E+03  0.25500000920E-02 0. -1.
    10030    2    1    2    0    0  0.00000000000E+00  0.00000000000E+00  0.44556896058E+03  0.17582851420E+04  0.17008923957E+04 0.  0.
        2    1    3    3  502    0 -0.11316729198E+03  0.83313179714E+03  0.35493913074E+03  0.91263202547E+03  0.25500000920E-02 0.  1.
       -2    1    3    3    0  502  0.11316729198E+03 -0.83313179714E+03  0.90629829833E+02  0.84565311650E+03  0.25500000920E-02 0. -1.
</event>
<event>
 5   0  0.3605571E-04  0.1741795E+04  0.7818609E-02  0.8737880E-01
        2   -1    0    0  501    0  0.00000000000E+00  0.00000000000E+00  0.10494016815E+04  0.10494016815E+04  0.25500000920E-02 0.  1.
       -2   -1    0    0    0  501  0.00000000000E+00  0.00000000000E+00 -0.72275681113E+03  0.72275681113E+03  0.25500000920E-02 0. -1.
    10030    2    1    2    0    0  0.00000000000E+00  0.00000000000E+00  0.32664487035E+03  0.17721584926E+04  0.17417947214E+04 0.  0.
        4    1    3    3  502    0 -0.28892022226E+03 -0.24725195529E+03 -0.63382286517E+03  0.73914914702E+03  0.12699999809E+01 0. -1.
       -4    1    3    3    0  502  0.28892022226E+03  0.24725195529E+03  0.96046773551E+03  0.10330093456E+04  0.12699999809E+01 0.  1.
</event>
<event>
 5   0  0.3678896E-04  0.1705166E+04  0.7818609E-02  0.8758423E-01
        2   -1    0    0  501    0  0.00000000000E+00  0.00000000000E+00  0.69461255848E+03  0.69461255848E+03  0.25500000920E-02 0. -1.
       -2   -1    0    0    0  501  0.00000000000E+00  0.00000000000E+00 -0.10464798410E+04  0.10464798411E+04  0.25500000920E-02 0.  1.
    10030    2    1    2    0    0  0.00000000000E+00  0.00000000000E+00 -0.35186728257E+03  0.17410923995E+04  0.17051663142E+04 0.  0.
        2    1    3    3  502    0  0.19741414657E+03 -0.65637433132E+03  0.34179809668E+03  0.76591484317E+03  0.25500000920E-02 0. -1.
       -2    1    3    3    0  502 -0.19741414657E+03  0.65637433132E+03 -0.69366537924E+03  0.97517755637E+03  0.25500000920E-02 0.  1.
</event>
<event>
 5   0  0.1920289E-04  0.1692860E+04  0.7818609E-02  0.8765447E-01
        1   -1    0    0  501    0  0.00000000000E+00  0.00000000000E+00  0.47583764681E+03  0.47583764684E+03  0.50400001928E-02 0.  1.
       -1   -1    0    0    0  501  0.00000000000E+00  0.00000000000E+00 -0.15056478067E+04  0.15056478067E+04  0.50400001928E-02 0. -1.
    10030    2    1    2    0    0  0.00000000000E+00  0.00000000000E+00 -0.10298101598E+04  0.19814854535E+04  0.16928601942E+04 0.  0.
        4    1    3    3  502    0 -0.99684730159E+02 -0.76367910654E+03 -0.92591320351E+03  0.12043503213E+04  0.12699999809E+01 0. -1.
       -4    1    3    3    0  502  0.99684730159E+02  0.76367910654E+03 -0.10389695633E+03  0.77713513215E+03  0.12699999809E+01 0.  1.
</event>
<event>
 5   0  0.3573262E-04  0.1707889E+04  0.7818609E-02  0.8756878E-01
        2   -1    0    0  501    0  0.00000000000E+00  0.00000000000E+00  0.12768676449E+04  0.12768676449E+04  0.25500000920E-02 0. -1.
       -2   -1    0    0    0  501  0.00000000000E+00  0.00000000000E+00 -0.57110188332E+03  0.57110188333E+03  0.25500000920E-02 0.  1.
    10030    2    1    2    0    0  0.00000000000E+00  0.00000000000E+00  0.70576576155E+03  0.18479695282E+04  0.17078893603E+04 0.  0.
        5    1    3    3  502    0 -0.23152752900E+03 -0.28309192849E+02 -0.53595051422E+03  0.58452668953E+03  0.46999998093E+01 0.  1.
       -5    1    3    3    0  502  0.23152752900E+03  0.28309192849E+02  0.12417162758E+04  0.12634428387E+04  0.46999998093E+01 0. -1.
</event>
<event>
 5   0  0.1893284E-04  0.1692408E+04  0.7818609E-02  0.8765706E-01
        1   -1    0    0  501    0  0.00000000000E+00  0.00000000000E+00  0.64431412321E+03  0.64431412323E+03  0.50400001928E-02 0.  1.
       -1   -1    0    0    0  501  0.00000000000E+00  0.00000000000E+00 -0.11113544547E+04  0.11113544547E+04  0.50400001928E-02 0. -1.
    10030    2    1    2    0    0  0.00000000000E+00  0.00000000000E+00 -0.46704033151E+03  0.17556685780E+04  0.16924081908E+04 0.  0.
        2    1    3    3  502    0 -0.72609764943E+03  0.52628175656E+02  0.21396649037E+03  0.75879455743E+03  0.25500000920E-02 0.  1.
       -2    1    3    3    0  502  0.72609764943E+03 -0.52628175656E+02 -0.68100682188E+03  0.99687402054E+03  0.25500000920E-02 0. -1.
</event>
<event>
 5   0  0.1930116E-04  0.1702858E+04  0.7818609E-02  0.8759736E-01
        1   -1    0    0  501    0  0.00000000000E+00  0.00000000000E+00  0.62561410938E+03  0.62561410940E+03  0.50400001928E-02 0. -1.
       -1   -1    0    0    0  501  0.00000000000E+00  0.00000000000E+00 -0.11587515751E+04  0.11587515751E+04  0.50400001928E-02 0.  1.
    10030    2    1    2    0    0  0.00000000000E+00  0.00000000000E+00 -0.53313746573E+03  0.17843656845E+04  0.17028579914E+04 0.  0.
        1    1    3    3  502    0  0.56803182204E+03 -0.62898298894E+03 -0.18110773635E+03  0.86664858127E+03  0.50400001928E-02 0.  1.
       -1    1    3    3    0  502 -0.56803182204E+03  0.62898298894E+03 -0.35202972938E+03  0.91771710326E+03  0.50400001928E-02 0. -1.
</event>
<event>
 5   0  0.1815663E-04  0.1701845E+04  0.7818609E-02  0.8760313E-01
        1   -1    0    0  501    0  0.00000000000E+00  0.00000000000E+00  0.92808623222E+03  0.92808623223E+03  0.50400001928E-02 0.  1.
       -1   -1    0    0    0  501  0.00000000000E+00  0.00000000000E+00 -0.78017413419E+03  0.78017413420E+03  0.50400001928E-02 0. -1.
    10030    2    1    2    0    0  0.00000000000E+00  0.00000000000E+00  0.14791209803E+03  0.17082603664E+04  0.17018447317E+04 0.  0.
        5    1    3    3  502    0  0.42737404179E+03 -0.13465178052E+03 -0.65214296819E+03  0.79125989065E+03  0.46999998093E+01 0. -1.
       -5    1    3    3    0  502 -0.42737404179E+03  0.13465178052E+03  0.80005506623E+03  0.91700047578E+03  0.46999998093E+01 0.  1.
</event>
<event>
 5   0  0.1920289E-04  0.1694042E+04  0.7818609E-02  0.8764770E-01
        1   -1    0    0  501    0  0.00000000000E+00  0.00000000000E+00  0.13226256099E+04  0.13226256099E+04  0.50400001928E-02 0. -1.
       -1   -1    0    0    0  501  0.00000000000E+00  0.00000000000E+00 -0.54243961535E+03  0.54243961537E+03  0.50400001928E-02 0.  1.
    10030    2    1    2    0    0  0.00000000000E+00  0.00000000000E+00  0.78018599455E+03  0.18650652253E+04  0.16940419441E+04 0.  0.
        4    1    3    3  502    0 -0.69045326165E+03  0.31673515885E+03  0.80261517825E+03  0.11050971019E+04  0.12699999809E+01 0. -1.
       -4    1    3    3    0  502  0.69045326165E+03 -0.31673515885E+03 -0.22429183699E+02  0.75996812338E+03  0.12699999809E+01 0.  1.
</event>
<event>
 5   0  0.3516723E-04  0.1696496E+04  0.7818609E-02  0.8763366E-01
        2   -1    0    0  501    0  0.00000000000E+00  0.00000000000E+00  0.77775798658E+03  0.77775798658E+03  0.25500000920E-02 0. -1.
       -2   -1    0    0    0  501  0.00000000000E+00  0.00000000000E+00 -0.92512631838E+03  0.92512631838E+03  0.25500000920E-02 0.  1.
    10030    2    1    2    0    0  0.00000000000E+00  0.00000000000E+00 -0.14736833180E+03  0.17028843050E+04  0.16964956619E+04 0.  0.
        1    1    3    3  502    0 -0.33517256020E+03 -0.74928530685E+03 -0.28839449322E+03  0.87002327550E+03  0.50400001928E-02 0.  1.
       -1    1    3    3    0  502  0.33517256020E+03  0.74928530685E+03  0.14102616142E+03  0.83286102946E+03  0.50400001928E-02 0. -1.
</event>
<event>
 5   0  0.1930116E-04  0.1625202E+04  0.7818609E-02  0.8805213E-01
       -1   -1    0    0    0  501  0.00000000000E+00  0.00000000000E+00  0.67968007570E+03  0.67968007572E+03  0.50400001928E-02 0.  1.
        1   -1    0    0  501    0  0.00000000000E+00  0.00000000000E+00 -0.97151655282E+03  0.97151655283E+03  0.50400001928E-02 0. -1.
    10030    2    1    2    0    0  0.00000000000E+00  0.00000000000E+00 -0.29183647711E+03  0.16511966286E+04  0.16252020726E+04 0.  0.
        1    1    3    3  502    0 -0.70897399957E+03  0.35848657130E+03 -0.31942350619E+03  0.85626405401E+03  0.50400001928E-02 0. -1.
       -1    1    3    3    0  502  0.70897399957E+03 -0.35848657130E+03  0.27587029076E+02  0.79493257454E+03  0.50400001928E-02 0.  1.
</event>
<event>
 5   0  0.3574092E-04  0.1698284E+04  0.7818609E-02  0.8762343E-01
        2   -1    0    0  501    0  0.00000000000E+00  0.00000000000E+00  0.17571595253E+04  0.17571595253E+04  0.25500000920E-02 0. -1.
       -2   -1    0    0    0  501  0.00000000000E+00  0.00000000000E+00 -0.41034544405E+03  0.41034544406E+03  0.25500000920E-02 0.  1.
    10030    2    1    2    0    0  0.00000000000E+00  0.00000000000E+00  0.13468140812E+04  0.21675049693E+04  0.16982843174E+04 0.  0.
        3    1    3    3  502    0 -0.29033854602E+03 -0.71680621006E+03  0.11209009094E+04  0.13618099988E+04  0.10100000352E+00 0. -1.
       -3    1    3    3    0  502  0.29033854602E+03  0.71680621006E+03  0.22591317185E+03  0.80569497051E+03  0.10100000352E+00 0.  1.
</event>
<event>
 5   0  0.3516723E-04  0.1694964E+04  0.7818609E-02  0.8764242E-01
        2   -1    0    0  501    0  0.00000000000E+00  0.00000000000E+00  0.23655533712E+04  0.23655533712E+04  0.25500000920E-02 0. -1.
       -2   -1    0    0    0  501  0.00000000000E+00  0.00000000000E+00 -0.30361843300E+03  0.30361843301E+03  0.25500000920E-02 0.  1.
    10030    2    1    2    0    0  0.00000000000E+00  0.00000000000E+00  0.20619349382E+04  0.26691718042E+04  0.16949638436E+04 0.  0.
        1    1    3    3  502    0  0.24099317684E+03 -0.97416841081E+01  0.23103649565E+04  0.23229203266E+04  0.50400001928E-02 0. -1.
       -1    1    3    3    0  502 -0.24099317684E+03  0.97416841081E+01 -0.24843001831E+03  0.34625147756E+03  0.50400001928E-02 0.  1.
</event>
<event>
 5   0  0.3516723E-04  0.1704987E+04  0.7818609E-02  0.8758525E-01
        2   -1    0    0  501    0  0.00000000000E+00  0.00000000000E+00  0.68182160610E+03  0.68182160610E+03  0.25500000920E-02 0.  1.
       -2   -1    0    0    0  501  0.00000000000E+00  0.00000000000E+00 -0.10658874658E+04  0.10658874658E+04  0.25500000920E-02 0. -1.
    10030    2    1    2    0    0  0.00000000000E+00  0.00000000000E+00 -0.38406585971E+03  0.17477090719E+04  0.17049869253E+04 0.  0.
        1    1    3    3  502    0 -0.57294862222E+03 -0.22807910192E+03 -0.79538588440E+03  0.10064436922E+04  0.50400001928E-02 0. -1.
       -1    1    3    3    0  502  0.57294862222E+03  0.22807910192E+03  0.41132002468E+03  0.74126537972E+03  0.50400001928E-02 0.  1.
</event>
<event>
 5   0  0.3573262E-04  0.1696100E+04  0.7818609E-02  0.8763592E-01
       -2   -1    0    0    0  501  0.00000000000E+00  0.00000000000E+00  0.40097551790E+03  0.40097551791E+03  0.25500000920E-02 0.  1.
        2   -1    0    0  501    0  0.00000000000E+00  0.00000000000E+00 -0.17935972038E+04  0.17935972038E+04  0.25500000920E-02 0. -1.
    10030    2    1    2    0    0  0.00000000000E+00  0.00000000000E+00 -0.13926216859E+04  0.21945727218E+04  0.16960997232E+04 0.  0.
        5    1    3    3  502    0 -0.56720250740E+03  0.42226953811E+03 -0.13020082114E+04  0.14816469620E+04  0.46999998093E+01 0. -1.
       -5    1    3    3    0  502  0.56720250740E+03 -0.42226953811E+03 -0.90613474493E+02  0.71292575979E+03  0.46999998093E+01 0.  1.
</event>
<event>
 5   0  0.1815663E-04  0.1721193E+04  0.7818609E-02  0.8749369E-01
       -1   -1    0    0    0  501  0.00000000000E+00  0.00000000000E+00  0.54069658416E+03  0.54069658418E+03  0.50400001928E-02 0. -1.
        1   -1    0    0  501    0  0.00000000000E+00  0.00000000000E+00 -0.13697635604E+04  0.13697635604E+04  0.50400001928E-02 0.  1.
    10030    2    1    2    0    0  0.00000000000E+00  0.00000000000E+00 -0.82906697620E+03  0.19104601446E+04  0.17211931655E+04 0.  0.
        5    1    3    3  502    0  0.26885760011E+03  0.33345979341E+03 -0.12430182317E+04  0.13147609126E+04  0.46999998093E+01 0.  1.
       -5    1    3    3    0  502 -0.26885760011E+03 -0.33345979341E+03  0.41395125554E+03  0.59569923192E+03  0.46999998093E+01 0. -1.
</event>
<event>
 5   0  0.3574092E-04  0.1703972E+04  0.7818609E-02  0.8759102E-01
       -2   -1    0    0    0  501  0.00000000000E+00  0.00000000000E+00  0.33550595030E+03  0.33550595031E+03  0.25500000920E-02 0. -1.
        2   -1    0    0  501    0  0.00000000000E+00  0.00000000000E+00 -0.21635377644E+04  0.21635377644E+04  0.25500000920E-02 0.  1.
    10030    2    1    2    0    0  0.00000000000E+00  0.00000000000E+00 -0.18280318141E+04  0.24990437147E+04  0.17039715886E+04 0.  0.
        3    1    3    3  502    0  0.20960158180E+03  0.10119221823E+03 -0.21160076155E+04  0.21287698154E+04  0.10100000352E+00 0.  1.
       -3    1    3    3    0  502 -0.20960158180E+03 -0.10119221823E+03  0.28797580137E+03  0.37027389930E+03  0.10100000352E+00 0. -1.
</event>
<event>
 5   0  0.1893284E-04  0.1552600E+04  0.7818609E-02  0.8850209E-01
       -1   -1    0    0    0  501  0.00000000000E+00  0.00000000000E+00  0.42027907285E+03  0.42027907288E+03  0.50400001928E-02 0.  1.
        1   -1    0    0  501    0  0.00000000000E+00  0.00000000000E+00 -0.14339088233E+04  0.14339088233E+04  0.50400001928E-02 0. -1.
    10030    2    1    2    0    0  0.00000000000E+00  0.00000000000E+00 -0.10136297504E+04  0.18541878962E+04  0.15526002330E+04 0.  0.
        2    1    3    3  502    0 -0.45830701699E+03  0.51341410290E+03 -0.77878209477E+02  0.69260694365E+03  0.25500000920E-02 0.  1.
       -2    1    3    3    0  502  0.45830701699E+03 -0.51341410290E+03 -0.93575154096E+03  0.11615809525E+04  0.25500000920E-02 0. -1.
</event>
<event>
 5   0  0.1930116E-04  0.1679734E+04  0.7818609E-02  0.8773008E-01
       -1   -1    0    0    0  501  0.00000000000E+00  0.00000000000E+00  0.41481852574E+03  0.41481852577E+03  0.50400001928E-02 0.  1.
        1   -1    0    0  501    0  0.00000000000E+00  0.00000000000E+00 -0.17004453434E+04  0.17004453435E+04  0.50400001928E-02 0. -1.
    10030    2    1    2    0    0  0.00000000000E+00  0.00000000000E+00 -0.12856268177E+04  0.21152638692E+04  0.16797335866E+04 0.  0.
        1    1    3    3  502    0  0.55380418959E+03 -0.63139609157E+03 -0.64787028800E+03  0.10607054327E+04  0.50400001928E-02 0. -1.
       -1    1    3    3    0  502 -0.55380418959E+03  0.63139609157E+03 -0.63775652970E+03  0.10545584365E+04  0.50400001928E-02 0.  1.
</event>
<event>
 5   0  0.1824538E-04  0.1704441E+04  0.7818609E-02  0.8758836E-01
       -1   -1    0    0    0  501  0.00000000000E+00  0.00000000000E+00  0.99291738040E+03  0.99291738042E+03  0.50400001928E-02 0. -1.
        1   -1    0    0  501    0  0.00000000000E+00  0.00000000000E+00 -0.73146032231E+03  0.73146032232E+03  0.50400001928E-02 0.  1.
    10030    2    1    2    0    0  0.00000000000E+00  0.00000000000E+00  0.26145705810E+03  0.17243777027E+04  0.17044408668E+04 0.  0.
        3    1    3    3  502    0 -0.60858523520E+03 -0.37600539873E+03 -0.33785606592E+03  0.79114017713E+03  0.10100000352E+00 0.  1.
       -3    1    3    3    0  502  0.60858523520E+03  0.37600539873E+03  0.59931312402E+03  0.93323752561E+03  0.10100000352E+00 0. -1.
</event>
<event>
 5   0  0.1824538E-04  0.1697475E+04  0.7818609E-02  0.8762806E-01
       -1   -1    0    0    0  501  0.00000000000E+00  0.00000000000E+00  0.55151374410E+03  0.55151374412E+03  0.50400001928E-02 0.  1.
        1   -1    0    0  501    0  0.00000000000E+00  0.00000000000E+00 -0.13061414570E+04  0.13061414570E+04  0.50400001928E-02 0. -1.
    10030    2    1    2    0    0  0.00000000000E+00  0.00000000000E+00 -0.75462771292E+03  0.18576552011E+04  0.16974745539E+04 0.  0.
        3    1    3    3  502    0 -0.63360648676E+03 -0.45013498485E+02  0.23871841845E+03  0.67857931638E+03  0.10100000352E+00 0. -1.
       -3    1    3    3    0  502  0.63360648676E+03  0.45013498485E+02 -0.99334613137E+03  0.11790758848E+04  0.10100000352E+00 0.  1.
</event>
<event>
 5   0  0.3678896E-04  0.1700807E+04  0.7818609E-02  0.8760904E-01
       -2   -1    0    0    0  501  0.00000000000E+00  0.00000000000E+00  0.95225338381E+03  0.95225338382E+03  0.25500000920E-02 0.  1.
        2   -1    0    0  501    0  0.00000000000E+00  0.00000000000E+00 -0.75944692738E+03  0.75944692738E+03  0.25500000920E-02 0. -1.
    10030    2    1    2    0    0  0.00000000000E+00  0.00000000000E+00  0.19280645643E+03  0.17117003112E+04  0.17008067573E+04 0.  0.
        2    1    3    3  502    0  0.64648755269E+03  0.30627526956E+03 -0.36636273907E+03  0.80372405284E+03  0.25500000920E-02 0. -1.
       -2    1    3    3    0  502 -0.64648755269E+03 -0.30627526956E+03  0.55916919550E+03  0.90797625836E+03  0.25500000920E-02 0.  1.
</event>
<event>
 5   0  0.1815663E-04  0.1691338E+04  0.7818609E-02  0.8766320E-01
        1   -1    0    0  501    0  0.00000000000E+00  0.00000000000E+00  0.89870148476E+03  0.89870148477E+03  0.50400001928E-02 0.  1.
       -1   -1    0    0    0  501  0.00000000000E+00  0.00000000000E+00 -0.79576602932E+03  0.79576602934E+03  0.50400001928E-02 0. -1.
    10030    2    1    2    0    0  0.00000000000E+00  0.00000000000E+00  0.10293545544E+03  0.16944675141E+04  0.16913380645E+04 0.  0.
        5    1    3    3  502    0  0.80082595091E+03  0.72120397334E+02  0.31388838016E+03  0.86317527800E+03  0.46999998093E+01 0.  1.
       -5    1    3    3    0  502 -0.80082595091E+03 -0.72120397334E+02 -0.21095292472E+03  0.83129223610E+03  0.46999998093E+01 0. -1.
</event>
<event>
 5   0  0.3573262E-04  0.1677787E+04  0.7818609E-02  0.8774136E-01
        2   -1    0    0  501    0  0.00000000000E+00  0.00000000000E+00  0.11284206875E+04  0.11284206875E+04  0.25500000920E-02 0.  1.
       -2   -1    0    0    0  501  0.00000000000E+00  0.00000000000E+00 -0.62365238413E+03  0.62365238414E+03  0.25500000920E-02 0. -1.
    10030    2    1    2    0    0  0.00000000000E+00  0.00000000000E+00  0.50476830335E+03  0.17520730716E+04  0.16777869377E+04 0.  0.
        5    1    3    3  502    0  0.63409683570E+03  0.84449889656E+02 -0.31433138609E+03  0.71276706657E+03  0.46999998093E+01 0. -1.
       -5    1    3    3    0  502 -0.63409683570E+03 -0.84449889656E+02  0.81909968944E+03  0.10393060051E+04  0.46999998093E+01 0.  1.
</event>
<event>
 5   0  0.1893284E-04  0.1682472E+04  0.7818609E-02  0.8771425E-01
       -1   -1    0    0    0  501  0.00000000000E+00  0.00000000000E+00  0.11909240331E+04  0.11909240332E+04  0.50400001928E-02 0.  1.
        1   -1    0    0  501    0  0.00000000000E+00  0.00000000000E+00 -0.59422579791E+03  0.59422579793E+03  0.50400001928E-02 0. -1.
    10030    2    1    2    0    0  0.00000000000E+00  0.00000000000E+00  0.59669823523E+03  0.17851498311E+04  0.16824717339E+04 0.  0.
        2    1    3    3  502    0  0.77332922230E+03 -0.21176660479E+03  0.28266699813E+02  0.80229806636E+03  0.25500000920E-02 0. -1.
       -2    1    3    3    0  502 -0.77332922230E+03  0.21176660479E+03  0.56843153542E+03  0.98285176473E+03  0.25500000920E-02 0.  1.
</event>
<event>
 5   0  0.1317625E-04  0.1702554E+04  0.7818609E-02  0.8759909E-01
       -4   -1    0    0    0  501  0.00000000000E+00  0.00000000000E+00  0.55564049977E+03  0.55564195116E+03  0.12699999809E+01 0.  1.
        4   -1    0    0  501    0  0.00000000000E+00  0.00000000000E+00 -0.13042069256E+04  0.13042075439E+04  0.12699999809E+01 0. -1.
    10030    2    1    2    0    0  0.00000000000E+00  0.00000000000E+00 -0.74856642580E+03  0.18598494951E+04  0.17025535089E+04 0.  0.
        1    1    3    3  502    0 -0.78370092681E+03 -0.20375655287E+03 -0.66116408574E+03  0.10453907517E+04  0.50400001928E-02 0.  1.
       -1    1    3    3    0  502  0.78370092681E+03  0.20375655287E+03 -0.87402340055E+02  0.81445874334E+03  0.50400001928E-02 0. -1.
</event>
<event>
 5   0  0.1930116E-04  0.1745607E+04  0.7818609E-02  0.8735772E-01
       -1   -1    0    0    0  501  0.00000000000E+00  0.00000000000E+00  0.84704448775E+03  0.84704448776E+03  0.50400001928E-02 0.  1.
        1   -1    0    0  501    0  0.00000000000E+00  0.00000000000E+00 -0.89934583800E+03  0.89934583801E+03  0.50400001928E-02 0. -1.
    10030    2    1    2    0    0  0.00000000000E+00  0.00000000000E+00 -0.52301350253E+02  0.17463903258E+04  0.17456069829E+04 0.  0.
        1    1    3    3  502    0  0.81073413196E+02 -0.67276656169E+03  0.52418543420E+03  0.85671355440E+03  0.50400001928E-02 0.  1.
       -1    1    3    3    0  502 -0.81073413196E+02  0.67276656169E+03 -0.57648678445E+03  0.88967677137E+03  0.50400001928E-02 0. -1.
</event>
<event>
 5   0  0.1893284E-04  0.1872844E+04  0.7818609E-02  0.8668493E-01
       -1   -1    0    0    0  501  0.00000000000E+00  0.00000000000E+00  0.56055688241E+03  0.56055688243E+03  0.50400001928E-02 0.  1.
        1   -1    0    0  501    0  0.00000000000E+00  0.00000000000E+00 -0.15643128984E+04  0.15643128984E+04  0.50400001928E-02 0. -1.
    10030    2    1    2    0    0  0.00000000000E+00  0.00000000000E+00 -0.10037560160E+04  0.21248697809E+04  0.18728442129E+04 0.  0.
        2    1    3    3  502    0  0.19367295455E+02  0.77975255227E+03 -0.10897740940E+04  0.13401480183E+04  0.25500000920E-02 0. -1.
       -2    1    3    3    0  502 -0.19367295455E+02 -0.77975255227E+03  0.86018078020E+02  0.78472176257E+03  0.25500000920E-02 0.  1.
</event>
<event>
 5   0  0.3516723E-04  0.1694544E+04  0.7818609E-02  0.8764482E-01
       -2   -1    0    0    0  501  0.00000000000E+00  0.00000000000E+00  0.79804435326E+03  0.79804435327E+03  0.25500000920E-02 0.  1.
        2   -1    0    0  501    0  0.00000000000E+00  0.00000000000E+00 -0.89953674511E+03  0.89953674511E+03  0.25500000920E-02 0. -1.
    10030    2    1    2    0    0  0.00000000000E+00  0.00000000000E+00 -0.10149239185E+03  0.16975810984E+04  0.16945444461E+04 0.  0.
        1    1    3    3  502    0 -0.45626263738E+03  0.30901329461E+03  0.59399504346E+03  0.81024374246E+03  0.50400001928E-02 0.  1.
       -1    1    3    3    0  502  0.45626263738E+03 -0.30901329461E+03 -0.69548743531E+03  0.88733735592E+03  0.50400001928E-02 0. -1.
</event>
<event>
 5   0  0.3516723E-04  0.1716768E+04  0.7818609E-02  0.8751858E-01
        2   -1    0    0  501    0  0.00000000000E+00  0.00000000000E+00  0.12355327100E+04  0.12355327100E+04  0.25500000920E-02 0. -1.
       -2   -1    0    0    0  501  0.00000000000E+00  0.00000000000E+00 -0.59636074604E+03  0.59636074605E+03  0.25500000920E-02 0.  1.
    10030    2    1    2    0    0  0.00000000000E+00  0.00000000000E+00  0.63917196395E+03  0.18318934560E+04  0.17167681366E+04 0.  0.
        1    1    3    3  502    0  0.14225265705E+03 -0.18191115403E+03 -0.56259251469E+03  0.60814293058E+03  0.50400001928E-02 0.  1.
       -1    1    3    3    0  502 -0.14225265705E+03  0.18191115403E+03  0.12017644786E+04  0.12237505255E+04  0.50400001928E-02 0. -1.
</event>
<event>
 5   0  0.1317625E-04  0.1688006E+04  0.7818609E-02  0.8768235E-01
        3   -1    0    0  501    0  0.00000000000E+00  0.00000000000E+00  0.13235155002E+04  0.13235155040E+04  0.10100000352E+00 0.  1.
       -3   -1    0    0    0  501  0.00000000000E+00  0.00000000000E+00 -0.53821902935E+03  0.53821903883E+03  0.10100000352E+00 0. -1.
    10030    2    1    2    0    0  0.00000000000E+00  0.00000000000E+00  0.78529647080E+03  0.18617345428E+04  0.16880062088E+04 0.  0.
        3    1    3    3  502    0  0.39326439032E+03 -0.28906508964E+03 -0.36678653314E+03  0.61053081645E+03  0.10100000352E+00 0. -1.
       -3    1    3    3    0  502 -0.39326439032E+03  0.28906508964E+03  0.11520830039E+04  0.12512037264E+04  0.10100000352E+00 0.  1.
</event>
<event>
 5   0  0.1920289E-04  0.1721879E+04  0.7818609E-02  0.8748984E-01
        1   -1    0    0  501    0  0.00000000000E+00  0.00000000000E+00  0.78022613188E+03  0.78022613190E+03  0.50400001928E-02 0. -1.
       -1   -1    0    0    0  501  0.00000000000E+00  0.00000000000E+00 -0.95000233889E+03  0.95000233891E+03  0.50400001928E-02 0.  1.
    10030    2    1    2    0    0  0.00000000000E+00  0.00000000000E+00 -0.16977620701E+03  0.17302284708E+04  0.17218787997E+04 0.  0.
        4    1    3    3  502    0  0.65034162885E+03  0.35837924681E+03 -0.52270160865E+03  0.90807406269E+03  0.12699999809E+01 0.  1.
       -4    1    3    3    0  502 -0.65034162885E+03 -0.35837924681E+03  0.35292540164E+03  0.82215440811E+03  0.12699999809E+01 0. -1.
</event>
<event>
 5   0  0.3573262E-04  0.1699771E+04  0.7818609E-02  0.8761495E-01
       -2   -1    0    0    0  501  0.00000000000E+00  0.00000000000E+00  0.39149538172E+03  0.39149538173E+03  0.25500000920E-02 0. -1.
        2   -1    0    0  501    0  0.00000000000E+00  0.00000000000E+00 -0.18449909293E+04  0.18449909293E+04  0.25500000920E-02 0.  1.
    10030    2    1    2    0    0  0.00000000000E+00  0.00000000000E+00 -0.14534955475E+04  0.22364863110E+04  0.16997710765E+04 0.  0.
        5    1    3    3  502    0 -0.77297993217E+03 -0.29296832437E+03 -0.98643882679E+03  0.12870167301E+04  0.46999998093E+01 0.  1.
       -5    1    3    3    0  502  0.77297993217E+03  0.29296832437E+03 -0.46705672075E+03  0.94946958088E+03  0.46999998093E+01 0. -1.
</event>
<event>
 5   0  0.1815663E-04  0.1690085E+04  0.7818609E-02  0.8767040E-01
       -1   -1    0    0    0  501  0.00000000000E+00  0.00000000000E+00  0.71401037057E+03  0.71401037058E+03  0.50400001928E-02 0.  1.
        1   -1    0    0  501    0  0.00000000000E+00  0.00000000000E+00 -0.10001206221E+04  0.10001206221E+04  0.50400001928E-02 0. -1.
    10030    2    1    2    0    0  0.00000000000E+00  0.00000000000E+00 -0.28611025157E+03  0.17141309927E+04  0.16900846086E+04 0.  0.
        5    1    3    3  502    0  0.44866988932E+03 -0.61853950345E+03  0.22288108853E+03  0.79598609066E+03  0.46999998093E+01 0.  1.
       -5    1    3    3    0  502 -0.44866988932E+03  0.61853950345E+03 -0.50899134010E+03  0.91814490207E+03  0.46999998093E+01 0. -1.
</event>
<event>
 5   0  0.1893284E-04  0.1700733E+04  0.7818609E-02  0.8760946E-01
       -1   -1    0    0    0  501  0.00000000000E+00  0.00000000000E+00  0.70828678024E+03  0.70828678026E+03  0.50400001928E-02 0. -1.
        1   -1    0    0  501    0  0.00000000000E+00  0.00000000000E+00 -0.10209468841E+04  0.10209468841E+04  0.50400001928E-02 0.  1.
    10030    2    1    2    0    0  0.00000000000E+00  0.00000000000E+00 -0.31266010389E+03  0.17292336644E+04  0.17007329965E+04 0.  0.
        2    1    3    3  502    0 -0.69392691734E+03  0.15393498429E+03 -0.63094216690E+03  0.95043072550E+03  0.25500000920E-02 0.  1.
       -2    1    3    3    0  502  0.69392691734E+03 -0.15393498429E+03  0.31828206301E+03  0.77880293890E+03  0.25500000920E-02 0. -1.
</event>
<event>
 5   0  0.3573262E-04  0.1702189E+04  0.7818609E-02  0.8760117E-01
        2   -1    0    0  501    0  0.00000000000E+00  0.00000000000E+00  0.10271878370E+04  0.10271878370E+04  0.25500000920E-02 0.  1.
       -2   -1    0    0    0  501  0.00000000000E+00  0.00000000000E+00 -0.70518901965E+03  0.70518901966E+03  0.25500000920E-02 0. -1.
    10030    2    1    2    0    0  0.00000000000E+00  0.00000000000E+00  0.32199881733E+03  0.17323768566E+04  0.17021886896E+04 0.  0.
        5    1    3    3  502    0 -0.73914706350E+03 -0.60690971751E+02  0.58591771228E+03  0.94516846704E+03  0.46999998093E+01 0.  1.
       -5    1    3    3    0  502  0.73914706350E+03  0.60690971751E+02 -0.26391889496E+03  0.78720838959E+03  0.46999998093E+01 0. -1.
</event>
<event>
 5   0  0.3516723E-04  0.1721179E+04  0.7818609E-02  0.8749377E-01
        2   -1    0    0  501    0  0.00000000000E+00  0.00000000000E+00  0.84058963178E+03  0.84058963179E+03  0.25500000920E-02 0.  1.
       -2   -1    0    0    0  501  0.00000000000E+00  0.00000000000E+00 -0.88106503997E+03  0.88106503997E+03  0.25500000920E-02 0. -1.
    10030    2    1    2    0    0  0.00000000000E+00  0.00000000000E+00 -0.40475408185E+02  0.17216546718E+04  0.17211788257E+04 0.  0.
        1    1    3    3  502    0  0.21670021381E+03 -0.80071788383E+03 -0.24944298665E+03  0.86621585979E+03  0.50400001928E-02 0. -1.
       -1    1    3    3    0  502 -0.21670021381E+03  0.80071788383E+03  0.20896757847E+03  0.85543881197E+03  0.50400001928E-02 0.  1.
</event>
<event>
 5   0  0.1893284E-04  0.1693277E+04  0.7818609E-02  0.8765208E-01
        1   -1    0    0  501    0  0.00000000000E+00  0.00000000000E+00  0.14662529580E+04  0.14662529580E+04  0.50400001928E-02 0. -1.
       -1   -1    0    0    0  501  0.00000000000E+00  0.00000000000E+00 -0.48886290616E+03  0.48886290618E+03  0.50400001928E-02 0.  1.
    10030    2    1    2    0    0  0.00000000000E+00  0.00000000000E+00  0.97739005184E+03  0.19551158642E+04  0.16932769203E+04 0.  0.
        2    1    3    3  502    0 -0.54950924334E+03  0.16772374370E+01 -0.25497692327E+03  0.60578581450E+03  0.25500000920E-02 0.  1.
       -2    1    3    3    0  502  0.54950924334E+03 -0.16772374370E+01  0.12323669751E+04  0.13493300497E+04  0.25500000920E-02 0. -1.
</event>
<event>
 5   0  0.1815663E-04  0.1413384E+04  0.7818609E-02  0.8944187E-01
       -1   -1    0    0    0  501  0.00000000000E+00  0.00000000000E+00  0.32741372120E+03  0.32741372124E+03  0.50400001928E-02 0. -1.
        1   -1    0    0  501    0  0.00000000000E+00  0.00000000000E+00 -0.15253289668E+04  0.15253289669E+04  0.50400001928E-02 0.  1.
    10030    2    1    2    0    0  0.00000000000E+00  0.00000000000E+00 -0.11979152456E+04  0.18527426881E+04  0.14133840711E+04 0.  0.
        5    1    3    3  502    0  0.62671111384E+03 -0.27032463347E+03 -0.35885508687E+03  0.77112987949E+03  0.46999998093E+01 0. -1.
       -5    1    3    3    0  502 -0.62671111384E+03  0.27032463347E+03 -0.83906015878E+03  0.10816128086E+04  0.46999998093E+01 0.  1.
</event>
<event>
 5   0  0.1824538E-04  0.1688469E+04  0.7818609E-02  0.8767968E-01
       -1   -1    0    0    0  501  0.00000000000E+00  0.00000000000E+00  0.62317288583E+03  0.62317288585E+03  0.50400001928E-02 0.  1.
        1   -1    0    0  501    0  0.00000000000E+00  0.00000000000E+00 -0.11437146173E+04  0.11437146173E+04  0.50400001928E-02 0. -1.
    10030    2    1    2    0    0  0.00000000000E+00  0.00000000000E+00 -0.52054173149E+03  0.17668875032E+04  0.16884690565E+04 0.  0.
        3    1    3    3  502    0  0.96718807152E+02  0.24499694444E+03  0.57907462465E+03  0.63616464972E+03  0.10100000352E+00 0.  1.
       -3    1    3    3    0  502 -0.96718807152E+02 -0.24499694444E+03 -0.10996163561E+04  0.11307228535E+04  0.10100000352E+00 0. -1.
</event>
<event>
 5   0  0.1824538E-04  0.1729932E+04  0.7818609E-02  0.8744475E-01
       -1   -1    0    0    0  501  0.00000000000E+00  0.00000000000E+00  0.19358021956E+04  0.19358021956E+04  0.50400001928E-02 0. -1.
        1   -1    0    0  501    0  0.00000000000E+00  0.00000000000E+00 -0.38648895051E+03  0.38648895054E+03  0.50400001928E-02 0.  1.
    10030    2    1    2    0    0  0.00000000000E+00  0.00000000000E+00  0.15493132451E+04  0.23222911461E+04  0.17299319744E+04 0.  0.
        3    1    3    3  502    0 -0.14802791570E+03 -0.81204287453E+02 -0.36415331168E+03  0.40139014031E+03  0.10100000352E+00 0.  1.
       -3    1    3    3    0  502  0.14802791570E+03  0.81204287453E+02  0.19134665568E+04  0.19209010058E+04  0.10100000352E+00 0. -1.
</event>
<event>
 5   0  0.1815663E-04  0.1714608E+04  0.7818609E-02  0.8753076E-01
       -1   -1    0    0    0  501  0.00000000000E+00  0.00000000000E+00  0.87427402456E+03  0.87427402458E+03  0.50400001928E-02 0.  1.
        1   -1    0    0  501    0  0.00000000000E+00  0.00000000000E+00 -0.84066356046E+03  0.84066356048E+03  0.50400001928E-02 0. -1.
    10030    2    1    2    0    0  0.00000000000E+00  0.00000000000E+00  0.33610464100E+02  0.17149375851E+04  0.17146081935E+04 0.  0.
        5    1    3    3  502    0  0.44374847737E+03 -0.68010367788E+03 -0.25801017804E+03  0.85208278107E+03  0.46999998093E+01 0. -1.
       -5    1    3    3    0  502 -0.44374847737E+03  0.68010367788E+03  0.29162064214E+03  0.86285480398E+03  0.46999998093E+01 0.  1.
</event>
<event>
 5   0  0.1920289E-04  0.1735423E+04  0.7818609E-02  0.8741415E-01
        1   -1    0    0  501    0  0.00000000000E+00  0.00000000000E+00  0.80971596588E+03  0.80971596589E+03  0.50400001928E-02 0. -1.
       -1   -1    0    0    0  501  0.00000000000E+00  0.00000000000E+00 -0.92986065564E+03  0.92986065565E+03  0.50400001928E-02 0.  1.
    10030    2    1    2    0    0  0.00000000000E+00  0.00000000000E+00 -0.12014468976E+03  0.17395766215E+04  0.17354227369E+04 0.  0.
        4    1    3    3  502    0  0.60414211144E+03 -0.16023125199E+03 -0.66339310231E+03  0.91145694688E+03  0.12699999809E+01 0.  1.
       -4    1    3    3    0  502 -0.60414211144E+03  0.16023125199E+03  0.54324841255E+03  0.82811967466E+03  0.12699999809E+01 0. -1.
</event>
<event>
 5   0  0.1815663E-04  0.1716766E+04  0.7818609E-02  0.8751859E-01
        1   -1    0    0  501    0  0.00000000000E+00  0.00000000000E+00  0.10544624868E+04  0.10544624868E+04  0.50400001928E-02 0.  1.
       -1   -1    0    0    0  501  0.00000000000E+00  0.00000000000E+00 -0.69876492205E+03  0.69876492207E+03  0.50400001928E-02 0. -1.
    10030    2    1    2    0    0  0.00000000000E+00  0.00000000000E+00  0.35569756477E+03  0.17532274089E+04  0.17167660265E+04 0.  0.
        5    1    3    3  502    0  0.98987895091E+02  0.32551187129E+03  0.98264862134E+03  0.10398927756E+04  0.46999998093E+01 0.  1.
       -5    1    3    3    0  502 -0.98987895091E+02 -0.32551187129E+03 -0.62695105658E+03  0.71333463330E+03  0.46999998093E+01 0. -1.
</event>
<event>
 5   0  0.3605571E-04  0.1695929E+04  0.7818609E-02  0.8763690E-01
        2   -1    0    0  501    0  0.00000000000E+00  0.00000000000E+00  0.99313265768E+03  0.99313265768E+03  0.25500000920E-02 0.  1.
       -2   -1    0    0    0  501  0.00000000000E+00  0.00000000000E+00 -0.72401555102E+03  0.72401555102E+03  0.25500000920E-02 0. -1.
    10030    2    1    2    0    0  0.00000000000E+00  0.00000000000E+00  0.26911710666E+03  0.17171482087E+04  0.16959286405E+04 0.  0.
        4    1    3    3  502    0 -0.42177920928E+03 -0.20609346962E+03  0.84955960026E+03  0.97063141660E+03  0.12699999809E+01 0.  1.
       -4    1    3    3    0  502  0.42177920928E+03  0.20609346962E+03 -0.58044249360E+03  0.74651679209E+03  0.12699999809E+01 0. -1.
</event>
<event>
 5   0  0.1815663E-04  0.1684014E+04  0.7818609E-02  0.8770534E-01
       -1   -1    0    0    0  501  0.00000000000E+00  0.00000000000E+00  0.35297016304E+03  0.35297016307E+03  0.50400001928E-02 0.  1.
        1   -1    0    0  501    0  0.00000000000E+00  0.00000000000E+00 -0.20086005398E+04  0.20086005399E+04  0.50400001928E-02 0. -1.
    10030    2    1    2    0    0  0.00000000000E+00  0.00000000000E+00 -0.16556303768E+04  0.23615707029E+04  0.16840143231E+04 0.  0.
        5    1    3    3  502    0  0.54148963269E+03 -0.17901281108E+03 -0.16964746965E+04  0.17897779456E+04  0.46999998093E+01 0. -1.
       -5    1    3    3    0  502 -0.54148963269E+03  0.17901281108E+03  0.40844319676E+02  0.57179275729E+03  0.46999998093E+01 0.  1.
</event>
<event>
 5   0  0.3574092E-04  0.1712355E+04  0.7818609E-02  0.8754349E-01
        2   -1    0    0  501    0  0.00000000000E+00  0.00000000000E+00  0.12879889985E+04  0.12879889985E+04  0.25500000920E-02 0.  1.
       -2   -1    0    0    0  501  0.00000000000E+00  0.00000000000E+00 -0.56913549442E+03  0.56913549443E+03  0.25500000920E-02 0. -1.
    10030    2    1    2    0    0  0.00000000000E+00  0.00000000000E+00  0.71885350407E+03  0.18571244929E+04  0.17123554018E+04 0.  0.
        3    1    3    3  502    0  0.69471151527E+03 -0.38326388642E+03  0.70838191048E+03  0.10636353874E+04  0.10100000352E+00 0.  1.
       -3    1    3    3    0  502 -0.69471151527E+03  0.38326388642E+03  0.10471593594E+02  0.79348910550E+03  0.10100000352E+00 0. -1.
</event>
<event>
 5   0  0.3574092E-04  0.1708188E+04  0.7818609E-02  0.8756708E-01
        2   -1    0    0  501    0  0.00000000000E+00  0.00000000000E+00  0.12565848016E+04  0.12565848016E+04  0.25500000920E-02 0. -1.
       -2   -1    0    0    0  501  0.00000000000E+00  0.00000000000E+00 -0.58052306610E+03  0.58052306611E+03  0.25500000920E-02 0.  1.
    10030    2    1    2    0    0  0.00000000000E+00  0.00000000000E+00  0.67606173549E+03  0.18371078677E+04  0.17081878841E+04 0.  0.
        3    1    3    3  502    0  0.64070832530E+03  0.35100299902E+02  0.94425482432E+03  0.11416463431E+04  0.10100000352E+00 0. -1.
       -3    1    3    3    0  502 -0.64070832530E+03 -0.35100299902E+02 -0.26819308883E+03  0.69546152464E+03  0.10100000352E+00 0.  1.
</event>
<event>
 5   0  0.1317625E-04  0.1696694E+04  0.7818609E-02  0.8763252E-01
       -4   -1    0    0    0  501  0.00000000000E+00  0.00000000000E+00  0.90808454539E+03  0.90808543346E+03  0.12699999809E+01 0.  1.
        4   -1    0    0  501    0  0.00000000000E+00  0.00000000000E+00 -0.79253707675E+03  0.79253809430E+03  0.12699999809E+01 0. -1.
    10030    2    1    2    0    0  0.00000000000E+00  0.00000000000E+00  0.11554746864E+03  0.17006235278E+04  0.16966935981E+04 0.  0.
        3    1    3    3  502    0 -0.19622990890E+03 -0.49887172275E+03  0.71680188192E+03  0.89508889002E+03  0.10100000352E+00 0.  1.
       -3    1    3    3    0  502  0.19622990890E+03  0.49887172275E+03 -0.60125441328E+03  0.80553463774E+03  0.10100000352E+00 0. -1.
</event>
<event>
 5   0  0.3573262E-04  0.1684805E+04  0.7818609E-02  0.8770078E-01
       -2   -1    0    0    0  501  0.00000000000E+00  0.00000000000E+00  0.64730467444E+03  0.64730467444E+03  0.25500000920E-02 0. -1.
        2   -1    0    0  501    0  0.00000000000E+00  0.00000000000E+00 -0.10963034576E+04  0.10963034576E+04  0.25500000920E-02 0.  1.
    10030    2    1    2    0    0  0.00000000000E+00  0.00000000000E+00 -0.44899878313E+03  0.17436081320E+04  0.16848054519E+04 0.  0.
        5    1    3    3  502    0 -0.38733664273E+03 -0.62342806395E+03 -0.65236342329E+03  0.98198388570E+03  0.46999998093E+01 0.  1.
       -5    1    3    3    0  502  0.38733664273E+03  0.62342806395E+03  0.20336464016E+03  0.76162424632E+03  0.46999998093E+01 0. -1.
</event>
<event>
 5   0  0.1815663E-04  0.1694745E+04  0.7818609E-02  0.8764367E-01
       -1   -1    0    0    0  501  0.00000000000E+00  0.00000000000E+00  0.91215980825E+03  0.91215980827E+03  0.50400001928E-02 0. -1.
        1   -1    0    0  501    0  0.00000000000E+00  0.00000000000E+00 -0.78718704021E+03  0.78718704023E+03  0.50400001928E-02 0.  1.
    10030    2    1    2    0    0  0.00000000000E+00  0.00000000000E+00  0.12497276804E+03  0.16993468485E+04  0.16947452666E+04 0.  0.
        5    1    3    3  502    0  0.66857849106E+03 -0.35724382084E+03 -0.31722101706E+03  0.82174911615E+03  0.46999998093E+01 0.  1.
       -5    1    3    3    0  502 -0.66857849106E+03  0.35724382084E+03  0.44219378510E+03  0.87759773234E+03  0.46999998093E+01 0. -1.
</event>
<event>
 5   0  0.1893284E-04  0.1699754E+04  0.7818609E-02  0.8761504E-01
       -1   -1    0    0    0  501  0.00000000000E+00  0.00000000000E+00  0.36947468202E+03  0.36947468205E+03  0.50400001928E-02 0. -1.
        1   -1    0    0  501    0  0.00000000000E+00  0.00000000000E+00 -0.19549141151E+04  0.19549141151E+04  0.50400001928E-02 0.  1.
    10030    2    1    2    0    0  0.00000000000E+00  0.00000000000E+00 -0.15854394331E+04  0.23243887971E+04  0.16997544188E+04 0.  0.
        2    1    3    3  502    0  0.31616796871E+03  0.20391730041E+02  0.28569921794E+03  0.42661698305E+03  0.25500000920E-02 0. -1.
       -2    1    3    3    0  502 -0.31616796871E+03 -0.20391730041E+02 -0.18711386510E+04  0.18977718141E+04  0.25500000920E-02 0.  1.
</event>
<event>
 5   0  0.3573262E-04  0.1752008E+04  0.7818609E-02  0.8732246E-01
        2   -1    0    0  501    0  0.00000000000E+00  0.00000000000E+00  0.28940595715E+04  0.28940595715E+04  0.25500000920E-02 0. -1.
       -2   -1    0    0    0  501  0.00000000000E+00  0.00000000000E+00 -0.26515801514E+03  0.26515801516E+03  0.25500000920E-02 0.  1.
    10030    2    1    2    0    0  0.00000000000E+00  0.00000000000E+00  0.26289015564E+04  0.31592175867E+04  0.17520080956E+04 0.  0.
        5    1    3    3  502    0 -0.34778741968E+03  0.31017763420E+00 -0.13530791494E+03  0.37321107613E+03  0.46999998093E+01 0.  1.
       -5    1    3    3    0  502  0.34778741968E+03 -0.31017763420E+00  0.27642094713E+04  0.27860065106E+04  0.46999998093E+01 0. -1.
</event>
<event>
 5   0  0.3516723E-04  0.1695543E+04  0.7818609E-02  0.8763910E-01
       -2   -1    0    0    0  501  0.00000000000E+00  0.00000000000E+00  0.63910717314E+03  0.63910717315E+03  0.25500000920E-02 0.  1.
        2   -1    0    0  501    0  0.00000000000E+00  0.00000000000E+00 -0.11245639810E+04  0.11245639811E+04  0.25500000920E-02 0. -1.
    10030    2    1    2    0    0  0.00000000000E+00  0.00000000000E+00 -0.48545680791E+03  0.17636711542E+04  0.16955434609E+04 0.  0.
        1    1    3    3  502    0  0.54313071289E+03 -0.64817151431E+03 -0.18032083928E+03  0.86465767119E+03  0.50400001928E-02 0.  1.
       -1    1    3    3    0  502 -0.54313071289E+03  0.64817151431E+03 -0.30513596863E+03  0.89901348301E+03  0.50400001928E-02 0. -1.
</event>
<event>
 5   0  0.1893284E-04  0.1699461E+04  0.7818609E-02  0.8761672E-01
       -1   -1    0    0    0  501  0.00000000000E+00  0.00000000000E+00  0.50256668789E+03  0.50256668792E+03  0.50400001928E-02 0.  1.
        1   -1    0    0  501    0  0.00000000000E+00  0.00000000000E+00 -0.14367084279E+04  0.14367084279E+04  0.50400001928E-02 0. -1.
    10030    2    1    2    0    0  0.00000000000E+00  0.00000000000E+00 -0.93414174003E+03  0.19392751158E+04  0.16994608511E+04 0.  0.
        2    1    3    3  502    0 -0.13466116592E+02  0.14300984757E+03 -0.14227537734E+04  0.14299865218E+04  0.25500000920E-02 0. -1.
       -2    1    3    3    0  502  0.13466116592E+02 -0.14300984757E+03  0.48861203340E+03  0.50928859401E+03  0.25500000920E-02 0.  1.
</event>
<event>
 5   0  0.3516723E-04  0.1588329E+04  0.7818609E-02  0.8827750E-01
       -2   -1    0    0    0  501  0.00000000000E+00  0.00000000000E+00  0.85436138220E+03  0.85436138221E+03  0.25500000920E-02 0.  1.
        2   -1    0    0  501    0  0.00000000000E+00  0.00000000000E+00 -0.73820929662E+03  0.73820929662E+03  0.25500000920E-02 0. -1.
    10030    2    1    2    0    0  0.00000000000E+00  0.00000000000E+00  0.11615208558E+03  0.15925706788E+04  0.15883293299E+04 0.  0.
        1    1    3    3  502    0 -0.74538903260E+03  0.21561989182E+03 -0.11149316938E+03  0.78391802793E+03  0.50400001928E-02 0.  1.
       -1    1    3    3    0  502  0.74538903260E+03 -0.21561989182E+03  0.22764525496E+03  0.80865265090E+03  0.50400001928E-02 0. -1.
</event>
<event>
 5   0  0.1920289E-04  0.1727125E+04  0.7818609E-02  0.8746043E-01
        1   -1    0    0  501    0  0.00000000000E+00  0.00000000000E+00  0.90272385335E+03  0.90272385337E+03  0.50400001928E-02 0. -1.
       -1   -1    0    0    0  501  0.00000000000E+00  0.00000000000E+00 -0.82610024616E+03  0.82610024618E+03  0.50400001928E-02 0.  1.
    10030    2    1    2    0    0  0.00000000000E+00  0.00000000000E+00  0.76623607191E+02  0.17288240995E+04  0.17271252387E+04 0.  0.
        4    1    3    3  502    0  0.71073631291E+03  0.46285062635E+03 -0.12421161758E+03  0.85720881216E+03  0.12699999809E+01 0.  1.
       -4    1    3    3    0  502 -0.71073631291E+03 -0.46285062635E+03  0.20083522477E+03  0.87161528739E+03  0.12699999809E+01 0. -1.
</event>
<event>
 5   0  0.3574092E-04  0.1766714E+04  0.7818609E-02  0.8724204E-01
       -2   -1    0    0    0  501  0.00000000000E+00  0.00000000000E+00  0.75538874296E+03  0.75538874296E+03  0.25500000920E-02 0.  1.
        2   -1    0    0  501    0  0.00000000000E+00  0.00000000000E+00 -0.10330036586E+04  0.10330036586E+04  0.25500000920E-02 0. -1.
    10030    2    1    2    0    0  0.00000000000E+00  0.00000000000E+00 -0.27761491567E+03  0.17883924016E+04  0.17667137121E+04 0.  0.
        3    1    3    3  502    0 -0.22925761323E+03 -0.80273155801E+03  0.15349577394E+03  0.84882151850E+03  0.10100000352E+00 0.  1.
       -3    1    3    3    0  502  0.22925761323E+03  0.80273155801E+03 -0.43111068961E+03  0.93957088309E+03  0.10100000352E+00 0. -1.
</event>
<event>
 5   0  0.1920289E-04  0.1703667E+04  0.7818609E-02  0.8759276E-01
       -1   -1    0    0    0  501  0.00000000000E+00  0.00000000000E+00  0.46408997795E+03  0.46408997798E+03  0.50400001928E-02 0.  1.
        1   -1    0    0  501    0  0.00000000000E+00  0.00000000000E+00 -0.15635329431E+04  0.15635329431E+04  0.50400001928E-02 0. -1.
    10030    2    1    2    0    0  0.00000000000E+00  0.00000000000E+00 -0.10994429651E+04  0.20276229211E+04  0.17036665978E+04 0.  0.
        4    1    3    3  502    0 -0.53406643548E+03 -0.66050294389E+03 -0.62618134090E+03  0.10552704776E+04  0.12699999809E+01 0.  1.
       -4    1    3    3    0  502  0.53406643548E+03  0.66050294389E+03 -0.47326162424E+03  0.97235244344E+03  0.12699999809E+01 0. -1.
</event>
<event>
 5   0  0.3574092E-04  0.1695491E+04  0.7818609E-02  0.8763940E-01
       -2   -1    0    0    0  501  0.00000000000E+00  0.00000000000E+00  0.49039864104E+03  0.49039864105E+03  0.25500000920E-02 0.  1.
        2   -1    0    0  501    0  0.00000000000E+00  0.00000000000E+00 -0.14654863295E+04  0.14654863295E+04  0.25500000920E-02 0. -1.
    10030    2    1    2    0    0  0.00000000000E+00  0.00000000000E+00 -0.97508768845E+03  0.19558849705E+04  0.16954910846E+04 0.  0.
        3    1    3    3  502    0 -0.21905747158E+03 -0.68168044403E+02  0.45390726455E+03  0.50859106672E+03  0.10100000352E+00 0.  1.
       -3    1    3    3    0  502  0.21905747158E+03  0.68168044403E+02 -0.14289949530E+04  0.14472939038E+04  0.10100000352E+00 0. -1.
</event>
<event>
 5   0  0.3605571E-04  0.1699981E+04  0.7818609E-02  0.8761375E-01
        2   -1    0    0  501    0  0.00000000000E+00  0.00000000000E+00  0.18107516439E+04  0.18107516439E+04  0.25500000920E-02 0. -1.
       -2   -1    0    0    0  501  0.00000000000E+00  0.00000000000E+00 -0.39899687610E+03  0.39899687611E+03  0.25500000920E-02 0.  1.
    10030    2    1    2    0    0  0.00000000000E+00  0.00000000000E+00  0.14117547678E+04  0.22097485201E+04  0.16999814697E+04 0.  0.
        4    1    3    3  502    0 -0.47085034882E+03  0.22540198892E+03  0.15778314252E+04  0.16619445619E+04  0.12699999809E+01 0. -1.
       -4    1    3    3    0  502  0.47085034882E+03 -0.22540198892E+03 -0.16607665733E+03  0.54780395818E+03  0.12699999809E+01 0.  1.
</event>
<event>
 5   0  0.3678896E-04  0.1699329E+04  0.7818609E-02  0.8761747E-01
       -2   -1    0    0    0  501  0.00000000000E+00  0.00000000000E+00  0.58993318925E+03  0.58993318926E+03  0.25500000920E-02 0.  1.
        2   -1    0    0  501    0  0.00000000000E+00  0.00000000000E+00 -0.12237485558E+04  0.12237485558E+04  0.25500000920E-02 0. -1.
    10030    2    1    2    0    0  0.00000000000E+00  0.00000000000E+00 -0.63381536658E+03  0.18136817451E+04  0.16993291481E+04 0.  0.
        2    1    3    3  502    0 -0.47864290673E+03 -0.15117324243E+03 -0.10485892460E+04  0.11625367901E+04  0.25500000920E-02 0. -1.
       -2    1    3    3    0  502  0.47864290673E+03  0.15117324243E+03  0.41477387943E+03  0.65114495503E+03  0.25500000920E-02 0.  1.
</event>
<event>
 5   0  0.3678896E-04  0.1693575E+04  0.7818609E-02  0.8765037E-01
       -2   -1    0    0    0  501  0.00000000000E+00  0.00000000000E+00  0.62407609800E+03  0.62407609800E+03  0.25500000920E-02 0.  1.
        2   -1    0    0  501    0  0.00000000000E+00  0.00000000000E+00 -0.11489771131E+04  0.11489771131E+04  0.25500000920E-02 0. -1.
    10030    2    1    2    0    0  0.00000000000E+00  0.00000000000E+00 -0.52490101506E+03  0.17730532111E+04  0.16935750983E+04 0.  0.
        2    1    3    3  502    0 -0.83752405417E+02 -0.31955433420E+03 -0.10787328915E+04  0.11281817624E+04  0.25500000920E-02 0. -1.
       -2    1    3    3    0  502  0.83752405417E+02  0.31955433420E+03  0.55383187642E+03  0.64487144863E+03  0.25500000920E-02 0.  1.
</event>
<event>
 5   0  0.1920289E-04  0.1710907E+04  0.7818609E-02  0.8755168E-01
        1   -1    0    0  501    0  0.00000000000E+00  0.00000000000E+00  0.15722184058E+04  0.15722184058E+04  0.50400001928E-02 0. -1.
       -1   -1    0    0    0  501  0.00000000000E+00  0.00000000000E+00 -0.46545730209E+03  0.46545730212E+03  0.50400001928E-02 0.  1.
    10030    2    1    2    0    0  0.00000000000E+00  0.00000000000E+00  0.11067611037E+04  0.20376757079E+04  0.17109068210E+04 0.  0.
        4    1    3    3  502    0  0.76781068312E+02  0.86121475671E+02 -0.45614675793E+03  0.47051431295E+03  0.12699999809E+01 0.  1.
       -4    1    3    3    0  502 -0.76781068312E+02 -0.86121475671E+02  0.15629078617E+04  0.15671613950E+04  0.12699999809E+01 0. -1.
</event>
<event>
 5   0  0.3678896E-04  0.1701376E+04  0.7818609E-02  0.8760580E-01
        2   -1    0    0  501    0  0.00000000000E+00  0.00000000000E+00  0.10609762562E+04  0.10609762562E+04  0.25500000920E-02 0. -1.
       -2   -1    0    0    0  501  0.00000000000E+00  0.00000000000E+00 -0.68207952625E+03  0.68207952625E+03  0.25500000920E-02 0.  1.
    10030    2    1    2    0    0  0.00000000000E+00  0.00000000000E+00  0.37889672999E+03  0.17430557825E+04  0.17013761280E+04 0.  0.
        2    1    3    3  502    0  0.51677204771E+03  0.64910975780E+03  0.38186133233E+03  0.91335365773E+03  0.25500000920E-02 0. -1.
       -2    1    3    3    0  502 -0.51677204771E+03 -0.64910975780E+03 -0.29646023358E+01  0.82970212476E+03  0.25500000920E-02 0.  1.
</event>
<event>
 5   0  0.3573262E-04  0.1714162E+04  0.7818609E-02  0.8753328E-01
        2   -1    0    0  501    0  0.00000000000E+00  0.00000000000E+00  0.11597666448E+04  0.11597666448E+04  0.25500000920E-02 0.  1.
       -2   -1    0    0    0  501  0.00000000000E+00  0.00000000000E+00 -0.63339262965E+03  0.63339262965E+03  0.25500000920E-02 0. -1.
    10030    2    1    2    0    0  0.00000000000E+00  0.00000000000E+00  0.52637401512E+03  0.17931592744E+04  0.17141617717E+04 0.  0.
        5    1    3    3  502    0  0.37572046278E+02  0.67303688637E+03 -0.29052245082E+03  0.73404066202E+03  0.46999998093E+01 0. -1.
       -5    1    3    3    0  502 -0.37572046278E+02 -0.67303688637E+03  0.81689646594E+03  0.10591186124E+04  0.46999998093E+01 0.  1.
</event>
<event>
 5   0  0.3573262E-04  0.1694986E+04  0.7818609E-02  0.8764229E-01
       -2   -1    0    0    0  501  0.00000000000E+00  0.00000000000E+00  0.43763111414E+03  0.43763111415E+03  0.25500000920E-02 0. -1.
        2   -1    0    0  501    0  0.00000000000E+00  0.00000000000E+00 -0.16412099414E+04  0.16412099414E+04  0.25500000920E-02 0.  1.
    10030    2    1    2    0    0  0.00000000000E+00  0.00000000000E+00 -0.12035788273E+04  0.20788410556E+04  0.16949861772E+04 0.  0.
        5    1    3    3  502    0  0.27628683714E+03  0.25883996275E+03 -0.15317134316E+04  0.15778151568E+04  0.46999998093E+01 0.  1.
       -5    1    3    3    0  502 -0.27628683714E+03 -0.25883996275E+03  0.32813460428E+03  0.50102589875E+03  0.46999998093E+01 0. -1.
</event>
<event>
 5   0  0.3574092E-04  0.1618710E+04  0.7818609E-02  0.8809135E-01
       -2   -1    0    0    0  501  0.00000000000E+00  0.00000000000E+00  0.90560880380E+03  0.90560880380E+03  0.25500000920E-02 0.  1.
        2   -1    0    0  501    0  0.00000000000E+00  0.00000000000E+00 -0.72333201856E+03  0.72333201856E+03  0.25500000920E-02 0. -1.
    10030    2    1    2    0    0  0.00000000000E+00  0.00000000000E+00  0.18227678524E+03  0.16289408224E+04  0.16187104053E+04 0.  0.
        3    1    3    3  502    0  0.80632189634E+03  0.18771026823E+02  0.23269715405E+02  0.80687597673E+03  0.10100000352E+00 0. -1.
       -3    1    3    3    0  502 -0.80632189634E+03 -0.18771026823E+02  0.15900706984E+03  0.82206484563E+03  0.10100000352E+00 0.  1.
</event>
<event>
 5   0  0.1815663E-04  0.1705634E+04  0.7818609E-02  0.8758158E-01
       -1   -1    0    0    0  501  0.00000000000E+00  0.00000000000E+00  0.93104295878E+03  0.93104295880E+03  0.50400001928E-02 0.  1.
        1   -1    0    0  501    0  0.00000000000E+00  0.00000000000E+00 -0.78116348367E+03  0.78116348368E+03  0.50400001928E-02 0. -1.
    10030    2    1    2    0    0  0.00000000000E+00  0.00000000000E+00  0.14987947512E+03  0.17122064425E+04  0.17056339128E+04 0.  0.
        5    1    3    3  502    0  0.79190212153E+03 -0.31600285427E+03  0.92554352481E+02  0.85764513182E+03  0.46999998093E+01 0. -1.
       -5    1    3    3    0  502 -0.79190212153E+03  0.31600285427E+03  0.57325122634E+02  0.85456131065E+03  0.46999998093E+01 0.  1.
</event>
<event>
 5   0  0.1930116E-04  0.1696616E+04  0.7818609E-02  0.8763297E-01
        1   -1    0    0  501    0  0.00000000000E+00  0.00000000000E+00  0.13442818529E+04  0.13442818529E+04  0.50400001928E-02 0.  1.
       -1   -1    0    0    0  501  0.00000000000E+00  0.00000000000E+00 -0.53532404854E+03  0.53532404856E+03  0.50400001928E-02 0. -1.
    10030    2    1    2    0    0  0.00000000000E+00  0.00000000000E+00  0.80895780433E+03  0.18796059014E+04  0.16966159305E+04 0.  0.
        1    1    3    3  502    0 -0.18284355831E+03  0.49618388983E+03 -0.33038635376E+03  0.62352655286E+03  0.50400001928E-02 0. -1.
       -1    1    3    3    0  502  0.18284355831E+03 -0.49618388983E+03  0.11393441581E+04  0.12560793486E+04  0.50400001928E-02 0.  1.
</event>
<event>
 5   0  0.3574092E-04  0.1728080E+04  0.7818609E-02  0.8745509E-01
       -2   -1    0    0    0  501  0.00000000000E+00  0.00000000000E+00  0.84043741743E+03  0.84043741743E+03  0.25500000920E-02 0.  1.
        2   -1    0    0  501    0  0.00000000000E+00  0.00000000000E+00 -0.88830578154E+03  0.88830578155E+03  0.25500000920E-02 0. -1.
    10030    2    1    2    0    0  0.00000000000E+00  0.00000000000E+00 -0.47868364118E+02  0.17287431990E+04  0.17280803418E+04 0.  0.
        3    1    3    3  502    0 -0.48956472001E+03  0.21948356894E+03 -0.70148176921E+03  0.88313268247E+03  0.10100000352E+00 0. -1.
       -3    1    3    3    0  502  0.48956472001E+03 -0.21948356894E+03  0.65361340509E+03  0.84561051651E+03  0.10100000352E+00 0.  1.
</event>
<event>
 5   0  0.1893284E-04  0.1653194E+04  0.7818609E-02  0.8788519E-01
       -1   -1    0    0    0  501  0.00000000000E+00  0.00000000000E+00  0.55860746784E+03  0.55860746786E+03  0.50400001928E-02 0.  1.
        1   -1    0    0  501    0  0.00000000000E+00  0.00000000000E+00 -0.12231540780E+04  0.12231540780E+04  0.50400001928E-02 0. -1.
    10030    2    1    2    0    0  0.00000000000E+00  0.00000000000E+00 -0.66454661019E+03  0.17817615459E+04  0.16531944862E+04 0.  0.
        2    1    3    3  502    0 -0.28643114404E+03 -0.77341474592E+03 -0.27275320513E+03  0.86868146084E+03  0.25500000920E-02 0. -1.
       -2    1    3    3    0  502  0.28643114404E+03  0.77341474592E+03 -0.39179340506E+03  0.91308008506E+03  0.25500000920E-02 0.  1.
</event>
<event>
 5   0  0.3605571E-04  0.1699548E+04  0.7818609E-02  0.8761622E-01
       -2   -1    0    0    0  501  0.00000000000E+00  0.00000000000E+00  0.33326601200E+03  0.33326601201E+03  0.25500000920E-02 0. -1.
        2   -1    0    0  501    0  0.00000000000E+00  0.00000000000E+00 -0.21667855467E+04  0.21667855467E+04  0.25500000920E-02 0.  1.
    10030    2    1    2    0    0  0.00000000000E+00  0.00000000000E+00 -0.18335195347E+04  0.25000515587E+04  0.16995481494E+04 0.  0.
        4    1    3    3  502    0  0.52973950706E+03  0.41503814926E+03 -0.16800333756E+04  0.18098050632E+04  0.12699999809E+01 0.  1.
       -4    1    3    3    0  502 -0.52973950706E+03 -0.41503814926E+03 -0.15348615911E+03  0.69024649555E+03  0.12699999809E+01 0. -1.
</event>
<event>
 5   0  0.1920289E-04  0.1634253E+04  0.7818609E-02  0.8799777E-01
       -1   -1    0    0    0  501  0.00000000000E+00  0.00000000000E+00  0.40869795355E+03  0.40869795358E+03  0.50400001928E-02 0.  1.
        1   -1    0    0  501    0  0.00000000000E+00  0.00000000000E+00 -0.16337148191E+04  0.16337148191E+04  0.50400001928E-02 0. -1.
    10030    2    1    2    0    0  0.00000000000E+00  0.00000000000E+00 -0.12250168655E+04  0.20424127727E+04  0.16342532280E+04 0.  0.
        4    1    3    3  502    0 -0.22364018017E+03 -0.28016312801E+03  0.30517790914E+03  0.47078814515E+03  0.12699999809E+01 0.  1.
       -4    1    3    3    0  502  0.22364018017E+03  0.28016312801E+03 -0.15301947747E+04  0.15716246275E+04  0.12699999809E+01 0. -1.
</event>
<event>
 5   0  0.3605571E-04  0.1719796E+04  0.7818609E-02  0.8750154E-01
       -2   -1    0    0    0  501  0.00000000000E+00  0.00000000000E+00  0.35573941615E+03  0.35573941616E+03  0.25500000920E-02 0. -1.
        2   -1    0    0  501    0  0.00000000000E+00  0.00000000000E+00 -0.20785575950E+04  0.20785575950E+04  0.25500000920E-02 0.  1.
    10030    2    1    2    0    0  0.00000000000E+00  0.00000000000E+00 -0.17228181789E+04  0.24342970112E+04  0.17197963429E+04 0.  0.
        4    1    3    3  502    0  0.59764760957E+03 -0.41649855870E+03 -0.21466851271E+03  0.75943261575E+03  0.12699999809E+01 0. -1.
       -4    1    3    3    0  502 -0.59764760957E+03  0.41649855870E+03 -0.15081496662E+04  0.16748643954E+04  0.12699999809E+01 0.  1.
</event>
<event>
 5   0  0.3516723E-04  0.1704605E+04  0.7818609E-02  0.8758742E-01
        2   -1    0    0  501    0  0.00000000000E+00  0.00000000000E+00  0.55586320155E+03  0.55586320156E+03  0.25500000920E-02 0.  1.
       -2   -1    0    0    0  501  0.00000000000E+00  0.00000000000E+00 -0.13068312659E+04  0.13068312659E+04  0.25500000920E-02 0. -1.
    10030    2    1    2    0    0  0.00000000000E+00  0.00000000000E+00 -0.75096806430E+03  0.18626944674E+04  0.17046048355E+04 0.  0.
        1    1    3    3  502    0 -0.71776981786E+03  0.45414899266E+03 -0.45255603716E+03  0.96241975549E+03  0.50400001928E-02 0.  1.
       -1    1    3    3    0  502  0.71776981786E+03 -0.45414899266E+03 -0.29841202714E+03  0.90027471192E+03  0.50400001928E-02 0. -1.
</event>
<event>
 5   0  0.3678896E-04  0.1699412E+04  0.7818609E-02  0.8761700E-01
        2   -1    0    0  501    0  0.00000000000E+00  0.00000000000E+00  0.18745494957E+04  0.18745494958E+04  0.25500000920E-02 0. -1.
       -2   -1    0    0    0  501  0.00000000000E+00  0.00000000000E+00 -0.38515935961E+03  0.38515935962E+03  0.25500000920E-02 0.  1.
    10030    2    1    2    0    0  0.00000000000E+00  0.00000000000E+00  0.14893901361E+04  0.22597088554E+04  0.16994119964E+04 0.  0.
        2    1    3    3  502    0 -0.75807384117E+03 -0.72683859431E+01  0.12549805010E+04  0.14661871763E+04  0.25500000920E-02 0. -1.
       -2    1    3    3    0  502  0.75807384117E+03  0.72683859431E+01  0.23440963516E+03  0.79352167907E+03  0.25500000920E-02 0.  1.
</event>
<event>
 5   0  0.1824538E-04  0.1708025E+04  0.7818609E-02  0.8756800E-01
       -1   -1    0    0    0  501  0.00000000000E+00  0.00000000000E+00  0.79784502667E+03  0.79784502669E+03  0.50400001928E-02 0.  1.
        1   -1    0    0  501    0  0.00000000000E+00  0.00000000000E+00 -0.91413435423E+03  0.91413435424E+03  0.50400001928E-02 0. -1.
    10030    2    1    2    0    0  0.00000000000E+00  0.00000000000E+00 -0.11628932756E+03  0.17119793809E+04  0.17080252320E+04 0.  0.
        3    1    3    3  502    0 -0.89311402941E+02  0.77086231104E+03  0.29923695749E+03  0.83171389084E+03  0.10100000352E+00 0.  1.
       -3    1    3    3    0  502  0.89311402941E+02 -0.77086231104E+03 -0.41552628505E+03  0.88026549009E+03  0.10100000352E+00 0. -1.
</event>
<event>
 5   0  0.1930116E-04  0.1713349E+04  0.7818609E-02  0.8753787E-01
        1   -1    0    0  501    0  0.00000000000E+00  0.00000000000E+00  0.73797980405E+03  0.73797980407E+03  0.50400001928E-02 0.  1.
       -1   -1    0    0    0  501  0.00000000000E+00  0.00000000000E+00 -0.99446025721E+03  0.99446025722E+03  0.50400001928E-02 0. -1.
    10030    2    1    2    0    0  0.00000000000E+00  0.00000000000E+00 -0.25648045316E+03  0.17324400613E+04  0.17133494515E+04 0.  0.
        1    1    3    3  502    0  0.28407142253E+03  0.13475992234E+03 -0.93401009397E+03  0.98551086520E+03  0.50400001928E-02 0. -1.
       -1    1    3    3    0  502 -0.28407142253E+03 -0.13475992234E+03  0.67752964081E+03  0.74692919609E+03  0.50400001928E-02 0.  1.
</event>
<event>
 5   0  0.1893284E-04  0.1705997E+04  0.7818609E-02  0.8757951E-01
        1   -1    0    0  501    0  0.00000000000E+00  0.00000000000E+00  0.11793897586E+04  0.11793897586E+04  0.50400001928E-02 0. -1.
       -1   -1    0    0    0  501  0.00000000000E+00  0.00000000000E+00 -0.61693473374E+03  0.61693473376E+03  0.50400001928E-02 0.  1.
    10030    2    1    2    0    0  0.00000000000E+00  0.00000000000E+00  0.56245502482E+03  0.17963244923E+04  0.17059970770E+04 0.  0.
        2    1    3    3  502    0 -0.38855868062E+03  0.75559173380E+03  0.20166351677E+03  0.87324961522E+03  0.25500000920E-02 0.  1.
       -2    1    3    3    0  502  0.38855868062E+03 -0.75559173380E+03  0.36079150805E+03  0.92307487711E+03  0.25500000920E-02 0. -1.
</event>
<event>
 5   0  0.3678896E-04  0.1652650E+04  0.7818609E-02  0.8788841E-01
       -2   -1    0    0    0  501  0.00000000000E+00  0.00000000000E+00  0.61708968120E+03  0.61708968121E+03  0.25500000920E-02 0.  1.
        2   -1    0    0  501    0  0.00000000000E+00  0.00000000000E+00 -0.11065048177E+04  0.11065048177E+04  0.25500000920E-02 0. -1.
    10030    2    1    2    0    0  0.00000000000E+00  0.00000000000E+00 -0.48941513647E+03  0.17235944989E+04  0.16526496364E+04 0.  0.
        2    1    3    3  502    0 -0.60436871698E+03 -0.12673604051E+03 -0.81735872176E+03  0.10244017035E+04  0.25500000920E-02 0. -1.
       -2    1    3    3    0  502  0.60436871698E+03  0.12673604051E+03  0.32794358529E+03  0.69919279542E+03  0.25500000920E-02 0.  1.
</event>
<event>
 5   0  0.3573262E-04  0.1698004E+04  0.7818609E-02  0.8762504E-01
       -2   -1    0    0    0  501  0.00000000000E+00  0.00000000000E+00  0.52639858361E+03  0.52639858362E+03  0.25500000920E-02 0.  1.
        2   -1    0    0  501    0  0.00000000000E+00  0.00000000000E+00 -0.13693122728E+04  0.13693122728E+04  0.25500000920E-02 0. -1.
    10030    2    1    2    0    0  0.00000000000E+00  0.00000000000E+00 -0.84291368923E+03  0.18957108565E+04  0.16980035818E+04 0.  0.
        5    1    3    3  502    0  0.46304436673E+03 -0.25240917044E+03  0.32133881805E+03  0.61757687851E+03  0.46999998093E+01 0.  1.
       -5    1    3    3    0  502 -0.46304436673E+03  0.25240917044E+03 -0.11642525073E+04  0.12781339779E+04  0.46999998093E+01 0. -1.
</event>
<event>
 5   0  0.1930116E-04  0.1480017E+04  0.7818609E-02  0.8897852E-01
        1   -1    0    0  501    0  0.00000000000E+00  0.00000000000E+00  0.49899095373E+03  0.49899095375E+03  0.50400001928E-02 0. -1.
       -1   -1    0    0    0  501  0.00000000000E+00  0.00000000000E+00 -0.10974391630E+04  0.10974391630E+04  0.50400001928E-02 0.  1.
    10030    2    1    2    0    0  0.00000000000E+00  0.00000000000E+00 -0.59844820928E+03  0.15964301168E+04  0.14800165062E+04 0.  0.
        1    1    3    3  502    0 -0.56384463782E+03  0.10900846420E+03 -0.80263296912E+03  0.98692618975E+03  0.50400001928E-02 0.  1.
       -1    1    3    3    0  502  0.56384463782E+03 -0.10900846420E+03  0.20418475985E+03  0.60950392702E+03  0.50400001928E-02 0. -1.
</event>
<event>
 5   0  0.3516723E-04  0.1697992E+04  0.7818609E-02  0.8762510E-01
        2   -1    0    0  501    0  0.00000000000E+00  0.00000000000E+00  0.93306297769E+03  0.93306297770E+03  0.25500000920E-02 0. -1.
       -2   -1    0    0    0  501  0.00000000000E+00  0.00000000000E+00 -0.77250355977E+03  0.77250355978E+03  0.25500000920E-02 0.  1.
    10030    2    1    2    0    0  0.00000000000E+00  0.00000000000E+00  0.16055941792E+03  0.17055665375E+04  0.16979923107E+04 0.  0.
        1    1    3    3  502    0 -0.50044975011E+03  0.20988234722E+03 -0.57554460960E+03  0.79104497326E+03  0.50400001928E-02 0.  1.
       -1    1    3    3    0  502  0.50044975011E+03 -0.20988234722E+03  0.73610402752E+03  0.91452156421E+03  0.50400001928E-02 0. -1.
</event>
<event>
 5   0  0.1930116E-04  0.1688702E+04  0.7818609E-02  0.8767834E-01
       -1   -1    0    0    0  501  0.00000000000E+00  0.00000000000E+00  0.38393844365E+03  0.38393844368E+03  0.50400001928E-02 0.  1.
        1   -1    0    0  501    0  0.00000000000E+00  0.00000000000E+00 -0.18568827259E+04  0.18568827259E+04  0.50400001928E-02 0. -1.
    10030    2    1    2    0    0  0.00000000000E+00  0.00000000000E+00 -0.14729442823E+04  0.22408211696E+04  0.16887020624E+04 0.  0.
        1    1    3    3  502    0 -0.28294895932E+03 -0.33443309440E+02 -0.17911669854E+04  0.18136862292E+04  0.50400001928E-02 0. -1.
       -1    1    3    3    0  502  0.28294895932E+03  0.33443309440E+02  0.31822270309E+03  0.42713494041E+03  0.50400001928E-02 0.  1.
</event>
<event>
 5   0  0.3573262E-04  0.1485236E+04  0.7818609E-02  0.8894331E-01
        2   -1    0    0  501    0  0.00000000000E+00  0.00000000000E+00  0.11812530870E+04  0.11812530870E+04  0.25500000920E-02 0. -1.
       -2   -1    0    0    0  501  0.00000000000E+00  0.00000000000E+00 -0.46686120323E+03  0.46686120324E+03  0.25500000920E-02 0.  1.
    10030    2    1    2    0    0  0.00000000000E+00  0.00000000000E+00  0.71439188374E+03  0.16481142902E+04  0.14852356547E+04 0.  0.
        5    1    3    3  502    0 -0.29914479375E+03  0.49879910279E+03 -0.15514140472E+03  0.60197931694E+03  0.46999998093E+01 0.  1.
       -5    1    3    3    0  502  0.29914479375E+03 -0.49879910279E+03  0.86953328845E+03  0.10461349733E+04  0.46999998093E+01 0. -1.
</event>
<event>
 5   0  0.3516723E-04  0.1709276E+04  0.7818609E-02  0.8756091E-01
       -2   -1    0    0    0  501  0.00000000000E+00  0.00000000000E+00  0.59479919161E+03  0.59479919162E+03  0.25500000920E-02 0.  1.
        2   -1    0    0  501    0  0.00000000000E+00  0.00000000000E+00 -0.12279878707E+04  0.12279878707E+04  0.25500000920E-02 0. -1.
    10030    2    1    2    0    0  0.00000000000E+00  0.00000000000E+00 -0.63318867905E+03  0.18227870623E+04  0.17092760956E+04 0.  0.
        1    1    3    3  502    0  0.10694462094E+03  0.32326896999E+03  0.51934107115E+03  0.62101137438E+03  0.50400001928E-02 0.  1.
       -1    1    3    3    0  502 -0.10694462094E+03 -0.32326896999E+03 -0.11525297502E+04  0.12017756879E+04  0.50400001928E-02 0. -1.
</event>
<event>
 5   0  0.3573262E-04  0.1739269E+04  0.7818609E-02  0.8739279E-01
       -2   -1    0    0    0  501  0.00000000000E+00  0.00000000000E+00  0.66808887852E+03  0.66808887853E+03  0.25500000920E-02 0.  1.
        2   -1    0    0  501    0  0.00000000000E+00  0.00000000000E+00 -0.11319811723E+04  0.11319811723E+04  0.25500000920E-02 0. -1.
    10030    2    1    2    0    0  0.00000000000E+00  0.00000000000E+00 -0.46389229374E+03  0.18000700508E+04  0.17392688486E+04 0.  0.
        5    1    3    3  502    0  0.73547996298E+03  0.10061020927E+03  0.23686665501E+03  0.77921825723E+03  0.46999998093E+01 0. -1.
       -5    1    3    3    0  502 -0.73547996298E+03 -0.10061020927E+03 -0.70075894875E+03  0.10208517936E+04  0.46999998093E+01 0.  1.
</event>
<event>
 5   0  0.3573262E-04  0.1701304E+04  0.7818609E-02  0.8760621E-01
        2   -1    0    0  501    0  0.00000000000E+00  0.00000000000E+00  0.13605116996E+04  0.13605116996E+04  0.25500000920E-02 0.  1.
       -2   -1    0    0    0  501  0.00000000000E+00  0.00000000000E+00 -0.53186523851E+03  0.53186523851E+03  0.25500000920E-02 0. -1.
    10030    2    1    2    0    0  0.00000000000E+00  0.00000000000E+00  0.82864646111E+03  0.18923769381E+04  0.17013040641E+04 0.  0.
        5    1    3    3  502    0  0.74036844328E+03 -0.19204382292E+02 -0.51085724566E+02  0.74239213449E+03  0.46999998093E+01 0. -1.
       -5    1    3    3    0  502 -0.74036844328E+03  0.19204382292E+02  0.87973218568E+03  0.11499848036E+04  0.46999998093E+01 0.  1.
</event>
<event>
 5   0  0.1317625E-04  0.1691834E+04  0.7818609E-02  0.8766036E-01
       -4   -1    0    0    0  501  0.00000000000E+00  0.00000000000E+00  0.64942586648E+03  0.64942710826E+03  0.12699999809E+01 0. -1.
        4   -1    0    0  501    0  0.00000000000E+00  0.00000000000E+00 -0.11018555083E+04  0.11018562402E+04  0.12699999809E+01 0.  1.
    10030    2    1    2    0    0  0.00000000000E+00  0.00000000000E+00 -0.45242964186E+03  0.17512833485E+04  0.16918335574E+04 0.  0.
        3    1    3    3  502    0 -0.60196040161E+03  0.59228825140E+03 -0.17536125706E+03  0.86250407450E+03  0.10100000352E+00 0. -1.
       -3    1    3    3    0  502  0.60196040161E+03 -0.59228825140E+03 -0.27706838480E+03  0.88877927401E+03  0.10100000352E+00 0.  1.
</event>
<event>
 5   0  0.3516723E-04  0.1674463E+04  0.7818609E-02  0.8776065E-01
       -2   -1    0    0    0  501  0.00000000000E+00  0.00000000000E+00  0.49798874523E+03  0.49798874523E+03  0.25500000920E-02 0. -1.
        2   -1    0    0  501    0  0.00000000000E+00  0.00000000000E+00 -0.14075752351E+04  0.14075752351E+04  0.25500000920E-02 0.  1.
    10030    2    1    2    0    0  0.00000000000E+00  0.00000000000E+00 -0.90958648990E+03  0.19055639804E+04  0.16744630485E+04 0.  0.
        1    1    3    3  502    0 -0.32529773094E+03 -0.68622908322E+03 -0.85589735632E+03  0.11442417808E+04  0.50400001928E-02 0.  1.
       -1    1    3    3    0  502  0.32529773094E+03  0.68622908322E+03 -0.53689133577E+02  0.76132219953E+03  0.50400001928E-02 0. -1.
</event>
<event>
 5   0  0.1893284E-04  0.1743853E+04  0.7818609E-02  0.8736741E-01
        1   -1    0    0  501    0  0.00000000000E+00  0.00000000000E+00  0.94131116660E+03  0.94131116662E+03  0.50400001928E-02 0. -1.
       -1   -1    0    0    0  501  0.00000000000E+00  0.00000000000E+00 -0.80765606783E+03  0.80765606784E+03  0.50400001928E-02 0.  1.
    10030    2    1    2    0    0  0.00000000000E+00  0.00000000000E+00  0.13365509878E+03  0.17489672345E+04  0.17438528326E+04 0.  0.
        2    1    3    3  502    0 -0.28312497439E+03  0.85067124962E+02 -0.75585832274E+03  0.81161442258E+03  0.25500000920E-02 0.  1.
       -2    1    3    3    0  502  0.28312497439E+03 -0.85067124962E+02  0.88951342152E+03  0.93735281188E+03  0.25500000920E-02 0. -1.
</event>
<event>
 5   0  0.3605571E-04  0.1693464E+04  0.7818609E-02  0.8765101E-01
        2   -1    0    0  501    0  0.00000000000E+00  0.00000000000E+00  0.63400738869E+03  0.63400738870E+03  0.25500000920E-02 0. -1.
       -2   -1    0    0    0  501  0.00000000000E+00  0.00000000000E+00 -0.11308312942E+04  0.11308312942E+04  0.25500000920E-02 0.  1.
    10030    2    1    2    0    0  0.00000000000E+00  0.00000000000E+00 -0.49682390549E+03  0.17648386829E+04  0.16934643733E+04 0.  0.
        4    1    3    3  502    0 -0.46435608075E+03  0.90299516071E+02 -0.98027309411E+03  0.10884472997E+04  0.12699999809E+01 0.  1.
       -4    1    3    3    0  502  0.46435608075E+03 -0.90299516071E+02  0.48344918862E+03  0.67639138316E+03  0.12699999809E+01 0. -1.
</event>
<event>
 5   0  0.1824538E-04  0.1705944E+04  0.7818609E-02  0.8757982E-01
       -1   -1    0    0    0  501  0.00000000000E+00  0.00000000000E+00  0.59070201097E+03  0.59070201099E+03  0.50400001928E-02 0. -1.
        1   -1    0    0  501    0  0.00000000000E+00  0.00000000000E+00 -0.12316891430E+04  0.12316891430E+04  0.50400001928E-02 0.  1.
    10030    2    1    2    0    0  0.00000000000E+00  0.00000000000E+00 -0.64098713204E+03  0.18223911540E+04  0.17059440245E+04 0.  0.
        3    1    3    3  502    0  0.69467646493E+03 -0.40355275786E+03 -0.14346260827E+02  0.80351480677E+03  0.10100000352E+00 0. -1.
       -3    1    3    3    0  502 -0.69467646493E+03  0.40355275786E+03 -0.62664087121E+03  0.10188763472E+04  0.10100000352E+00 0.  1.
</event>
<event>
 5   0  0.3574092E-04  0.1717689E+04  0.7818609E-02  0.8751340E-01
       -2   -1    0    0    0  501  0.00000000000E+00  0.00000000000E+00  0.15433148849E+04  0.15433148849E+04  0.25500000920E-02 0. -1.
        2   -1    0    0  501    0  0.00000000000E+00  0.00000000000E+00 -0.47794117216E+03  0.47794117217E+03  0.25500000920E-02 0.  1.
    10030    2    1    2    0    0  0.00000000000E+00  0.00000000000E+00  0.10653737127E+04  0.20212560571E+04  0.17176888253E+04 0.  0.
        3    1    3    3  502    0  0.63122792010E+03  0.52078135882E+03  0.83943174866E+03  0.11723086546E+04  0.10100000352E+00 0.  1.
       -3    1    3    3    0  502 -0.63122792010E+03 -0.52078135882E+03  0.22594196407E+03  0.84894740246E+03  0.10100000352E+00 0. -1.
</event>
<event>
 5   0  0.1920289E-04  0.1697215E+04  0.7818609E-02  0.8762954E-01
       -1   -1    0    0    0  501  0.00000000000E+00  0.00000000000E+00  0.76684462253E+03  0.76684462254E+03  0.50400001928E-02 0.  1.
        1   -1    0    0  501    0  0.00000000000E+00  0.00000000000E+00 -0.93908816855E+03  0.93908816857E+03  0.50400001928E-02 0. -1.
    10030    2    1    2    0    0  0.00000000000E+00  0.00000000000E+00 -0.17224354603E+03  0.17059327911E+04  0.16972150272E+04 0.  0.
        4    1    3    3  502    0  0.35068004396E+03 -0.49807798484E+03 -0.67998218713E+03  0.91292691927E+03  0.12699999809E+01 0. -1.
       -4    1    3    3    0  502 -0.35068004396E+03  0.49807798484E+03  0.50773864110E+03  0.79300587184E+03  0.12699999809E+01 0.  1.
</event>
<event>
 5   0  0.3516723E-04  0.1695139E+04  0.7818609E-02  0.8764141E-01
        2   -1    0    0  501    0  0.00000000000E+00  0.00000000000E+00  0.18069077708E+04  0.18069077708E+04  0.25500000920E-02 0. -1.
       -2   -1    0    0    0  501  0.00000000000E+00  0.00000000000E+00 -0.39757106686E+03  0.39757106687E+03  0.25500000920E-02 0.  1.
    10030    2    1    2    0    0  0.00000000000E+00  0.00000000000E+00  0.14093367040E+04  0.22044788377E+04  0.16951392275E+04 0.  0.
        1    1    3    3  502    0 -0.45852960842E+03 -0.59903236489E+03  0.20219995227E+03  0.78100832051E+03  0.50400001928E-02 0.  1.
       -1    1    3    3    0  502  0.45852960842E+03  0.59903236489E+03  0.12071367517E+04  0.14234705172E+04  0.50400001928E-02 0. -1.
</event>
<event>
 5   0  0.1815663E-04  0.1743965E+04  0.7818609E-02  0.8736679E-01
        1   -1    0    0  501    0  0.00000000000E+00  0.00000000000E+00  0.10465854269E+04  0.10465854269E+04  0.50400001928E-02 0. -1.
       -1   -1    0    0    0  501  0.00000000000E+00  0.00000000000E+00 -0.72650908055E+03  0.72650908057E+03  0.50400001928E-02 0.  1.
    10030    2    1    2    0    0  0.00000000000E+00  0.00000000000E+00  0.32007634638E+03  0.17730945075E+04  0.17439653853E+04 0.  0.
        5    1    3    3  502    0  0.79430123238E+03  0.35858629078E+03  0.18938463683E+03  0.89184483311E+03  0.46999998093E+01 0.  1.
       -5    1    3    3    0  502 -0.79430123238E+03 -0.35858629078E+03  0.13069170956E+03  0.88124967440E+03  0.46999998093E+01 0. -1.
</event>
<event>
 5   0  0.1920289E-04  0.1687526E+04  0.7818609E-02  0.8768511E-01
       -1   -1    0    0    0  501  0.00000000000E+00  0.00000000000E+00  0.71240222552E+03  0.71240222553E+03  0.50400001928E-02 0.  1.
        1   -1    0    0  501    0  0.00000000000E+00  0.00000000000E+00 -0.99934550496E+03  0.99934550497E+03  0.50400001928E-02 0. -1.
    10030    2    1    2    0    0  0.00000000000E+00  0.00000000000E+00 -0.28694327944E+03  0.17117477305E+04  0.16875259545E+04 0.  0.
        4    1    3    3  502    0  0.60141945981E+03  0.18328052610E+03 -0.71425366634E+03  0.95155505918E+03  0.12699999809E+01 0. -1.
       -4    1    3    3    0  502 -0.60141945981E+03 -0.18328052610E+03  0.42731038690E+03  0.76019267132E+03  0.12699999809E+01 0.  1.
</event>
<event>
 5   0  0.3574092E-04  0.1726611E+04  0.7818609E-02  0.8746331E-01
       -2   -1    0    0    0  501  0.00000000000E+00  0.00000000000E+00  0.56390374939E+03  0.56390374939E+03  0.25500000920E-02 0.  1.
        2   -1    0    0  501    0  0.00000000000E+00  0.00000000000E+00 -0.13216726402E+04  0.13216726402E+04  0.25500000920E-02 0. -1.
    10030    2    1    2    0    0  0.00000000000E+00  0.00000000000E+00 -0.75776889084E+03  0.18855763896E+04  0.17266107347E+04 0.  0.
        3    1    3    3  502    0  0.29654661490E+03 -0.35129697286E+03 -0.11768766407E+04  0.12634825268E+04  0.10100000352E+00 0. -1.
       -3    1    3    3    0  502 -0.29654661490E+03  0.35129697286E+03  0.41910774986E+03  0.62209386281E+03  0.10100000352E+00 0.  1.
</event>
<event>
 5   0  0.1815663E-04  0.1691680E+04  0.7818609E-02  0.8766124E-01
        1   -1    0    0  501    0  0.00000000000E+00  0.00000000000E+00  0.66311196370E+03  0.66311196372E+03  0.50400001928E-02 0.  1.
       -1   -1    0    0    0  501  0.00000000000E+00  0.00000000000E+00 -0.10789202574E+04  0.10789202574E+04  0.50400001928E-02 0. -1.
    10030    2    1    2    0    0  0.00000000000E+00  0.00000000000E+00 -0.41580829370E+03  0.17420322211E+04  0.16916795566E+04 0.  0.
        5    1    3    3  502    0 -0.60720765379E+03 -0.47033285055E+03 -0.57272111094E+03  0.95809482100E+03  0.46999998093E+01 0. -1.
       -5    1    3    3    0  502  0.60720765379E+03  0.47033285055E+03  0.15691281723E+03  0.78393740014E+03  0.46999998093E+01 0.  1.
</event>
<event>
 5   0  0.1824538E-04  0.1709352E+04  0.7818609E-02  0.8756048E-01
        1   -1    0    0  501    0  0.00000000000E+00  0.00000000000E+00  0.17172765378E+04  0.17172765378E+04  0.50400001928E-02 0. -1.
       -1   -1    0    0    0  501  0.00000000000E+00  0.00000000000E+00 -0.42536619635E+03  0.42536619638E+03  0.50400001928E-02 0.  1.
    10030    2    1    2    0    0  0.00000000000E+00  0.00000000000E+00  0.12919103415E+04  0.21426427342E+04  0.17093523791E+04 0.  0.
        3    1    3    3  502    0  0.87850289788E+01 -0.37156978443E+03 -0.31876211883E+03  0.48964331920E+03  0.10100000352E+00 0.  1.
       -3    1    3    3    0  502 -0.87850289788E+01  0.37156978443E+03  0.16106724603E+04  0.16529994150E+04  0.10100000352E+00 0. -1.
</event>
<event>
 5   0  0.1893284E-04  0.1703492E+04  0.7818609E-02  0.8759375E-01
       -1   -1    0    0    0  501  0.00000000000E+00  0.00000000000E+00  0.96978714717E+03  0.96978714718E+03  0.50400001928E-02 0.  1.
        1   -1    0    0  501    0  0.00000000000E+00  0.00000000000E+00 -0.74807247805E+03  0.74807247807E+03  0.50400001928E-02 0. -1.
    10030    2    1    2    0    0  0.00000000000E+00  0.00000000000E+00  0.22171466912E+03  0.17178596252E+04  0.17034917956E+04 0.  0.
        2    1    3    3  502    0 -0.19787049867E+02 -0.72065936982E+03 -0.34654253671E+03  0.79989573346E+03  0.25500000920E-02 0. -1.
       -2    1    3    3    0  502  0.19787049867E+02  0.72065936982E+03  0.56825720582E+03  0.91796389179E+03  0.25500000920E-02 0.  1.
</event>
<event>
 5   0  0.3678896E-04  0.1716070E+04  0.7818609E-02  0.8752252E-01
        2   -1    0    0  501    0  0.00000000000E+00  0.00000000000E+00  0.18481357988E+04  0.18481357988E+04  0.25500000920E-02 0.  1.
       -2   -1    0    0    0  501  0.00000000000E+00  0.00000000000E+00 -0.39836025375E+03  0.39836025375E+03  0.25500000920E-02 0. -1.
    10030    2    1    2    0    0  0.00000000000E+00  0.00000000000E+00  0.14497755450E+04  0.22464960525E+04  0.17160697489E+04 0.  0.
        2    1    3    3  502    0 -0.28932483953E+03  0.40952121103E+03 -0.18660940193E+03  0.53501360165E+03  0.25500000920E-02 0. -1.
       -2    1    3    3    0  502  0.28932483953E+03 -0.40952121103E+03  0.16363849470E+04  0.17114824509E+04  0.25500000920E-02 0.  1.
</event>
<event>
 5   0  0.1893284E-04  0.1705641E+04  0.7818609E-02  0.8758154E-01
       -1   -1    0    0    0  501  0.00000000000E+00  0.00000000000E+00  0.11051269906E+04  0.11051269906E+04  0.50400001928E-02 0. -1.
        1   -1    0    0  501    0  0.00000000000E+00  0.00000000000E+00 -0.65811703475E+03  0.65811703477E+03  0.50400001928E-02 0.  1.
    10030    2    1    2    0    0  0.00000000000E+00  0.00000000000E+00  0.44700995581E+03  0.17632440253E+04  0.17056411089E+04 0.  0.
        2    1    3    3  502    0  0.36541639419E+03  0.50316683034E+03  0.82682134911E+03  0.10345721549E+04  0.25500000920E-02 0. -1.
       -2    1    3    3    0  502 -0.36541639419E+03 -0.50316683034E+03 -0.37981139331E+03  0.72867187045E+03  0.25500000920E-02 0.  1.
</event>
<event>
 5   0  0.1893284E-04  0.1690856E+04  0.7818609E-02  0.8766597E-01
       -1   -1    0    0    0  501  0.00000000000E+00  0.00000000000E+00  0.51869231343E+03  0.51869231345E+03  0.50400001928E-02 0. -1.
        1   -1    0    0  501    0  0.00000000000E+00  0.00000000000E+00 -0.13779808919E+04  0.13779808920E+04  0.50400001928E-02 0.  1.
    10030    2    1    2    0    0  0.00000000000E+00  0.00000000000E+00 -0.85928857852E+03  0.18966732054E+04  0.16908555192E+04 0.  0.
        2    1    3    3  502    0 -0.84878433549E+01 -0.54108449657E+03  0.29896153027E+03  0.61824143545E+03  0.25500000920E-02 0. -1.
       -2    1    3    3    0  502  0.84878433549E+01  0.54108449657E+03 -0.11582501088E+04  0.12784317700E+04  0.25500000920E-02 0.  1.
</event>
<event>
 5   0  0.1824538E-04  0.1666720E+04  0.7818609E-02  0.8780576E-01
       -1   -1    0    0    0  501  0.00000000000E+00  0.00000000000E+00  0.48995675267E+03  0.48995675270E+03  0.50400001928E-02 0.  1.
        1   -1    0    0  501    0  0.00000000000E+00  0.00000000000E+00 -0.14174493280E+04  0.14174493280E+04  0.50400001928E-02 0. -1.
    10030    2    1    2    0    0  0.00000000000E+00  0.00000000000E+00 -0.92749257529E+03  0.19074060807E+04  0.16667199763E+04 0.  0.
        3    1    3    3  502    0 -0.69412114739E+03  0.78721435075E+02  0.56282684438E+02  0.70083448999E+03  0.10100000352E+00 0.  1.
       -3    1    3    3    0  502  0.69412114739E+03 -0.78721435075E+02 -0.98377525973E+03  0.12065715907E+04  0.10100000352E+00 0. -1.
</event>
<event>
 5   0  0.3516723E-04  0.1693854E+04  0.7818609E-02  0.8764877E-01
        2   -1    0    0  501    0  0.00000000000E+00  0.00000000000E+00  0.92182379467E+03  0.92182379468E+03  0.25500000920E-02 0. -1.
       -2   -1    0    0    0  501  0.00000000000E+00  0.00000000000E+00 -0.77811533848E+03  0.77811533848E+03  0.25500000920E-02 0.  1.
    10030    2    1    2    0    0  0.00000000000E+00  0.00000000000E+00  0.14370845619E+03  0.16999391332E+04  0.16938538709E+04 0.  0.
        1    1    3    3  502    0  0.18050267630E+03  0.15732165337E+03 -0.74343975177E+03  0.78104672287E+03  0.50400001928E-02 0.  1.
       -1    1    3    3    0  502 -0.18050267630E+03 -0.15732165337E+03  0.88714820796E+03  0.91889241029E+03  0.50400001928E-02 0. -1.
</event>
<event>
 5   0  0.3605571E-04  0.1700772E+04  0.7818609E-02  0.8760924E-01
        2   -1    0    0  501    0  0.00000000000E+00  0.00000000000E+00  0.14298797726E+04  0.14298797726E+04  0.25500000920E-02 0.  1.
       -2   -1    0    0    0  501  0.00000000000E+00  0.00000000000E+00 -0.50574649029E+03  0.50574649029E+03  0.25500000920E-02 0. -1.
    10030    2    1    2    0    0  0.00000000000E+00  0.00000000000E+00  0.92413328234E+03  0.19356262629E+04  0.17007723852E+04 0.  0.
        4    1    3    3  502    0  0.54991969045E+03  0.13391592255E+03  0.11843795739E+04  0.13126696951E+04  0.12699999809E+01 0.  1.
       -4    1    3    3    0  502 -0.54991969045E+03 -0.13391592255E+03 -0.26024629160E+03  0.62295656787E+03  0.12699999809E+01 0. -1.
</event>
<event>
 5   0  0.1930116E-04  0.1668913E+04  0.7818609E-02  0.8779296E-01
       -1   -1    0    0    0  501  0.00000000000E+00  0.00000000000E+00  0.43161411933E+03  0.43161411936E+03  0.50400001928E-02 0.  1.
        1   -1    0    0  501    0  0.00000000000E+00  0.00000000000E+00 -0.16132872948E+04  0.16132872948E+04  0.50400001928E-02 0. -1.
    10030    2    1    2    0    0  0.00000000000E+00  0.00000000000E+00 -0.11816731755E+04  0.20449014142E+04  0.16689129097E+04 0.  0.
        1    1    3    3  502    0 -0.83124335384E+03 -0.43204248563E+02 -0.66317490725E+03  0.10642523564E+04  0.50400001928E-02 0. -1.
       -1    1    3    3    0  502  0.83124335384E+03  0.43204248563E+02 -0.51849826821E+03  0.98064905779E+03  0.50400001928E-02 0.  1.
</event>
<event>
 5   0  0.3516723E-04  0.1705066E+04  0.7818609E-02  0.8758480E-01
        2   -1    0    0  501    0  0.00000000000E+00  0.00000000000E+00  0.16729108643E+04  0.16729108643E+04  0.25500000920E-02 0.  1.
       -2   -1    0    0    0  501  0.00000000000E+00  0.00000000000E+00 -0.43445970287E+03  0.43445970288E+03  0.25500000920E-02 0. -1.
    10030    2    1    2    0    0  0.00000000000E+00  0.00000000000E+00  0.12384511614E+04  0.21073705672E+04  0.17050658134E+04 0.  0.
        1    1    3    3  502    0  0.37723530005E+03 -0.23836172877E+03  0.15170450504E+04  0.15813122621E+04  0.50400001928E-02 0.  1.
       -1    1    3    3    0  502 -0.37723530005E+03  0.23836172877E+03 -0.27859388896E+03  0.52605830507E+03  0.50400001928E-02 0. -1.
</event>
<event>
 5   0  0.3605571E-04  0.1686439E+04  0.7818609E-02  0.8769137E-01
       -2   -1    0    0    0  501  0.00000000000E+00  0.00000000000E+00  0.93239776689E+03  0.93239776689E+03  0.25500000920E-02 0.  1.
        2   -1    0    0  501    0  0.00000000000E+00  0.00000000000E+00 -0.76257077964E+03  0.76257077964E+03  0.25500000920E-02 0. -1.
    10030    2    1    2    0    0  0.00000000000E+00  0.00000000000E+00  0.16982698725E+03  0.16949685465E+04  0.16864391979E+04 0.  0.
        4    1    3    3  502    0  0.11352261602E+03 -0.26520430571E+03  0.88125722084E+03  0.92727375154E+03  0.12699999809E+01 0.  1.
       -4    1    3    3    0  502 -0.11352261602E+03  0.26520430571E+03 -0.71143023359E+03  0.76769479500E+03  0.12699999809E+01 0. -1.
</event>
<event>
 5   0  0.3573262E-04  0.1696545E+04  0.7818609E-02  0.8763337E-01
        2   -1    0    0  501    0  0.00000000000E+00  0.00000000000E+00  0.16533265046E+04  0.16533265046E+04  0.25500000920E-02 0. -1.
       -2   -1    0    0    0  501  0.00000000000E+00  0.00000000000E+00 -0.43522331444E+03  0.43522331445E+03  0.25500000920E-02 0.  1.
    10030    2    1    2    0    0  0.00000000000E+00  0.00000000000E+00  0.12181031902E+04  0.20885498191E+04  0.16965450082E+04 0.  0.
        5    1    3    3  502    0  0.68779385973E+03 -0.82251294737E+02  0.63113184030E+01  0.69273919458E+03  0.46999998093E+01 0.  1.
       -5    1    3    3    0  502 -0.68779385973E+03  0.82251294737E+02  0.12117918718E+04  0.13958106245E+04  0.46999998093E+01 0. -1.
</event>
<event>
 5   0  0.3516723E-04  0.1691523E+04  0.7818609E-02  0.8766214E-01
        2   -1    0    0  501    0  0.00000000000E+00  0.00000000000E+00  0.14222693339E+04  0.14222693339E+04  0.25500000920E-02 0.  1.
       -2   -1    0    0    0  501  0.00000000000E+00  0.00000000000E+00 -0.50293765467E+03  0.50293765467E+03  0.25500000920E-02 0. -1.
    10030    2    1    2    0    0  0.00000000000E+00  0.00000000000E+00  0.91933167922E+03  0.19252069886E+04  0.16915233408E+04 0.  0.
        1    1    3    3  502    0  0.57581546528E+03 -0.12043844359E+03  0.11512676470E+04  0.12928596458E+04  0.50400001928E-02 0.  1.
       -1    1    3    3    0  502 -0.57581546528E+03  0.12043844359E+03 -0.23193596774E+03  0.63234734277E+03  0.50400001928E-02 0. -1.
</event>
<event>
 5   0  0.3573262E-04  0.1698696E+04  0.7818609E-02  0.8762108E-01
       -2   -1    0    0    0  501  0.00000000000E+00  0.00000000000E+00  0.12293054262E+04  0.12293054262E+04  0.25500000920E-02 0. -1.
        2   -1    0    0  501    0  0.00000000000E+00  0.00000000000E+00 -0.58682897362E+03  0.58682897363E+03  0.25500000920E-02 0.  1.
    10030    2    1    2    0    0  0.00000000000E+00  0.00000000000E+00  0.64247645257E+03  0.18161343998E+04  0.16986960193E+04 0.  0.
        5    1    3    3  502    0  0.35391450083E+03 -0.85737700594E+02 -0.49911853840E+03  0.61785745328E+03  0.46999998093E+01 0.  1.
       -5    1    3    3    0  502 -0.35391450083E+03  0.85737700594E+02  0.11415949910E+04  0.11982769465E+04  0.46999998093E+01 0. -1.
</event>
<event>
 5   0  0.3516723E-04  0.1740510E+04  0.7818609E-02  0.8738591E-01
        2   -1    0    0  501    0  0.00000000000E+00  0.00000000000E+00  0.24531318365E+04  0.24531318365E+04  0.25500000920E-02 0. -1.
       -2   -1    0    0    0  501  0.00000000000E+00  0.00000000000E+00 -0.30872542300E+03  0.30872542301E+03  0.25500000920E-02 0.  1.
    10030    2    1    2    0    0  0.00000000000E+00  0.00000000000E+00  0.21444064135E+04  0.27618572595E+04  0.17405104584E+04 0.  0.
        1    1    3    3  502    0  0.71490467595E+03  0.24018836033E+03  0.38314619321E+03  0.84591970632E+03  0.50400001928E-02 0.  1.
       -1    1    3    3    0  502 -0.71490467595E+03 -0.24018836033E+03  0.17612602203E+04  0.19159375532E+04  0.50400001928E-02 0. -1.
</event>
<event>
 5   0  0.1920289E-04  0.1727146E+04  0.7818609E-02  0.8746032E-01
        1   -1    0    0  501    0  0.00000000000E+00  0.00000000000E+00  0.16667952359E+04  0.16667952359E+04  0.50400001928E-02 0.  1.
       -1   -1    0    0    0  501  0.00000000000E+00  0.00000000000E+00 -0.44742029692E+03  0.44742029695E+03  0.50400001928E-02 0. -1.
    10030    2    1    2    0    0  0.00000000000E+00  0.00000000000E+00  0.12193749390E+04  0.21142155329E+04  0.17271456446E+04 0.  0.
        4    1    3    3  502    0 -0.71404300618E+03 -0.34775028236E+03  0.19462814971E+03  0.81772208183E+03  0.12699999809E+01 0. -1.
       -4    1    3    3    0  502  0.71404300618E+03  0.34775028236E+03  0.10247467893E+04  0.12964934511E+04  0.12699999809E+01 0.  1.
</event>
<event>
 5   0  0.1824538E-04  0.1764336E+04  0.7818609E-02  0.8725499E-01
        1   -1    0    0  501    0  0.00000000000E+00  0.00000000000E+00  0.10036743750E+04  0.10036743750E+04  0.50400001928E-02 0. -1.
       -1   -1    0    0    0  501  0.00000000000E+00  0.00000000000E+00 -0.77537106638E+03  0.77537106640E+03  0.50400001928E-02 0.  1.
    10030    2    1    2    0    0  0.00000000000E+00  0.00000000000E+00  0.22830330861E+03  0.17790454414E+04  0.17643356489E+04 0.  0.
        3    1    3    3  502    0 -0.77867656346E+02  0.18505684079E+03  0.98033079803E+03  0.10006787147E+04  0.10100000352E+00 0. -1.
       -3    1    3    3    0  502  0.77867656346E+02 -0.18505684079E+03 -0.75202748942E+03  0.77836672673E+03  0.10100000352E+00 0.  1.
</event>
<event>
 5   0  0.3516723E-04  0.1761297E+04  0.7818609E-02  0.8727156E-01
       -2   -1    0    0    0  501  0.00000000000E+00  0.00000000000E+00  0.48755416146E+03  0.48755416147E+03  0.25500000920E-02 0. -1.
        2   -1    0    0  501    0  0.00000000000E+00  0.00000000000E+00 -0.15906788766E+04  0.15906788766E+04  0.25500000920E-02 0.  1.
    10030    2    1    2    0    0  0.00000000000E+00  0.00000000000E+00 -0.11031247151E+04  0.20782330380E+04  0.17612973694E+04 0.  0.
        1    1    3    3  502    0  0.13417779201E+02  0.14906736503E+03  0.47243703854E+03  0.49557832027E+03  0.50400001928E-02 0. -1.
       -1    1    3    3    0  502 -0.13417779201E+02 -0.14906736503E+03 -0.15755617536E+04  0.15826547178E+04  0.50400001928E-02 0.  1.
</event>
<event>
 5   0  0.1893284E-04  0.1703277E+04  0.7818609E-02  0.8759498E-01
        1   -1    0    0  501    0  0.00000000000E+00  0.00000000000E+00  0.70160243879E+03  0.70160243881E+03  0.50400001928E-02 0. -1.
       -1   -1    0    0    0  501  0.00000000000E+00  0.00000000000E+00 -0.10337590628E+04  0.10337590628E+04  0.50400001928E-02 0.  1.
    10030    2    1    2    0    0  0.00000000000E+00  0.00000000000E+00 -0.33215662398E+03  0.17353615016E+04  0.17032767005E+04 0.  0.
        2    1    3    3  502    0 -0.47915655601E+02 -0.61737158441E+03  0.42960978472E+03  0.75366315448E+03  0.25500000920E-02 0. -1.
       -2    1    3    3    0  502  0.47915655601E+02  0.61737158441E+03 -0.76176640870E+03  0.98169834711E+03  0.25500000920E-02 0.  1.
</event>
<event>
 5   0  0.3678896E-04  0.1624671E+04  0.7818609E-02  0.8805533E-01
       -2   -1    0    0    0  501  0.00000000000E+00  0.00000000000E+00  0.41620750146E+03  0.41620750147E+03  0.25500000920E-02 0. -1.
        2   -1    0    0  501    0  0.00000000000E+00  0.00000000000E+00 -0.15854805431E+04  0.15854805431E+04  0.25500000920E-02 0.  1.
    10030    2    1    2    0    0  0.00000000000E+00  0.00000000000E+00 -0.11692730416E+04  0.20016880445E+04  0.16246709149E+04 0.  0.
        2    1    3    3  502    0  0.45223724927E+03 -0.52618969096E+03 -0.64108943314E+02  0.69678122615E+03  0.25500000920E-02 0. -1.
       -2    1    3    3    0  502 -0.45223724927E+03  0.52618969096E+03 -0.11051640983E+04  0.13049068184E+04  0.25500000920E-02 0.  1.
</event>
<event>
 5   0  0.1920289E-04  0.1743356E+04  0.7818609E-02  0.8737016E-01
       -1   -1    0    0    0  501  0.00000000000E+00  0.00000000000E+00  0.15435119585E+04  0.15435119585E+04  0.50400001928E-02 0.  1.
        1   -1    0    0  501    0  0.00000000000E+00  0.00000000000E+00 -0.49226856137E+03  0.49226856140E+03  0.50400001928E-02 0. -1.
    10030    2    1    2    0    0  0.00000000000E+00  0.00000000000E+00  0.10512433971E+04  0.20357805199E+04  0.17433558573E+04 0.  0.
        4    1    3    3  502    0 -0.59312286093E+03 -0.41888691727E+03  0.10887563494E+04  0.13086836817E+04  0.12699999809E+01 0.  1.
       -4    1    3    3    0  502  0.59312286093E+03  0.41888691727E+03 -0.37512952247E+02  0.72709683818E+03  0.12699999809E+01 0. -1.
</event>
<event>
 5   0  0.3573262E-04  0.1467210E+04  0.7818609E-02  0.8906556E-01
        2   -1    0    0  501    0  0.00000000000E+00  0.00000000000E+00  0.13688937184E+04  0.13688937184E+04  0.25500000920E-02 0.  1.
       -2   -1    0    0    0  501  0.00000000000E+00  0.00000000000E+00 -0.39314686372E+03  0.39314686373E+03  0.25500000920E-02 0. -1.
    10030    2    1    2    0    0  0.00000000000E+00  0.00000000000E+00  0.97574685465E+03  0.17620405821E+04  0.14672099675E+04 0.  0.
        5    1    3    3  502    0  0.26729181197E+03 -0.22442508486E+03  0.12627795445E+04  0.13101319779E+04  0.46999998093E+01 0.  1.
       -5    1    3    3    0  502 -0.26729181197E+03  0.22442508486E+03 -0.28703268989E+03  0.45190860417E+03  0.46999998093E+01 0. -1.
</event>
<event>
 5   0  0.1920289E-04  0.1706172E+04  0.7818609E-02  0.8757852E-01
        1   -1    0    0  501    0  0.00000000000E+00  0.00000000000E+00  0.16145271610E+04  0.16145271610E+04  0.50400001928E-02 0. -1.
       -1   -1    0    0    0  501  0.00000000000E+00  0.00000000000E+00 -0.45075470311E+03  0.45075470314E+03  0.50400001928E-02 0.  1.
    10030    2    1    2    0    0  0.00000000000E+00  0.00000000000E+00  0.11637724579E+04  0.20652818641E+04  0.17061719856E+04 0.  0.
        4    1    3    3  502    0 -0.63328060659E+03 -0.23000815263E+03 -0.51513716786E+02  0.67572431721E+03  0.12699999809E+01 0.  1.
       -4    1    3    3    0  502  0.63328060659E+03  0.23000815263E+03  0.12152861746E+04  0.13895575469E+04  0.12699999809E+01 0. -1.
</event>
<event>
 5   0  0.3516723E-04  0.1705348E+04  0.7818609E-02  0.8758320E-01
       -2   -1    0    0    0  501  0.00000000000E+00  0.00000000000E+00  0.11087434430E+04  0.11087434430E+04  0.25500000920E-02 0. -1.
        2   -1    0    0  501    0  0.00000000000E+00  0.00000000000E+00 -0.65574460756E+03  0.65574460757E+03  0.25500000920E-02 0.  1.
    10030    2    1    2    0    0  0.00000000000E+00  0.00000000000E+00  0.45299883541E+03  0.17644880505E+04  0.17053475117E+04 0.  0.
        1    1    3    3  502    0  0.87102200818E+02  0.45403696699E+03 -0.51480792804E+03  0.69192742653E+03  0.50400001928E-02 0.  1.
       -1    1    3    3    0  502 -0.87102200818E+02 -0.45403696699E+03  0.96780676345E+03  0.10725606240E+04  0.50400001928E-02 0. -1.
</event>
<event>
 5   0  0.1893284E-04  0.1695314E+04  0.7818609E-02  0.8764042E-01
       -1   -1    0    0    0  501  0.00000000000E+00  0.00000000000E+00  0.86407931678E+03  0.86407931679E+03  0.50400001928E-02 0. -1.
        1   -1    0    0  501    0  0.00000000000E+00  0.00000000000E+00 -0.83154666640E+03  0.83154666642E+03  0.50400001928E-02 0.  1.
    10030    2    1    2    0    0  0.00000000000E+00  0.00000000000E+00  0.32532650374E+02  0.16956259832E+04  0.16953138652E+04 0.  0.
        2    1    3    3  502    0 -0.66065244751E+03  0.43486822741E+03 -0.28866722885E+03  0.84196246985E+03  0.25500000920E-02 0.  1.
       -2    1    3    3    0  502  0.66065244751E+03 -0.43486822741E+03  0.32119987923E+03  0.85366351336E+03  0.25500000920E-02 0. -1.
</event>
<event>
 5   0  0.1893284E-04  0.1657077E+04  0.7818609E-02  0.8786231E-01
       -1   -1    0    0    0  501  0.00000000000E+00  0.00000000000E+00  0.95444372656E+03  0.95444372657E+03  0.50400001928E-02 0. -1.
        1   -1    0    0  501    0  0.00000000000E+00  0.00000000000E+00 -0.71924178267E+03  0.71924178269E+03  0.50400001928E-02 0.  1.
    10030    2    1    2    0    0  0.00000000000E+00  0.00000000000E+00  0.23520194389E+03  0.16736855093E+04  0.16570767120E+04 0.  0.
        2    1    3    3  502    0  0.18490152435E+03 -0.49262314863E+03 -0.52882134421E+03  0.74600144394E+03  0.25500000920E-02 0.  1.
       -2    1    3    3    0  502 -0.18490152435E+03  0.49262314863E+03  0.76402328810E+03  0.92768406531E+03  0.25500000920E-02 0. -1.
</event>
<event>
 5   0  0.1815663E-04  0.1684099E+04  0.7818609E-02  0.8770485E-01
       -1   -1    0    0    0  501  0.00000000000E+00  0.00000000000E+00  0.74586481178E+03  0.74586481180E+03  0.50400001928E-02 0.  1.
        1   -1    0    0  501    0  0.00000000000E+00  0.00000000000E+00 -0.95063818245E+03  0.95063818246E+03  0.50400001928E-02 0. -1.
    10030    2    1    2    0    0  0.00000000000E+00  0.00000000000E+00 -0.20477337067E+03  0.16965029943E+04  0.16840992477E+04 0.  0.
        5    1    3    3  502    0 -0.10146672906E+03 -0.83282974654E+03 -0.30273159161E+02  0.83954716246E+03  0.46999998093E+01 0. -1.
       -5    1    3    3    0  502  0.10146672906E+03  0.83282974654E+03 -0.17450021151E+03  0.85695583179E+03  0.46999998093E+01 0.  1.
</event>
<event>
 5   0  0.1815663E-04  0.1698044E+04  0.7818609E-02  0.8762481E-01
        1   -1    0    0  501    0  0.00000000000E+00  0.00000000000E+00  0.14512283129E+04  0.14512283129E+04  0.50400001928E-02 0.  1.
       -1   -1    0    0    0  501  0.00000000000E+00  0.00000000000E+00 -0.49670928996E+03  0.49670928999E+03  0.50400001928E-02 0. -1.
    10030    2    1    2    0    0  0.00000000000E+00  0.00000000000E+00  0.95451902290E+03  0.19479376029E+04  0.16980442690E+04 0.  0.
        5    1    3    3  502    0 -0.45994318420E+03  0.46355044234E+03  0.10996850088E+04  0.12789667524E+04  0.46999998093E+01 0.  1.
       -5    1    3    3    0  502  0.45994318420E+03 -0.46355044234E+03 -0.14516598587E+03  0.66897085043E+03  0.46999998093E+01 0. -1.
</event>
<event>
 5   0  0.1920289E-04  0.1655234E+04  0.7818609E-02  0.8787316E-01
        1   -1    0    0  501    0  0.00000000000E+00  0.00000000000E+00  0.69225148641E+03  0.69225148643E+03  0.50400001928E-02 0. -1.
       -1   -1    0    0    0  501  0.00000000000E+00  0.00000000000E+00 -0.98945236386E+03  0.98945236387E+03  0.50400001928E-02 0.  1.
    10030    2    1    2    0    0  0.00000000000E+00  0.00000000000E+00 -0.29720087745E+03  0.16817038503E+04  0.16552339649E+04 0.  0.
        4    1    3    3  502    0  0.50749407615E+03 -0.60837380825E+03 -0.39175873370E+03  0.88382432996E+03  0.12699999809E+01 0. -1.
       -4    1    3    3    0  502 -0.50749407615E+03  0.60837380825E+03  0.94557856251E+02  0.79787952034E+03  0.12699999809E+01 0.  1.
</event>
<event>
 5   0  0.3605571E-04  0.1691285E+04  0.7818609E-02  0.8766351E-01
       -2   -1    0    0    0  501  0.00000000000E+00  0.00000000000E+00  0.10047748686E+04  0.10047748686E+04  0.25500000920E-02 0. -1.
        2   -1    0    0  501    0  0.00000000000E+00  0.00000000000E+00 -0.71171281811E+03  0.71171281811E+03  0.25500000920E-02 0.  1.
    10030    2    1    2    0    0  0.00000000000E+00  0.00000000000E+00  0.29306205045E+03  0.17164876867E+04  0.16912849000E+04 0.  0.
        4    1    3    3  502    0  0.26893666682E+03 -0.39716014170E+03  0.85336200787E+03  0.97892361209E+03  0.12699999809E+01 0. -1.
       -4    1    3    3    0  502 -0.26893666682E+03  0.39716014170E+03 -0.56029995743E+03  0.73756407458E+03  0.12699999809E+01 0.  1.
</event>
<event>
 5   0  0.3516723E-04  0.1713494E+04  0.7818609E-02  0.8753705E-01
       -2   -1    0    0    0  501  0.00000000000E+00  0.00000000000E+00  0.86221264867E+03  0.86221264868E+03  0.25500000920E-02 0. -1.
        2   -1    0    0  501    0  0.00000000000E+00  0.00000000000E+00 -0.85131592007E+03  0.85131592008E+03  0.25500000920E-02 0.  1.
    10030    2    1    2    0    0  0.00000000000E+00  0.00000000000E+00  0.10896728599E+02  0.17135285688E+04  0.17134939210E+04 0.  0.
        1    1    3    3  502    0 -0.24768318380E+03  0.59926150818E+03  0.56541864937E+03  0.86032526628E+03  0.50400001928E-02 0. -1.
       -1    1    3    3    0  502  0.24768318380E+03 -0.59926150818E+03 -0.55452192077E+03  0.85320330248E+03  0.50400001928E-02 0.  1.
</event>
<event>
 5   0  0.3573262E-04  0.1730858E+04  0.7818609E-02  0.8743958E-01
       -2   -1    0    0    0  501  0.00000000000E+00  0.00000000000E+00  0.12000805249E+04  0.12000805249E+04  0.25500000920E-02 0.  1.
        2   -1    0    0  501    0  0.00000000000E+00  0.00000000000E+00 -0.62409791335E+03  0.62409791335E+03  0.25500000920E-02 0. -1.
    10030    2    1    2    0    0  0.00000000000E+00  0.00000000000E+00  0.57598261151E+03  0.18241784382E+04  0.17308584592E+04 0.  0.
        5    1    3    3  502    0  0.73188847817E+03 -0.81897237181E+02  0.76700457553E+03  0.10633372047E+04  0.46999998093E+01 0.  1.
       -5    1    3    3    0  502 -0.73188847817E+03  0.81897237181E+02 -0.19102196402E+03  0.76084123355E+03  0.46999998093E+01 0. -1.
</event>
<event>
 5   0  0.3678896E-04  0.1703282E+04  0.7818609E-02  0.8759495E-01
        2   -1    0    0  501    0  0.00000000000E+00  0.00000000000E+00  0.13828331147E+04  0.13828331147E+04  0.25500000920E-02 0.  1.
       -2   -1    0    0    0  501  0.00000000000E+00  0.00000000000E+00 -0.52449718720E+03  0.52449718721E+03  0.25500000920E-02 0. -1.
    10030    2    1    2    0    0  0.00000000000E+00  0.00000000000E+00  0.85833592753E+03  0.19073303019E+04  0.17032816315E+04 0.  0.
        2    1    3    3  502    0 -0.45528940432E+03  0.62643451129E+03  0.82599900256E+03  0.11322468772E+04  0.25500000920E-02 0.  1.
       -2    1    3    3    0  502  0.45528940432E+03 -0.62643451129E+03  0.32336924964E+02  0.77508342477E+03  0.25500000920E-02 0. -1.
</event>
<event>
 5   0  0.1893284E-04  0.1704826E+04  0.7818609E-02  0.8758617E-01
        1   -1    0    0  501    0  0.00000000000E+00  0.00000000000E+00  0.14011623871E+04  0.14011623871E+04  0.50400001928E-02 0.  1.
       -1   -1    0    0    0  501  0.00000000000E+00  0.00000000000E+00 -0.51857508477E+03  0.51857508479E+03  0.50400001928E-02 0. -1.
    10030    2    1    2    0    0  0.00000000000E+00  0.00000000000E+00  0.88258730235E+03  0.19197374719E+04  0.17048259779E+04 0.  0.
        2    1    3    3  502    0  0.10463703901E+03  0.30927590186E+03 -0.44537270069E+03  0.55222942328E+03  0.25500000920E-02 0. -1.
       -2    1    3    3    0  502 -0.10463703901E+03 -0.30927590186E+03  0.13279600030E+04  0.13675080486E+04  0.25500000920E-02 0.  1.
</event>
<event>
 5   0  0.1930116E-04  0.1679572E+04  0.7818609E-02  0.8773102E-01
        1   -1    0    0  501    0  0.00000000000E+00  0.00000000000E+00  0.10017931677E+04  0.10017931677E+04  0.50400001928E-02 0. -1.
       -1   -1    0    0    0  501  0.00000000000E+00  0.00000000000E+00 -0.70397786583E+03  0.70397786585E+03  0.50400001928E-02 0.  1.
    10030    2    1    2    0    0  0.00000000000E+00  0.00000000000E+00  0.29781530189E+03  0.17057710336E+04  0.16795716314E+04 0.  0.
        1    1    3    3  502    0 -0.46635137881E+03 -0.99074407769E+02 -0.55320902684E+03  0.73030101615E+03  0.50400001928E-02 0.  1.
       -1    1    3    3    0  502  0.46635137881E+03  0.99074407769E+02  0.85102432873E+03  0.97547001743E+03  0.50400001928E-02 0. -1.
</event>
<event>
 5   0  0.3573262E-04  0.1692187E+04  0.7818609E-02  0.8765833E-01
        2   -1    0    0  501    0  0.00000000000E+00  0.00000000000E+00  0.25944974285E+04  0.25944974285E+04  0.25500000920E-02 0. -1.
       -2   -1    0    0    0  501  0.00000000000E+00  0.00000000000E+00 -0.27592022145E+03  0.27592022147E+03  0.25500000920E-02 0.  1.
    10030    2    1    2    0    0  0.00000000000E+00  0.00000000000E+00  0.23185772071E+04  0.28704176500E+04  0.16921871115E+04 0.  0.
        5    1    3    3  502    0 -0.11127204458E+03 -0.82078954249E+03  0.86658734291E+03  0.11987796519E+04  0.46999998093E+01 0.  1.
       -5    1    3    3    0  502  0.11127204458E+03  0.82078954249E+03  0.14519898641E+04  0.16716379981E+04  0.46999998093E+01 0. -1.
</event>
<event>
 5   0  0.3516723E-04  0.1684093E+04  0.7818609E-02  0.8770489E-01
        2   -1    0    0  501    0  0.00000000000E+00  0.00000000000E+00  0.11149031396E+04  0.11149031396E+04  0.25500000920E-02 0.  1.
       -2   -1    0    0    0  501  0.00000000000E+00  0.00000000000E+00 -0.63596794512E+03  0.63596794512E+03  0.25500000920E-02 0. -1.
    10030    2    1    2    0    0  0.00000000000E+00  0.00000000000E+00  0.47893519444E+03  0.17508710847E+04  0.16840934163E+04 0.  0.
        1    1    3    3  502    0  0.64318653998E+03 -0.42845701182E+03 -0.10812201277E+03  0.78035549967E+03  0.50400001928E-02 0. -1.
       -1    1    3    3    0  502 -0.64318653998E+03  0.42845701182E+03  0.58705720722E+03  0.97051558502E+03  0.50400001928E-02 0.  1.
</event>
<event>
 5   0  0.1815663E-04  0.1741036E+04  0.7818609E-02  0.8738300E-01
       -1   -1    0    0    0  501  0.00000000000E+00  0.00000000000E+00  0.92741025533E+03  0.92741025535E+03  0.50400001928E-02 0. -1.
        1   -1    0    0  501    0  0.00000000000E+00  0.00000000000E+00 -0.81711609274E+03  0.81711609275E+03  0.50400001928E-02 0.  1.
    10030    2    1    2    0    0  0.00000000000E+00  0.00000000000E+00  0.11029416260E+03  0.17445263481E+04  0.17410362940E+04 0.  0.
        5    1    3    3  502    0 -0.33191773204E+03 -0.61705186638E+03  0.57276500614E+03  0.90498852419E+03  0.46999998093E+01 0. -1.
       -5    1    3    3    0  502  0.33191773204E+03  0.61705186638E+03 -0.46247084355E+03  0.83953782391E+03  0.46999998093E+01 0.  1.
</event>
<event>
 5   0  0.1824538E-04  0.1656845E+04  0.7818609E-02  0.8786367E-01
        1   -1    0    0  501    0  0.00000000000E+00  0.00000000000E+00  0.58453675270E+03  0.58453675272E+03  0.50400001928E-02 0. -1.
       -1   -1    0    0    0  501  0.00000000000E+00  0.00000000000E+00 -0.11740650570E+04  0.11740650570E+04  0.50400001928E-02 0.  1.
    10030    2    1    2    0    0  0.00000000000E+00  0.00000000000E+00 -0.58952830426E+03  0.17586018097E+04  0.16568454072E+04 0.  0.
        3    1    3    3  502    0 -0.26249669267E+02  0.70679714293E+03 -0.75256904301E+03  0.10327688130E+04  0.10100000352E+00 0.  1.
       -3    1    3    3    0  502  0.26249669267E+02 -0.70679714293E+03  0.16304073876E+03  0.72583299669E+03  0.10100000352E+00 0. -1.
</event>
<event>
 5   0  0.3573262E-04  0.1662231E+04  0.7818609E-02  0.8783204E-01
       -2   -1    0    0    0  501  0.00000000000E+00  0.00000000000E+00  0.49430214080E+03  0.49430214081E+03  0.25500000920E-02 0. -1.
        2   -1    0    0  501    0  0.00000000000E+00  0.00000000000E+00 -0.13974304736E+04  0.13974304736E+04  0.25500000920E-02 0.  1.
    10030    2    1    2    0    0  0.00000000000E+00  0.00000000000E+00 -0.90312833275E+03  0.18917326144E+04  0.16622308801E+04 0.  0.
        5    1    3    3  502    0  0.67484510876E+03  0.11116233256E+03 -0.98894198999E+03  0.12024147931E+04  0.46999998093E+01 0.  1.
       -5    1    3    3    0  502 -0.67484510876E+03 -0.11116233256E+03  0.85813657239E+02  0.68931782130E+03  0.46999998093E+01 0. -1.
</event>
<event>
 5   0  0.1824538E-04  0.1691406E+04  0.7818609E-02  0.8766281E-01
        1   -1    0    0  501    0  0.00000000000E+00  0.00000000000E+00  0.11683426947E+04  0.11683426947E+04  0.50400001928E-02 0. -1.
       -1   -1    0    0    0  501  0.00000000000E+00  0.00000000000E+00 -0.61216099516E+03  0.61216099518E+03  0.50400001928E-02 0.  1.
    10030    2    1    2    0    0  0.00000000000E+00  0.00000000000E+00  0.55618169954E+03  0.17805036899E+04  0.16914063104E+04 0.  0.
        3    1    3    3  502    0 -0.77069666469E+03  0.26966965049E+03  0.50996360386E+03  0.96268268751E+03  0.10100000352E+00 0. -1.
       -3    1    3    3    0  502  0.77069666469E+03 -0.26966965049E+03  0.46218095673E+02  0.81782100238E+03  0.10100000352E+00 0.  1.
</event>
<event>
 5   0  0.3573262E-04  0.1701368E+04  0.7818609E-02  0.8760585E-01
       -2   -1    0    0    0  501  0.00000000000E+00  0.00000000000E+00  0.79655427952E+03  0.79655427952E+03  0.25500000920E-02 0.  1.
        2   -1    0    0  501    0  0.00000000000E+00  0.00000000000E+00 -0.90849188461E+03  0.90849188462E+03  0.25500000920E-02 0. -1.
    10030    2    1    2    0    0  0.00000000000E+00  0.00000000000E+00 -0.11193760510E+03  0.17050461641E+04  0.17013678010E+04 0.  0.
        5    1    3    3  502    0  0.14958916609E+03 -0.20223952183E+03 -0.87035309013E+03  0.90598804313E+03  0.46999998093E+01 0. -1.
       -5    1    3    3    0  502 -0.14958916609E+03  0.20223952183E+03  0.75841548504E+03  0.79905812100E+03  0.46999998093E+01 0.  1.
</event>
<event>
 5   0  0.1893284E-04  0.1680889E+04  0.7818609E-02  0.8772340E-01
        1   -1    0    0  501    0  0.00000000000E+00  0.00000000000E+00  0.75109453801E+03  0.75109453802E+03  0.50400001928E-02 0. -1.
       -1   -1    0    0    0  501  0.00000000000E+00  0.00000000000E+00 -0.94042337717E+03  0.94042337718E+03  0.50400001928E-02 0.  1.
    10030    2    1    2    0    0  0.00000000000E+00  0.00000000000E+00 -0.18932883916E+03  0.16915179152E+04  0.16808888863E+04 0.  0.
        2    1    3    3  502    0  0.30048497964E+03 -0.38483879923E+03  0.59373345434E+03  0.76870770725E+03  0.25500000920E-02 0. -1.
       -2    1    3    3    0  502 -0.30048497964E+03  0.38483879923E+03 -0.78306229351E+03  0.92281020795E+03  0.25500000920E-02 0.  1.
</event>
<event>
 5   0  0.3516723E-04  0.1697643E+04  0.7818609E-02  0.8762710E-01
        2   -1    0    0  501    0  0.00000000000E+00  0.00000000000E+00  0.11935720383E+04  0.11935720383E+04  0.25500000920E-02 0. -1.
       -2   -1    0    0    0  501  0.00000000000E+00  0.00000000000E+00 -0.60364865987E+03  0.60364865988E+03  0.25500000920E-02 0.  1.
    10030    2    1    2    0    0  0.00000000000E+00  0.00000000000E+00  0.58992337847E+03  0.17972206982E+04  0.16976432622E+04 0.  0.
        1    1    3    3  502    0 -0.13329813098E+03  0.63416141511E+03 -0.28543793254E+03  0.70809879642E+03  0.50400001928E-02 0.  1.
       -1    1    3    3    0  502  0.13329813098E+03 -0.63416141511E+03  0.87536131101E+03  0.10891219018E+04  0.50400001928E-02 0. -1.
</event>
<event>
 5   0  0.1893284E-04  0.1691782E+04  0.7818609E-02  0.8766065E-01
        1   -1    0    0  501    0  0.00000000000E+00  0.00000000000E+00  0.67390804687E+03  0.67390804689E+03  0.50400001928E-02 0.  1.
       -1   -1    0    0    0  501  0.00000000000E+00  0.00000000000E+00 -0.10617648917E+04  0.10617648917E+04  0.50400001928E-02 0. -1.
    10030    2    1    2    0    0  0.00000000000E+00  0.00000000000E+00 -0.38785684485E+03  0.17356729386E+04  0.16917823790E+04 0.  0.
        2    1    3    3  502    0 -0.14262424604E+03  0.81217796256E+03 -0.38738659762E+03  0.91106700876E+03  0.25500000920E-02 0.  1.
       -2    1    3    3    0  502  0.14262424604E+03 -0.81217796256E+03 -0.47024722456E+00  0.82460592987E+03  0.25500000920E-02 0. -1.
</event>
<event>
 5   0  0.3605571E-04  0.1700574E+04  0.7818609E-02  0.8761037E-01
       -2   -1    0    0    0  501  0.00000000000E+00  0.00000000000E+00  0.41453279393E+03  0.41453279394E+03  0.25500000920E-02 0.  1.
        2   -1    0    0  501    0  0.00000000000E+00  0.00000000000E+00 -0.17441022370E+04  0.17441022370E+04  0.25500000920E-02 0. -1.
    10030    2    1    2    0    0  0.00000000000E+00  0.00000000000E+00 -0.13295694431E+04  0.21586350310E+04  0.17005735188E+04 0.  0.
        4    1    3    3  502    0  0.26076463062E+03  0.23654991075E+03 -0.16472309427E+04  0.16844362393E+04  0.12699999809E+01 0. -1.
       -4    1    3    3    0  502 -0.26076463062E+03 -0.23654991075E+03  0.31766149954E+03  0.47419879170E+03  0.12699999809E+01 0.  1.
</event>
<event>
 5   0  0.1920289E-04  0.1701827E+04  0.7818609E-02  0.8760323E-01
       -1   -1    0    0    0  501  0.00000000000E+00  0.00000000000E+00  0.11283980170E+04  0.11283980170E+04  0.50400001928E-02 0.  1.
        1   -1    0    0  501    0  0.00000000000E+00  0.00000000000E+00 -0.64166554253E+03  0.64166554255E+03  0.50400001928E-02 0. -1.
    10030    2    1    2    0    0  0.00000000000E+00  0.00000000000E+00  0.48673247444E+03  0.17700635595E+04  0.17018274011E+04 0.  0.
        4    1    3    3  502    0  0.46691705548E+03  0.71083097198E+03  0.27204546133E+03  0.89291799924E+03  0.12699999809E+01 0.  1.
       -4    1    3    3    0  502 -0.46691705548E+03 -0.71083097198E+03  0.21468701311E+03  0.87714556029E+03  0.12699999809E+01 0. -1.
</event>
<event>
 5   0  0.1317625E-04  0.1694676E+04  0.7818609E-02  0.8764407E-01
       -4   -1    0    0    0  501  0.00000000000E+00  0.00000000000E+00  0.11906894523E+04  0.11906901296E+04  0.12699999809E+01 0.  1.
        4   -1    0    0  501    0  0.00000000000E+00  0.00000000000E+00 -0.60299492935E+03  0.60299626676E+03  0.12699999809E+01 0. -1.
    10030    2    1    2    0    0  0.00000000000E+00  0.00000000000E+00  0.58769452298E+03  0.17936863964E+04  0.16946757909E+04 0.  0.
        5    1    3    3  502    0 -0.24503958060E+03  0.19248276666E+03 -0.54013847018E+03  0.62359094644E+03  0.46999998093E+01 0. -1.
       -5    1    3    3    0  502  0.24503958060E+03 -0.19248276666E+03  0.11278329932E+04  0.11700954499E+04  0.46999998093E+01 0.  1.
</event>
<event>
 5   0  0.1815663E-04  0.1698694E+04  0.7818609E-02  0.8762109E-01
        1   -1    0    0  501    0  0.00000000000E+00  0.00000000000E+00  0.12333021158E+04  0.12333021158E+04  0.50400001928E-02 0. -1.
       -1   -1    0    0    0  501  0.00000000000E+00  0.00000000000E+00 -0.58492620916E+03  0.58492620918E+03  0.50400001928E-02 0.  1.
    10030    2    1    2    0    0  0.00000000000E+00  0.00000000000E+00  0.64837590660E+03  0.18182283249E+04  0.16986944768E+04 0.  0.
        5    1    3    3  502    0  0.41194481899E+03  0.36073044171E+03 -0.37076342916E+03  0.66129614839E+03  0.46999998093E+01 0.  1.
       -5    1    3    3    0  502 -0.41194481899E+03 -0.36073044171E+03  0.10191393358E+04  0.11569321766E+04  0.46999998093E+01 0. -1.
</event>
<event>
 5   0  0.1893284E-04  0.1710876E+04  0.7818609E-02  0.8755186E-01
        1   -1    0    0  501    0  0.00000000000E+00  0.00000000000E+00  0.13105837788E+04  0.13105837788E+04  0.50400001928E-02 0.  1.
       -1   -1    0    0    0  501  0.00000000000E+00  0.00000000000E+00 -0.55835736290E+03  0.55835736292E+03  0.50400001928E-02 0. -1.
    10030    2    1    2    0    0  0.00000000000E+00  0.00000000000E+00  0.75222641590E+03  0.18689411417E+04  0.17108759191E+04 0.  0.
        2    1    3    3  502    0 -0.32004573204E+03 -0.34292696026E+02 -0.48968225716E+03  0.58599827011E+03  0.25500000920E-02 0. -1.
       -2    1    3    3    0  502  0.32004573204E+03  0.34292696026E+02  0.12419086731E+04  0.12829428716E+04  0.25500000920E-02 0.  1.
</event>
<event>
 5   0  0.1824538E-04  0.1702190E+04  0.7818609E-02  0.8760116E-01
        1   -1    0    0  501    0  0.00000000000E+00  0.00000000000E+00  0.17635859791E+04  0.17635859791E+04  0.50400001928E-02 0.  1.
       -1   -1    0    0    0  501  0.00000000000E+00  0.00000000000E+00 -0.41073293692E+03  0.41073293695E+03  0.50400001928E-02 0. -1.
    10030    2    1    2    0    0  0.00000000000E+00  0.00000000000E+00  0.13528530422E+04  0.21743189160E+04  0.17021901759E+04 0.  0.
        3    1    3    3  502    0 -0.74458062640E+03 -0.20708041526E+03  0.22106727207E+03  0.80383664794E+03  0.10100000352E+00 0. -1.
       -3    1    3    3    0  502  0.74458062640E+03  0.20708041526E+03  0.11317857701E+04  0.13704822681E+04  0.10100000352E+00 0.  1.
</event>
<event>
 5   0  0.1815663E-04  0.1727552E+04  0.7818609E-02  0.8745804E-01
       -1   -1    0    0    0  501  0.00000000000E+00  0.00000000000E+00  0.83648503323E+03  0.83648503325E+03  0.50400001928E-02 0.  1.
        1   -1    0    0  501    0  0.00000000000E+00  0.00000000000E+00 -0.89195762454E+03  0.89195762455E+03  0.50400001928E-02 0. -1.
    10030    2    1    2    0    0  0.00000000000E+00  0.00000000000E+00 -0.55472591303E+02  0.17284426578E+04  0.17275522605E+04 0.  0.
        5    1    3    3  502    0  0.83921054802E+03  0.19886099224E+03  0.19902056948E+02  0.86269242492E+03  0.46999998093E+01 0. -1.
       -5    1    3    3    0  502 -0.83921054802E+03 -0.19886099224E+03 -0.75374648251E+02  0.86575023288E+03  0.46999998093E+01 0.  1.
</event>
<event>
 5   0  0.1815663E-04  0.1702667E+04  0.7818609E-02  0.8759845E-01
       -1   -1    0    0    0  501  0.00000000000E+00  0.00000000000E+00  0.32613068812E+03  0.32613068816E+03  0.50400001928E-02 0. -1.
        1   -1    0    0  501    0  0.00000000000E+00  0.00000000000E+00 -0.22223250251E+04  0.22223250251E+04  0.50400001928E-02 0.  1.
    10030    2    1    2    0    0  0.00000000000E+00  0.00000000000E+00 -0.18961943370E+04  0.25484557133E+04  0.17026666024E+04 0.  0.
        5    1    3    3  502    0  0.43330608057E+03 -0.72954890921E+03 -0.84493547195E+03  0.11974697542E+04  0.46999998093E+01 0.  1.
       -5    1    3    3    0  502 -0.43330608057E+03  0.72954890921E+03 -0.10512588650E+04  0.13509859591E+04  0.46999998093E+01 0. -1.
</event>
<event>
 5   0  0.1815663E-04  0.1700292E+04  0.7818609E-02  0.8761198E-01
       -1   -1    0    0    0  501  0.00000000000E+00  0.00000000000E+00  0.80968762275E+03  0.80968762276E+03  0.50400001928E-02 0. -1.
        1   -1    0    0  501    0  0.00000000000E+00  0.00000000000E+00 -0.89262588728E+03  0.89262588729E+03  0.50400001928E-02 0.  1.
    10030    2    1    2    0    0  0.00000000000E+00  0.00000000000E+00 -0.82938264531E+02  0.17023135101E+04  0.17002918958E+04 0.  0.
        5    1    3    3  502    0  0.76512374870E+03 -0.12594997673E+03  0.30743954675E+03  0.83415760643E+03  0.46999998093E+01 0. -1.
       -5    1    3    3    0  502 -0.76512374870E+03  0.12594997673E+03 -0.39037781128E+03  0.86815590363E+03  0.46999998093E+01 0.  1.
</event>
<event>
 5   0  0.3605571E-04  0.1665191E+04  0.7818609E-02  0.8781470E-01
       -2   -1    0    0    0  501  0.00000000000E+00  0.00000000000E+00  0.70326531558E+03  0.70326531559E+03  0.25500000920E-02 0.  1.
        2   -1    0    0  501    0  0.00000000000E+00  0.00000000000E+00 -0.98570948849E+03  0.98570948850E+03  0.25500000920E-02 0. -1.
    10030    2    1    2    0    0  0.00000000000E+00  0.00000000000E+00 -0.28244417291E+03  0.16889748041E+04  0.16651910335E+04 0.  0.
        4    1    3    3  502    0 -0.59152420233E+03  0.32563402915E+03 -0.63528852456E+03  0.92710923046E+03  0.12699999809E+01 0. -1.
       -4    1    3    3    0  502  0.59152420233E+03 -0.32563402915E+03  0.35284435165E+03  0.76186557362E+03  0.12699999809E+01 0.  1.
</event>
<event>
 5   0  0.1920289E-04  0.1704638E+04  0.7818609E-02  0.8758724E-01
        1   -1    0    0  501    0  0.00000000000E+00  0.00000000000E+00  0.67906461991E+03  0.67906461993E+03  0.50400001928E-02 0. -1.
       -1   -1    0    0    0  501  0.00000000000E+00  0.00000000000E+00 -0.10697768036E+04  0.10697768036E+04  0.50400001928E-02 0.  1.
    10030    2    1    2    0    0  0.00000000000E+00  0.00000000000E+00 -0.39071218364E+03  0.17488414235E+04  0.17046378836E+04 0.  0.
        4    1    3    3  502    0 -0.54675322634E+03 -0.12773547304E+03 -0.85322573163E+03  0.10213966926E+04  0.12699999809E+01 0.  1.
       -4    1    3    3    0  502  0.54675322634E+03  0.12773547304E+03  0.46251354798E+03  0.72744473093E+03  0.12699999809E+01 0. -1.
</event>
<event>
 5   0  0.3574092E-04  0.1722472E+04  0.7818609E-02  0.8748651E-01
        2   -1    0    0  501    0  0.00000000000E+00  0.00000000000E+00  0.11888412580E+04  0.11888412580E+04  0.25500000920E-02 0.  1.
       -2   -1    0    0    0  501  0.00000000000E+00  0.00000000000E+00 -0.62390772199E+03  0.62390772200E+03  0.25500000920E-02 0. -1.
    10030    2    1    2    0    0  0.00000000000E+00  0.00000000000E+00  0.56493353601E+03  0.18127489800E+04  0.17224717601E+04 0.  0.
        3    1    3    3  502    0 -0.85230604336E+03  0.73849062419E+02  0.17802875656E+03  0.87382694164E+03  0.10100000352E+00 0.  1.
       -3    1    3    3    0  502  0.85230604336E+03 -0.73849062419E+02  0.38690477945E+03  0.93892203837E+03  0.10100000352E+00 0. -1.
</event>
<event>
 5   0  0.3516723E-04  0.1675151E+04  0.7818609E-02  0.8775665E-01
       -2   -1    0    0    0  501  0.00000000000E+00  0.00000000000E+00  0.50052970152E+03  0.50052970153E+03  0.25500000920E-02 0.  1.
        2   -1    0    0  501    0  0.00000000000E+00  0.00000000000E+00 -0.14015806425E+04  0.14015806425E+04  0.25500000920E-02 0. -1.
    10030    2    1    2    0    0  0.00000000000E+00  0.00000000000E+00 -0.90105094102E+03  0.19021103441E+04  0.16751510268E+04 0.  0.
        1    1    3    3  502    0  0.28296244665E+03  0.51057496662E+03  0.23150202282E+03  0.62797112143E+03  0.50400001928E-02 0.  1.
       -1    1    3    3    0  502 -0.28296244665E+03 -0.51057496662E+03 -0.11325529638E+04  0.12741392226E+04  0.50400001928E-02 0. -1.
</event>
<event>
 5   0  0.1920289E-04  0.1690423E+04  0.7818609E-02  0.8766845E-01
        1   -1    0    0  501    0  0.00000000000E+00  0.00000000000E+00  0.94525668103E+03  0.94525668105E+03  0.50400001928E-02 0. -1.
       -1   -1    0    0    0  501  0.00000000000E+00  0.00000000000E+00 -0.75575528158E+03  0.75575528159E+03  0.50400001928E-02 0.  1.
    10030    2    1    2    0    0  0.00000000000E+00  0.00000000000E+00  0.18950139945E+03  0.17010119626E+04  0.16904232951E+04 0.  0.
        4    1    3    3  502    0 -0.53029873704E+02 -0.32608498926E+03  0.87759397182E+03  0.93771871049E+03  0.12699999809E+01 0. -1.
       -4    1    3    3    0  502  0.53029873704E+02  0.32608498926E+03 -0.68809257237E+03  0.76329325215E+03  0.12699999809E+01 0.  1.
</event>
<event>
 5   0  0.3516723E-04  0.1710310E+04  0.7818609E-02  0.8755506E-01
        2   -1    0    0  501    0  0.00000000000E+00  0.00000000000E+00  0.61890657125E+03  0.61890657126E+03  0.25500000920E-02 0. -1.
       -2   -1    0    0    0  501  0.00000000000E+00  0.00000000000E+00 -0.11815833716E+04  0.11815833716E+04  0.25500000920E-02 0.  1.
    10030    2    1    2    0    0  0.00000000000E+00  0.00000000000E+00 -0.56267680030E+03  0.18004899428E+04  0.17103095780E+04 0.  0.
        1    1    3    3  502    0 -0.27167970017E+03 -0.44386767408E+03 -0.99569088413E+03  0.11234895230E+04  0.50400001928E-02 0.  1.
       -1    1    3    3    0  502  0.27167970017E+03  0.44386767408E+03  0.43301408383E+03  0.67700041979E+03  0.50400001928E-02 0. -1.
</event>
<event>
 5   0  0.3574092E-04  0.1446028E+04  0.7818609E-02  0.8921159E-01
       -2   -1    0    0    0  501  0.00000000000E+00  0.00000000000E+00  0.50964621398E+03  0.50964621399E+03  0.25500000920E-02 0.  1.
        2   -1    0    0  501    0  0.00000000000E+00  0.00000000000E+00 -0.10257104485E+04  0.10257104485E+04  0.25500000920E-02 0. -1.
    10030    2    1    2    0    0  0.00000000000E+00  0.00000000000E+00 -0.51606423455E+03  0.15353566625E+04  0.14460282801E+04 0.  0.
        3    1    3    3  502    0 -0.23665979909E+03  0.23097779027E+03  0.42464117728E+03  0.53821811540E+03  0.10100000352E+00 0.  1.
       -3    1    3    3    0  502  0.23665979909E+03 -0.23097779027E+03 -0.94070541184E+03  0.99713854713E+03  0.10100000352E+00 0. -1.
</event>
<event>
 5   0  0.1893284E-04  0.1650204E+04  0.7818609E-02  0.8790286E-01
       -1   -1    0    0    0  501  0.00000000000E+00  0.00000000000E+00  0.63030861937E+03  0.63030861939E+03  0.50400001928E-02 0.  1.
        1   -1    0    0  501    0  0.00000000000E+00  0.00000000000E+00 -0.10800948592E+04  0.10800948593E+04  0.50400001928E-02 0. -1.
    10030    2    1    2    0    0  0.00000000000E+00  0.00000000000E+00 -0.44978623987E+03  0.17104034786E+04  0.16502037444E+04 0.  0.
        2    1    3    3  502    0  0.21032711278E+03 -0.34584503168E+03  0.52032591021E+03  0.65923086483E+03  0.25500000920E-02 0.  1.
       -2    1    3    3    0  502 -0.21032711278E+03  0.34584503168E+03 -0.97011215008E+03  0.10511726138E+04  0.25500000920E-02 0. -1.
</event>
<event>
 5   0  0.3574092E-04  0.1715068E+04  0.7818609E-02  0.8752817E-01
        2   -1    0    0  501    0  0.00000000000E+00  0.00000000000E+00  0.16879987630E+04  0.16879987630E+04  0.25500000920E-02 0. -1.
       -2   -1    0    0    0  501  0.00000000000E+00  0.00000000000E+00 -0.43564285691E+03  0.43564285692E+03  0.25500000920E-02 0.  1.
    10030    2    1    2    0    0  0.00000000000E+00  0.00000000000E+00  0.12523559061E+04  0.21236416199E+04  0.17150680495E+04 0.  0.
        3    1    3    3  502    0  0.55975212251E+02  0.21384971486E+03 -0.39975749959E+03  0.45680520313E+03  0.10100000352E+00 0.  1.
       -3    1    3    3    0  502 -0.55975212251E+02 -0.21384971486E+03  0.16521134057E+04  0.16668364168E+04  0.10100000352E+00 0. -1.
</event>
<event>
 5   0  0.1920289E-04  0.1709935E+04  0.7818609E-02  0.8755719E-01
       -1   -1    0    0    0  501  0.00000000000E+00  0.00000000000E+00  0.57172937430E+03  0.57172937433E+03  0.50400001928E-02 0. -1.
        1   -1    0    0  501    0  0.00000000000E+00  0.00000000000E+00 -0.12785228413E+04  0.12785228413E+04  0.50400001928E-02 0.  1.
    10030    2    1    2    0    0  0.00000000000E+00  0.00000000000E+00 -0.70679346698E+03  0.18502522156E+04  0.17099345767E+04 0.  0.
        4    1    3    3  502    0  0.62793230391E+02  0.80222771704E+03 -0.66598884453E+03  0.10445358078E+04  0.12699999809E+01 0. -1.
       -4    1    3    3    0  502 -0.62793230391E+02 -0.80222771704E+03 -0.40804622454E+02  0.80571640785E+03  0.12699999809E+01 0.  1.
</event>
<event>
 5   0  0.1893284E-04  0.1734795E+04  0.7818609E-02  0.8741765E-01
        1   -1    0    0  501    0  0.00000000000E+00  0.00000000000E+00  0.15197823666E+04  0.15197823666E+04  0.50400001928E-02 0. -1.
       -1   -1    0    0    0  501  0.00000000000E+00  0.00000000000E+00 -0.49505653853E+03  0.49505653856E+03  0.50400001928E-02 0.  1.
    10030    2    1    2    0    0  0.00000000000E+00  0.00000000000E+00  0.10247258281E+04  0.20148389052E+04  0.17347947403E+04 0.  0.
        2    1    3    3  502    0  0.50192773470E+03 -0.59457275187E+03  0.67170807570E+02  0.78099944016E+03  0.25500000920E-02 0.  1.
       -2    1    3    3    0  502 -0.50192773470E+03  0.59457275187E+03  0.95755502051E+03  0.12338394650E+04  0.25500000920E-02 0. -1.
</event>
<event>
 5   0  0.1930116E-04  0.1703819E+04  0.7818609E-02  0.8759189E-01
       -1   -1    0    0    0  501  0.00000000000E+00  0.00000000000E+00  0.24834829823E+03  0.24834829828E+03  0.50400001928E-02 0. -1.
        1   -1    0    0  501    0  0.00000000000E+00  0.00000000000E+00 -0.29223054545E+04  0.29223054545E+04  0.50400001928E-02 0.  1.
    10030    2    1    2    0    0  0.00000000000E+00  0.00000000000E+00 -0.26739571562E+04  0.31706537528E+04  0.17038187540E+04 0.  0.
        1    1    3    3  502    0 -0.15639726372E+02  0.24797072964E+03  0.17942406693E+03  0.30647525123E+03  0.50400001928E-02 0. -1.
       -1    1    3    3    0  502  0.15639726372E+02 -0.24797072964E+03 -0.28533812232E+04  0.28641785015E+04  0.50400001928E-02 0.  1.
</event>
<event>
 5   0  0.3516723E-04  0.1743210E+04  0.7818609E-02  0.8737097E-01
        2   -1    0    0  501    0  0.00000000000E+00  0.00000000000E+00  0.10982921809E+04  0.10982921809E+04  0.25500000920E-02 0.  1.
       -2   -1    0    0    0  501  0.00000000000E+00  0.00000000000E+00 -0.69170614777E+03  0.69170614777E+03  0.25500000920E-02 0. -1.
    10030    2    1    2    0    0  0.00000000000E+00  0.00000000000E+00  0.40658603310E+03  0.17899983286E+04  0.17432102037E+04 0.  0.
        1    1    3    3  502    0 -0.87427461368E+02  0.23263100424E+03  0.10611408610E+04  0.10898535094E+04  0.50400001928E-02 0.  1.
       -1    1    3    3    0  502  0.87427461368E+02 -0.23263100424E+03 -0.65455482789E+03  0.70014481921E+03  0.50400001928E-02 0. -1.
</event>
<event>
 5   0  0.1930116E-04  0.1686082E+04  0.7818609E-02  0.8769342E-01
       -1   -1    0    0    0  501  0.00000000000E+00  0.00000000000E+00  0.44965192800E+03  0.44965192802E+03  0.50400001928E-02 0. -1.
        1   -1    0    0  501    0  0.00000000000E+00  0.00000000000E+00 -0.15805963877E+04  0.15805963878E+04  0.50400001928E-02 0.  1.
    10030    2    1    2    0    0  0.00000000000E+00  0.00000000000E+00 -0.11309444598E+04  0.20302483158E+04  0.16860821014E+04 0.  0.
        1    1    3    3  502    0  0.14237318644E+03  0.22267722700E+03  0.39847446843E+03  0.47816019665E+03  0.50400001928E-02 0. -1.
       -1    1    3    3    0  502 -0.14237318644E+03 -0.22267722700E+03 -0.15294189282E+04  0.15520881191E+04  0.50400001928E-02 0.  1.
</event>
<event>
 5   0  0.1920289E-04  0.1708580E+04  0.7818609E-02  0.8756486E-01
       -1   -1    0    0    0  501  0.00000000000E+00  0.00000000000E+00  0.95050278136E+03  0.95050278137E+03  0.50400001928E-02 0. -1.
        1   -1    0    0  501    0  0.00000000000E+00  0.00000000000E+00 -0.76781636568E+03  0.76781636570E+03  0.50400001928E-02 0.  1.
    10030    2    1    2    0    0  0.00000000000E+00  0.00000000000E+00  0.18268641568E+03  0.17183191471E+04  0.17085802190E+04 0.  0.
        4    1    3    3  502    0 -0.31691340397E+03  0.17740136760E+03  0.86899363108E+03  0.94183697878E+03  0.12699999809E+01 0. -1.
       -4    1    3    3    0  502  0.31691340397E+03 -0.17740136760E+03 -0.68630721541E+03  0.77648216828E+03  0.12699999809E+01 0.  1.
</event>
<event>
 5   0  0.3678896E-04  0.1705491E+04  0.7818609E-02  0.8758239E-01
        2   -1    0    0  501    0  0.00000000000E+00  0.00000000000E+00  0.74155751569E+03  0.74155751570E+03  0.25500000920E-02 0.  1.
       -2   -1    0    0    0  501  0.00000000000E+00  0.00000000000E+00 -0.98060427488E+03  0.98060427488E+03  0.25500000920E-02 0. -1.
    10030    2    1    2    0    0  0.00000000000E+00  0.00000000000E+00 -0.23904675918E+03  0.17221617906E+04  0.17054905100E+04 0.  0.
        2    1    3    3  502    0  0.17067955142E+03 -0.65046201204E+03  0.40995141415E+03  0.78758650341E+03  0.25500000920E-02 0.  1.
       -2    1    3    3    0  502 -0.17067955142E+03  0.65046201204E+03 -0.64899817333E+03  0.93457528717E+03  0.25500000920E-02 0. -1.
</event>
<event>
 5   0  0.3678896E-04  0.1698859E+04  0.7818609E-02  0.8762016E-01
       -2   -1    0    0    0  501  0.00000000000E+00  0.00000000000E+00  0.32803620470E+03  0.32803620471E+03  0.25500000920E-02 0.  1.
        2   -1    0    0  501    0  0.00000000000E+00  0.00000000000E+00 -0.21995446387E+04  0.21995446387E+04  0.25500000920E-02 0. -1.
    10030    2    1    2    0    0  0.00000000000E+00  0.00000000000E+00 -0.18715084340E+04  0.25275808434E+04  0.16988587644E+04 0.  0.
        2    1    3    3  502    0  0.14166339482E+03 -0.37298489277E+03  0.17994935547E+03  0.43768483891E+03  0.25500000920E-02 0.  1.
       -2    1    3    3    0  502 -0.14166339482E+03  0.37298489277E+03 -0.20514577894E+04  0.20898960045E+04  0.25500000920E-02 0. -1.
</event>
<event>
 5   0  0.3573262E-04  0.1683294E+04  0.7818609E-02  0.8770950E-01
       -2   -1    0    0    0  501  0.00000000000E+00  0.00000000000E+00  0.52337100619E+03  0.52337100620E+03  0.25500000920E-02 0. -1.
        2   -1    0    0  501    0  0.00000000000E+00  0.00000000000E+00 -0.13534747141E+04  0.13534747141E+04  0.25500000920E-02 0.  1.
    10030    2    1    2    0    0  0.00000000000E+00  0.00000000000E+00 -0.83010370793E+03  0.18768457203E+04  0.16832937034E+04 0.  0.
        5    1    3    3  502    0 -0.89930840072E+02  0.90684214915E+02 -0.13425927481E+04  0.13486617664E+04  0.46999998093E+01 0.  1.
       -5    1    3    3    0  502  0.89930840072E+02 -0.90684214915E+02  0.51248904021E+03  0.52818395391E+03  0.46999998093E+01 0. -1.
</event>
<event>
 5   0  0.3516723E-04  0.1692109E+04  0.7818609E-02  0.8765878E-01
       -2   -1    0    0    0  501  0.00000000000E+00  0.00000000000E+00  0.56671006599E+03  0.56671006600E+03  0.25500000920E-02 0. -1.
        2   -1    0    0  501    0  0.00000000000E+00  0.00000000000E+00 -0.12630943334E+04  0.12630943334E+04  0.25500000920E-02 0.  1.
    10030    2    1    2    0    0  0.00000000000E+00  0.00000000000E+00 -0.69638426744E+03  0.18298043994E+04  0.16921090663E+04 0.  0.
        1    1    3    3  502    0 -0.44598537377E+03  0.37389446930E+03 -0.10122552041E+04  0.11676303465E+04  0.50400001928E-02 0.  1.
       -1    1    3    3    0  502  0.44598537377E+03 -0.37389446930E+03  0.31587093663E+03  0.66217405296E+03  0.50400001928E-02 0. -1.
</event>
<event>
 5   0  0.1824538E-04  0.1740421E+04  0.7818609E-02  0.8738641E-01
       -1   -1    0    0    0  501  0.00000000000E+00  0.00000000000E+00  0.73727181249E+03  0.73727181250E+03  0.50400001928E-02 0.  1.
        1   -1    0    0  501    0  0.00000000000E+00  0.00000000000E+00 -0.10271189918E+04  0.10271189918E+04  0.50400001928E-02 0. -1.
    10030    2    1    2    0    0  0.00000000000E+00  0.00000000000E+00 -0.28984717928E+03  0.17643908043E+04  0.17404205017E+04 0.  0.
        3    1    3    3  502    0  0.63054201243E+03  0.56955366333E+03 -0.33537062309E+03  0.91348129147E+03  0.10100000352E+00 0. -1.
       -3    1    3    3    0  502 -0.63054201243E+03 -0.56955366333E+03  0.45523443810E+02  0.85090951280E+03  0.10100000352E+00 0.  1.
</event>
<event>
 5   0  0.3605571E-04  0.1714973E+04  0.7818609E-02  0.8752870E-01
        2   -1    0    0  501    0  0.00000000000E+00  0.00000000000E+00  0.11406595176E+04  0.11406595176E+04  0.25500000920E-02 0. -1.
       -2   -1    0    0    0  501  0.00000000000E+00  0.00000000000E+00 -0.64461233627E+03  0.64461233628E+03  0.25500000920E-02 0.  1.
    10030    2    1    2    0    0  0.00000000000E+00  0.00000000000E+00  0.49604718137E+03  0.17852718539E+04  0.17149731153E+04 0.  0.
        4    1    3    3  502    0 -0.27974992581E+03 -0.79520084131E+03  0.41155261565E+03  0.93807332728E+03  0.12699999809E+01 0.  1.
       -4    1    3    3    0  502  0.27974992581E+03  0.79520084131E+03  0.84494565720E+02  0.84719852664E+03  0.12699999809E+01 0. -1.
</event>
<event>
 5   0  0.3573262E-04  0.1372303E+04  0.7818609E-02  0.8974115E-01
        2   -1    0    0  501    0  0.00000000000E+00  0.00000000000E+00  0.84466778130E+03  0.84466778130E+03  0.25500000920E-02 0. -1.
       -2   -1    0    0    0  501  0.00000000000E+00  0.00000000000E+00 -0.55738348320E+03  0.55738348320E+03  0.25500000920E-02 0.  1.
    10030    2    1    2    0    0  0.00000000000E+00  0.00000000000E+00  0.28728429810E+03  0.14020512645E+04  0.13723029842E+04 0.  0.
        5    1    3    3  502    0  0.18348025977E+03  0.42913412440E+03 -0.37021262254E+03  0.59573532574E+03  0.46999998093E+01 0.  1.
       -5    1    3    3    0  502 -0.18348025977E+03 -0.42913412440E+03  0.65749692064E+03  0.80631593876E+03  0.46999998093E+01 0. -1.
</event>
<event>
 5   0  0.3574092E-04  0.1681708E+04  0.7818609E-02  0.8771866E-01
        2   -1    0    0  501    0  0.00000000000E+00  0.00000000000E+00  0.21080251318E+04  0.21080251318E+04  0.25500000920E-02 0.  1.
       -2   -1    0    0    0  501  0.00000000000E+00  0.00000000000E+00 -0.33540167214E+03  0.33540167215E+03  0.25500000920E-02 0. -1.
    10030    2    1    2    0    0  0.00000000000E+00  0.00000000000E+00  0.17726234597E+04  0.24434268040E+04  0.16817076489E+04 0.  0.
        3    1    3    3  502    0  0.10917639140E+03 -0.14816039245E+03  0.20784025022E+04  0.20865349165E+04  0.10100000352E+00 0.  1.
       -3    1    3    3    0  502 -0.10917639140E+03  0.14816039245E+03 -0.30577904250E+03  0.35689188750E+03  0.10100000352E+00 0. -1.
</event>
<event>
 5   0  0.1930116E-04  0.1694951E+04  0.7818609E-02  0.8764249E-01
        1   -1    0    0  501    0  0.00000000000E+00  0.00000000000E+00  0.67681928184E+03  0.67681928186E+03  0.50400001928E-02 0. -1.
       -1   -1    0    0    0  501  0.00000000000E+00  0.00000000000E+00 -0.10611617395E+04  0.10611617395E+04  0.50400001928E-02 0.  1.
    10030    2    1    2    0    0  0.00000000000E+00  0.00000000000E+00 -0.38434245766E+03  0.17379810214E+04  0.16949510040E+04 0.  0.
        1    1    3    3  502    0 -0.48815879598E+03 -0.31041088356E+03 -0.82721694222E+03  0.10094264690E+04  0.50400001928E-02 0.  1.
       -1    1    3    3    0  502  0.48815879598E+03  0.31041088356E+03  0.44287448457E+03  0.72855455240E+03  0.50400001928E-02 0. -1.
</event>
<event>
 5   0  0.1317625E-04  0.1723177E+04  0.7818609E-02  0.8748255E-01
        4   -1    0    0  501    0  0.00000000000E+00  0.00000000000E+00  0.13608282590E+04  0.13608288517E+04  0.12699999809E+01 0.  1.
       -4   -1    0    0    0  501  0.00000000000E+00  0.00000000000E+00 -0.54550059546E+03  0.54550207382E+03  0.12699999809E+01 0. -1.
    10030    2    1    2    0    0  0.00000000000E+00  0.00000000000E+00  0.81532766359E+03  0.19063309255E+04  0.17231768332E+04 0.  0.
        5    1    3    3  502    0  0.13618390478E+03  0.45858371072E+03  0.12003931094E+04  0.12922115859E+04  0.46999998093E+01 0.  1.
       -5    1    3    3    0  502 -0.13618390478E+03 -0.45858371072E+03 -0.38506544582E+03  0.61411933956E+03  0.46999998093E+01 0. -1.
</event>
<event>
 5   0  0.1893284E-04  0.1692488E+04  0.7818609E-02  0.8765660E-01
       -1   -1    0    0    0  501  0.00000000000E+00  0.00000000000E+00  0.44203123337E+03  0.44203123340E+03  0.50400001928E-02 0.  1.
        1   -1    0    0  501    0  0.00000000000E+00  0.00000000000E+00 -0.16200863226E+04  0.16200863227E+04  0.50400001928E-02 0. -1.
    10030    2    1    2    0    0  0.00000000000E+00  0.00000000000E+00 -0.11780550893E+04  0.20621175561E+04  0.16924878202E+04 0.  0.
        2    1    3    3  502    0  0.21083298958E+03 -0.59810233877E+03 -0.12717109641E+04  0.14210649997E+04  0.25500000920E-02 0. -1.
       -2    1    3    3    0  502 -0.21083298958E+03  0.59810233877E+03  0.93655874805E+02  0.64105255637E+03  0.25500000920E-02 0.  1.
</event>
<event>
 5   0  0.3678896E-04  0.1687947E+04  0.7818609E-02  0.8768268E-01
       -2   -1    0    0    0  501  0.00000000000E+00  0.00000000000E+00  0.30233552472E+03  0.30233552474E+03  0.25500000920E-02 0.  1.
        2   -1    0    0  501    0  0.00000000000E+00  0.00000000000E+00 -0.23559636694E+04  0.23559636694E+04  0.25500000920E-02 0. -1.
    10030    2    1    2    0    0  0.00000000000E+00  0.00000000000E+00 -0.20536281447E+04  0.26582991941E+04  0.16879472886E+04 0.  0.
        2    1    3    3  502    0  0.50778046508E+03  0.43524710746E+03 -0.18375445375E+04  0.19554669449E+04  0.25500000920E-02 0. -1.
       -2    1    3    3    0  502 -0.50778046508E+03 -0.43524710746E+03 -0.21608360716E+03  0.70283224923E+03  0.25500000920E-02 0.  1.
</event>
<event>
 5   0  0.3605571E-04  0.1713821E+04  0.7818609E-02  0.8753521E-01
       -2   -1    0    0    0  501  0.00000000000E+00  0.00000000000E+00  0.53465255407E+03  0.53465255408E+03  0.25500000920E-02 0.  1.
        2   -1    0    0  501    0  0.00000000000E+00  0.00000000000E+00 -0.13734069846E+04  0.13734069846E+04  0.25500000920E-02 0. -1.
    10030    2    1    2    0    0  0.00000000000E+00  0.00000000000E+00 -0.83875443052E+03  0.19080595387E+04  0.17138209383E+04 0.  0.
        4    1    3    3  502    0  0.20238127940E+03  0.10789501297E+03 -0.13386012015E+04  0.13581068830E+04  0.12699999809E+01 0. -1.
       -4    1    3    3    0  502 -0.20238127940E+03 -0.10789501297E+03  0.49984677100E+03  0.54995265565E+03  0.12699999809E+01 0.  1.
</event>
<event>
 5   0  0.3573262E-04  0.1936736E+04  0.7818609E-02  0.8636783E-01
       -2   -1    0    0    0  501  0.00000000000E+00  0.00000000000E+00  0.53796098514E+03  0.53796098514E+03  0.25500000920E-02 0.  1.
        2   -1    0    0  501    0  0.00000000000E+00  0.00000000000E+00 -0.17431315893E+04  0.17431315893E+04  0.25500000920E-02 0. -1.
    10030    2    1    2    0    0  0.00000000000E+00  0.00000000000E+00 -0.12051706042E+04  0.22810925744E+04  0.19367362102E+04 0.  0.
        5    1    3    3  502    0  0.35168653586E+03  0.79257268721E+03 -0.11103531366E+04  0.14088154819E+04  0.46999998093E+01 0. -1.
       -5    1    3    3    0  502 -0.35168653586E+03 -0.79257268721E+03 -0.94817467535E+02  0.87227709254E+03  0.46999998093E+01 0.  1.
</event>
<event>
 5   0  0.1930116E-04  0.1692557E+04  0.7818609E-02  0.8765621E-01
        1   -1    0    0  501    0  0.00000000000E+00  0.00000000000E+00  0.78655865055E+03  0.78655865056E+03  0.50400001928E-02 0. -1.
       -1   -1    0    0    0  501  0.00000000000E+00  0.00000000000E+00 -0.91053255552E+03  0.91053255554E+03  0.50400001928E-02 0.  1.
    10030    2    1    2    0    0  0.00000000000E+00  0.00000000000E+00 -0.12397390498E+03  0.16970912061E+04  0.16925569511E+04 0.  0.
        1    1    3    3  502    0  0.59288899244E+03 -0.58426759999E+03 -0.21504342884E+03  0.85972650422E+03  0.50400001928E-02 0. -1.
       -1    1    3    3    0  502 -0.59288899244E+03  0.58426759999E+03  0.91069523862E+02  0.83736470188E+03  0.50400001928E-02 0.  1.
</event>
<event>
 5   0  0.1920289E-04  0.1707562E+04  0.7818609E-02  0.8757063E-01
        1   -1    0    0  501    0  0.00000000000E+00  0.00000000000E+00  0.20702253728E+04  0.20702253728E+04  0.50400001928E-02 0.  1.
       -1   -1    0    0    0  501  0.00000000000E+00  0.00000000000E+00 -0.35210770421E+03  0.35210770424E+03  0.50400001928E-02 0. -1.
    10030    2    1    2    0    0  0.00000000000E+00  0.00000000000E+00  0.17181176686E+04  0.24223330770E+04  0.17075623599E+04 0.  0.
        4    1    3    3  502    0 -0.31198387705E+03  0.15873349156E+03 -0.24563166134E+03  0.42762926330E+03  0.12699999809E+01 0. -1.
       -4    1    3    3    0  502  0.31198387705E+03 -0.15873349156E+03  0.19637493299E+04  0.19947038137E+04  0.12699999809E+01 0.  1.
</event>
<event>
 5   0  0.3678896E-04  0.1773024E+04  0.7818609E-02  0.8720778E-01
        2   -1    0    0  501    0  0.00000000000E+00  0.00000000000E+00  0.57941191740E+03  0.57941191741E+03  0.25500000920E-02 0. -1.
       -2   -1    0    0    0  501  0.00000000000E+00  0.00000000000E+00 -0.13563806043E+04  0.13563806043E+04  0.25500000920E-02 0.  1.
    10030    2    1    2    0    0  0.00000000000E+00  0.00000000000E+00 -0.77696868690E+03  0.19357925217E+04  0.17730235043E+04 0.  0.
        2    1    3    3  502    0  0.20730928940E+03  0.80299877758E+02  0.54848237985E+03  0.59182610018E+03  0.25500000920E-02 0. -1.
       -2    1    3    3    0  502 -0.20730928940E+03 -0.80299877758E+02 -0.13254510668E+04  0.13439664215E+04  0.25500000920E-02 0.  1.
</event>
<event>
 5   0  0.3516723E-04  0.1702863E+04  0.7818609E-02  0.8759733E-01
        2   -1    0    0  501    0  0.00000000000E+00  0.00000000000E+00  0.10573587786E+04  0.10573587786E+04  0.25500000920E-02 0. -1.
       -2   -1    0    0    0  501  0.00000000000E+00  0.00000000000E+00 -0.68560947394E+03  0.68560947394E+03  0.25500000920E-02 0.  1.
    10030    2    1    2    0    0  0.00000000000E+00  0.00000000000E+00  0.37174930462E+03  0.17429682525E+04  0.17028625264E+04 0.  0.
        1    1    3    3  502    0  0.54731680502E+03 -0.22960932294E+03 -0.43896090525E+03  0.73821595932E+03  0.50400001928E-02 0. -1.
       -1    1    3    3    0  502 -0.54731680502E+03  0.22960932294E+03  0.81071020986E+03  0.10047522932E+04  0.50400001928E-02 0.  1.
</event>
<event>
 5   0  0.3516723E-04  0.1678011E+04  0.7818609E-02  0.8774006E-01
       -2   -1    0    0    0  501  0.00000000000E+00  0.00000000000E+00  0.63933425646E+03  0.63933425646E+03  0.25500000920E-02 0. -1.
        2   -1    0    0  501    0  0.00000000000E+00  0.00000000000E+00 -0.11010365502E+04  0.11010365502E+04  0.25500000920E-02 0.  1.
    10030    2    1    2    0    0  0.00000000000E+00  0.00000000000E+00 -0.46170229372E+03  0.17403708066E+04  0.16780111849E+04 0.  0.
        1    1    3    3  502    0 -0.17233282809E+03 -0.43998895856E+03 -0.94989862947E+03  0.10609412300E+04  0.50400001928E-02 0.  1.
       -1    1    3    3    0  502  0.17233282809E+03  0.43998895856E+03  0.48819633576E+03  0.67942957660E+03  0.50400001928E-02 0. -1.
</event>
<event>
 5   0  0.1893284E-04  0.1695016E+04  0.7818609E-02  0.8764212E-01
        1   -1    0    0  501    0  0.00000000000E+00  0.00000000000E+00  0.80394186387E+03  0.80394186389E+03  0.50400001928E-02 0. -1.
       -1   -1    0    0    0  501  0.00000000000E+00  0.00000000000E+00 -0.89343457758E+03  0.89343457760E+03  0.50400001928E-02 0.  1.
    10030    2    1    2    0    0  0.00000000000E+00  0.00000000000E+00 -0.89492713715E+02  0.16973764415E+04  0.16950155864E+04 0.  0.
        2    1    3    3  502    0 -0.75433627600E+03  0.28783815879E+03 -0.30277836937E+03  0.86229273678E+03  0.25500000920E-02 0.  1.
       -2    1    3    3    0  502  0.75433627600E+03 -0.28783815879E+03  0.21328565565E+03  0.83508370470E+03  0.25500000920E-02 0. -1.
</event>
<event>
 5   0  0.3573262E-04  0.1707616E+04  0.7818609E-02  0.8757032E-01
       -2   -1    0    0    0  501  0.00000000000E+00  0.00000000000E+00  0.63314086535E+03  0.63314086535E+03  0.25500000920E-02 0.  1.
        2   -1    0    0  501    0  0.00000000000E+00  0.00000000000E+00 -0.11513843661E+04  0.11513843661E+04  0.25500000920E-02 0. -1.
    10030    2    1    2    0    0  0.00000000000E+00  0.00000000000E+00 -0.51824350077E+03  0.17845252315E+04  0.17076164604E+04 0.  0.
        5    1    3    3  502    0 -0.53550305680E+03 -0.11741571458E+03 -0.94313642551E+03  0.10909071367E+04  0.46999998093E+01 0. -1.
       -5    1    3    3    0  502  0.53550305680E+03  0.11741571458E+03  0.42489292473E+03  0.69361809474E+03  0.46999998093E+01 0.  1.
</event>
<event>
 5   0  0.1920289E-04  0.1678447E+04  0.7818609E-02  0.8773753E-01
        1   -1    0    0  501    0  0.00000000000E+00  0.00000000000E+00  0.83483882374E+03  0.83483882375E+03  0.50400001928E-02 0.  1.
       -1   -1    0    0    0  501  0.00000000000E+00  0.00000000000E+00 -0.84363142911E+03  0.84363142913E+03  0.50400001928E-02 0. -1.
    10030    2    1    2    0    0  0.00000000000E+00  0.00000000000E+00 -0.87926053727E+01  0.16784702529E+04  0.16784472228E+04 0.  0.
        4    1    3    3  502    0 -0.68234752618E+03  0.43101082505E+03  0.22566375838E+03  0.83802996518E+03  0.12699999809E+01 0.  1.
       -4    1    3    3    0  502  0.68234752618E+03 -0.43101082505E+03 -0.23445636375E+03  0.84044028770E+03  0.12699999809E+01 0. -1.
</event>
<event>
 5   0  0.1930116E-04  0.1693466E+04  0.7818609E-02  0.8765100E-01
        1   -1    0    0  501    0  0.00000000000E+00  0.00000000000E+00  0.16748388377E+04  0.16748388377E+04  0.50400001928E-02 0.  1.
       -1   -1    0    0    0  501  0.00000000000E+00  0.00000000000E+00 -0.42807487247E+03  0.42807487250E+03  0.50400001928E-02 0. -1.
    10030    2    1    2    0    0  0.00000000000E+00  0.00000000000E+00  0.12467639652E+04  0.21029137102E+04  0.16934655850E+04 0.  0.
        1    1    3    3  502    0  0.68054284359E+02 -0.59843613930E+03  0.13624235731E+04  0.14896157864E+04  0.50400001928E-02 0.  1.
       -1    1    3    3    0  502 -0.68054284359E+02  0.59843613930E+03 -0.11565960789E+03  0.61329792382E+03  0.50400001928E-02 0. -1.
</event>
<event>
 5   0  0.1930116E-04  0.1691239E+04  0.7818609E-02  0.8766377E-01
        1   -1    0    0  501    0  0.00000000000E+00  0.00000000000E+00  0.11967346400E+04  0.11967346400E+04  0.50400001928E-02 0. -1.
       -1   -1    0    0    0  501  0.00000000000E+00  0.00000000000E+00 -0.59751937469E+03  0.59751937471E+03  0.50400001928E-02 0.  1.
    10030    2    1    2    0    0  0.00000000000E+00  0.00000000000E+00  0.59921526531E+03  0.17942540147E+04  0.16912387576E+04 0.  0.
        1    1    3    3  502    0 -0.33389854912E+03 -0.21070160049E+03 -0.49373027835E+03  0.63218113966E+03  0.50400001928E-02 0.  1.
       -1    1    3    3    0  502  0.33389854912E+03  0.21070160049E+03  0.10929455437E+04  0.11620728751E+04  0.50400001928E-02 0. -1.
</event>
<event>
 5   0  0.1893284E-04  0.1675836E+04  0.7818609E-02  0.8775267E-01
        1   -1    0    0  501    0  0.00000000000E+00  0.00000000000E+00  0.91661148143E+03  0.91661148144E+03  0.50400001928E-02 0. -1.
       -1   -1    0    0    0  501  0.00000000000E+00  0.00000000000E+00 -0.76598070016E+03  0.76598070018E+03  0.50400001928E-02 0.  1.
    10030    2    1    2    0    0  0.00000000000E+00  0.00000000000E+00  0.15063078127E+03  0.16825921816E+04  0.16758361547E+04 0.  0.
        2    1    3    3  502    0 -0.11278352497E+03  0.58093521344E+03  0.67091921010E+03  0.89461636035E+03  0.25500000920E-02 0. -1.
       -2    1    3    3    0  502  0.11278352497E+03 -0.58093521344E+03 -0.52028842883E+03  0.78797582127E+03  0.25500000920E-02 0.  1.
</event>
<event>
 5   0  0.1824538E-04  0.1650369E+04  0.7818609E-02  0.8790188E-01
       -1   -1    0    0    0  501  0.00000000000E+00  0.00000000000E+00  0.13582724840E+04  0.13582724840E+04  0.50400001928E-02 0. -1.
        1   -1    0    0  501    0  0.00000000000E+00  0.00000000000E+00 -0.50132020887E+03  0.50132020890E+03  0.50400001928E-02 0.  1.
    10030    2    1    2    0    0  0.00000000000E+00  0.00000000000E+00  0.85695227516E+03  0.18595926929E+04  0.16503689835E+04 0.  0.
        3    1    3    3  502    0  0.68714145126E+03  0.85031481917E+02  0.93431568581E+03  0.11629013449E+04  0.10100000352E+00 0. -1.
       -3    1    3    3    0  502 -0.68714145126E+03 -0.85031481917E+02 -0.77363410649E+02  0.69669134807E+03  0.10100000352E+00 0.  1.
</event>
<event>
 5   0  0.3574092E-04  0.1809885E+04  0.7818609E-02  0.8701061E-01
        2   -1    0    0  501    0  0.00000000000E+00  0.00000000000E+00  0.94057727733E+03  0.94057727733E+03  0.25500000920E-02 0. -1.
       -2   -1    0    0    0  501  0.00000000000E+00  0.00000000000E+00 -0.87065731982E+03  0.87065731983E+03  0.25500000920E-02 0.  1.
    10030    2    1    2    0    0  0.00000000000E+00  0.00000000000E+00  0.69919957502E+02  0.18112345972E+04  0.18098845172E+04 0.  0.
        3    1    3    3  502    0  0.17649032302E+03  0.54271849114E+03 -0.66786603551E+03  0.87848576900E+03  0.10100000352E+00 0.  1.
       -3    1    3    3    0  502 -0.17649032302E+03 -0.54271849114E+03  0.73778599302E+03  0.93274882816E+03  0.10100000352E+00 0. -1.
</event>
<event>
 5   0  0.1824538E-04  0.1699884E+04  0.7818609E-02  0.8761430E-01
       -1   -1    0    0    0  501  0.00000000000E+00  0.00000000000E+00  0.13677956704E+04  0.13677956704E+04  0.50400001928E-02 0.  1.
        1   -1    0    0  501    0  0.00000000000E+00  0.00000000000E+00 -0.52815029063E+03  0.52815029065E+03  0.50400001928E-02 0. -1.
    10030    2    1    2    0    0  0.00000000000E+00  0.00000000000E+00  0.83964537981E+03  0.18959459611E+04  0.16998843265E+04 0.  0.
        3    1    3    3  502    0 -0.79941551749E+03  0.12936383835E+03  0.70766099270E+03  0.10754460763E+04  0.10100000352E+00 0. -1.
       -3    1    3    3    0  502  0.79941551749E+03 -0.12936383835E+03  0.13198438711E+03  0.82049988478E+03  0.10100000352E+00 0.  1.
</event>
<event>
 5   0  0.3605571E-04  0.1712334E+04  0.7818609E-02  0.8754361E-01
        2   -1    0    0  501    0  0.00000000000E+00  0.00000000000E+00  0.14895096710E+04  0.14895096710E+04  0.25500000920E-02 0. -1.
       -2   -1    0    0    0  501  0.00000000000E+00  0.00000000000E+00 -0.49212303302E+03  0.49212303303E+03  0.25500000920E-02 0.  1.
    10030    2    1    2    0    0  0.00000000000E+00  0.00000000000E+00  0.99738663802E+03  0.19816327041E+04  0.17123340994E+04 0.  0.
        4    1    3    3  502    0 -0.25611633543E+03 -0.31898061752E+03 -0.37170612769E+03  0.55273073905E+03  0.12699999809E+01 0.  1.
       -4    1    3    3    0  502  0.25611633543E+03  0.31898061752E+03  0.13690927657E+04  0.14289019650E+04  0.12699999809E+01 0. -1.
</event>
<event>
 5   0  0.3574092E-04  0.1743443E+04  0.7818609E-02  0.8736968E-01
       -2   -1    0    0    0  501  0.00000000000E+00  0.00000000000E+00  0.77516122222E+03  0.77516122222E+03  0.25500000920E-02 0. -1.
        2   -1    0    0  501    0  0.00000000000E+00  0.00000000000E+00 -0.98030956091E+03  0.98030956091E+03  0.25500000920E-02 0.  1.
    10030    2    1    2    0    0  0.00000000000E+00  0.00000000000E+00 -0.20514833869E+03  0.17554707831E+04  0.17434425226E+04 0.  0.
        3    1    3    3  502    0  0.59053697137E+03 -0.85431172837E+02  0.53731443309E+03  0.80295654307E+03  0.10100000352E+00 0. -1.
       -3    1    3    3    0  502 -0.59053697137E+03  0.85431172837E+02 -0.74246277178E+03  0.95251424007E+03  0.10100000352E+00 0.  1.
</event>
<event>
 5   0  0.3678896E-04  0.1681525E+04  0.7818609E-02  0.8771972E-01
       -2   -1    0    0    0  501  0.00000000000E+00  0.00000000000E+00  0.10129902635E+04  0.10129902635E+04  0.25500000920E-02 0. -1.
        2   -1    0    0  501    0  0.00000000000E+00  0.00000000000E+00 -0.69781713862E+03  0.69781713863E+03  0.25500000920E-02 0.  1.
    10030    2    1    2    0    0  0.00000000000E+00  0.00000000000E+00  0.31517312489E+03  0.17108074021E+04  0.16815254588E+04 0.  0.
        2    1    3    3  502    0  0.26224283812E+03 -0.75020501695E+03  0.43677927779E+03  0.90683791888E+03  0.25500000920E-02 0. -1.
       -2    1    3    3    0  502 -0.26224283812E+03  0.75020501695E+03 -0.12160615290E+03  0.80396948327E+03  0.25500000920E-02 0.  1.
</event>
<event>
 5   0  0.1815663E-04  0.1694563E+04  0.7818609E-02  0.8764471E-01
       -1   -1    0    0    0  501  0.00000000000E+00  0.00000000000E+00  0.63446335121E+03  0.63446335123E+03  0.50400001928E-02 0. -1.
        1   -1    0    0  501    0  0.00000000000E+00  0.00000000000E+00 -0.11314849510E+04  0.11314849510E+04  0.50400001928E-02 0.  1.
    10030    2    1    2    0    0  0.00000000000E+00  0.00000000000E+00 -0.49702159982E+03  0.17659483023E+04  0.16945627565E+04 0.  0.
        5    1    3    3  502    0  0.31168067847E+03 -0.84142961110E+02 -0.10648614078E+04  0.11127339264E+04  0.46999998093E+01 0.  1.
       -5    1    3    3    0  502 -0.31168067847E+03  0.84142961110E+02  0.56783980799E+03  0.65321437581E+03  0.46999998093E+01 0. -1.
</event>
<event>
 5   0  0.1930116E-04  0.1690806E+04  0.7818609E-02  0.8766626E-01
        1   -1    0    0  501    0  0.00000000000E+00  0.00000000000E+00  0.78918242682E+03  0.78918242683E+03  0.50400001928E-02 0. -1.
       -1   -1    0    0    0  501  0.00000000000E+00  0.00000000000E+00 -0.90562829552E+03  0.90562829553E+03  0.50400001928E-02 0.  1.
    10030    2    1    2    0    0  0.00000000000E+00  0.00000000000E+00 -0.11644586870E+03  0.16948107224E+04  0.16908056495E+04 0.  0.
        1    1    3    3  502    0 -0.14194280621E+03 -0.28201643043E+02  0.77667431585E+03  0.79004182537E+03  0.50400001928E-02 0. -1.
       -1    1    3    3    0  502  0.14194280621E+03  0.28201643043E+02 -0.89312018455E+03  0.90476889700E+03  0.50400001928E-02 0.  1.
</event>
<event>
 5   0  0.3516723E-04  0.1710092E+04  0.7818609E-02  0.8755629E-01
       -2   -1    0    0    0  501  0.00000000000E+00  0.00000000000E+00  0.86326349827E+03  0.86326349827E+03  0.25500000920E-02 0.  1.
        2   -1    0    0  501    0  0.00000000000E+00  0.00000000000E+00 -0.84690673190E+03  0.84690673190E+03  0.25500000920E-02 0. -1.
    10030    2    1    2    0    0  0.00000000000E+00  0.00000000000E+00  0.16356766367E+02  0.17101702302E+04  0.17100920070E+04 0.  0.
        1    1    3    3  502    0 -0.67149851120E+03  0.52887975876E+03 -0.13722808160E+02  0.85487564315E+03  0.50400001928E-02 0.  1.
       -1    1    3    3    0  502  0.67149851120E+03 -0.52887975876E+03  0.30079574527E+02  0.85529458702E+03  0.50400001928E-02 0. -1.
</event>
<event>
 5   0  0.3605571E-04  0.1615241E+04  0.7818609E-02  0.8811239E-01
       -2   -1    0    0    0  501  0.00000000000E+00  0.00000000000E+00  0.35776426605E+03  0.35776426606E+03  0.25500000920E-02 0. -1.
        2   -1    0    0  501    0  0.00000000000E+00  0.00000000000E+00 -0.18231303224E+04  0.18231303224E+04  0.25500000920E-02 0.  1.
    10030    2    1    2    0    0  0.00000000000E+00  0.00000000000E+00 -0.14653660564E+04  0.21808945885E+04  0.16152410120E+04 0.  0.
        4    1    3    3  502    0 -0.13792759080E+03 -0.78346933828E+03 -0.92074885930E+03  0.12168107080E+04  0.12699999809E+01 0.  1.
       -4    1    3    3    0  502  0.13792759080E+03  0.78346933828E+03 -0.54461719707E+03  0.96408388046E+03  0.12699999809E+01 0. -1.
</event>
<event>
 5   0  0.3573262E-04  0.1695678E+04  0.7818609E-02  0.8763833E-01
       -2   -1    0    0    0  501  0.00000000000E+00  0.00000000000E+00  0.39236268365E+03  0.39236268366E+03  0.25500000920E-02 0.  1.
        2   -1    0    0  501    0  0.00000000000E+00  0.00000000000E+00 -0.18320573418E+04  0.18320573418E+04  0.25500000920E-02 0. -1.
    10030    2    1    2    0    0  0.00000000000E+00  0.00000000000E+00 -0.14396946582E+04  0.22244200255E+04  0.16956779591E+04 0.  0.
        5    1    3    3  502    0  0.32072256387E+03  0.51728964476E+03 -0.14941056520E+04  0.16133274091E+04  0.46999998093E+01 0. -1.
       -5    1    3    3    0  502 -0.32072256387E+03 -0.51728964476E+03  0.54410993848E+02  0.61109261638E+03  0.46999998093E+01 0.  1.
</event>
<event>
 5   0  0.3574092E-04  0.1723820E+04  0.7818609E-02  0.8747894E-01
        2   -1    0    0  501    0  0.00000000000E+00  0.00000000000E+00  0.13521130716E+04  0.13521130716E+04  0.25500000920E-02 0. -1.
       -2   -1    0    0    0  501  0.00000000000E+00  0.00000000000E+00 -0.54942810414E+03  0.54942810415E+03  0.25500000920E-02 0.  1.
    10030    2    1    2    0    0  0.00000000000E+00  0.00000000000E+00  0.80268496743E+03  0.19015411757E+04  0.17238200852E+04 0.  0.
        3    1    3    3  502    0  0.68146740931E+03  0.22622869740E+03 -0.12458352924E+03  0.72876492742E+03  0.10100000352E+00 0.  1.
       -3    1    3    3    0  502 -0.68146740931E+03 -0.22622869740E+03  0.92726849667E+03  0.11727762483E+04  0.10100000352E+00 0. -1.
</event>
<event>
 5   0  0.3605571E-04  0.1699935E+04  0.7818609E-02  0.8761401E-01
        2   -1    0    0  501    0  0.00000000000E+00  0.00000000000E+00  0.17779318302E+04  0.17779318302E+04  0.25500000920E-02 0.  1.
       -2   -1    0    0    0  501  0.00000000000E+00  0.00000000000E+00 -0.40633994334E+03  0.40633994334E+03  0.25500000920E-02 0. -1.
    10030    2    1    2    0    0  0.00000000000E+00  0.00000000000E+00  0.13715918868E+04  0.21842717735E+04  0.16999349624E+04 0.  0.
        4    1    3    3  502    0 -0.47951614222E+03 -0.37042038620E+03  0.14516915807E+04  0.15730724877E+04  0.12699999809E+01 0.  1.
       -4    1    3    3    0  502  0.47951614222E+03  0.37042038620E+03 -0.80099693849E+02  0.61119928584E+03  0.12699999809E+01 0. -1.
</event>
<event>
 5   0  0.1815663E-04  0.1690521E+04  0.7818609E-02  0.8766789E-01
       -1   -1    0    0    0  501  0.00000000000E+00  0.00000000000E+00  0.85884861001E+03  0.85884861002E+03  0.50400001928E-02 0.  1.
        1   -1    0    0  501    0  0.00000000000E+00  0.00000000000E+00 -0.83188772784E+03  0.83188772785E+03  0.50400001928E-02 0. -1.
    10030    2    1    2    0    0  0.00000000000E+00  0.00000000000E+00  0.26960882169E+02  0.16907363379E+04  0.16905213619E+04 0.  0.
        5    1    3    3  502    0 -0.53637659304E+03 -0.53210937134E+03  0.39247888596E+03  0.85141176792E+03  0.46999998093E+01 0.  1.
       -5    1    3    3    0  502  0.53637659304E+03  0.53210937134E+03 -0.36551800379E+03  0.83932456995E+03  0.46999998093E+01 0. -1.
</event>
<event>
 5   0  0.1893284E-04  0.1695216E+04  0.7818609E-02  0.8764098E-01
       -1   -1    0    0    0  501  0.00000000000E+00  0.00000000000E+00  0.15196931457E+04  0.15196931457E+04  0.50400001928E-02 0.  1.
        1   -1    0    0  501    0  0.00000000000E+00  0.00000000000E+00 -0.47275267298E+03  0.47275267301E+03  0.50400001928E-02 0. -1.
    10030    2    1    2    0    0  0.00000000000E+00  0.00000000000E+00  0.10469404728E+04  0.19924458187E+04  0.16952156167E+04 0.  0.
        2    1    3    3  502    0 -0.77072942147E+03 -0.15120955113E+03  0.14892583587E+03  0.79941670865E+03  0.25500000920E-02 0. -1.
       -2    1    3    3    0  502  0.77072942147E+03  0.15120955113E+03  0.89801463688E+03  0.11930291101E+04  0.25500000920E-02 0.  1.
</event>
<event>
 5   0  0.3605571E-04  0.1654808E+04  0.7818609E-02  0.8787567E-01
        2   -1    0    0  501    0  0.00000000000E+00  0.00000000000E+00  0.11870238626E+04  0.11870238626E+04  0.25500000920E-02 0.  1.
       -2   -1    0    0    0  501  0.00000000000E+00  0.00000000000E+00 -0.57673448470E+03  0.57673448470E+03  0.25500000920E-02 0. -1.
    10030    2    1    2    0    0  0.00000000000E+00  0.00000000000E+00  0.61028937791E+03  0.17637583473E+04  0.16548082617E+04 0.  0.
        4    1    3    3  502    0 -0.24903028983E+03 -0.73518048639E+03 -0.23161834833E+00  0.77621395206E+03  0.12699999809E+01 0. -1.
       -4    1    3    3    0  502  0.24903028983E+03  0.73518048639E+03  0.61052099626E+03  0.98754439525E+03  0.12699999809E+01 0.  1.
</event>
<event>
 5   0  0.3574092E-04  0.1696962E+04  0.7818609E-02  0.8763099E-01
       -2   -1    0    0    0  501  0.00000000000E+00  0.00000000000E+00  0.41895093584E+03  0.41895093585E+03  0.25500000920E-02 0. -1.
        2   -1    0    0  501    0  0.00000000000E+00  0.00000000000E+00 -0.17183874262E+04  0.17183874262E+04  0.25500000920E-02 0.  1.
    10030    2    1    2    0    0  0.00000000000E+00  0.00000000000E+00 -0.12994364903E+04  0.21373383620E+04  0.16969620153E+04 0.  0.
        3    1    3    3  502    0  0.35996657363E+03  0.43024689231E+03 -0.14514938881E+04  0.15561243009E+04  0.10100000352E+00 0.  1.
       -3    1    3    3    0  502 -0.35996657363E+03 -0.43024689231E+03  0.15205739774E+03  0.58121406115E+03  0.10100000352E+00 0. -1.
</event>
<event>
 5   0  0.1317625E-04  0.1668612E+04  0.7818609E-02  0.8779471E-01
       -3   -1    0    0    0  501  0.00000000000E+00  0.00000000000E+00  0.17589059046E+04  0.17589059075E+04  0.10100000352E+00 0. -1.
        3   -1    0    0  501    0  0.00000000000E+00  0.00000000000E+00 -0.39573851953E+03  0.39573853242E+03  0.10100000352E+00 0.  1.
    10030    2    1    2    0    0  0.00000000000E+00  0.00000000000E+00  0.13631673851E+04  0.21546444399E+04  0.16686124004E+04 0.  0.
        1    1    3    3  502    0  0.35479817563E+03 -0.29657286188E+03  0.15782835300E+04  0.16446325149E+04  0.50400001928E-02 0. -1.
       -1    1    3    3    0  502 -0.35479817563E+03  0.29657286188E+03 -0.21511614495E+03  0.51001192504E+03  0.50400001928E-02 0.  1.
</event>
<event>
 5   0  0.3678896E-04  0.1756599E+04  0.7818609E-02  0.8729726E-01
       -2   -1    0    0    0  501  0.00000000000E+00  0.00000000000E+00  0.49883822155E+03  0.49883822156E+03  0.25500000920E-02 0. -1.
        2   -1    0    0  501    0  0.00000000000E+00  0.00000000000E+00 -0.15464131472E+04  0.15464131472E+04  0.25500000920E-02 0.  1.
    10030    2    1    2    0    0  0.00000000000E+00  0.00000000000E+00 -0.10475749257E+04  0.20452513688E+04  0.17565989686E+04 0.  0.
        2    1    3    3  502    0  0.35291483942E+03  0.28736608619E+03 -0.13984128974E+04  0.14706076237E+04  0.25500000920E-02 0.  1.
       -2    1    3    3    0  502 -0.35291483942E+03 -0.28736608619E+03  0.35083797170E+03  0.57464374508E+03  0.25500000920E-02 0. -1.
</event>
<event>
 5   0  0.3605571E-04  0.1682076E+04  0.7818609E-02  0.8771653E-01
        2   -1    0    0  501    0  0.00000000000E+00  0.00000000000E+00  0.16611472693E+04  0.16611472693E+04  0.25500000920E-02 0.  1.
       -2   -1    0    0    0  501  0.00000000000E+00  0.00000000000E+00 -0.42581733463E+03  0.42581733464E+03  0.25500000920E-02 0. -1.
    10030    2    1    2    0    0  0.00000000000E+00  0.00000000000E+00  0.12353299347E+04  0.20869646039E+04  0.16820764580E+04 0.  0.
        4    1    3    3  502    0 -0.71194057790E+03 -0.34270197444E+03  0.97519467338E+03  0.12551136577E+04  0.12699999809E+01 0.  1.
       -4    1    3    3    0  502  0.71194057790E+03  0.34270197444E+03  0.26013526129E+03  0.83185094627E+03  0.12699999809E+01 0. -1.
</event>
<event>
 5   0  0.1930116E-04  0.1736876E+04  0.7818609E-02  0.8740608E-01
        1   -1    0    0  501    0  0.00000000000E+00  0.00000000000E+00  0.10941655212E+04  0.10941655212E+04  0.50400001928E-02 0. -1.
       -1   -1    0    0    0  501  0.00000000000E+00  0.00000000000E+00 -0.68927840940E+03  0.68927840942E+03  0.50400001928E-02 0.  1.
    10030    2    1    2    0    0  0.00000000000E+00  0.00000000000E+00  0.40488711182E+03  0.17834439307E+04  0.17368761270E+04 0.  0.
        1    1    3    3  502    0 -0.24029621870E+03  0.27492201190E+03 -0.60662915682E+03  0.70804189090E+03  0.50400001928E-02 0.  1.
       -1    1    3    3    0  502  0.24029621870E+03 -0.27492201190E+03  0.10115162686E+04  0.10754020397E+04  0.50400001928E-02 0. -1.
</event>
<event>
 5   0  0.3678896E-04  0.1686955E+04  0.7818609E-02  0.8768839E-01
       -2   -1    0    0    0  501  0.00000000000E+00  0.00000000000E+00  0.42969020634E+03  0.42969020635E+03  0.25500000920E-02 0. -1.
        2   -1    0    0  501    0  0.00000000000E+00  0.00000000000E+00 -0.16557385752E+04  0.16557385752E+04  0.25500000920E-02 0.  1.
    10030    2    1    2    0    0  0.00000000000E+00  0.00000000000E+00 -0.12260483689E+04  0.20854287816E+04  0.16869554233E+04 0.  0.
        2    1    3    3  502    0  0.45518702569E+03  0.12817160968E+03 -0.14764532387E+04  0.15503345948E+04  0.25500000920E-02 0.  1.
       -2    1    3    3    0  502 -0.45518702569E+03 -0.12817160968E+03  0.25040486980E+03  0.53509418676E+03  0.25500000920E-02 0. -1.
</event>
<event>
 5   0  0.1815663E-04  0.1710719E+04  0.7818609E-02  0.8755274E-01
       -1   -1    0    0    0  501  0.00000000000E+00  0.00000000000E+00  0.66923626529E+03  0.66923626531E+03  0.50400001928E-02 0. -1.
        1   -1    0    0  501    0  0.00000000000E+00  0.00000000000E+00 -0.10932464488E+04  0.10932464488E+04  0.50400001928E-02 0.  1.
    10030    2    1    2    0    0  0.00000000000E+00  0.00000000000E+00 -0.42401018347E+03  0.17624827141E+04  0.17107193463E+04 0.  0.
        5    1    3    3  502    0  0.41662728946E+03  0.77619666039E+02 -0.97746337494E+03  0.10653918764E+04  0.46999998093E+01 0.  1.
       -5    1    3    3    0  502 -0.41662728946E+03 -0.77619666039E+02  0.55345319147E+03  0.69709083771E+03  0.46999998093E+01 0. -1.
</event>
<event>
 5   0  0.1824538E-04  0.1702954E+04  0.7818609E-02  0.8759681E-01
        1   -1    0    0  501    0  0.00000000000E+00  0.00000000000E+00  0.12302087424E+04  0.12302087424E+04  0.50400001928E-02 0.  1.
       -1   -1    0    0    0  501  0.00000000000E+00  0.00000000000E+00 -0.58934175780E+03  0.58934175782E+03  0.50400001928E-02 0. -1.
    10030    2    1    2    0    0  0.00000000000E+00  0.00000000000E+00  0.64086698463E+03  0.18195505003E+04  0.17029543538E+04 0.  0.
        3    1    3    3  502    0  0.24305826262E+03 -0.80459183392E+03  0.46602769129E+03  0.96105523124E+03  0.10100000352E+00 0.  1.
       -3    1    3    3    0  502 -0.24305826262E+03  0.80459183392E+03  0.17483929334E+03  0.85849526902E+03  0.10100000352E+00 0. -1.
</event>
<event>
 5   0  0.3573262E-04  0.1733174E+04  0.7818609E-02  0.8742667E-01
       -2   -1    0    0    0  501  0.00000000000E+00  0.00000000000E+00  0.57543129368E+03  0.57543129368E+03  0.25500000920E-02 0.  1.
        2   -1    0    0  501    0  0.00000000000E+00  0.00000000000E+00 -0.13050612349E+04  0.13050612349E+04  0.25500000920E-02 0. -1.
    10030    2    1    2    0    0  0.00000000000E+00  0.00000000000E+00 -0.72962994123E+03  0.18804925286E+04  0.17331740533E+04 0.  0.
        5    1    3    3  502    0 -0.48458803109E+02  0.57579277536E+03  0.33588406408E+03  0.66837547102E+03  0.46999998093E+01 0.  1.
       -5    1    3    3    0  502  0.48458803109E+02 -0.57579277536E+03 -0.10655140053E+04  0.12121170576E+04  0.46999998093E+01 0. -1.
</event>
<event>
 5   0  0.1815663E-04  0.1526025E+04  0.7818609E-02  0.8867329E-01
        1   -1    0    0  501    0  0.00000000000E+00  0.00000000000E+00  0.86499001638E+03  0.86499001640E+03  0.50400001928E-02 0.  1.
       -1   -1    0    0    0  501  0.00000000000E+00  0.00000000000E+00 -0.67305752162E+03  0.67305752163E+03  0.50400001928E-02 0. -1.
    10030    2    1    2    0    0  0.00000000000E+00  0.00000000000E+00  0.19193249477E+03  0.15380475380E+04  0.15260249496E+04 0.  0.
        5    1    3    3  502    0  0.42137949412E+03  0.28637328395E+03 -0.47648347862E+03  0.69758793799E+03  0.46999998093E+01 0. -1.
       -5    1    3    3    0  502 -0.42137949412E+03 -0.28637328395E+03  0.66841597339E+03  0.84045960004E+03  0.46999998093E+01 0.  1.
</event>
<event>
 5   0  0.3574092E-04  0.1709389E+04  0.7818609E-02  0.8756028E-01
       -2   -1    0    0    0  501  0.00000000000E+00  0.00000000000E+00  0.41905253146E+03  0.41905253147E+03  0.25500000920E-02 0.  1.
        2   -1    0    0  501    0  0.00000000000E+00  0.00000000000E+00 -0.17432236094E+04  0.17432236094E+04  0.25500000920E-02 0. -1.
    10030    2    1    2    0    0  0.00000000000E+00  0.00000000000E+00 -0.13241710779E+04  0.21622761408E+04  0.17093885064E+04 0.  0.
        3    1    3    3  502    0 -0.51691490365E+03 -0.21967412083E+02  0.19846387336E+03  0.55414032883E+03  0.10100000352E+00 0.  1.
       -3    1    3    3    0  502  0.51691490365E+03  0.21967412083E+02 -0.15226349513E+04  0.16081358120E+04  0.10100000352E+00 0. -1.
</event>
<event>
 5   0  0.1930116E-04  0.1699054E+04  0.7818609E-02  0.8761904E-01
        1   -1    0    0  501    0  0.00000000000E+00  0.00000000000E+00  0.20982458665E+04  0.20982458665E+04  0.50400001928E-02 0.  1.
       -1   -1    0    0    0  501  0.00000000000E+00  0.00000000000E+00 -0.34395205590E+03  0.34395205593E+03  0.50400001928E-02 0. -1.
    10030    2    1    2    0    0  0.00000000000E+00  0.00000000000E+00  0.17542938106E+04  0.24421979225E+04  0.16990538304E+04 0.  0.
        1    1    3    3  502    0  0.56844502360E+03 -0.55837446789E+03  0.45370481795E+03  0.91692957914E+03  0.50400001928E-02 0. -1.
       -1    1    3    3    0  502 -0.56844502360E+03  0.55837446789E+03  0.13005889927E+04  0.15252683433E+04  0.50400001928E-02 0.  1.
</event>
<event>
 5   0  0.1815663E-04  0.1678936E+04  0.7818609E-02  0.8773470E-01
       -1   -1    0    0    0  501  0.00000000000E+00  0.00000000000E+00  0.46347305751E+03  0.46347305754E+03  0.50400001928E-02 0. -1.
        1   -1    0    0  501    0  0.00000000000E+00  0.00000000000E+00 -0.15204908915E+04  0.15204908916E+04  0.50400001928E-02 0.  1.
    10030    2    1    2    0    0  0.00000000000E+00  0.00000000000E+00 -0.10570178340E+04  0.19839639491E+04  0.16789360470E+04 0.  0.
        5    1    3    3  502    0  0.98993518467E+02  0.37249440821E+03  0.35272017797E+03  0.52248006163E+03  0.46999998093E+01 0. -1.
       -5    1    3    3    0  502 -0.98993518467E+02 -0.37249440821E+03 -0.14097380120E+04  0.14614838875E+04  0.46999998093E+01 0.  1.
</event>
<event>
 5   0  0.3574092E-04  0.1694759E+04  0.7818609E-02  0.8764359E-01
        2   -1    0    0  501    0  0.00000000000E+00  0.00000000000E+00  0.56522404682E+03  0.56522404682E+03  0.25500000920E-02 0. -1.
       -2   -1    0    0    0  501  0.00000000000E+00  0.00000000000E+00 -0.12703842534E+04  0.12703842534E+04  0.25500000920E-02 0.  1.
    10030    2    1    2    0    0  0.00000000000E+00  0.00000000000E+00 -0.70516020662E+03  0.18356083003E+04  0.16947586598E+04 0.  0.
        3    1    3    3  502    0  0.27209687023E+03  0.67945737932E+03  0.10993745899E+03  0.74012518684E+03  0.10100000352E+00 0. -1.
       -3    1    3    3    0  502 -0.27209687023E+03 -0.67945737932E+03 -0.81509766562E+03  0.10954831134E+04  0.10100000352E+00 0.  1.
</event>
<event>
 5   0  0.3573262E-04  0.1681985E+04  0.7818609E-02  0.8771706E-01
       -2   -1    0    0    0  501  0.00000000000E+00  0.00000000000E+00  0.10237743904E+04  0.10237743904E+04  0.25500000920E-02 0.  1.
        2   -1    0    0  501    0  0.00000000000E+00  0.00000000000E+00 -0.69084418747E+03  0.69084418747E+03  0.25500000920E-02 0. -1.
    10030    2    1    2    0    0  0.00000000000E+00  0.00000000000E+00  0.33293020289E+03  0.17146185778E+04  0.16819852400E+04 0.  0.
        5    1    3    3  502    0 -0.10762896398E+03 -0.18395702701E+03 -0.66284326709E+03  0.69628117050E+03  0.46999998093E+01 0. -1.
       -5    1    3    3    0  502  0.10762896398E+03  0.18395702701E+03  0.99577346997E+03  0.10183374073E+04  0.46999998093E+01 0.  1.
</event>
<event>
 5   0  0.3573262E-04  0.1704211E+04  0.7818609E-02  0.8758966E-01
       -2   -1    0    0    0  501  0.00000000000E+00  0.00000000000E+00  0.50011868533E+03  0.50011868534E+03  0.25500000920E-02 0. -1.
        2   -1    0    0  501    0  0.00000000000E+00  0.00000000000E+00 -0.14518228862E+04  0.14518228862E+04  0.25500000920E-02 0.  1.
    10030    2    1    2    0    0  0.00000000000E+00  0.00000000000E+00 -0.95170420087E+03  0.19519415715E+04  0.17042109649E+04 0.  0.
        5    1    3    3  502    0  0.56019366110E+03 -0.15634088998E+03 -0.11891133357E+04  0.13237341224E+04  0.46999998093E+01 0.  1.
       -5    1    3    3    0  502 -0.56019366110E+03  0.15634088998E+03  0.23740913481E+03  0.62820744910E+03  0.46999998093E+01 0. -1.
</event>
<event>
 5   0  0.1920289E-04  0.1525675E+04  0.7818609E-02  0.8867557E-01
        1   -1    0    0  501    0  0.00000000000E+00  0.00000000000E+00  0.72408786174E+03  0.72408786176E+03  0.50400001928E-02 0. -1.
       -1   -1    0    0    0  501  0.00000000000E+00  0.00000000000E+00 -0.80366037163E+03  0.80366037164E+03  0.50400001928E-02 0.  1.
    10030    2    1    2    0    0  0.00000000000E+00  0.00000000000E+00 -0.79572509884E+02  0.15277482334E+04  0.15256745657E+04 0.  0.
        4    1    3    3  502    0 -0.57165998741E+02 -0.51938616340E+03  0.51674713327E+03  0.73488716874E+03  0.12699999809E+01 0. -1.
       -4    1    3    3    0  502  0.57165998741E+02  0.51938616340E+03 -0.59631964315E+03  0.79286106466E+03  0.12699999809E+01 0.  1.
</event>
<event>
 5   0  0.1317625E-04  0.1693898E+04  0.7818609E-02  0.8764852E-01
        3   -1    0    0  501    0  0.00000000000E+00  0.00000000000E+00  0.47051216773E+03  0.47051217857E+03  0.10100000352E+00 0. -1.
       -3   -1    0    0    0  501  0.00000000000E+00  0.00000000000E+00 -0.15245564674E+04  0.15245564707E+04  0.10100000352E+00 0.  1.
    10030    2    1    2    0    0  0.00000000000E+00  0.00000000000E+00 -0.10540442997E+04  0.19950686493E+04  0.16938977330E+04 0.  0.
        2    1    3    3  502    0 -0.81165517972E+03 -0.22028118161E+03 -0.40915731087E+03  0.93526340396E+03  0.25500000920E-02 0. -1.
       -2    1    3    3    0  502  0.81165517972E+03  0.22028118161E+03 -0.64488698880E+03  0.10598052454E+04  0.25500000920E-02 0.  1.
</event>
<event>
 5   0  0.1920289E-04  0.1706987E+04  0.7818609E-02  0.8757389E-01
       -1   -1    0    0    0  501  0.00000000000E+00  0.00000000000E+00  0.10566880702E+04  0.10566880702E+04  0.50400001928E-02 0. -1.
        1   -1    0    0  501    0  0.00000000000E+00  0.00000000000E+00 -0.68937213230E+03  0.68937213232E+03  0.50400001928E-02 0.  1.
    10030    2    1    2    0    0  0.00000000000E+00  0.00000000000E+00  0.36731593785E+03  0.17460602025E+04  0.17069871799E+04 0.  0.
        4    1    3    3  502    0  0.41514499158E+03  0.49876053307E+03 -0.38341650139E+03  0.75373553706E+03  0.12699999809E+01 0.  1.
       -4    1    3    3    0  502 -0.41514499158E+03 -0.49876053307E+03  0.75073243925E+03  0.99232466543E+03  0.12699999809E+01 0. -1.
</event>
<event>
 5   0  0.1824538E-04  0.1843908E+04  0.7818609E-02  0.8683292E-01
       -1   -1    0    0    0  501  0.00000000000E+00  0.00000000000E+00  0.75876611628E+03  0.75876611630E+03  0.50400001928E-02 0. -1.
        1   -1    0    0  501    0  0.00000000000E+00  0.00000000000E+00 -0.11202390549E+04  0.11202390549E+04  0.50400001928E-02 0.  1.
    10030    2    1    2    0    0  0.00000000000E+00  0.00000000000E+00 -0.36147293859E+03  0.18790051712E+04  0.18439082808E+04 0.  0.
        3    1    3    3  502    0  0.14751034106E+02 -0.84110391135E+03  0.20370555011E+03  0.86554569149E+03  0.10100000352E+00 0.  1.
       -3    1    3    3    0  502 -0.14751034106E+02  0.84110391135E+03 -0.56517848871E+03  0.10134594797E+04  0.10100000352E+00 0. -1.
</event>
<event>
 5   0  0.1930116E-04  0.1707113E+04  0.7818609E-02  0.8757318E-01
        1   -1    0    0  501    0  0.00000000000E+00  0.00000000000E+00  0.86625477915E+03  0.86625477916E+03  0.50400001928E-02 0. -1.
       -1   -1    0    0    0  501  0.00000000000E+00  0.00000000000E+00 -0.84104414235E+03  0.84104414237E+03  0.50400001928E-02 0.  1.
    10030    2    1    2    0    0  0.00000000000E+00  0.00000000000E+00  0.25210636794E+02  0.17072989215E+04  0.17071127764E+04 0.  0.
        1    1    3    3  502    0  0.72448647725E+03 -0.16787302710E+03  0.43157402072E+03  0.85983611481E+03  0.50400001928E-02 0. -1.
       -1    1    3    3    0  502 -0.72448647725E+03  0.16787302710E+03 -0.40636338393E+03  0.84746280672E+03  0.50400001928E-02 0.  1.
</event>
<event>
 5   0  0.3574092E-04  0.1705370E+04  0.7818609E-02  0.8758308E-01
       -2   -1    0    0    0  501  0.00000000000E+00  0.00000000000E+00  0.85875574771E+03  0.85875574772E+03  0.25500000920E-02 0. -1.
        2   -1    0    0  501    0  0.00000000000E+00  0.00000000000E+00 -0.84665698658E+03  0.84665698659E+03  0.25500000920E-02 0.  1.
    10030    2    1    2    0    0  0.00000000000E+00  0.00000000000E+00  0.12098761130E+02  0.17054127343E+04  0.17053698175E+04 0.  0.
        3    1    3    3  502    0  0.61011554733E+02  0.41459679737E+03 -0.73657191271E+03  0.84743796646E+03  0.10100000352E+00 0.  1.
       -3    1    3    3    0  502 -0.61011554733E+02 -0.41459679737E+03  0.74867067384E+03  0.85797476785E+03  0.10100000352E+00 0. -1.
</event>
<event>
 5   0  0.3573262E-04  0.1755609E+04  0.7818609E-02  0.8730269E-01
       -2   -1    0    0    0  501  0.00000000000E+00  0.00000000000E+00  0.68116418979E+03  0.68116418980E+03  0.25500000920E-02 0. -1.
        2   -1    0    0  501    0  0.00000000000E+00  0.00000000000E+00 -0.11312119468E+04  0.11312119469E+04  0.25500000920E-02 0.  1.
    10030    2    1    2    0    0  0.00000000000E+00  0.00000000000E+00 -0.45004775705E+03  0.18123761367E+04  0.17556093749E+04 0.  0.
        5    1    3    3  502    0  0.78182336362E+03 -0.16875289445E+02 -0.63664767640E+03  0.10084021525E+04  0.46999998093E+01 0.  1.
       -5    1    3    3    0  502 -0.78182336362E+03  0.16875289445E+02  0.18659991934E+03  0.80397398415E+03  0.46999998093E+01 0. -1.
</event>
<event>
 5   0  0.3573262E-04  0.1712487E+04  0.7818609E-02  0.8754274E-01
       -2   -1    0    0    0  501  0.00000000000E+00  0.00000000000E+00  0.74000688972E+03  0.74000688972E+03  0.25500000920E-02 0.  1.
        2   -1    0    0  501    0  0.00000000000E+00  0.00000000000E+00 -0.99073828484E+03  0.99073828485E+03  0.25500000920E-02 0. -1.
    10030    2    1    2    0    0  0.00000000000E+00  0.00000000000E+00 -0.25073139513E+03  0.17307451746E+04  0.17124872633E+04 0.  0.
        5    1    3    3  502    0  0.64937911400E+03 -0.53723164713E+03  0.27307748152E+02  0.84325493149E+03  0.46999998093E+01 0.  1.
       -5    1    3    3    0  502 -0.64937911400E+03  0.53723164713E+03 -0.27803914328E+03  0.88749024308E+03  0.46999998093E+01 0. -1.
</event>
<event>
 5   0  0.1930116E-04  0.1708098E+04  0.7818609E-02  0.8756759E-01
       -1   -1    0    0    0  501  0.00000000000E+00  0.00000000000E+00  0.37310766987E+03  0.37310766990E+03  0.50400001928E-02 0. -1.
        1   -1    0    0  501    0  0.00000000000E+00  0.00000000000E+00 -0.19549319227E+04  0.19549319227E+04  0.50400001928E-02 0.  1.
    10030    2    1    2    0    0  0.00000000000E+00  0.00000000000E+00 -0.15818242528E+04  0.23280395926E+04  0.17080984685E+04 0.  0.
        1    1    3    3  502    0  0.67443012448E+02 -0.14038623089E+03 -0.19354130102E+04  0.19416694811E+04  0.50400001928E-02 0.  1.
       -1    1    3    3    0  502 -0.67443012448E+02  0.14038623089E+03  0.35358875734E+03  0.38637011154E+03  0.50400001928E-02 0. -1.
</event>
<event>
 5   0  0.3516723E-04  0.1619371E+04  0.7818609E-02  0.8808735E-01
       -2   -1    0    0    0  501  0.00000000000E+00  0.00000000000E+00  0.64262579333E+03  0.64262579333E+03  0.25500000920E-02 0.  1.
        2   -1    0    0  501    0  0.00000000000E+00  0.00000000000E+00 -0.10201747786E+04  0.10201747786E+04  0.25500000920E-02 0. -1.
    10030    2    1    2    0    0  0.00000000000E+00  0.00000000000E+00 -0.37754898531E+03  0.16628005720E+04  0.16193710217E+04 0.  0.
        1    1    3    3  502    0  0.53536809497E+03 -0.24468010904E+03  0.38210652702E+03  0.70177827758E+03  0.50400001928E-02 0.  1.
       -1    1    3    3    0  502 -0.53536809497E+03  0.24468010904E+03 -0.75965551233E+03  0.96102229439E+03  0.50400001928E-02 0. -1.
</event>
<event>
 5   0  0.3516723E-04  0.1693432E+04  0.7818609E-02  0.8765119E-01
       -2   -1    0    0    0  501  0.00000000000E+00  0.00000000000E+00  0.49172350476E+03  0.49172350477E+03  0.25500000920E-02 0. -1.
        2   -1    0    0  501    0  0.00000000000E+00  0.00000000000E+00 -0.14579904801E+04  0.14579904801E+04  0.25500000920E-02 0.  1.
    10030    2    1    2    0    0  0.00000000000E+00  0.00000000000E+00 -0.96626697530E+03  0.19497139848E+04  0.16934322411E+04 0.  0.
        1    1    3    3  502    0  0.32694659729E+03 -0.23624364994E+03 -0.13402608796E+04  0.13996443709E+04  0.50400001928E-02 0.  1.
       -1    1    3    3    0  502 -0.32694659729E+03  0.23624364994E+03  0.37399390434E+03  0.55006961389E+03  0.50400001928E-02 0. -1.
</event>
<event>
 5   0  0.1824538E-04  0.1468017E+04  0.7818609E-02  0.8906004E-01
       -1   -1    0    0    0  501  0.00000000000E+00  0.00000000000E+00  0.30189165025E+03  0.30189165029E+03  0.50400001928E-02 0.  1.
        1   -1    0    0  501    0  0.00000000000E+00  0.00000000000E+00 -0.17846422585E+04  0.17846422585E+04  0.50400001928E-02 0. -1.
    10030    2    1    2    0    0  0.00000000000E+00  0.00000000000E+00 -0.14827506082E+04  0.20865339088E+04  0.14680171614E+04 0.  0.
        3    1    3    3  502    0  0.19440634154E+03 -0.31217176514E+03 -0.16442526516E+04  0.16848773928E+04  0.10100000352E+00 0. -1.
       -3    1    3    3    0  502 -0.19440634154E+03  0.31217176514E+03  0.16150204333E+03  0.40165651592E+03  0.10100000352E+00 0.  1.
</event>
<event>
 5   0  0.3605571E-04  0.1704297E+04  0.7818609E-02  0.8758917E-01
        2   -1    0    0  501    0  0.00000000000E+00  0.00000000000E+00  0.89060041205E+03  0.89060041205E+03  0.25500000920E-02 0.  1.
       -2   -1    0    0    0  501  0.00000000000E+00  0.00000000000E+00 -0.81535662573E+03  0.81535662573E+03  0.25500000920E-02 0. -1.
    10030    2    1    2    0    0  0.00000000000E+00  0.00000000000E+00  0.75243786317E+02  0.17059570378E+04  0.17042968601E+04 0.  0.
        4    1    3    3  502    0  0.14530749835E+03  0.81375252331E+03  0.24482086447E+03  0.86211733938E+03  0.12699999809E+01 0.  1.
       -4    1    3    3    0  502 -0.14530749835E+03 -0.81375252331E+03 -0.16957707815E+03  0.84383969841E+03  0.12699999809E+01 0. -1.
</event>
<event>
 5   0  0.1893284E-04  0.1774853E+04  0.7818609E-02  0.8719788E-01
        1   -1    0    0  501    0  0.00000000000E+00  0.00000000000E+00  0.65757768388E+03  0.65757768389E+03  0.50400001928E-02 0. -1.
       -1   -1    0    0    0  501  0.00000000000E+00  0.00000000000E+00 -0.11976169114E+04  0.11976169114E+04  0.50400001928E-02 0.  1.
    10030    2    1    2    0    0  0.00000000000E+00  0.00000000000E+00 -0.54003922748E+03  0.18551945953E+04  0.17748534078E+04 0.  0.
        2    1    3    3  502    0  0.11146637943E+03 -0.38468211200E+03 -0.10977762651E+04  0.11685537254E+04  0.25500000920E-02 0.  1.
       -2    1    3    3    0  502 -0.11146637943E+03  0.38468211200E+03  0.55773703759E+03  0.68664086984E+03  0.25500000920E-02 0. -1.
</event>
<event>
 5   0  0.3678896E-04  0.1746199E+04  0.7818609E-02  0.8735445E-01
       -2   -1    0    0    0  501  0.00000000000E+00  0.00000000000E+00  0.47692116720E+03  0.47692116721E+03  0.25500000920E-02 0. -1.
        2   -1    0    0  501    0  0.00000000000E+00  0.00000000000E+00 -0.15983833106E+04  0.15983833106E+04  0.25500000920E-02 0.  1.
    10030    2    1    2    0    0  0.00000000000E+00  0.00000000000E+00 -0.11214621434E+04  0.20753044778E+04  0.17461991114E+04 0.  0.
        2    1    3    3  502    0  0.57752518279E+02 -0.86534649358E+03 -0.68042433456E+03  0.11023326097E+04  0.25500000920E-02 0.  1.
       -2    1    3    3    0  502 -0.57752518279E+02  0.86534649358E+03 -0.44103780886E+03  0.97297186813E+03  0.25500000920E-02 0. -1.
</event>
<event>
 5   0  0.1930116E-04  0.1695862E+04  0.7818609E-02  0.8763728E-01
        1   -1    0    0  501    0  0.00000000000E+00  0.00000000000E+00  0.18322876435E+04  0.18322876435E+04  0.50400001928E-02 0. -1.
       -1   -1    0    0    0  501  0.00000000000E+00  0.00000000000E+00 -0.39239846513E+03  0.39239846516E+03  0.50400001928E-02 0.  1.
    10030    2    1    2    0    0  0.00000000000E+00  0.00000000000E+00  0.14398891783E+04  0.22246861086E+04  0.16958618564E+04 0.  0.
        1    1    3    3  502    0 -0.46007706378E+03 -0.46678523564E+03  0.14199010296E+02  0.65556157052E+03  0.50400001928E-02 0.  1.
       -1    1    3    3    0  502  0.46007706378E+03  0.46678523564E+03  0.14256901680E+04  0.15691245381E+04  0.50400001928E-02 0. -1.
</event>
<event>
 5   0  0.3678896E-04  0.1731264E+04  0.7818609E-02  0.8743732E-01
        2   -1    0    0  501    0  0.00000000000E+00  0.00000000000E+00  0.17197973323E+04  0.17197973323E+04  0.25500000920E-02 0. -1.
       -2   -1    0    0    0  501  0.00000000000E+00  0.00000000000E+00 -0.43570171393E+03  0.43570171394E+03  0.25500000920E-02 0.  1.
    10030    2    1    2    0    0  0.00000000000E+00  0.00000000000E+00  0.12840956184E+04  0.21554990463E+04  0.17312638682E+04 0.  0.
        2    1    3    3  502    0 -0.15502884747E+03  0.84663337525E+03  0.75681240064E+03  0.11461182423E+04  0.25500000920E-02 0. -1.
       -2    1    3    3    0  502  0.15502884747E+03 -0.84663337525E+03  0.52728321775E+03  0.10093808039E+04  0.25500000920E-02 0.  1.
</event>
<event>
 5   0  0.3573262E-04  0.1705946E+04  0.7818609E-02  0.8757980E-01
       -2   -1    0    0    0  501  0.00000000000E+00  0.00000000000E+00  0.57131847018E+03  0.57131847018E+03  0.25500000920E-02 0. -1.
        2   -1    0    0  501    0  0.00000000000E+00  0.00000000000E+00 -0.12734809940E+04  0.12734809940E+04  0.25500000920E-02 0.  1.
    10030    2    1    2    0    0  0.00000000000E+00  0.00000000000E+00 -0.70216252380E+03  0.18447994642E+04  0.17059463219E+04 0.  0.
        5    1    3    3  502    0  0.82627498552E+03  0.21141824016E+03 -0.36258168415E+03  0.92677699133E+03  0.46999998093E+01 0.  1.
       -5    1    3    3    0  502 -0.82627498552E+03 -0.21141824016E+03 -0.33958083964E+03  0.91802247283E+03  0.46999998093E+01 0. -1.
</event>
<event>
 5   0  0.3573262E-04  0.1593671E+04  0.7818609E-02  0.8824446E-01
       -2   -1    0    0    0  501  0.00000000000E+00  0.00000000000E+00  0.87766026825E+03  0.87766026826E+03  0.25500000920E-02 0.  1.
        2   -1    0    0  501    0  0.00000000000E+00  0.00000000000E+00 -0.72345399417E+03  0.72345399417E+03  0.25500000920E-02 0. -1.
    10030    2    1    2    0    0  0.00000000000E+00  0.00000000000E+00  0.15420627408E+03  0.16011142624E+04  0.15936710157E+04 0.  0.
        5    1    3    3  502    0 -0.49894864754E+03 -0.14988093402E+03 -0.52863127258E+03  0.74221773059E+03  0.46999998093E+01 0. -1.
       -5    1    3    3    0  502  0.49894864754E+03  0.14988093402E+03  0.68283754666E+03  0.85889653183E+03  0.46999998093E+01 0.  1.
</event>
<event>
 5   0  0.3573262E-04  0.1684206E+04  0.7818609E-02  0.8770424E-01
       -2   -1    0    0    0  501  0.00000000000E+00  0.00000000000E+00  0.10256185872E+04  0.10256185872E+04  0.25500000920E-02 0. -1.
        2   -1    0    0  501    0  0.00000000000E+00  0.00000000000E+00 -0.69142414656E+03  0.69142414657E+03  0.25500000920E-02 0.  1.
    10030    2    1    2    0    0  0.00000000000E+00  0.00000000000E+00  0.33419444067E+03  0.17170427338E+04  0.16842059926E+04 0.  0.
        5    1    3    3  502    0 -0.23859923914E+03 -0.29362978406E+03  0.93407286471E+03  0.10078007013E+04  0.46999998093E+01 0. -1.
       -5    1    3    3    0  502  0.23859923914E+03  0.29362978406E+03 -0.59987842404E+03  0.70924203248E+03  0.46999998093E+01 0.  1.
</event>
<event>
 5   0  0.1824538E-04  0.1699038E+04  0.7818609E-02  0.8761913E-01
       -1   -1    0    0    0  501  0.00000000000E+00  0.00000000000E+00  0.74052713392E+03  0.74052713393E+03  0.50400001928E-02 0. -1.
        1   -1    0    0  501    0  0.00000000000E+00  0.00000000000E+00 -0.97455202912E+03  0.97455202913E+03  0.50400001928E-02 0.  1.
    10030    2    1    2    0    0  0.00000000000E+00  0.00000000000E+00 -0.23402489520E+03  0.17150791631E+04  0.16990376347E+04 0.  0.
        3    1    3    3  502    0  0.34071455587E+03  0.33542185356E+03 -0.82584455423E+03  0.95426069100E+03  0.10100000352E+00 0.  1.
       -3    1    3    3    0  502 -0.34071455587E+03 -0.33542185356E+03  0.59181965903E+03  0.76081847207E+03  0.10100000352E+00 0. -1.
</event>
<event>
 5   0  0.1824538E-04  0.1691840E+04  0.7818609E-02  0.8766032E-01
       -1   -1    0    0    0  501  0.00000000000E+00  0.00000000000E+00  0.10371347748E+04  0.10371347748E+04  0.50400001928E-02 0.  1.
        1   -1    0    0  501    0  0.00000000000E+00  0.00000000000E+00 -0.68995946421E+03  0.68995946423E+03  0.50400001928E-02 0. -1.
    10030    2    1    2    0    0  0.00000000000E+00  0.00000000000E+00  0.34717531060E+03  0.17270942391E+04  0.16918403631E+04 0.  0.
        3    1    3    3  502    0  0.49618821212E+03 -0.18994522533E+03  0.84555861298E+03  0.99862470862E+03  0.10100000352E+00 0.  1.
       -3    1    3    3    0  502 -0.49618821212E+03  0.18994522533E+03 -0.49838330238E+03  0.72846953043E+03  0.10100000352E+00 0. -1.
</event>
<event>
 5   0  0.1824538E-04  0.1676077E+04  0.7818609E-02  0.8775127E-01
        1   -1    0    0  501    0  0.00000000000E+00  0.00000000000E+00  0.12643474887E+04  0.12643474887E+04  0.50400001928E-02 0. -1.
       -1   -1    0    0    0  501  0.00000000000E+00  0.00000000000E+00 -0.55547111896E+03  0.55547111898E+03  0.50400001928E-02 0.  1.
    10030    2    1    2    0    0  0.00000000000E+00  0.00000000000E+00  0.70887636972E+03  0.18198186077E+04  0.16760769843E+04 0.  0.
        3    1    3    3  502    0 -0.20741428602E+03  0.23704204923E+03  0.11976339210E+04  0.12383604637E+04  0.10100000352E+00 0. -1.
       -3    1    3    3    0  502  0.20741428602E+03 -0.23704204923E+03 -0.48875755123E+03  0.58145814401E+03  0.10100000352E+00 0.  1.
</event>
<event>
 5   0  0.3516723E-04  0.1476265E+04  0.7818609E-02  0.8900391E-01
       -2   -1    0    0    0  501  0.00000000000E+00  0.00000000000E+00  0.10117664088E+04  0.10117664088E+04  0.25500000920E-02 0. -1.
        2   -1    0    0  501    0  0.00000000000E+00  0.00000000000E+00 -0.53850351497E+03  0.53850351498E+03  0.25500000920E-02 0.  1.
    10030    2    1    2    0    0  0.00000000000E+00  0.00000000000E+00  0.47326289383E+03  0.15502699238E+04  0.14762652437E+04 0.  0.
        1    1    3    3  502    0 -0.15846413895E+03  0.69227166549E+03  0.25326086389E+02  0.71062813964E+03  0.50400001928E-02 0.  1.
       -1    1    3    3    0  502  0.15846413895E+03 -0.69227166549E+03  0.44793680744E+03  0.83964178413E+03  0.50400001928E-02 0. -1.
</event>
<event>
 5   0  0.1815663E-04  0.1702981E+04  0.7818609E-02  0.8759666E-01
        1   -1    0    0  501    0  0.00000000000E+00  0.00000000000E+00  0.96705769585E+03  0.96705769587E+03  0.50400001928E-02 0. -1.
       -1   -1    0    0    0  501  0.00000000000E+00  0.00000000000E+00 -0.74973443867E+03  0.74973443868E+03  0.50400001928E-02 0.  1.
    10030    2    1    2    0    0  0.00000000000E+00  0.00000000000E+00  0.21732325719E+03  0.17167921346E+04  0.17029814547E+04 0.  0.
        5    1    3    3  502    0 -0.57558370128E+02 -0.69239038471E+03  0.60489021266E+03  0.92121206581E+03  0.46999998093E+01 0. -1.
       -5    1    3    3    0  502  0.57558370128E+02  0.69239038471E+03 -0.38756695547E+03  0.79558006875E+03  0.46999998093E+01 0.  1.
</event>
<event>
 5   0  0.3516723E-04  0.1739845E+04  0.7818609E-02  0.8738960E-01
        2   -1    0    0  501    0  0.00000000000E+00  0.00000000000E+00  0.88171514573E+03  0.88171514574E+03  0.25500000920E-02 0.  1.
       -2   -1    0    0    0  501  0.00000000000E+00  0.00000000000E+00 -0.85828746391E+03  0.85828746391E+03  0.25500000920E-02 0. -1.
    10030    2    1    2    0    0  0.00000000000E+00  0.00000000000E+00  0.23427681827E+02  0.17400026096E+04  0.17398448854E+04 0.  0.
        1    1    3    3  502    0  0.81887258569E+03  0.22665072850E+02 -0.28105667987E+03  0.86605939429E+03  0.50400001928E-02 0. -1.
       -1    1    3    3    0  502 -0.81887258569E+03 -0.22665072850E+02  0.30448436170E+03  0.87394321535E+03  0.50400001928E-02 0.  1.
</event>
<event>
 5   0  0.3574092E-04  0.1705532E+04  0.7818609E-02  0.8758215E-01
       -2   -1    0    0    0  501  0.00000000000E+00  0.00000000000E+00  0.36441273081E+03  0.36441273082E+03  0.25500000920E-02 0. -1.
        2   -1    0    0  501    0  0.00000000000E+00  0.00000000000E+00 -0.19955673888E+04  0.19955673888E+04  0.25500000920E-02 0.  1.
    10030    2    1    2    0    0  0.00000000000E+00  0.00000000000E+00 -0.16311546580E+04  0.23599801196E+04  0.17055323646E+04 0.  0.
        3    1    3    3  502    0  0.13225904687E+03  0.46419484431E+03  0.15720952954E+03  0.50762599947E+03  0.10100000352E+00 0. -1.
       -3    1    3    3    0  502 -0.13225904687E+03 -0.46419484431E+03 -0.17883641875E+04  0.18523541201E+04  0.10100000352E+00 0.  1.
</event>
<event>
 5   0  0.3678896E-04  0.1725974E+04  0.7818609E-02  0.8746688E-01
       -2   -1    0    0    0  501  0.00000000000E+00  0.00000000000E+00  0.52309117410E+03  0.52309117410E+03  0.25500000920E-02 0.  1.
        2   -1    0    0  501    0  0.00000000000E+00  0.00000000000E+00 -0.14237415128E+04  0.14237415128E+04  0.25500000920E-02 0. -1.
    10030    2    1    2    0    0  0.00000000000E+00  0.00000000000E+00 -0.90065033871E+03  0.19468326869E+04  0.17259740665E+04 0.  0.
        2    1    3    3  502    0  0.71791672295E+03  0.47231665694E+03 -0.53956379588E+03  0.10147002194E+04  0.25500000920E-02 0. -1.
       -2    1    3    3    0  502 -0.71791672295E+03 -0.47231665694E+03 -0.36108654284E+03  0.93213246748E+03  0.25500000920E-02 0.  1.
</event>
<event>
 5   0  0.1893284E-04  0.1706083E+04  0.7818609E-02  0.8757903E-01
        1   -1    0    0  501    0  0.00000000000E+00  0.00000000000E+00  0.81757489976E+03  0.81757489977E+03  0.50400001928E-02 0. -1.
       -1   -1    0    0    0  501  0.00000000000E+00  0.00000000000E+00 -0.89004668407E+03  0.89004668409E+03  0.50400001928E-02 0.  1.
    10030    2    1    2    0    0  0.00000000000E+00  0.00000000000E+00 -0.72471784320E+02  0.17076215839E+04  0.17060830326E+04 0.  0.
        2    1    3    3  502    0 -0.50765402487E+03  0.46650166469E+03 -0.53902685256E+03  0.87514933578E+03  0.25500000920E-02 0.  1.
       -2    1    3    3    0  502  0.50765402487E+03 -0.46650166469E+03  0.46655506824E+03  0.83247224808E+03  0.25500000920E-02 0. -1.
</event>
<event>
 5   0  0.3573262E-04  0.1701401E+04  0.7818609E-02  0.8760566E-01
       -2   -1    0    0    0  501  0.00000000000E+00  0.00000000000E+00  0.28502588661E+03  0.28502588662E+03  0.25500000920E-02 0.  1.
        2   -1    0    0  501    0  0.00000000000E+00  0.00000000000E+00 -0.25390366816E+04  0.25390366816E+04  0.25500000920E-02 0. -1.
    10030    2    1    2    0    0  0.00000000000E+00  0.00000000000E+00 -0.22540107949E+04  0.28240625682E+04  0.17014008126E+04 0.  0.
        5    1    3    3  502    0 -0.29892164371E+03 -0.22942359647E+03 -0.23929352845E+04  0.24224266143E+04  0.46999998093E+01 0. -1.
       -5    1    3    3    0  502  0.29892164371E+03  0.22942359647E+03  0.13892448954E+03  0.40163595392E+03  0.46999998093E+01 0.  1.
</event>
<event>
 5   0  0.1317625E-04  0.1696798E+04  0.7818609E-02  0.8763193E-01
        3   -1    0    0  501    0  0.00000000000E+00  0.00000000000E+00  0.85973566511E+03  0.85973567105E+03  0.10100000352E+00 0. -1.
       -3   -1    0    0    0  501  0.00000000000E+00  0.00000000000E+00 -0.83721160792E+03  0.83721161402E+03  0.10100000352E+00 0.  1.
    10030    2    1    2    0    0  0.00000000000E+00  0.00000000000E+00  0.22524057188E+02  0.16969472851E+04  0.16967977944E+04 0.  0.
        3    1    3    3  502    0 -0.84497173414E+03  0.75065630189E+02 -0.17236544696E+01  0.84830127992E+03  0.10100000352E+00 0. -1.
       -3    1    3    3    0  502  0.84497173414E+03 -0.75065630189E+02  0.24247711658E+02  0.84864600514E+03  0.10100000352E+00 0.  1.
</event>
<event>
 5   0  0.3573262E-04  0.1701903E+04  0.7818609E-02  0.8760280E-01
       -2   -1    0    0    0  501  0.00000000000E+00  0.00000000000E+00  0.54059531616E+03  0.54059531616E+03  0.25500000920E-02 0.  1.
        2   -1    0    0  501    0  0.00000000000E+00  0.00000000000E+00 -0.13394830621E+04  0.13394830621E+04  0.25500000920E-02 0. -1.
    10030    2    1    2    0    0  0.00000000000E+00  0.00000000000E+00 -0.79888774591E+03  0.18800783782E+04  0.17019027815E+04 0.  0.
        5    1    3    3  502    0  0.66833554360E+03 -0.51769661833E+03 -0.29226032762E+03  0.89449448102E+03  0.46999998093E+01 0. -1.
       -5    1    3    3    0  502 -0.66833554360E+03  0.51769661833E+03 -0.50662741829E+03  0.98558389721E+03  0.46999998093E+01 0.  1.
</event>
<event>
 5   0  0.3516723E-04  0.1698067E+04  0.7818609E-02  0.8762467E-01
        2   -1    0    0  501    0  0.00000000000E+00  0.00000000000E+00  0.76638062869E+03  0.76638062870E+03  0.25500000920E-02 0.  1.
       -2   -1    0    0    0  501  0.00000000000E+00  0.00000000000E+00 -0.94060087227E+03  0.94060087228E+03  0.25500000920E-02 0. -1.
    10030    2    1    2    0    0  0.00000000000E+00  0.00000000000E+00 -0.17422024358E+03  0.17069815010E+04  0.16980674755E+04 0.  0.
        1    1    3    3  502    0  0.15029790297E+02  0.84856595180E+03 -0.63147649558E+02  0.85104506039E+03  0.50400001928E-02 0.  1.
       -1    1    3    3    0  502 -0.15029790297E+02 -0.84856595180E+03 -0.11107259403E+03  0.85593644058E+03  0.50400001928E-02 0. -1.
</event>
<event>
 5   0  0.3605571E-04  0.1691526E+04  0.7818609E-02  0.8766212E-01
        2   -1    0    0  501    0  0.00000000000E+00  0.00000000000E+00  0.15876134494E+04  0.15876134494E+04  0.25500000920E-02 0.  1.
       -2   -1    0    0    0  501  0.00000000000E+00  0.00000000000E+00 -0.45055990200E+03  0.45055990201E+03  0.25500000920E-02 0. -1.
    10030    2    1    2    0    0  0.00000000000E+00  0.00000000000E+00  0.11370535474E+04  0.20381733514E+04  0.16915258912E+04 0.  0.
        4    1    3    3  502    0  0.38327970421E+02  0.62561873187E+03  0.12527387008E+04  0.14007939522E+04  0.12699999809E+01 0.  1.
       -4    1    3    3    0  502 -0.38327970421E+02 -0.62561873187E+03 -0.11568515341E+03  0.63737939926E+03  0.12699999809E+01 0. -1.
</event>
<event>
 5   0  0.1893284E-04  0.1716550E+04  0.7818609E-02  0.8751981E-01
       -1   -1    0    0    0  501  0.00000000000E+00  0.00000000000E+00  0.69245049677E+03  0.69245049679E+03  0.50400001928E-02 0. -1.
        1   -1    0    0  501    0  0.00000000000E+00  0.00000000000E+00 -0.10638098416E+04  0.10638098417E+04  0.50400001928E-02 0.  1.
    10030    2    1    2    0    0  0.00000000000E+00  0.00000000000E+00 -0.37135934487E+03  0.17562603384E+04  0.17165496245E+04 0.  0.
        2    1    3    3  502    0  0.46941243442E+02 -0.30480836726E+03 -0.10051608743E+04  0.10514085811E+04  0.25500000920E-02 0.  1.
       -2    1    3    3    0  502 -0.46941243442E+02  0.30480836726E+03  0.63380152946E+03  0.70485175735E+03  0.25500000920E-02 0. -1.
</event>
<event>
 5   0  0.1893284E-04  0.1700726E+04  0.7818609E-02  0.8760950E-01
       -1   -1    0    0    0  501  0.00000000000E+00  0.00000000000E+00  0.42615750436E+03  0.42615750439E+03  0.50400001928E-02 0.  1.
        1   -1    0    0  501    0  0.00000000000E+00  0.00000000000E+00 -0.16968310348E+04  0.16968310348E+04  0.50400001928E-02 0. -1.
    10030    2    1    2    0    0  0.00000000000E+00  0.00000000000E+00 -0.12706735304E+04  0.21229885392E+04  0.17007260557E+04 0.  0.
        2    1    3    3  502    0  0.28232702819E+03 -0.41131966843E+03  0.22428111880E+03  0.54698669156E+03  0.25500000920E-02 0.  1.
       -2    1    3    3    0  502 -0.28232702819E+03  0.41131966843E+03 -0.14949546492E+04  0.15760018476E+04  0.25500000920E-02 0. -1.
</event>
<event>
 5   0  0.3573262E-04  0.1694651E+04  0.7818609E-02  0.8764421E-01
       -2   -1    0    0    0  501  0.00000000000E+00  0.00000000000E+00  0.39550995645E+03  0.39550995645E+03  0.25500000920E-02 0. -1.
        2   -1    0    0  501    0  0.00000000000E+00  0.00000000000E+00 -0.18152771126E+04  0.18152771126E+04  0.25500000920E-02 0.  1.
    10030    2    1    2    0    0  0.00000000000E+00  0.00000000000E+00 -0.14197671561E+04  0.22107870690E+04  0.16946506091E+04 0.  0.
        5    1    3    3  502    0 -0.22719863414E+02 -0.47169073442E+03  0.20789627405E+03  0.51599543786E+03  0.46999998093E+01 0. -1.
       -5    1    3    3    0  502  0.22719863414E+02  0.47169073442E+03 -0.16276634302E+04  0.16947916312E+04  0.46999998093E+01 0.  1.
</event>
<event>
 5   0  0.3574092E-04  0.1691453E+04  0.7818609E-02  0.8766254E-01
       -2   -1    0    0    0  501  0.00000000000E+00  0.00000000000E+00  0.38472556739E+03  0.38472556740E+03  0.25500000920E-02 0.  1.
        2   -1    0    0  501    0  0.00000000000E+00  0.00000000000E+00 -0.18591264368E+04  0.18591264368E+04  0.25500000920E-02 0. -1.
    10030    2    1    2    0    0  0.00000000000E+00  0.00000000000E+00 -0.14744008694E+04  0.22438520042E+04  0.16914531897E+04 0.  0.
        3    1    3    3  502    0  0.77199177255E+03  0.30918967489E+03 -0.94135586543E+03  0.12560734165E+04  0.10100000352E+00 0. -1.
       -3    1    3    3    0  502 -0.77199177255E+03 -0.30918967489E+03 -0.53304500395E+03  0.98777858773E+03  0.10100000352E+00 0.  1.
</event>
<event>
 5   0  0.1893284E-04  0.1686810E+04  0.7818609E-02  0.8768923E-01
       -1   -1    0    0    0  501  0.00000000000E+00  0.00000000000E+00  0.87285456012E+03  0.87285456014E+03  0.50400001928E-02 0.  1.
        1   -1    0    0  501    0  0.00000000000E+00  0.00000000000E+00 -0.81494887446E+03  0.81494887448E+03  0.50400001928E-02 0. -1.
    10030    2    1    2    0    0  0.00000000000E+00  0.00000000000E+00  0.57905685657E+02  0.16878034346E+04  0.16868098190E+04 0.  0.
        2    1    3    3  502    0 -0.26448941956E+03 -0.79810609004E+03  0.95353498396E+02  0.84617981167E+03  0.25500000920E-02 0. -1.
       -2    1    3    3    0  502  0.26448941956E+03  0.79810609004E+03 -0.37447812739E+02  0.84162362295E+03  0.25500000920E-02 0.  1.
</event>
<event>
 5   0  0.3605571E-04  0.1694716E+04  0.7818609E-02  0.8764384E-01
       -2   -1    0    0    0  501  0.00000000000E+00  0.00000000000E+00  0.27555539474E+03  0.27555539476E+03  0.25500000920E-02 0. -1.
        2   -1    0    0  501    0  0.00000000000E+00  0.00000000000E+00 -0.26057040629E+04  0.26057040629E+04  0.25500000920E-02 0.  1.
    10030    2    1    2    0    0  0.00000000000E+00  0.00000000000E+00 -0.23301486682E+04  0.28812594577E+04  0.16947162732E+04 0.  0.
        4    1    3    3  502    0 -0.91909869850E+02  0.49071060834E+03 -0.23291071263E+04  0.23820130025E+04  0.12699999809E+01 0.  1.
       -4    1    3    3    0  502  0.91909869850E+02 -0.49071060834E+03 -0.10415418721E+01  0.49924645519E+03  0.12699999809E+01 0. -1.
</event>
<event>
 5   0  0.1920289E-04  0.1711597E+04  0.7818609E-02  0.8754778E-01
       -1   -1    0    0    0  501  0.00000000000E+00  0.00000000000E+00  0.16979650317E+04  0.16979650317E+04  0.50400001928E-02 0. -1.
        1   -1    0    0  501    0  0.00000000000E+00  0.00000000000E+00 -0.43133451265E+03  0.43133451268E+03  0.50400001928E-02 0.  1.
    10030    2    1    2    0    0  0.00000000000E+00  0.00000000000E+00  0.12666305191E+04  0.21292995444E+04  0.17115968211E+04 0.  0.
        4    1    3    3  502    0  0.16737447869E+03 -0.65084643218E+03 -0.25879496688E+02  0.67252260605E+03  0.12699999809E+01 0.  1.
       -4    1    3    3    0  502 -0.16737447869E+03  0.65084643218E+03  0.12925100157E+04  0.14567769383E+04  0.12699999809E+01 0. -1.
</event>
<event>
 5   0  0.1824538E-04  0.1696851E+04  0.7818609E-02  0.8763163E-01
       -1   -1    0    0    0  501  0.00000000000E+00  0.00000000000E+00  0.32948714566E+03  0.32948714570E+03  0.50400001928E-02 0. -1.
        1   -1    0    0  501    0  0.00000000000E+00  0.00000000000E+00 -0.21846846658E+04  0.21846846658E+04  0.50400001928E-02 0.  1.
    10030    2    1    2    0    0  0.00000000000E+00  0.00000000000E+00 -0.18551975202E+04  0.25141718115E+04  0.16968506296E+04 0.  0.
        3    1    3    3  502    0  0.87603093827E+02 -0.83105384264E+03 -0.11448577577E+04  0.14174004681E+04  0.10100000352E+00 0.  1.
       -3    1    3    3    0  502 -0.87603093827E+02  0.83105384264E+03 -0.71033976248E+03  0.10967713434E+04  0.10100000352E+00 0. -1.
</event>
<event>
 5   0  0.3516723E-04  0.1681344E+04  0.7818609E-02  0.8772077E-01
        2   -1    0    0  501    0  0.00000000000E+00  0.00000000000E+00  0.80586190696E+03  0.80586190697E+03  0.25500000920E-02 0.  1.
       -2   -1    0    0    0  501  0.00000000000E+00  0.00000000000E+00 -0.87698523341E+03  0.87698523342E+03  0.25500000920E-02 0. -1.
    10030    2    1    2    0    0  0.00000000000E+00  0.00000000000E+00 -0.71123326449E+02  0.16828471404E+04  0.16813435016E+04 0.  0.
        1    1    3    3  502    0 -0.13870478659E+02 -0.78796274979E+03 -0.32848583960E+03  0.85380362618E+03  0.50400001928E-02 0. -1.
       -1    1    3    3    0  502  0.13870478659E+02  0.78796274979E+03  0.25736251315E+03  0.82904351420E+03  0.50400001928E-02 0.  1.
</event>
<event>
 5   0  0.1893284E-04  0.1720190E+04  0.7818609E-02  0.8749932E-01
       -1   -1    0    0    0  501  0.00000000000E+00  0.00000000000E+00  0.87785934918E+03  0.87785934919E+03  0.50400001928E-02 0.  1.
        1   -1    0    0  501    0  0.00000000000E+00  0.00000000000E+00 -0.84269006124E+03  0.84269006125E+03  0.50400001928E-02 0. -1.
    10030    2    1    2    0    0  0.00000000000E+00  0.00000000000E+00  0.35169287937E+02  0.17205494104E+04  0.17201899299E+04 0.  0.
        2    1    3    3  502    0  0.93616305422E+02 -0.83360326107E+03 -0.17246806193E+03  0.85638988896E+03  0.25500000920E-02 0. -1.
       -2    1    3    3    0  502 -0.93616305422E+02  0.83360326107E+03  0.20763734987E+03  0.86415952149E+03  0.25500000920E-02 0.  1.
</event>
<event>
 5   0  0.3516723E-04  0.1700712E+04  0.7818609E-02  0.8760958E-01
       -2   -1    0    0    0  501  0.00000000000E+00  0.00000000000E+00  0.60021519540E+03  0.60021519541E+03  0.25500000920E-02 0.  1.
        2   -1    0    0  501    0  0.00000000000E+00  0.00000000000E+00 -0.12047438006E+04  0.12047438007E+04  0.25500000920E-02 0. -1.
    10030    2    1    2    0    0  0.00000000000E+00  0.00000000000E+00 -0.60452860525E+03  0.18049589961E+04  0.17007122458E+04 0.  0.
        1    1    3    3  502    0  0.13587124788E+03 -0.35823017193E+03  0.50342337360E+03  0.63263334183E+03  0.50400001928E-02 0.  1.
       -1    1    3    3    0  502 -0.13587124788E+03  0.35823017193E+03 -0.11079519789E+04  0.11723256542E+04  0.50400001928E-02 0. -1.
</event>
<event>
 5   0  0.3574092E-04  0.1728545E+04  0.7818609E-02  0.8745249E-01
        2   -1    0    0  501    0  0.00000000000E+00  0.00000000000E+00  0.13443238505E+04  0.13443238505E+04  0.25500000920E-02 0.  1.
       -2   -1    0    0    0  501  0.00000000000E+00  0.00000000000E+00 -0.55564534466E+03  0.55564534467E+03  0.25500000920E-02 0. -1.
    10030    2    1    2    0    0  0.00000000000E+00  0.00000000000E+00  0.78867850587E+03  0.18999691952E+04  0.17285453876E+04 0.  0.
        3    1    3    3  502    0 -0.51806590844E+03  0.65716181838E+02  0.11512982612E+04  0.12641987970E+04  0.10100000352E+00 0.  1.
       -3    1    3    3    0  502  0.51806590844E+03 -0.65716181838E+02 -0.36261975530E+03  0.63577039817E+03  0.10100000352E+00 0. -1.
</event>
<event>
 5   0  0.1930116E-04  0.1682763E+04  0.7818609E-02  0.8771257E-01
       -1   -1    0    0    0  501  0.00000000000E+00  0.00000000000E+00  0.85306915219E+03  0.85306915221E+03  0.50400001928E-02 0.  1.
        1   -1    0    0  501    0  0.00000000000E+00  0.00000000000E+00 -0.82985379169E+03  0.82985379170E+03  0.50400001928E-02 0. -1.
    10030    2    1    2    0    0  0.00000000000E+00  0.00000000000E+00  0.23215360505E+02  0.16829229439E+04  0.16827628122E+04 0.  0.
        1    1    3    3  502    0  0.56050468912E+03 -0.19507728715E+03 -0.58485666609E+03  0.83323344531E+03  0.50400001928E-02 0.  1.
       -1    1    3    3    0  502 -0.56050468912E+03  0.19507728715E+03  0.60807202659E+03  0.84968949860E+03  0.50400001928E-02 0. -1.
</event>
<event>
 5   0  0.1930116E-04  0.1712763E+04  0.7818609E-02  0.8754118E-01
       -1   -1    0    0    0  501  0.00000000000E+00  0.00000000000E+00  0.78128255026E+03  0.78128255027E+03  0.50400001928E-02 0. -1.
        1   -1    0    0  501    0  0.00000000000E+00  0.00000000000E+00 -0.93869911328E+03  0.93869911330E+03  0.50400001928E-02 0.  1.
    10030    2    1    2    0    0  0.00000000000E+00  0.00000000000E+00 -0.15741656303E+03  0.17199816636E+04  0.17127629575E+04 0.  0.
        1    1    3    3  502    0 -0.42342715681E+03 -0.47903002373E+03 -0.65087179053E+03  0.91235651392E+03  0.50400001928E-02 0.  1.
       -1    1    3    3    0  502  0.42342715681E+03  0.47903002373E+03  0.49345522751E+03  0.80762514965E+03  0.50400001928E-02 0. -1.
</event>
<event>
 5   0  0.3516723E-04  0.1730518E+04  0.7818609E-02  0.8744148E-01
        2   -1    0    0  501    0  0.00000000000E+00  0.00000000000E+00  0.98699589547E+03  0.98699589548E+03  0.25500000920E-02 0.  1.
       -2   -1    0    0    0  501  0.00000000000E+00  0.00000000000E+00 -0.75853703925E+03  0.75853703925E+03  0.25500000920E-02 0. -1.
    10030    2    1    2    0    0  0.00000000000E+00  0.00000000000E+00  0.22845885623E+03  0.17455329347E+04  0.17305177772E+04 0.  0.
        1    1    3    3  502    0  0.16240357039E+03  0.14357681245E+02  0.97136242344E+03  0.98494975526E+03  0.50400001928E-02 0.  1.
       -1    1    3    3    0  502 -0.16240357039E+03 -0.14357681245E+02 -0.74290356721E+03  0.76058317947E+03  0.50400001928E-02 0. -1.
</event>
<event>
 5   0  0.1893284E-04  0.1779978E+04  0.7818609E-02  0.8717020E-01
        1   -1    0    0  501    0  0.00000000000E+00  0.00000000000E+00  0.14140457129E+04  0.14140457129E+04  0.50400001928E-02 0.  1.
       -1   -1    0    0    0  501  0.00000000000E+00  0.00000000000E+00 -0.56015175843E+03  0.56015175846E+03  0.50400001928E-02 0. -1.
    10030    2    1    2    0    0  0.00000000000E+00  0.00000000000E+00  0.85389395447E+03  0.19741974714E+04  0.17799777444E+04 0.  0.
        2    1    3    3  502    0  0.98112318265E+02 -0.68997994529E+03  0.10408609663E+04  0.12526331877E+04  0.25500000920E-02 0.  1.
       -2    1    3    3    0  502 -0.98112318265E+02  0.68997994529E+03 -0.18696701181E+03  0.72156428363E+03  0.25500000920E-02 0. -1.
</event>
<event>
 5   0  0.1930116E-04  0.1700273E+04  0.7818609E-02  0.8761209E-01
       -1   -1    0    0    0  501  0.00000000000E+00  0.00000000000E+00  0.69174546920E+03  0.69174546922E+03  0.50400001928E-02 0.  1.
        1   -1    0    0  501    0  0.00000000000E+00  0.00000000000E+00 -0.10447944989E+04  0.10447944989E+04  0.50400001928E-02 0. -1.
    10030    2    1    2    0    0  0.00000000000E+00  0.00000000000E+00 -0.35304902968E+03  0.17365399681E+04  0.17002727556E+04 0.  0.
        1    1    3    3  502    0 -0.55033748133E+03 -0.46400400486E+03  0.28540679014E+03  0.77435656888E+03  0.50400001928E-02 0.  1.
       -1    1    3    3    0  502  0.55033748133E+03  0.46400400486E+03 -0.63845581982E+03  0.96218339924E+03  0.50400001928E-02 0. -1.
</event>
<event>
 5   0  0.3574092E-04  0.1701239E+04  0.7818609E-02  0.8760658E-01
       -2   -1    0    0    0  501  0.00000000000E+00  0.00000000000E+00  0.42564256983E+03  0.42564256983E+03  0.25500000920E-02 0. -1.
        2   -1    0    0  501    0  0.00000000000E+00  0.00000000000E+00 -0.16999078174E+04  0.16999078174E+04  0.25500000920E-02 0.  1.
    10030    2    1    2    0    0  0.00000000000E+00  0.00000000000E+00 -0.12742652476E+04  0.21255503872E+04  0.17012385275E+04 0.  0.
        3    1    3    3  502    0 -0.62872169541E+03 -0.30813259154E+03 -0.33630390009E+02  0.70097623183E+03  0.10100000352E+00 0. -1.
       -3    1    3    3    0  502  0.62872169541E+03  0.30813259154E+03 -0.12406348576E+04  0.14245741554E+04  0.10100000352E+00 0.  1.
</event>
<event>
 5   0  0.1920289E-04  0.1688891E+04  0.7818609E-02  0.8767726E-01
        1   -1    0    0  501    0  0.00000000000E+00  0.00000000000E+00  0.13966459706E+04  0.13966459706E+04  0.50400001928E-02 0. -1.
       -1   -1    0    0    0  501  0.00000000000E+00  0.00000000000E+00 -0.51057197342E+03  0.51057197345E+03  0.50400001928E-02 0.  1.
    10030    2    1    2    0    0  0.00000000000E+00  0.00000000000E+00  0.88607399715E+03  0.19072179440E+04  0.16888911029E+04 0.  0.
        4    1    3    3  502    0  0.91011480150E+01  0.81045677024E+03  0.17541216358E+03  0.82927320430E+03  0.12699999809E+01 0. -1.
       -4    1    3    3    0  502 -0.91011480150E+01 -0.81045677024E+03  0.71066183357E+03  0.10779447397E+04  0.12699999809E+01 0.  1.
</event>
<event>
 5   0  0.1930116E-04  0.1743542E+04  0.7818609E-02  0.8736913E-01
        1   -1    0    0  501    0  0.00000000000E+00  0.00000000000E+00  0.95482659898E+03  0.95482659899E+03  0.50400001928E-02 0.  1.
       -1   -1    0    0    0  501  0.00000000000E+00  0.00000000000E+00 -0.79593997308E+03  0.79593997310E+03  0.50400001928E-02 0. -1.
    10030    2    1    2    0    0  0.00000000000E+00  0.00000000000E+00  0.15888662590E+03  0.17507665721E+04  0.17435419783E+04 0.  0.
        1    1    3    3  502    0 -0.81292207821E+02  0.76726029787E+03 -0.32805577755E+03  0.83840168234E+03  0.50400001928E-02 0. -1.
       -1    1    3    3    0  502  0.81292207821E+02 -0.76726029787E+03  0.48694240345E+03  0.91236488975E+03  0.50400001928E-02 0.  1.
</event>
<event>
 5   0  0.1930116E-04  0.1700860E+04  0.7818609E-02  0.8760874E-01
        1   -1    0    0  501    0  0.00000000000E+00  0.00000000000E+00  0.12288823373E+04  0.12288823373E+04  0.50400001928E-02 0.  1.
       -1   -1    0    0    0  501  0.00000000000E+00  0.00000000000E+00 -0.58852777789E+03  0.58852777791E+03  0.50400001928E-02 0. -1.
    10030    2    1    2    0    0  0.00000000000E+00  0.00000000000E+00  0.64035455940E+03  0.18174101152E+04  0.17008602427E+04 0.  0.
        1    1    3    3  502    0 -0.35531625950E+03  0.70933033962E+03  0.64748805165E+03  0.10240312261E+04  0.50400001928E-02 0.  1.
       -1    1    3    3    0  502  0.35531625950E+03 -0.70933033962E+03 -0.71334922553E+01  0.79337888912E+03  0.50400001928E-02 0. -1.
</event>
<event>
 5   0  0.3678896E-04  0.1684766E+04  0.7818609E-02  0.8770101E-01
        2   -1    0    0  501    0  0.00000000000E+00  0.00000000000E+00  0.14135406805E+04  0.14135406805E+04  0.25500000920E-02 0.  1.
       -2   -1    0    0    0  501  0.00000000000E+00  0.00000000000E+00 -0.50200842840E+03  0.50200842841E+03  0.25500000920E-02 0. -1.
    10030    2    1    2    0    0  0.00000000000E+00  0.00000000000E+00  0.91153225209E+03  0.19155491089E+04  0.16847662574E+04 0.  0.
        2    1    3    3  502    0  0.28316813669E+02 -0.55477977592E+03  0.11757792023E+04  0.13003996210E+04  0.25500000920E-02 0.  1.
       -2    1    3    3    0  502 -0.28316813669E+02  0.55477977592E+03 -0.26424695025E+03  0.61514948787E+03  0.25500000920E-02 0. -1.
</event>
<event>
 5   0  0.3605571E-04  0.1715253E+04  0.7818609E-02  0.8752712E-01
        2   -1    0    0  501    0  0.00000000000E+00  0.00000000000E+00  0.11387141306E+04  0.11387141306E+04  0.25500000920E-02 0.  1.
       -2   -1    0    0    0  501  0.00000000000E+00  0.00000000000E+00 -0.64592469743E+03  0.64592469743E+03  0.25500000920E-02 0. -1.
    10030    2    1    2    0    0  0.00000000000E+00  0.00000000000E+00  0.49278943317E+03  0.17846388280E+04  0.17152534276E+04 0.  0.
        4    1    3    3  502    0  0.48637784377E+03  0.36456401135E+03 -0.38310164090E+03  0.71849760295E+03  0.12699999809E+01 0. -1.
       -4    1    3    3    0  502 -0.48637784377E+03 -0.36456401135E+03  0.87589107407E+03  0.10661412251E+04  0.12699999809E+01 0.  1.
</event>
<event>
 5   0  0.3574092E-04  0.1625089E+04  0.7818609E-02  0.8805281E-01
       -2   -1    0    0    0  501  0.00000000000E+00  0.00000000000E+00  0.39629810601E+03  0.39629810602E+03  0.25500000920E-02 0. -1.
        2   -1    0    0  501    0  0.00000000000E+00  0.00000000000E+00 -0.16659903046E+04  0.16659903046E+04  0.25500000920E-02 0.  1.
    10030    2    1    2    0    0  0.00000000000E+00  0.00000000000E+00 -0.12696921986E+04  0.20622884106E+04  0.16250892928E+04 0.  0.
        3    1    3    3  502    0  0.26738612693E+03  0.73956767610E+03 -0.37547561998E+03  0.87145719333E+03  0.10100000352E+00 0.  1.
       -3    1    3    3    0  502 -0.26738612693E+03 -0.73956767610E+03 -0.89421657860E+03  0.11908312173E+04  0.10100000352E+00 0. -1.
</event>
<event>
 5   0  0.1824538E-04  0.1703429E+04  0.7818609E-02  0.8759411E-01
       -1   -1    0    0    0  501  0.00000000000E+00  0.00000000000E+00  0.55951409166E+03  0.55951409169E+03  0.50400001928E-02 0.  1.
        1   -1    0    0  501    0  0.00000000000E+00  0.00000000000E+00 -0.12965140097E+04  0.12965140097E+04  0.50400001928E-02 0. -1.
    10030    2    1    2    0    0  0.00000000000E+00  0.00000000000E+00 -0.73699991806E+03  0.18560281014E+04  0.17034293158E+04 0.  0.
        3    1    3    3  502    0  0.40478795430E+03 -0.74908531231E+03 -0.39124473883E+03  0.93704564933E+03  0.10100000352E+00 0.  1.
       -3    1    3    3    0  502 -0.40478795430E+03  0.74908531231E+03 -0.34575517923E+03  0.91898245208E+03  0.10100000352E+00 0. -1.
</event>
<event>
 5   0  0.3573262E-04  0.1731113E+04  0.7818609E-02  0.8743816E-01
       -2   -1    0    0    0  501  0.00000000000E+00  0.00000000000E+00  0.82956715257E+03  0.82956715258E+03  0.25500000920E-02 0. -1.
        2   -1    0    0  501    0  0.00000000000E+00  0.00000000000E+00 -0.90310744024E+03  0.90310744024E+03  0.25500000920E-02 0.  1.
    10030    2    1    2    0    0  0.00000000000E+00  0.00000000000E+00 -0.73540287665E+02  0.17326745928E+04  0.17311132461E+04 0.  0.
        5    1    3    3  502    0  0.71604184881E+03  0.48245514056E+03  0.24007649339E+02  0.86375769121E+03  0.46999998093E+01 0. -1.
       -5    1    3    3    0  502 -0.71604184881E+03 -0.48245514056E+03 -0.97547937004E+02  0.86891690161E+03  0.46999998093E+01 0.  1.
</event>
<event>
 5   0  0.3678896E-04  0.1670779E+04  0.7818609E-02  0.8778208E-01
       -2   -1    0    0    0  501  0.00000000000E+00  0.00000000000E+00  0.50076287086E+03  0.50076287087E+03  0.25500000920E-02 0.  1.
        2   -1    0    0  501    0  0.00000000000E+00  0.00000000000E+00 -0.13936242808E+04  0.13936242808E+04  0.25500000920E-02 0. -1.
    10030    2    1    2    0    0  0.00000000000E+00  0.00000000000E+00 -0.89286140989E+03  0.18943871516E+04  0.16707786158E+04 0.  0.
        2    1    3    3  502    0  0.53986563522E+03 -0.74082588747E-01 -0.11692630425E+04  0.12878784772E+04  0.25500000920E-02 0. -1.
       -2    1    3    3    0  502 -0.53986563522E+03  0.74082588747E-01  0.27640163261E+03  0.60650867438E+03  0.25500000920E-02 0.  1.
</event>
<event>
 5   0  0.1824538E-04  0.1673749E+04  0.7818609E-02  0.8776480E-01
        1   -1    0    0  501    0  0.00000000000E+00  0.00000000000E+00  0.14428639910E+04  0.14428639910E+04  0.50400001928E-02 0. -1.
       -1   -1    0    0    0  501  0.00000000000E+00  0.00000000000E+00 -0.48539488256E+03  0.48539488259E+03  0.50400001928E-02 0.  1.
    10030    2    1    2    0    0  0.00000000000E+00  0.00000000000E+00  0.95746910846E+03  0.19282588736E+04  0.16737488432E+04 0.  0.
        3    1    3    3  502    0  0.33882454453E+03  0.18631038656E+03 -0.37631210757E+03  0.53955949126E+03  0.10100000352E+00 0.  1.
       -3    1    3    3    0  502 -0.33882454453E+03 -0.18631038656E+03  0.13337812160E+04  0.13886993823E+04  0.10100000352E+00 0. -1.
</event>
<event>
 5   0  0.3573262E-04  0.1683352E+04  0.7818609E-02  0.8770917E-01
       -2   -1    0    0    0  501  0.00000000000E+00  0.00000000000E+00  0.95521021510E+03  0.95521021510E+03  0.25500000920E-02 0.  1.
        2   -1    0    0  501    0  0.00000000000E+00  0.00000000000E+00 -0.74163642151E+03  0.74163642151E+03  0.25500000920E-02 0. -1.
    10030    2    1    2    0    0  0.00000000000E+00  0.00000000000E+00  0.21357379360E+03  0.16968466366E+04  0.16833522338E+04 0.  0.
        5    1    3    3  502    0 -0.72263618321E+03 -0.12522433958E+03 -0.30945480177E+03  0.79603300990E+03  0.46999998093E+01 0. -1.
       -5    1    3    3    0  502  0.72263618321E+03  0.12522433958E+03  0.52302859536E+03  0.90081362672E+03  0.46999998093E+01 0.  1.
</event>
<event>
 5   0  0.1317625E-04  0.1709101E+04  0.7818609E-02  0.8756191E-01
        3   -1    0    0  501    0  0.00000000000E+00  0.00000000000E+00  0.10875224071E+04  0.10875224118E+04  0.10100000352E+00 0.  1.
       -3   -1    0    0    0  501  0.00000000000E+00  0.00000000000E+00 -0.67148608459E+03  0.67148609219E+03  0.10100000352E+00 0. -1.
    10030    2    1    2    0    0  0.00000000000E+00  0.00000000000E+00  0.41603632248E+03  0.17590085040E+04  0.17091005516E+04 0.  0.
        4    1    3    3  502    0 -0.17930044517E+03  0.11431760526E+02  0.10678634752E+04  0.10828727300E+04  0.12699999809E+01 0.  1.
       -4    1    3    3    0  502  0.17930044517E+03 -0.11431760526E+02 -0.65182715277E+03  0.67613577392E+03  0.12699999809E+01 0. -1.
</event>
<event>
 5   0  0.3573262E-04  0.1693614E+04  0.7818609E-02  0.8765015E-01
        2   -1    0    0  501    0  0.00000000000E+00  0.00000000000E+00  0.11983999429E+04  0.11983999429E+04  0.25500000920E-02 0.  1.
       -2   -1    0    0    0  501  0.00000000000E+00  0.00000000000E+00 -0.59836650267E+03  0.59836650267E+03  0.25500000920E-02 0. -1.
    10030    2    1    2    0    0  0.00000000000E+00  0.00000000000E+00  0.60003344021E+03  0.17967664456E+04  0.16936143394E+04 0.  0.
        5    1    3    3  502    0 -0.84430549178E+03  0.40186411881E+02  0.24598770450E+03  0.88034013422E+03  0.46999998093E+01 0.  1.
       -5    1    3    3    0  502  0.84430549178E+03 -0.40186411881E+02  0.35404573571E+03  0.91642631134E+03  0.46999998093E+01 0. -1.
</event>
<event>
 5   0  0.3516723E-04  0.1594752E+04  0.7818609E-02  0.8823778E-01
        2   -1    0    0  501    0  0.00000000000E+00  0.00000000000E+00  0.20984963554E+04  0.20984963554E+04  0.25500000920E-02 0. -1.
       -2   -1    0    0    0  501  0.00000000000E+00  0.00000000000E+00 -0.30298304931E+03  0.30298304932E+03  0.25500000920E-02 0.  1.
    10030    2    1    2    0    0  0.00000000000E+00  0.00000000000E+00  0.17955133061E+04  0.24014794047E+04  0.15947524256E+04 0.  0.
        1    1    3    3  502    0 -0.16896940768E+03 -0.32435352960E+03 -0.16923336741E+03  0.40298362940E+03  0.50400001928E-02 0.  1.
       -1    1    3    3    0  502  0.16896940768E+03  0.32435352960E+03  0.19647466735E+04  0.19984957753E+04  0.50400001928E-02 0. -1.
</event>
<event>
 5   0  0.3605571E-04  0.1695235E+04  0.7818609E-02  0.8764087E-01
        2   -1    0    0  501    0  0.00000000000E+00  0.00000000000E+00  0.25619665557E+04  0.25619665557E+04  0.25500000920E-02 0.  1.
       -2   -1    0    0    0  501  0.00000000000E+00  0.00000000000E+00 -0.28043121782E+03  0.28043121784E+03  0.25500000920E-02 0. -1.
    10030    2    1    2    0    0  0.00000000000E+00  0.00000000000E+00  0.22815353379E+04  0.28423977735E+04  0.16952349704E+04 0.  0.
        4    1    3    3  502    0  0.78277878298E+03  0.13096958522E+03  0.64180370910E+03  0.10206905845E+04  0.12699999809E+01 0. -1.
       -4    1    3    3    0  502 -0.78277878298E+03 -0.13096958522E+03  0.16397316288E+04  0.18217071891E+04  0.12699999809E+01 0.  1.
</event>
<event>
 5   0  0.1824538E-04  0.1700716E+04  0.7818609E-02  0.8760956E-01
       -1   -1    0    0    0  501  0.00000000000E+00  0.00000000000E+00  0.99504034423E+03  0.99504034425E+03  0.50400001928E-02 0.  1.
        1   -1    0    0  501    0  0.00000000000E+00  0.00000000000E+00 -0.72671276924E+03  0.72671276926E+03  0.50400001928E-02 0. -1.
    10030    2    1    2    0    0  0.00000000000E+00  0.00000000000E+00  0.26832757499E+03  0.17217531135E+04  0.17007157600E+04 0.  0.
        3    1    3    3  502    0 -0.26678797865E+03 -0.25672277682E+03 -0.64082893038E+03  0.74009738407E+03  0.10100000352E+00 0. -1.
       -3    1    3    3    0  502  0.26678797865E+03  0.25672277682E+03  0.90915650537E+03  0.98165572944E+03  0.10100000352E+00 0.  1.
</event>
<event>
 5   0  0.1920289E-04  0.1699551E+04  0.7818609E-02  0.8761621E-01
        1   -1    0    0  501    0  0.00000000000E+00  0.00000000000E+00  0.58978855987E+03  0.58978855989E+03  0.50400001928E-02 0. -1.
       -1   -1    0    0    0  501  0.00000000000E+00  0.00000000000E+00 -0.12243677391E+04  0.12243677391E+04  0.50400001928E-02 0.  1.
    10030    2    1    2    0    0  0.00000000000E+00  0.00000000000E+00 -0.63457917921E+03  0.18141562990E+04  0.16995506296E+04 0.  0.
        4    1    3    3  502    0 -0.13161926768E+03 -0.83694535263E+03 -0.24716876946E+03  0.88255037726E+03  0.12699999809E+01 0. -1.
       -4    1    3    3    0  502  0.13161926768E+03  0.83694535263E+03 -0.38741040976E+03  0.93160592173E+03  0.12699999809E+01 0.  1.
</event>
<event>
 5   0  0.3516723E-04  0.1694793E+04  0.7818609E-02  0.8764340E-01
        2   -1    0    0  501    0  0.00000000000E+00  0.00000000000E+00  0.89808331940E+03  0.89808331940E+03  0.25500000920E-02 0. -1.
       -2   -1    0    0    0  501  0.00000000000E+00  0.00000000000E+00 -0.79957063801E+03  0.79957063802E+03  0.25500000920E-02 0.  1.
    10030    2    1    2    0    0  0.00000000000E+00  0.00000000000E+00  0.98512681388E+02  0.16976539574E+04  0.16947932649E+04 0.  0.
        1    1    3    3  502    0  0.75032041232E+03  0.10880921662E+03 -0.32988073580E+03  0.82682614052E+03  0.50400001928E-02 0.  1.
       -1    1    3    3    0  502 -0.75032041232E+03 -0.10880921662E+03  0.42839341719E+03  0.87082781690E+03  0.50400001928E-02 0. -1.
</event>
<event>
 5   0  0.1930116E-04  0.1718195E+04  0.7818609E-02  0.8751055E-01
        1   -1    0    0  501    0  0.00000000000E+00  0.00000000000E+00  0.20106765200E+04  0.20106765200E+04  0.50400001928E-02 0.  1.
       -1   -1    0    0    0  501  0.00000000000E+00  0.00000000000E+00 -0.36706476956E+03  0.36706476959E+03  0.50400001928E-02 0. -1.
    10030    2    1    2    0    0  0.00000000000E+00  0.00000000000E+00  0.16436117504E+04  0.23777412896E+04  0.17181949988E+04 0.  0.
        1    1    3    3  502    0 -0.44290630889E+03  0.29887957987E+03  0.17527575090E+04  0.18323902115E+04  0.50400001928E-02 0.  1.
       -1    1    3    3    0  502  0.44290630889E+03 -0.29887957987E+03 -0.10914575860E+03  0.54535107808E+03  0.50400001928E-02 0. -1.
</event>
<event>
 5   0  0.3605571E-04  0.1688045E+04  0.7818609E-02  0.8768212E-01
       -2   -1    0    0    0  501  0.00000000000E+00  0.00000000000E+00  0.81137226951E+03  0.81137226951E+03  0.25500000920E-02 0. -1.
        2   -1    0    0  501    0  0.00000000000E+00  0.00000000000E+00 -0.87798678496E+03  0.87798678497E+03  0.25500000920E-02 0.  1.
    10030    2    1    2    0    0  0.00000000000E+00  0.00000000000E+00 -0.66614515455E+02  0.16893590545E+04  0.16880451775E+04 0.  0.
        4    1    3    3  502    0  0.79282534174E+03  0.18423597165E+02  0.25581389179E+03  0.83327895184E+03  0.12699999809E+01 0. -1.
       -4    1    3    3    0  502 -0.79282534174E+03 -0.18423597165E+02 -0.32242840725E+03  0.85608010264E+03  0.12699999809E+01 0.  1.
</event>
<event>
 5   0  0.3573262E-04  0.1637351E+04  0.7818609E-02  0.8797925E-01
        2   -1    0    0  501    0  0.00000000000E+00  0.00000000000E+00  0.17727190711E+04  0.17727190711E+04  0.25500000920E-02 0.  1.
       -2   -1    0    0    0  501  0.00000000000E+00  0.00000000000E+00 -0.37808020142E+03  0.37808020143E+03  0.25500000920E-02 0. -1.
    10030    2    1    2    0    0  0.00000000000E+00  0.00000000000E+00  0.13946388697E+04  0.21507992726E+04  0.16373514998E+04 0.  0.
        5    1    3    3  502    0  0.19013750150E+03  0.13814656732E+03  0.17274335309E+04  0.17433546505E+04  0.46999998093E+01 0.  1.
       -5    1    3    3    0  502 -0.19013750150E+03 -0.13814656732E+03 -0.33279466122E+03  0.40744462209E+03  0.46999998093E+01 0. -1.
</event>
<event>
 5   0  0.3573262E-04  0.1708128E+04  0.7818609E-02  0.8756742E-01
        2   -1    0    0  501    0  0.00000000000E+00  0.00000000000E+00  0.86229351717E+03  0.86229351718E+03  0.25500000920E-02 0. -1.
       -2   -1    0    0    0  501  0.00000000000E+00  0.00000000000E+00 -0.84591320197E+03  0.84591320198E+03  0.25500000920E-02 0.  1.
    10030    2    1    2    0    0  0.00000000000E+00  0.00000000000E+00  0.16380315201E+02  0.17082067192E+04  0.17081281804E+04 0.  0.
        5    1    3    3  502    0  0.95149566069E+01  0.79770857950E+03 -0.29674002773E+03  0.85117932673E+03  0.46999998093E+01 0.  1.
       -5    1    3    3    0  502 -0.95149566069E+01 -0.79770857950E+03  0.31312034293E+03  0.85702739242E+03  0.46999998093E+01 0. -1.
</event>
<event>
 5   0  0.1920289E-04  0.1686622E+04  0.7818609E-02  0.8769031E-01
        1   -1    0    0  501    0  0.00000000000E+00  0.00000000000E+00  0.11542075564E+04  0.11542075564E+04  0.50400001928E-02 0. -1.
       -1   -1    0    0    0  501  0.00000000000E+00  0.00000000000E+00 -0.61615727459E+03  0.61615727462E+03  0.50400001928E-02 0.  1.
    10030    2    1    2    0    0  0.00000000000E+00  0.00000000000E+00  0.53805028179E+03  0.17703648310E+04  0.16866219283E+04 0.  0.
        4    1    3    3  502    0  0.61223680591E+02  0.81405539385E+03  0.49103877932E+03  0.95265692620E+03  0.12699999809E+01 0. -1.
       -4    1    3    3    0  502 -0.61223680591E+02 -0.81405539385E+03  0.47011502463E+02  0.81770790481E+03  0.12699999809E+01 0.  1.
</event>
<event>
 5   0  0.1920289E-04  0.1657141E+04  0.7818609E-02  0.8786193E-01
       -1   -1    0    0    0  501  0.00000000000E+00  0.00000000000E+00  0.49331700443E+03  0.49331700446E+03  0.50400001928E-02 0. -1.
        1   -1    0    0  501    0  0.00000000000E+00  0.00000000000E+00 -0.13916591764E+04  0.13916591764E+04  0.50400001928E-02 0.  1.
    10030    2    1    2    0    0  0.00000000000E+00  0.00000000000E+00 -0.89834217196E+03  0.18849761809E+04  0.16571410756E+04 0.  0.
        4    1    3    3  502    0  0.76118197486E+03  0.12215769006E+03 -0.10376627290E+03  0.77787502362E+03  0.12699999809E+01 0. -1.
       -4    1    3    3    0  502 -0.76118197486E+03 -0.12215769006E+03 -0.79457589907E+03  0.11071011572E+04  0.12699999809E+01 0.  1.
</event>
<event>
 5   0  0.1930116E-04  0.1733792E+04  0.7818609E-02  0.8742323E-01
        1   -1    0    0  501    0  0.00000000000E+00  0.00000000000E+00  0.10316006845E+04  0.10316006845E+04  0.50400001928E-02 0. -1.
       -1   -1    0    0    0  501  0.00000000000E+00  0.00000000000E+00 -0.72848766025E+03  0.72848766026E+03  0.50400001928E-02 0.  1.
    10030    2    1    2    0    0  0.00000000000E+00  0.00000000000E+00  0.30311302425E+03  0.17600883448E+04  0.17337916472E+04 0.  0.
        1    1    3    3  502    0 -0.53057896234E+03 -0.47975472165E+03 -0.34559536061E+03  0.79442732929E+03  0.50400001928E-02 0.  1.
       -1    1    3    3    0  502  0.53057896234E+03  0.47975472165E+03  0.64870838486E+03  0.96566101549E+03  0.50400001928E-02 0. -1.
</event>
<event>
 5   0  0.3573262E-04  0.1695034E+04  0.7818609E-02  0.8764202E-01
        2   -1    0    0  501    0  0.00000000000E+00  0.00000000000E+00  0.19713326570E+04  0.19713326570E+04  0.25500000920E-02 0. -1.
       -2   -1    0    0    0  501  0.00000000000E+00  0.00000000000E+00 -0.36436516602E+03  0.36436516603E+03  0.25500000920E-02 0.  1.
    10030    2    1    2    0    0  0.00000000000E+00  0.00000000000E+00  0.16069674910E+04  0.23356978230E+04  0.16950338650E+04 0.  0.
        5    1    3    3  502    0 -0.72352693920E+03  0.25875641819E+03  0.12961265610E+04  0.15067887270E+04  0.46999998093E+01 0. -1.
       -5    1    3    3    0  502  0.72352693920E+03 -0.25875641819E+03  0.31084092996E+03  0.82890909601E+03  0.46999998093E+01 0.  1.
</event>
<event>
 5   0  0.3516723E-04  0.1669935E+04  0.7818609E-02  0.8778700E-01
       -2   -1    0    0    0  501  0.00000000000E+00  0.00000000000E+00  0.23886530541E+03  0.23886530543E+03  0.25500000920E-02 0.  1.
        2   -1    0    0  501    0  0.00000000000E+00  0.00000000000E+00 -0.29186776070E+04  0.29186776070E+04  0.25500000920E-02 0. -1.
    10030    2    1    2    0    0  0.00000000000E+00  0.00000000000E+00 -0.26798123016E+04  0.31575429125E+04  0.16699351101E+04 0.  0.
        1    1    3    3  502    0  0.93472878403E+02  0.78938645707E+03 -0.18230929971E+04  0.19888529945E+04  0.50400001928E-02 0. -1.
       -1    1    3    3    0  502 -0.93472878403E+02 -0.78938645707E+03 -0.85671930456E+03  0.11686899180E+04  0.50400001928E-02 0.  1.
</event>
<event>
 5   0  0.3516723E-04  0.1723852E+04  0.7818609E-02  0.8747876E-01
       -2   -1    0    0    0  501  0.00000000000E+00  0.00000000000E+00  0.13648877427E+04  0.13648877427E+04  0.25500000920E-02 0. -1.
        2   -1    0    0  501    0  0.00000000000E+00  0.00000000000E+00 -0.54430616706E+03  0.54430616706E+03  0.25500000920E-02 0.  1.
    10030    2    1    2    0    0  0.00000000000E+00  0.00000000000E+00  0.82058157560E+03  0.19091939097E+04  0.17238524481E+04 0.  0.
        1    1    3    3  502    0  0.19285019265E+03 -0.19083694303E+03  0.13163625483E+04  0.13440313591E+04  0.50400001928E-02 0. -1.
       -1    1    3    3    0  502 -0.19285019265E+03  0.19083694303E+03 -0.49578097274E+03  0.56516255059E+03  0.50400001928E-02 0.  1.
</event>
<event>
 5   0  0.3516723E-04  0.1698170E+04  0.7818609E-02  0.8762409E-01
       -2   -1    0    0    0  501  0.00000000000E+00  0.00000000000E+00  0.36150607390E+03  0.36150607391E+03  0.25500000920E-02 0.  1.
        2   -1    0    0  501    0  0.00000000000E+00  0.00000000000E+00 -0.19942824800E+04  0.19942824800E+04  0.25500000920E-02 0. -1.
    10030    2    1    2    0    0  0.00000000000E+00  0.00000000000E+00 -0.16327764061E+04  0.23557885539E+04  0.16981698732E+04 0.  0.
        1    1    3    3  502    0 -0.23318133065E+03  0.69350902133E+03 -0.14140616652E+04  0.15921365169E+04  0.50400001928E-02 0. -1.
       -1    1    3    3    0  502  0.23318133065E+03 -0.69350902133E+03 -0.21871474091E+03  0.76365203696E+03  0.50400001928E-02 0.  1.
</event>
<event>
 5   0  0.1893284E-04  0.1695068E+04  0.7818609E-02  0.8764182E-01
        1   -1    0    0  501    0  0.00000000000E+00  0.00000000000E+00  0.15989048973E+04  0.15989048973E+04  0.50400001928E-02 0.  1.
       -1   -1    0    0    0  501  0.00000000000E+00  0.00000000000E+00 -0.44925373325E+03  0.44925373328E+03  0.50400001928E-02 0. -1.
    10030    2    1    2    0    0  0.00000000000E+00  0.00000000000E+00  0.11496511640E+04  0.20481586306E+04  0.16950681334E+04 0.  0.
        2    1    3    3  502    0 -0.82050642841E+03  0.10281433336E+03  0.35035260741E+03  0.89808047286E+03  0.25500000920E-02 0. -1.
       -2    1    3    3    0  502  0.82050642841E+03 -0.10281433336E+03  0.79929855661E+03  0.11500781577E+04  0.25500000920E-02 0.  1.
</event>
<event>
 5   0  0.1815663E-04  0.1725229E+04  0.7818609E-02  0.8747105E-01
       -1   -1    0    0    0  501  0.00000000000E+00  0.00000000000E+00  0.37911022845E+03  0.37911022848E+03  0.50400001928E-02 0. -1.
        1   -1    0    0  501    0  0.00000000000E+00  0.00000000000E+00 -0.19627643163E+04  0.19627643163E+04  0.50400001928E-02 0.  1.
    10030    2    1    2    0    0  0.00000000000E+00  0.00000000000E+00 -0.15836540879E+04  0.23418745448E+04  0.17252292931E+04 0.  0.
        5    1    3    3  502    0  0.40391395817E+03 -0.72123845959E+03 -0.45725329411E+03  0.94468728486E+03  0.46999998093E+01 0. -1.
       -5    1    3    3    0  502 -0.40391395817E+03  0.72123845959E+03 -0.11264007938E+04  0.13971872600E+04  0.46999998093E+01 0.  1.
</event>
<event>
 5   0  0.3573262E-04  0.1549328E+04  0.7818609E-02  0.8852297E-01
       -2   -1    0    0    0  501  0.00000000000E+00  0.00000000000E+00  0.76953738153E+03  0.76953738154E+03  0.25500000920E-02 0. -1.
        2   -1    0    0  501    0  0.00000000000E+00  0.00000000000E+00 -0.77982512014E+03  0.77982512014E+03  0.25500000920E-02 0.  1.
    10030    2    1    2    0    0  0.00000000000E+00  0.00000000000E+00 -0.10287738608E+02  0.15493625017E+04  0.15493283461E+04 0.  0.
        5    1    3    3  502    0  0.42381136092E+03  0.62013870594E+03 -0.19460623863E+03  0.77593927750E+03  0.46999998093E+01 0.  1.
       -5    1    3    3    0  502 -0.42381136092E+03 -0.62013870594E+03  0.18431850002E+03  0.77342322418E+03  0.46999998093E+01 0. -1.
</event>
<event>
 5   0  0.1920289E-04  0.1707795E+04  0.7818609E-02  0.8756931E-01
       -1   -1    0    0    0  501  0.00000000000E+00  0.00000000000E+00  0.59581243527E+03  0.59581243529E+03  0.50400001928E-02 0. -1.
        1   -1    0    0  501    0  0.00000000000E+00  0.00000000000E+00 -0.12237755708E+04  0.12237755708E+04  0.50400001928E-02 0.  1.
    10030    2    1    2    0    0  0.00000000000E+00  0.00000000000E+00 -0.62796313555E+03  0.18195880061E+04  0.17077947220E+04 0.  0.
        4    1    3    3  502    0 -0.55471590586E+03 -0.12122131364E+03 -0.99348716153E+03  0.11443000901E+04  0.12699999809E+01 0.  1.
       -4    1    3    3    0  502  0.55471590586E+03  0.12122131364E+03  0.36552402598E+03  0.67528791605E+03  0.12699999809E+01 0. -1.
</event>
<event>
 5   0  0.3678896E-04  0.1699271E+04  0.7818609E-02  0.8761780E-01
       -2   -1    0    0    0  501  0.00000000000E+00  0.00000000000E+00  0.90833011204E+03  0.90833011204E+03  0.25500000920E-02 0. -1.
        2   -1    0    0  501    0  0.00000000000E+00  0.00000000000E+00 -0.79473387991E+03  0.79473387991E+03  0.25500000920E-02 0.  1.
    10030    2    1    2    0    0  0.00000000000E+00  0.00000000000E+00  0.11359623213E+03  0.17030639920E+04  0.16992712723E+04 0.  0.
        2    1    3    3  502    0 -0.83658755763E+02  0.19022776080E+03  0.88246654819E+03  0.90660498403E+03  0.25500000920E-02 0. -1.
       -2    1    3    3    0  502  0.83658755763E+02 -0.19022776080E+03 -0.76887031605E+03  0.79645900793E+03  0.25500000920E-02 0.  1.
</event>
<event>
 5   0  0.1930116E-04  0.1699541E+04  0.7818609E-02  0.8761626E-01
       -1   -1    0    0    0  501  0.00000000000E+00  0.00000000000E+00  0.59287141629E+03  0.59287141631E+03  0.50400001928E-02 0. -1.
        1   -1    0    0  501    0  0.00000000000E+00  0.00000000000E+00 -0.12179871728E+04  0.12179871728E+04  0.50400001928E-02 0.  1.
    10030    2    1    2    0    0  0.00000000000E+00  0.00000000000E+00 -0.62511575652E+03  0.18108585891E+04  0.16995408559E+04 0.  0.
        1    1    3    3  502    0 -0.63453452301E+03 -0.56314467098E+03 -0.36414164991E+03  0.92323622252E+03  0.50400001928E-02 0. -1.
       -1    1    3    3    0  502  0.63453452301E+03  0.56314467098E+03 -0.26097410660E+03  0.88762236660E+03  0.50400001928E-02 0.  1.
</event>
<event>
 5   0  0.3574092E-04  0.1622319E+04  0.7818609E-02  0.8806953E-01
        2   -1    0    0  501    0  0.00000000000E+00  0.00000000000E+00  0.58902358100E+03  0.58902358100E+03  0.25500000920E-02 0. -1.
       -2   -1    0    0    0  501  0.00000000000E+00  0.00000000000E+00 -0.11170690338E+04  0.11170690338E+04  0.25500000920E-02 0.  1.
    10030    2    1    2    0    0  0.00000000000E+00  0.00000000000E+00 -0.52804545277E+03  0.17060926148E+04  0.16223193305E+04 0.  0.
        3    1    3    3  502    0  0.63537385829E+03 -0.24556157505E+03  0.19915135730E+03  0.70969127108E+03  0.10100000352E+00 0. -1.
       -3    1    3    3    0  502 -0.63537385829E+03  0.24556157505E+03 -0.72719681007E+03  0.99640134369E+03  0.10100000352E+00 0.  1.
</event>
<event>
 5   0  0.3573262E-04  0.1687819E+04  0.7818609E-02  0.8768342E-01
        2   -1    0    0  501    0  0.00000000000E+00  0.00000000000E+00  0.68939220899E+03  0.68939220899E+03  0.25500000920E-02 0.  1.
       -2   -1    0    0    0  501  0.00000000000E+00  0.00000000000E+00 -0.10330597968E+04  0.10330597968E+04  0.25500000920E-02 0. -1.
    10030    2    1    2    0    0  0.00000000000E+00  0.00000000000E+00 -0.34366758786E+03  0.17224520058E+04  0.16878191554E+04 0.  0.
        5    1    3    3  502    0  0.13737955107E+03  0.68914154280E+03  0.30505791483E+03  0.76607547178E+03  0.46999998093E+01 0.  1.
       -5    1    3    3    0  502 -0.13737955107E+03 -0.68914154280E+03 -0.64872550268E+03  0.95637653406E+03  0.46999998093E+01 0. -1.
</event>
<event>
 5   0  0.1930116E-04  0.1693137E+04  0.7818609E-02  0.8765288E-01
       -1   -1    0    0    0  501  0.00000000000E+00  0.00000000000E+00  0.86127926963E+03  0.86127926965E+03  0.50400001928E-02 0.  1.
        1   -1    0    0  501    0  0.00000000000E+00  0.00000000000E+00 -0.83210929542E+03  0.83210929544E+03  0.50400001928E-02 0. -1.
    10030    2    1    2    0    0  0.00000000000E+00  0.00000000000E+00  0.29169974210E+02  0.16933885651E+04  0.16931373084E+04 0.  0.
        1    1    3    3  502    0  0.32660867516E+03  0.20439041824E+03  0.76850704961E+03  0.85968119386E+03  0.50400001928E-02 0.  1.
       -1    1    3    3    0  502 -0.32660867516E+03 -0.20439041824E+03 -0.73933707540E+03  0.83370737123E+03  0.50400001928E-02 0. -1.
</event>
<event>
 5   0  0.1920289E-04  0.1681898E+04  0.7818609E-02  0.8771756E-01
        1   -1    0    0  501    0  0.00000000000E+00  0.00000000000E+00  0.12735608242E+04  0.12735608242E+04  0.50400001928E-02 0. -1.
       -1   -1    0    0    0  501  0.00000000000E+00  0.00000000000E+00 -0.55528964979E+03  0.55528964981E+03  0.50400001928E-02 0.  1.
    10030    2    1    2    0    0  0.00000000000E+00  0.00000000000E+00  0.71827117438E+03  0.18288504740E+04  0.16818979090E+04 0.  0.
        4    1    3    3  502    0 -0.12047876513E+03  0.63535265527E+02 -0.54321481720E+03  0.56003197528E+03  0.12699999809E+01 0.  1.
       -4    1    3    3    0  502  0.12047876513E+03 -0.63535265527E+02  0.12614859916E+04  0.12688184987E+04  0.12699999809E+01 0. -1.
</event>
<event>
 5   0  0.1317625E-04  0.1670063E+04  0.7818609E-02  0.8778625E-01
       -3   -1    0    0    0  501  0.00000000000E+00  0.00000000000E+00  0.53640378808E+03  0.53640379759E+03  0.10100000352E+00 0.  1.
        3   -1    0    0  501    0  0.00000000000E+00  0.00000000000E+00 -0.12999111939E+04  0.12999111979E+04  0.10100000352E+00 0. -1.
    10030    2    1    2    0    0  0.00000000000E+00  0.00000000000E+00 -0.76350740586E+03  0.18363149955E+04  0.16700626347E+04 0.  0.
        4    1    3    3  502    0 -0.45098146235E+03  0.24598926331E+03 -0.11056047387E+04  0.12191219989E+04  0.12699999809E+01 0. -1.
       -4    1    3    3    0  502  0.45098146235E+03 -0.24598926331E+03  0.34209733280E+03  0.61719299660E+03  0.12699999809E+01 0.  1.
</event>
<event>
 5   0  0.1815663E-04  0.1736130E+04  0.7818609E-02  0.8741022E-01
       -1   -1    0    0    0  501  0.00000000000E+00  0.00000000000E+00  0.13256896792E+04  0.13256896792E+04  0.50400001928E-02 0. -1.
        1   -1    0    0  501    0  0.00000000000E+00  0.00000000000E+00 -0.56841122242E+03  0.56841122245E+03  0.50400001928E-02 0.  1.
    10030    2    1    2    0    0  0.00000000000E+00  0.00000000000E+00  0.75727845673E+03  0.18941009016E+04  0.17361300540E+04 0.  0.
        5    1    3    3  502    0 -0.55330930204E+03 -0.66841372565E+03  0.40506527161E+03  0.95761581890E+03  0.46999998093E+01 0. -1.
       -5    1    3    3    0  502  0.55330930204E+03  0.66841372565E+03  0.35221318512E+03  0.93648508270E+03  0.46999998093E+01 0.  1.
</event>
<event>
 5   0  0.3573262E-04  0.1703616E+04  0.7818609E-02  0.8759305E-01
        2   -1    0    0  501    0  0.00000000000E+00  0.00000000000E+00  0.61172899594E+03  0.61172899595E+03  0.25500000920E-02 0. -1.
       -2   -1    0    0    0  501  0.00000000000E+00  0.00000000000E+00 -0.11861076623E+04  0.11861076623E+04  0.25500000920E-02 0.  1.
    10030    2    1    2    0    0  0.00000000000E+00  0.00000000000E+00 -0.57437866639E+03  0.17978366583E+04  0.17036155075E+04 0.  0.
        5    1    3    3  502    0 -0.18788272764E+03 -0.10963873718E+03 -0.11562865465E+04  0.11765803159E+04  0.46999998093E+01 0.  1.
       -5    1    3    3    0  502  0.18788272764E+03  0.10963873718E+03  0.58190788013E+03  0.62125634241E+03  0.46999998093E+01 0. -1.
</event>
<event>
 5   0  0.3573262E-04  0.1730388E+04  0.7818609E-02  0.8744220E-01
       -2   -1    0    0    0  501  0.00000000000E+00  0.00000000000E+00  0.53095308380E+03  0.53095308381E+03  0.25500000920E-02 0.  1.
        2   -1    0    0  501    0  0.00000000000E+00  0.00000000000E+00 -0.14098427679E+04  0.14098427679E+04  0.25500000920E-02 0. -1.
    10030    2    1    2    0    0  0.00000000000E+00  0.00000000000E+00 -0.87888968407E+03  0.19407958517E+04  0.17303876621E+04 0.  0.
        5    1    3    3  502    0  0.22309393370E+03 -0.48776882611E+03 -0.12008498761E+04  0.13152003064E+04  0.46999998093E+01 0. -1.
       -5    1    3    3    0  502 -0.22309393370E+03  0.48776882611E+03  0.32196019207E+03  0.62559554526E+03  0.46999998093E+01 0.  1.
</event>
<event>
 5   0  0.3574092E-04  0.1693284E+04  0.7818609E-02  0.8765204E-01
        2   -1    0    0  501    0  0.00000000000E+00  0.00000000000E+00  0.10445625344E+04  0.10445625344E+04  0.25500000920E-02 0.  1.
       -2   -1    0    0    0  501  0.00000000000E+00  0.00000000000E+00 -0.68622254662E+03  0.68622254663E+03  0.25500000920E-02 0. -1.
    10030    2    1    2    0    0  0.00000000000E+00  0.00000000000E+00  0.35833998777E+03  0.17307850810E+04  0.16932836295E+04 0.  0.
        3    1    3    3  502    0 -0.41953534467E+03 -0.60114380245E+03 -0.25378936877E+03  0.77575307319E+03  0.10100000352E+00 0. -1.
       -3    1    3    3    0  502  0.41953534467E+03  0.60114380245E+03  0.61212935654E+03  0.95503200783E+03  0.10100000352E+00 0.  1.
</event>
<event>
 5   0  0.3573262E-04  0.1687056E+04  0.7818609E-02  0.8768781E-01
        2   -1    0    0  501    0  0.00000000000E+00  0.00000000000E+00  0.16375797657E+04  0.16375797657E+04  0.25500000920E-02 0.  1.
       -2   -1    0    0    0  501  0.00000000000E+00  0.00000000000E+00 -0.43450673341E+03  0.43450673342E+03  0.25500000920E-02 0. -1.
    10030    2    1    2    0    0  0.00000000000E+00  0.00000000000E+00  0.12030730323E+04  0.20720864991E+04  0.16870559383E+04 0.  0.
        5    1    3    3  502    0  0.81802043401E+02  0.71742053683E+03  0.65976964220E+02  0.72509230501E+03  0.46999998093E+01 0. -1.
       -5    1    3    3    0  502 -0.81802043401E+02 -0.71742053683E+03  0.11370960681E+04  0.13469941941E+04  0.46999998093E+01 0.  1.
</event>
<event>
 5   0  0.1893284E-04  0.1564053E+04  0.7818609E-02  0.8842941E-01
        1   -1    0    0  501    0  0.00000000000E+00  0.00000000000E+00  0.46729288005E+03  0.46729288008E+03  0.50400001928E-02 0. -1.
       -1   -1    0    0    0  501  0.00000000000E+00  0.00000000000E+00 -0.13087404182E+04  0.13087404182E+04  0.50400001928E-02 0.  1.
    10030    2    1    2    0    0  0.00000000000E+00  0.00000000000E+00 -0.84144753811E+03  0.17760332982E+04  0.15640525302E+04 0.  0.
        2    1    3    3  502    0 -0.57201126252E+03 -0.25846138038E+03  0.10893381137E+03  0.63707593336E+03  0.25500000920E-02 0. -1.
       -2    1    3    3    0  502  0.57201126252E+03  0.25846138038E+03 -0.95038134948E+03  0.11389573649E+04  0.25500000920E-02 0.  1.
</event>
<event>
 5   0  0.3574092E-04  0.1709655E+04  0.7818609E-02  0.8755877E-01
        2   -1    0    0  501    0  0.00000000000E+00  0.00000000000E+00  0.15793646237E+04  0.15793646237E+04  0.25500000920E-02 0. -1.
       -2   -1    0    0    0  501  0.00000000000E+00  0.00000000000E+00 -0.46267353531E+03  0.46267353532E+03  0.25500000920E-02 0.  1.
    10030    2    1    2    0    0  0.00000000000E+00  0.00000000000E+00  0.11166910884E+04  0.20420381591E+04  0.17096551863E+04 0.  0.
        3    1    3    3  502    0  0.43229652339E+03  0.65107912575E+03  0.14468127096E+03  0.79480626098E+03  0.10100000352E+00 0.  1.
       -3    1    3    3    0  502 -0.43229652339E+03 -0.65107912575E+03  0.97200981747E+03  0.12472318981E+04  0.10100000352E+00 0. -1.
</event>
<event>
 5   0  0.3605571E-04  0.1654369E+04  0.7818609E-02  0.8787826E-01
       -2   -1    0    0    0  501  0.00000000000E+00  0.00000000000E+00  0.79170247944E+03  0.79170247944E+03  0.25500000920E-02 0.  1.
        2   -1    0    0  501    0  0.00000000000E+00  0.00000000000E+00 -0.86425697947E+03  0.86425697947E+03  0.25500000920E-02 0. -1.
    10030    2    1    2    0    0  0.00000000000E+00  0.00000000000E+00 -0.72554500028E+02  0.16559594589E+04  0.16543692375E+04 0.  0.
        4    1    3    3  502    0  0.77880976083E+03  0.27655069859E+03 -0.71064766668E+02  0.82950391585E+03  0.12699999809E+01 0. -1.
       -4    1    3    3    0  502 -0.77880976083E+03 -0.27655069859E+03 -0.14897333607E+01  0.82645554306E+03  0.12699999809E+01 0.  1.
</event>
<event>
 5   0  0.3574092E-04  0.1696198E+04  0.7818609E-02  0.8763536E-01
        2   -1    0    0  501    0  0.00000000000E+00  0.00000000000E+00  0.80025608597E+03  0.80025608597E+03  0.25500000920E-02 0.  1.
       -2   -1    0    0    0  501  0.00000000000E+00  0.00000000000E+00 -0.89880236347E+03  0.89880236348E+03  0.25500000920E-02 0. -1.
    10030    2    1    2    0    0  0.00000000000E+00  0.00000000000E+00 -0.98546277504E+02  0.16990584494E+04  0.16961981741E+04 0.  0.
        3    1    3    3  502    0 -0.59399170618E+02  0.14510396957E+03 -0.88415845465E+03  0.89795300911E+03  0.10100000352E+00 0. -1.
       -3    1    3    3    0  502  0.59399170618E+02 -0.14510396957E+03  0.78561217714E+03  0.80110544033E+03  0.10100000352E+00 0.  1.
</event>
<event>
 5   0  0.1893284E-04  0.1682262E+04  0.7818609E-02  0.8771546E-01
        1   -1    0    0  501    0  0.00000000000E+00  0.00000000000E+00  0.11346359931E+04  0.11346359932E+04  0.50400001928E-02 0. -1.
       -1   -1    0    0    0  501  0.00000000000E+00  0.00000000000E+00 -0.62354894256E+03  0.62354894258E+03  0.50400001928E-02 0.  1.
    10030    2    1    2    0    0  0.00000000000E+00  0.00000000000E+00  0.51108705059E+03  0.17581849357E+04  0.16822616607E+04 0.  0.
        2    1    3    3  502    0  0.10922606406E+03 -0.23877331161E+03 -0.57961938347E+03  0.63631883290E+03  0.25500000920E-02 0.  1.
       -2    1    3    3    0  502 -0.10922606406E+03  0.23877331161E+03  0.10907064341E+04  0.11218661028E+04  0.25500000920E-02 0. -1.
</event>
<event>
 5   0  0.3678896E-04  0.1775827E+04  0.7818609E-02  0.8719261E-01
        2   -1    0    0  501    0  0.00000000000E+00  0.00000000000E+00  0.11899689265E+04  0.11899689265E+04  0.25500000920E-02 0.  1.
       -2   -1    0    0    0  501  0.00000000000E+00  0.00000000000E+00 -0.66252992504E+03  0.66252992504E+03  0.25500000920E-02 0. -1.
    10030    2    1    2    0    0  0.00000000000E+00  0.00000000000E+00  0.52743900150E+03  0.18524988516E+04  0.17758265948E+04 0.  0.
        2    1    3    3  502    0  0.20659816775E+03 -0.47679550071E+03  0.10147865200E+04  0.11400914146E+04  0.25500000920E-02 0.  1.
       -2    1    3    3    0  502 -0.20659816775E+03  0.47679550071E+03 -0.48734751853E+03  0.71240743697E+03  0.25500000920E-02 0. -1.
</event>
<event>
 5   0  0.1920289E-04  0.1710760E+04  0.7818609E-02  0.8755251E-01
       -1   -1    0    0    0  501  0.00000000000E+00  0.00000000000E+00  0.85823609763E+03  0.85823609765E+03  0.50400001928E-02 0. -1.
        1   -1    0    0  501    0  0.00000000000E+00  0.00000000000E+00 -0.85253387330E+03  0.85253387331E+03  0.50400001928E-02 0.  1.
    10030    2    1    2    0    0  0.00000000000E+00  0.00000000000E+00  0.57022243343E+01  0.17107699710E+04  0.17107604678E+04 0.  0.
        4    1    3    3  502    0 -0.56318296426E+03 -0.28835488777E+03  0.57848452015E+03  0.85730364835E+03  0.12699999809E+01 0. -1.
       -4    1    3    3    0  502  0.56318296426E+03  0.28835488777E+03 -0.57278229581E+03  0.85346632261E+03  0.12699999809E+01 0.  1.
</event>
<event>
 5   0  0.1920289E-04  0.1693815E+04  0.7818609E-02  0.8764900E-01
        1   -1    0    0  501    0  0.00000000000E+00  0.00000000000E+00  0.78405558348E+03  0.78405558350E+03  0.50400001928E-02 0.  1.
       -1   -1    0    0    0  501  0.00000000000E+00  0.00000000000E+00 -0.91479752380E+03  0.91479752381E+03  0.50400001928E-02 0. -1.
    10030    2    1    2    0    0  0.00000000000E+00  0.00000000000E+00 -0.13074194032E+03  0.16988531073E+04  0.16938147553E+04 0.  0.
        4    1    3    3  502    0  0.61563113608E+02 -0.12766020210E+03 -0.90281769973E+03  0.91387556921E+03  0.12699999809E+01 0. -1.
       -4    1    3    3    0  502 -0.61563113608E+02  0.12766020210E+03  0.77207575941E+03  0.78497753810E+03  0.12699999809E+01 0.  1.
</event>
<event>
 5   0  0.3605571E-04  0.1690765E+04  0.7818609E-02  0.8766649E-01
       -2   -1    0    0    0  501  0.00000000000E+00  0.00000000000E+00  0.77160889328E+03  0.77160889329E+03  0.25500000920E-02 0.  1.
        2   -1    0    0  501    0  0.00000000000E+00  0.00000000000E+00 -0.92620913965E+03  0.92620913965E+03  0.25500000920E-02 0. -1.
    10030    2    1    2    0    0  0.00000000000E+00  0.00000000000E+00 -0.15460024637E+03  0.16978180329E+04  0.16907645717E+04 0.  0.
        4    1    3    3  502    0 -0.66319297028E+03 -0.44383055382E+03 -0.35749665040E+03  0.87442320662E+03  0.12699999809E+01 0. -1.
       -4    1    3    3    0  502  0.66319297028E+03  0.44383055382E+03  0.20289640404E+03  0.82339482631E+03  0.12699999809E+01 0.  1.
</event>
<event>
 5   0  0.1824538E-04  0.1682330E+04  0.7818609E-02  0.8771507E-01
        1   -1    0    0  501    0  0.00000000000E+00  0.00000000000E+00  0.90825773277E+03  0.90825773278E+03  0.50400001928E-02 0. -1.
       -1   -1    0    0    0  501  0.00000000000E+00  0.00000000000E+00 -0.77902883775E+03  0.77902883777E+03  0.50400001928E-02 0.  1.
    10030    2    1    2    0    0  0.00000000000E+00  0.00000000000E+00  0.12922889502E+03  0.16872865705E+04  0.16823304859E+04 0.  0.
        3    1    3    3  502    0  0.14183318169E+03 -0.51263949083E+03 -0.58895169928E+03  0.79358680261E+03  0.10100000352E+00 0.  1.
       -3    1    3    3    0  502 -0.14183318169E+03  0.51263949083E+03  0.71818059430E+03  0.89369976794E+03  0.10100000352E+00 0. -1.
</event>
<event>
 5   0  0.1893284E-04  0.1724360E+04  0.7818609E-02  0.8747592E-01
       -1   -1    0    0    0  501  0.00000000000E+00  0.00000000000E+00  0.78636483072E+03  0.78636483074E+03  0.50400001928E-02 0. -1.
        1   -1    0    0  501    0  0.00000000000E+00  0.00000000000E+00 -0.94530493701E+03  0.94530493703E+03  0.50400001928E-02 0.  1.
    10030    2    1    2    0    0  0.00000000000E+00  0.00000000000E+00 -0.15894010629E+03  0.17316697678E+04  0.17243602371E+04 0.  0.
        2    1    3    3  502    0  0.56329970964E+03  0.64707206614E+03 -0.16554062886E+03  0.87373481186E+03  0.25500000920E-02 0. -1.
       -2    1    3    3    0  502 -0.56329970964E+03 -0.64707206614E+03  0.66005225753E+01  0.85793495590E+03  0.25500000920E-02 0.  1.
</event>
<event>
 5   0  0.3574092E-04  0.1697320E+04  0.7818609E-02  0.8762894E-01
       -2   -1    0    0    0  501  0.00000000000E+00  0.00000000000E+00  0.10209179857E+04  0.10209179858E+04  0.25500000920E-02 0.  1.
        2   -1    0    0  501    0  0.00000000000E+00  0.00000000000E+00 -0.70546683661E+03  0.70546683662E+03  0.25500000920E-02 0. -1.
    10030    2    1    2    0    0  0.00000000000E+00  0.00000000000E+00  0.31545114913E+03  0.17263848224E+04  0.16973199838E+04 0.  0.
        3    1    3    3  502    0  0.60336624336E+03 -0.59074825810E+03  0.71483037426E+02  0.84743386935E+03  0.10100000352E+00 0.  1.
       -3    1    3    3    0  502 -0.60336624336E+03  0.59074825810E+03  0.24396811171E+03  0.87895095302E+03  0.10100000352E+00 0. -1.
</event>
<event>
 5   0  0.3574092E-04  0.1605799E+04  0.7818609E-02  0.8816993E-01
        2   -1    0    0  501    0  0.00000000000E+00  0.00000000000E+00  0.13258355180E+04  0.13258355180E+04  0.25500000920E-02 0. -1.
       -2   -1    0    0    0  501  0.00000000000E+00  0.00000000000E+00 -0.48621997586E+03  0.48621997587E+03  0.25500000920E-02 0.  1.
    10030    2    1    2    0    0  0.00000000000E+00  0.00000000000E+00  0.83961554215E+03  0.18120554939E+04  0.16057991326E+04 0.  0.
        3    1    3    3  502    0 -0.22337098472E+03 -0.59770049247E+03 -0.13013650993E+03  0.65121117691E+03  0.10100000352E+00 0.  1.
       -3    1    3    3    0  502  0.22337098472E+03  0.59770049247E+03  0.96975205208E+03  0.11608443170E+04  0.10100000352E+00 0. -1.
</event>
<event>
 5   0  0.3605571E-04  0.1718913E+04  0.7818609E-02  0.8750651E-01
       -2   -1    0    0    0  501  0.00000000000E+00  0.00000000000E+00  0.18757493638E+04  0.18757493638E+04  0.25500000920E-02 0.  1.
        2   -1    0    0  501    0  0.00000000000E+00  0.00000000000E+00 -0.39379740923E+03  0.39379740924E+03  0.25500000920E-02 0. -1.
    10030    2    1    2    0    0  0.00000000000E+00  0.00000000000E+00  0.14819519546E+04  0.22695467731E+04  0.17189127259E+04 0.  0.
        4    1    3    3  502    0 -0.23417104369E+03  0.22545340116E+03  0.17914530715E+04  0.18207061910E+04  0.12699999809E+01 0.  1.
       -4    1    3    3    0  502  0.23417104369E+03 -0.22545340116E+03 -0.30950111692E+03  0.44884058202E+03  0.12699999809E+01 0. -1.
</event>
<event>
 5   0  0.1930116E-04  0.1697607E+04  0.7818609E-02  0.8762731E-01
        1   -1    0    0  501    0  0.00000000000E+00  0.00000000000E+00  0.74659736623E+03  0.74659736625E+03  0.50400001928E-02 0. -1.
       -1   -1    0    0    0  501  0.00000000000E+00  0.00000000000E+00 -0.96500085572E+03  0.96500085574E+03  0.50400001928E-02 0.  1.
    10030    2    1    2    0    0  0.00000000000E+00  0.00000000000E+00 -0.21840348949E+03  0.17115982220E+04  0.16976066651E+04 0.  0.
        1    1    3    3  502    0  0.42881083307E+03 -0.94407565538E+02  0.62319811487E+03  0.76234336712E+03  0.50400001928E-02 0. -1.
       -1    1    3    3    0  502 -0.42881083307E+03  0.94407565538E+02 -0.84160160436E+03  0.94925485486E+03  0.50400001928E-02 0.  1.
</event>
<event>
 5   0  0.3605571E-04  0.1780109E+04  0.7818609E-02  0.8716949E-01
       -2   -1    0    0    0  501  0.00000000000E+00  0.00000000000E+00  0.83730945432E+03  0.83730945432E+03  0.25500000920E-02 0.  1.
        2   -1    0    0  501    0  0.00000000000E+00  0.00000000000E+00 -0.94612198707E+03  0.94612198707E+03  0.25500000920E-02 0. -1.
    10030    2    1    2    0    0  0.00000000000E+00  0.00000000000E+00 -0.10881253275E+03  0.17834314414E+04  0.17801088559E+04 0.  0.
        4    1    3    3  502    0  0.59927013464E+03 -0.24049135641E+03  0.55930095032E+03  0.85427159188E+03  0.12699999809E+01 0.  1.
       -4    1    3    3    0  502 -0.59927013464E+03  0.24049135641E+03 -0.66811348307E+03  0.92915984951E+03  0.12699999809E+01 0. -1.
</event>
<event>
 5   0  0.1824538E-04  0.1408662E+04  0.7818609E-02  0.8947573E-01
       -1   -1    0    0    0  501  0.00000000000E+00  0.00000000000E+00  0.34487395114E+03  0.34487395117E+03  0.50400001928E-02 0. -1.
        1   -1    0    0  501    0  0.00000000000E+00  0.00000000000E+00 -0.14384442572E+04  0.14384442572E+04  0.50400001928E-02 0.  1.
    10030    2    1    2    0    0  0.00000000000E+00  0.00000000000E+00 -0.10935703061E+04  0.17833182084E+04  0.14086617117E+04 0.  0.
        3    1    3    3  502    0  0.47130724165E+03 -0.36745837712E+03 -0.74924745116E+02  0.60230382913E+03  0.10100000352E+00 0.  1.
       -3    1    3    3    0  502 -0.47130724165E+03  0.36745837712E+03 -0.10186455609E+04  0.11810143792E+04  0.10100000352E+00 0. -1.
</event>
<event>
 5   0  0.3574092E-04  0.1705496E+04  0.7818609E-02  0.8758236E-01
        2   -1    0    0  501    0  0.00000000000E+00  0.00000000000E+00  0.10301509177E+04  0.10301509177E+04  0.25500000920E-02 0.  1.
       -2   -1    0    0    0  501  0.00000000000E+00  0.00000000000E+00 -0.70589560529E+03  0.70589560530E+03  0.25500000920E-02 0. -1.
    10030    2    1    2    0    0  0.00000000000E+00  0.00000000000E+00  0.32425531244E+03  0.17360465230E+04  0.17054958289E+04 0.  0.
        3    1    3    3  502    0  0.11495863156E+03 -0.38738164165E+03 -0.60225592374E+03  0.72525321863E+03  0.10100000352E+00 0. -1.
       -3    1    3    3    0  502 -0.11495863156E+03  0.38738164165E+03  0.92651123618E+03  0.10107933044E+04  0.10100000352E+00 0.  1.
</event>
<event>
 5   0  0.3574092E-04  0.1699150E+04  0.7818609E-02  0.8761849E-01
        2   -1    0    0  501    0  0.00000000000E+00  0.00000000000E+00  0.24527669107E+04  0.24527669107E+04  0.25500000920E-02 0.  1.
       -2   -1    0    0    0  501  0.00000000000E+00  0.00000000000E+00 -0.29427069905E+03  0.29427069906E+03  0.25500000920E-02 0. -1.
    10030    2    1    2    0    0  0.00000000000E+00  0.00000000000E+00  0.21584962117E+04  0.27470376098E+04  0.16991497090E+04 0.  0.
        3    1    3    3  502    0  0.28609314215E+03  0.32370380508E+03  0.22619309135E+04  0.23028167332E+04  0.10100000352E+00 0.  1.
       -3    1    3    3    0  502 -0.28609314215E+03 -0.32370380508E+03 -0.10343470180E+03  0.44422087653E+03  0.10100000352E+00 0. -1.
</event>
<event>
 5   0  0.1930116E-04  0.1693280E+04  0.7818609E-02  0.8765206E-01
       -1   -1    0    0    0  501  0.00000000000E+00  0.00000000000E+00  0.98789488433E+03  0.98789488434E+03  0.50400001928E-02 0.  1.
        1   -1    0    0  501    0  0.00000000000E+00  0.00000000000E+00 -0.72558278631E+03  0.72558278633E+03  0.50400001928E-02 0. -1.
    10030    2    1    2    0    0  0.00000000000E+00  0.00000000000E+00  0.26231209801E+03  0.17134776707E+04  0.16932802754E+04 0.  0.
        1    1    3    3  502    0 -0.27625021879E+03 -0.19134241996E+03 -0.65520601895E+03  0.73635659320E+03  0.50400001928E-02 0. -1.
       -1    1    3    3    0  502  0.27625021879E+03  0.19134241996E+03  0.91751811696E+03  0.97712107747E+03  0.50400001928E-02 0.  1.
</event>
<event>
 5   0  0.1930116E-04  0.1690591E+04  0.7818609E-02  0.8766749E-01
       -1   -1    0    0    0  501  0.00000000000E+00  0.00000000000E+00  0.38317677673E+03  0.38317677676E+03  0.50400001928E-02 0.  1.
        1   -1    0    0  501    0  0.00000000000E+00  0.00000000000E+00 -0.18647388836E+04  0.18647388836E+04  0.50400001928E-02 0. -1.
    10030    2    1    2    0    0  0.00000000000E+00  0.00000000000E+00 -0.14815621069E+04  0.22479156604E+04  0.16905911805E+04 0.  0.
        1    1    3    3  502    0  0.23447369624E+03  0.14891439177E+03 -0.18023241739E+04  0.18236024342E+04  0.50400001928E-02 0. -1.
       -1    1    3    3    0  502 -0.23447369624E+03 -0.14891439177E+03  0.32076206696E+03  0.42431322620E+03  0.50400001928E-02 0.  1.
</event>
<event>
 5   0  0.3516723E-04  0.1701889E+04  0.7818609E-02  0.8760288E-01
        2   -1    0    0  501    0  0.00000000000E+00  0.00000000000E+00  0.99080817576E+03  0.99080817576E+03  0.25500000920E-02 0. -1.
       -2   -1    0    0    0  501  0.00000000000E+00  0.00000000000E+00 -0.73082383103E+03  0.73082383103E+03  0.25500000920E-02 0.  1.
    10030    2    1    2    0    0  0.00000000000E+00  0.00000000000E+00  0.25998434473E+03  0.17216320068E+04  0.17018886295E+04 0.  0.
        1    1    3    3  502    0  0.31816433671E+03 -0.19423343425E+03 -0.64383359552E+03  0.74396026163E+03  0.50400001928E-02 0.  1.
       -1    1    3    3    0  502 -0.31816433671E+03  0.19423343425E+03  0.90381794025E+03  0.97767174516E+03  0.50400001928E-02 0. -1.
</event>
<event>
 5   0  0.1920289E-04  0.1691087E+04  0.7818609E-02  0.8766464E-01
       -1   -1    0    0    0  501  0.00000000000E+00  0.00000000000E+00  0.79876693483E+03  0.79876693485E+03  0.50400001928E-02 0. -1.
        1   -1    0    0  501    0  0.00000000000E+00  0.00000000000E+00 -0.89505906111E+03  0.89505906112E+03  0.50400001928E-02 0.  1.
    10030    2    1    2    0    0  0.00000000000E+00  0.00000000000E+00 -0.96292126277E+02  0.16938259960E+04  0.16910867308E+04 0.  0.
        4    1    3    3  502    0  0.67814934231E+03 -0.12064583712E+03  0.44305632740E+03  0.81898868774E+03  0.12699999809E+01 0. -1.
       -4    1    3    3    0  502 -0.67814934231E+03  0.12064583712E+03 -0.53934845368E+03  0.87483730823E+03  0.12699999809E+01 0.  1.
</event>
<event>
 5   0  0.3573262E-04  0.1693885E+04  0.7818609E-02  0.8764860E-01
       -2   -1    0    0    0  501  0.00000000000E+00  0.00000000000E+00  0.72339957724E+03  0.72339957725E+03  0.25500000920E-02 0.  1.
        2   -1    0    0  501    0  0.00000000000E+00  0.00000000000E+00 -0.99158440754E+03  0.99158440755E+03  0.25500000920E-02 0. -1.
    10030    2    1    2    0    0  0.00000000000E+00  0.00000000000E+00 -0.26818483030E+03  0.17149839848E+04  0.16938851687E+04 0.  0.
        5    1    3    3  502    0  0.66225675372E+03 -0.10694864279E+03 -0.65751117674E+03  0.93934288605E+03  0.46999998093E+01 0. -1.
       -5    1    3    3    0  502 -0.66225675372E+03  0.10694864279E+03  0.38932634644E+03  0.77564109875E+03  0.46999998093E+01 0.  1.
</event>
<event>
 5   0  0.1893284E-04  0.1700198E+04  0.7818609E-02  0.8761251E-01
        1   -1    0    0  501    0  0.00000000000E+00  0.00000000000E+00  0.13580861601E+04  0.13580861601E+04  0.50400001928E-02 0. -1.
       -1   -1    0    0    0  501  0.00000000000E+00  0.00000000000E+00 -0.53212281616E+03  0.53212281619E+03  0.50400001928E-02 0.  1.
    10030    2    1    2    0    0  0.00000000000E+00  0.00000000000E+00  0.82596334391E+03  0.18902089763E+04  0.17001983792E+04 0.  0.
        2    1    3    3  502    0 -0.51279462635E+03  0.46997092794E+03 -0.13034571933E+03  0.70768708372E+03  0.25500000920E-02 0. -1.
       -2    1    3    3    0  502  0.51279462635E+03 -0.46997092794E+03  0.95630906323E+03  0.11825218925E+04  0.25500000920E-02 0.  1.
</event>
<event>
 5   0  0.1815663E-04  0.1698770E+04  0.7818609E-02  0.8762066E-01
        1   -1    0    0  501    0  0.00000000000E+00  0.00000000000E+00  0.10318344738E+04  0.10318344738E+04  0.50400001928E-02 0. -1.
       -1   -1    0    0    0  501  0.00000000000E+00  0.00000000000E+00 -0.69919602544E+03  0.69919602546E+03  0.50400001928E-02 0.  1.
    10030    2    1    2    0    0  0.00000000000E+00  0.00000000000E+00  0.33263844839E+03  0.17310304993E+04  0.16987696289E+04 0.  0.
        5    1    3    3  502    0 -0.95475350447E+02 -0.11292897625E+03  0.10186024694E+04  0.10292917841E+04  0.46999998093E+01 0. -1.
       -5    1    3    3    0  502  0.95475350447E+02  0.11292897625E+03 -0.68596402102E+03  0.70173871516E+03  0.46999998093E+01 0.  1.
</event>
<event>
 5   0  0.1930116E-04  0.1695222E+04  0.7818609E-02  0.8764094E-01
        1   -1    0    0  501    0  0.00000000000E+00  0.00000000000E+00  0.21900356140E+04  0.21900356140E+04  0.50400001928E-02 0.  1.
       -1   -1    0    0    0  501  0.00000000000E+00  0.00000000000E+00 -0.32805166475E+03  0.32805166479E+03  0.50400001928E-02 0. -1.
    10030    2    1    2    0    0  0.00000000000E+00  0.00000000000E+00  0.18619839493E+04  0.25180872788E+04  0.16952224976E+04 0.  0.
        1    1    3    3  502    0  0.92461943247E+02 -0.54085308616E+03 -0.28644037049E+02  0.54944676962E+03  0.50400001928E-02 0. -1.
       -1    1    3    3    0  502 -0.92461943247E+02  0.54085308616E+03  0.18906279863E+04  0.19686405092E+04  0.50400001928E-02 0.  1.
</event>
<event>
 5   0  0.3573262E-04  0.1704419E+04  0.7818609E-02  0.8758848E-01
       -2   -1    0    0    0  501  0.00000000000E+00  0.00000000000E+00  0.90706415851E+03  0.90706415852E+03  0.25500000920E-02 0.  1.
        2   -1    0    0  501    0  0.00000000000E+00  0.00000000000E+00 -0.80067197536E+03  0.80067197536E+03  0.25500000920E-02 0. -1.
    10030    2    1    2    0    0  0.00000000000E+00  0.00000000000E+00  0.10639218315E+03  0.17077361339E+04  0.17044187884E+04 0.  0.
        5    1    3    3  502    0  0.25885821239E+03  0.80174693909E+03  0.18163698563E+03  0.86186995134E+03  0.46999998093E+01 0. -1.
       -5    1    3    3    0  502 -0.25885821239E+03 -0.80174693909E+03 -0.75244802477E+02  0.84586618254E+03  0.46999998093E+01 0.  1.
</event>
<event>
 5   0  0.1893284E-04  0.1695624E+04  0.7818609E-02  0.8763864E-01
        1   -1    0    0  501    0  0.00000000000E+00  0.00000000000E+00  0.83397309962E+03  0.83397309963E+03  0.50400001928E-02 0. -1.
       -1   -1    0    0    0  501  0.00000000000E+00  0.00000000000E+00 -0.86188080556E+03  0.86188080557E+03  0.50400001928E-02 0.  1.
    10030    2    1    2    0    0  0.00000000000E+00  0.00000000000E+00 -0.27907705940E+02  0.16958539052E+04  0.16956242590E+04 0.  0.
        2    1    3    3  502    0 -0.10063335783E+02  0.83785641810E+03  0.11521765109E+03  0.84580125042E+03  0.25500000920E-02 0.  1.
       -2    1    3    3    0  502  0.10063335783E+02 -0.83785641810E+03 -0.14312535703E+03  0.85005265479E+03  0.25500000920E-02 0. -1.
</event>
<event>
 5   0  0.1824538E-04  0.1696688E+04  0.7818609E-02  0.8763255E-01
        1   -1    0    0  501    0  0.00000000000E+00  0.00000000000E+00  0.13313307945E+04  0.13313307945E+04  0.50400001928E-02 0. -1.
       -1   -1    0    0    0  501  0.00000000000E+00  0.00000000000E+00 -0.54057783034E+03  0.54057783037E+03  0.50400001928E-02 0.  1.
    10030    2    1    2    0    0  0.00000000000E+00  0.00000000000E+00  0.79075296415E+03  0.18719086249E+04  0.16966884362E+04 0.  0.
        3    1    3    3  502    0  0.26880617820E+03 -0.28103422588E+03 -0.43644288241E+03  0.58456770127E+03  0.10100000352E+00 0.  1.
       -3    1    3    3    0  502 -0.26880617820E+03  0.28103422588E+03  0.12271958466E+04  0.12873409236E+04  0.10100000352E+00 0. -1.
</event>
<event>
 5   0  0.3574092E-04  0.1683689E+04  0.7818609E-02  0.8770722E-01
        2   -1    0    0  501    0  0.00000000000E+00  0.00000000000E+00  0.70575928646E+03  0.70575928647E+03  0.25500000920E-02 0. -1.
       -2   -1    0    0    0  501  0.00000000000E+00  0.00000000000E+00 -0.10041701042E+04  0.10041701042E+04  0.25500000920E-02 0.  1.
    10030    2    1    2    0    0  0.00000000000E+00  0.00000000000E+00 -0.29841081772E+03  0.17099293907E+04  0.16836892543E+04 0.  0.
        3    1    3    3  502    0  0.82875118066E+03 -0.12989974694E+03 -0.77393413006E+02  0.84243232029E+03  0.10100000352E+00 0.  1.
       -3    1    3    3    0  502 -0.82875118066E+03  0.12989974694E+03 -0.22101740472E+03  0.86749707036E+03  0.10100000352E+00 0. -1.
</event>
<event>
 5   0  0.3573262E-04  0.1698465E+04  0.7818609E-02  0.8762240E-01
       -2   -1    0    0    0  501  0.00000000000E+00  0.00000000000E+00  0.49901515782E+03  0.49901515783E+03  0.25500000920E-02 0.  1.
        2   -1    0    0  501    0  0.00000000000E+00  0.00000000000E+00 -0.14452384211E+04  0.14452384211E+04  0.25500000920E-02 0. -1.
    10030    2    1    2    0    0  0.00000000000E+00  0.00000000000E+00 -0.94622326331E+03  0.19442535790E+04  0.16984650468E+04 0.  0.
        5    1    3    3  502    0 -0.54891316554E+03  0.32494031502E+01  0.26862082899E+03  0.61114275066E+03  0.46999998093E+01 0.  1.
       -5    1    3    3    0  502  0.54891316554E+03 -0.32494031502E+01 -0.12148440923E+04  0.13331108283E+04  0.46999998093E+01 0. -1.
</event>
<event>
 5   0  0.3516723E-04  0.1707319E+04  0.7818609E-02  0.8757201E-01
       -2   -1    0    0    0  501  0.00000000000E+00  0.00000000000E+00  0.12355546670E+04  0.12355546670E+04  0.25500000920E-02 0.  1.
        2   -1    0    0  501    0  0.00000000000E+00  0.00000000000E+00 -0.58980335987E+03  0.58980335987E+03  0.25500000920E-02 0. -1.
    10030    2    1    2    0    0  0.00000000000E+00  0.00000000000E+00  0.64575130710E+03  0.18253580268E+04  0.17073187094E+04 0.  0.
        1    1    3    3  502    0 -0.49611485998E+03 -0.62746130011E+03  0.41065847694E+01  0.79990905827E+03  0.50400001928E-02 0. -1.
       -1    1    3    3    0  502  0.49611485998E+03  0.62746130011E+03  0.64164472233E+03  0.10254489686E+04  0.50400001928E-02 0.  1.
</event>
<event>
 5   0  0.1920289E-04  0.1683724E+04  0.7818609E-02  0.8770702E-01
        1   -1    0    0  501    0  0.00000000000E+00  0.00000000000E+00  0.78128774201E+03  0.78128774203E+03  0.50400001928E-02 0. -1.
       -1   -1    0    0    0  501  0.00000000000E+00  0.00000000000E+00 -0.90713226396E+03  0.90713226397E+03  0.50400001928E-02 0.  1.
    10030    2    1    2    0    0  0.00000000000E+00  0.00000000000E+00 -0.12584452195E+03  0.16884200060E+04  0.16837236332E+04 0.  0.
        4    1    3    3  502    0  0.19035137972E+03  0.67340836355E+03  0.40637587159E+03  0.80923138457E+03  0.12699999809E+01 0. -1.
       -4    1    3    3    0  502 -0.19035137972E+03 -0.67340836355E+03 -0.53222039354E+03  0.87918862143E+03  0.12699999809E+01 0.  1.
</event>
<event>
 5   0  0.1815663E-04  0.1715410E+04  0.7818609E-02  0.8752624E-01
        1   -1    0    0  501    0  0.00000000000E+00  0.00000000000E+00  0.22328477501E+04  0.22328477501E+04  0.50400001928E-02 0. -1.
       -1   -1    0    0    0  501  0.00000000000E+00  0.00000000000E+00 -0.32947056452E+03  0.32947056455E+03  0.50400001928E-02 0.  1.
    10030    2    1    2    0    0  0.00000000000E+00  0.00000000000E+00  0.19033771856E+04  0.25623183146E+04  0.17154096989E+04 0.  0.
        5    1    3    3  502    0  0.47025973577E+03  0.32043037928E+03 -0.68655630609E+01  0.56911253105E+03  0.46999998093E+01 0.  1.
       -5    1    3    3    0  502 -0.47025973577E+03 -0.32043037928E+03  0.19102427486E+04  0.19932057836E+04  0.46999998093E+01 0. -1.
</event>
<event>
 5   0  0.1824538E-04  0.1686038E+04  0.7818609E-02  0.8769367E-01
        1   -1    0    0  501    0  0.00000000000E+00  0.00000000000E+00  0.18210802901E+04  0.18210802902E+04  0.50400001928E-02 0. -1.
       -1   -1    0    0    0  501  0.00000000000E+00  0.00000000000E+00 -0.39025267154E+03  0.39025267158E+03  0.50400001928E-02 0.  1.
    10030    2    1    2    0    0  0.00000000000E+00  0.00000000000E+00  0.14308276186E+04  0.22113329617E+04  0.16860384911E+04 0.  0.
        3    1    3    3  502    0 -0.49684673400E+03  0.51147968208E+02  0.16061218538E+04  0.16819929284E+04  0.10100000352E+00 0. -1.
       -3    1    3    3    0  502  0.49684673400E+03 -0.51147968208E+02 -0.17529423523E+03  0.52934003329E+03  0.10100000352E+00 0.  1.
</event>
<event>
 5   0  0.3678896E-04  0.1696473E+04  0.7818609E-02  0.8763378E-01
        2   -1    0    0  501    0  0.00000000000E+00  0.00000000000E+00  0.11962079950E+04  0.11962079950E+04  0.25500000920E-02 0.  1.
       -2   -1    0    0    0  501  0.00000000000E+00  0.00000000000E+00 -0.60148854165E+03  0.60148854166E+03  0.25500000920E-02 0. -1.
    10030    2    1    2    0    0  0.00000000000E+00  0.00000000000E+00  0.59471945331E+03  0.17976965366E+04  0.16964732859E+04 0.  0.
        2    1    3    3  502    0  0.74587204294E+03 -0.38285526877E+03  0.43389705713E+03  0.94401796458E+03  0.25500000920E-02 0. -1.
       -2    1    3    3    0  502 -0.74587204294E+03  0.38285526877E+03  0.16082239618E+03  0.85367857205E+03  0.25500000920E-02 0.  1.
</event>
<event>
 5   0  0.1824538E-04  0.1712196E+04  0.7818609E-02  0.8754439E-01
       -1   -1    0    0    0  501  0.00000000000E+00  0.00000000000E+00  0.45184584019E+03  0.45184584021E+03  0.50400001928E-02 0.  1.
        1   -1    0    0  501    0  0.00000000000E+00  0.00000000000E+00 -0.16220214289E+04  0.16220214289E+04  0.50400001928E-02 0. -1.
    10030    2    1    2    0    0  0.00000000000E+00  0.00000000000E+00 -0.11701755887E+04  0.20738672691E+04  0.17121958245E+04 0.  0.
        3    1    3    3  502    0  0.74592261877E+03  0.41959472312E+03 -0.55958450828E+03  0.10225434548E+04  0.10100000352E+00 0. -1.
       -3    1    3    3    0  502 -0.74592261877E+03 -0.41959472312E+03 -0.61059108046E+03  0.10513238143E+04  0.10100000352E+00 0.  1.
</event>
<event>
 5   0  0.1317625E-04  0.1759996E+04  0.7818609E-02  0.8727867E-01
        4   -1    0    0  501    0  0.00000000000E+00  0.00000000000E+00  0.91798254822E+03  0.91798342672E+03  0.12699999809E+01 0. -1.
       -4   -1    0    0    0  501  0.00000000000E+00  0.00000000000E+00 -0.84358347242E+03  0.84358442840E+03  0.12699999809E+01 0.  1.
    10030    2    1    2    0    0  0.00000000000E+00  0.00000000000E+00  0.74399075796E+02  0.17615678551E+04  0.17599960471E+04 0.  0.
        5    1    3    3  502    0 -0.34426982105E+03 -0.63645840319E+03 -0.46402051517E+03  0.85961510990E+03  0.46999998093E+01 0.  1.
       -5    1    3    3    0  502  0.34426982105E+03  0.63645840319E+03  0.53841959097E+03  0.90195274522E+03  0.46999998093E+01 0. -1.
</event>
<event>
 5   0  0.1920289E-04  0.1723847E+04  0.7818609E-02  0.8747879E-01
        1   -1    0    0  501    0  0.00000000000E+00  0.00000000000E+00  0.22939142406E+04  0.22939142406E+04  0.50400001928E-02 0.  1.
       -1   -1    0    0    0  501  0.00000000000E+00  0.00000000000E+00 -0.32386214402E+03  0.32386214406E+03  0.50400001928E-02 0. -1.
    10030    2    1    2    0    0  0.00000000000E+00  0.00000000000E+00  0.19700520966E+04  0.26177763847E+04  0.17238468427E+04 0.  0.
        4    1    3    3  502    0 -0.26986788685E+03  0.67927529794E+03  0.16787081818E+04  0.18309304682E+04  0.12699999809E+01 0.  1.
       -4    1    3    3    0  502  0.26986788685E+03 -0.67927529794E+03  0.29134391480E+03  0.78684591652E+03  0.12699999809E+01 0. -1.
</event>
<event>
 5   0  0.3516723E-04  0.1699593E+04  0.7818609E-02  0.8761596E-01
        2   -1    0    0  501    0  0.00000000000E+00  0.00000000000E+00  0.11457533326E+04  0.11457533326E+04  0.25500000920E-02 0. -1.
       -2   -1    0    0    0  501  0.00000000000E+00  0.00000000000E+00 -0.63028772037E+03  0.63028772038E+03  0.25500000920E-02 0.  1.
    10030    2    1    2    0    0  0.00000000000E+00  0.00000000000E+00  0.51546561220E+03  0.17760410530E+04  0.16995931938E+04 0.  0.
        1    1    3    3  502    0 -0.11931022241E+03 -0.83348537808E+03  0.13757621907E+03  0.85314712724E+03  0.50400001928E-02 0.  1.
       -1    1    3    3    0  502  0.11931022241E+03  0.83348537808E+03  0.37788939313E+03  0.92289392571E+03  0.50400001928E-02 0. -1.
</event>
<event>
 5   0  0.3574092E-04  0.1697268E+04  0.7818609E-02  0.8762924E-01
        2   -1    0    0  501    0  0.00000000000E+00  0.00000000000E+00  0.40278747351E+03  0.40278747352E+03  0.25500000920E-02 0.  1.
       -2   -1    0    0    0  501  0.00000000000E+00  0.00000000000E+00 -0.17879891939E+04  0.17879891939E+04  0.25500000920E-02 0. -1.
    10030    2    1    2    0    0  0.00000000000E+00  0.00000000000E+00 -0.13852017204E+04  0.21907766674E+04  0.16972679813E+04 0.  0.
        3    1    3    3  502    0 -0.22410192656E+03 -0.79429568508E+03 -0.94767778339E+03  0.12566704024E+04  0.10100000352E+00 0. -1.
       -3    1    3    3    0  502  0.22410192656E+03  0.79429568508E+03 -0.43752393701E+03  0.93410626509E+03  0.10100000352E+00 0.  1.
</event>
<event>
 5   0  0.1893284E-04  0.1692907E+04  0.7818609E-02  0.8765420E-01
        1   -1    0    0  501    0  0.00000000000E+00  0.00000000000E+00  0.67487097217E+03  0.67487097219E+03  0.50400001928E-02 0. -1.
       -1   -1    0    0    0  501  0.00000000000E+00  0.00000000000E+00 -0.10616595030E+04  0.10616595030E+04  0.50400001928E-02 0.  1.
    10030    2    1    2    0    0  0.00000000000E+00  0.00000000000E+00 -0.38678853079E+03  0.17365304752E+04  0.16929065903E+04 0.  0.
        2    1    3    3  502    0  0.66178511928E+03  0.52447103959E+03 -0.25367740088E+03  0.88169248562E+03  0.25500000920E-02 0. -1.
       -2    1    3    3    0  502 -0.66178511928E+03 -0.52447103959E+03 -0.13311112991E+03  0.85483798955E+03  0.25500000920E-02 0.  1.
</event>
<event>
 5   0  0.1815663E-04  0.1727665E+04  0.7818609E-02  0.8745742E-01
        1   -1    0    0  501    0  0.00000000000E+00  0.00000000000E+00  0.14090738860E+04  0.14090738860E+04  0.50400001928E-02 0. -1.
       -1   -1    0    0    0  501  0.00000000000E+00  0.00000000000E+00 -0.52957218622E+03  0.52957218624E+03  0.50400001928E-02 0.  1.
    10030    2    1    2    0    0  0.00000000000E+00  0.00000000000E+00  0.87950169977E+03  0.19386460722E+04  0.17276647110E+04 0.  0.
        5    1    3    3  502    0  0.33373601546E+03 -0.41298798100E+02 -0.45309165401E+03  0.56426895686E+03  0.46999998093E+01 0.  1.
       -5    1    3    3    0  502 -0.33373601546E+03  0.41298798100E+02  0.13325933538E+04  0.13743771154E+04  0.46999998093E+01 0. -1.
</event>
<event>
 5   0  0.3573262E-04  0.1701917E+04  0.7818609E-02  0.8760272E-01
       -2   -1    0    0    0  501  0.00000000000E+00  0.00000000000E+00  0.97265131912E+03  0.97265131912E+03  0.25500000920E-02 0. -1.
        2   -1    0    0  501    0  0.00000000000E+00  0.00000000000E+00 -0.74449099050E+03  0.74449099050E+03  0.25500000920E-02 0.  1.
    10030    2    1    2    0    0  0.00000000000E+00  0.00000000000E+00  0.22816032862E+03  0.17171423096E+04  0.17019167359E+04 0.  0.
        5    1    3    3  502    0 -0.44737842289E+03 -0.72105218110E+03  0.49916006292E+02  0.85004552750E+03  0.46999998093E+01 0.  1.
       -5    1    3    3    0  502  0.44737842289E+03  0.72105218110E+03  0.17824432233E+03  0.86709678213E+03  0.46999998093E+01 0. -1.
</event>
<event>
 5   0  0.3516723E-04  0.1702736E+04  0.7818609E-02  0.8759806E-01
       -2   -1    0    0    0  501  0.00000000000E+00  0.00000000000E+00  0.28784124859E+03  0.28784124860E+03  0.25500000920E-02 0.  1.
        2   -1    0    0  501    0  0.00000000000E+00  0.00000000000E+00 -0.25181486618E+04  0.25181486618E+04  0.25500000920E-02 0. -1.
    10030    2    1    2    0    0  0.00000000000E+00  0.00000000000E+00 -0.22303074133E+04  0.28059899104E+04  0.17027355108E+04 0.  0.
        1    1    3    3  502    0  0.25836867883E+03  0.19158618440E+03  0.18385825134E+03  0.37049088634E+03  0.50400001928E-02 0.  1.
       -1    1    3    3    0  502 -0.25836867883E+03 -0.19158618440E+03 -0.24141656646E+04  0.24354990241E+04  0.50400001928E-02 0. -1.
</event>
<event>
 5   0  0.1317625E-04  0.1692489E+04  0.7818609E-02  0.8765660E-01
       -3   -1    0    0    0  501  0.00000000000E+00  0.00000000000E+00  0.44213811382E+03  0.44213812536E+03  0.10100000352E+00 0.  1.
        3   -1    0    0  501    0  0.00000000000E+00  0.00000000000E+00 -0.16196970018E+04  0.16196970049E+04  0.10100000352E+00 0. -1.
    10030    2    1    2    0    0  0.00000000000E+00  0.00000000000E+00 -0.11775588879E+04  0.20618351303E+04  0.16924890457E+04 0.  0.
        4    1    3    3  502    0  0.79196335155E+02 -0.72261270641E+03 -0.61008883898E+02  0.72949631924E+03  0.12699999809E+01 0.  1.
       -4    1    3    3    0  502 -0.79196335155E+02  0.72261270641E+03 -0.11165500040E+04  0.13323388110E+04  0.12699999809E+01 0. -1.
</event>
<event>
 5   0  0.1920289E-04  0.1736227E+04  0.7818609E-02  0.8740968E-01
        1   -1    0    0  501    0  0.00000000000E+00  0.00000000000E+00  0.25437697134E+04  0.25437697134E+04  0.50400001928E-02 0. -1.
       -1   -1    0    0    0  501  0.00000000000E+00  0.00000000000E+00 -0.29626154951E+03  0.29626154956E+03  0.50400001928E-02 0.  1.
    10030    2    1    2    0    0  0.00000000000E+00  0.00000000000E+00  0.22475081639E+04  0.28400312629E+04  0.17362271245E+04 0.  0.
        4    1    3    3  502    0  0.73859718729E+03 -0.36714647397E+03  0.15666077977E+04  0.17704756263E+04  0.12699999809E+01 0.  1.
       -4    1    3    3    0  502 -0.73859718729E+03  0.36714647397E+03  0.68090036615E+03  0.10695556367E+04  0.12699999809E+01 0. -1.
</event>
<event>
 5   0  0.3605571E-04  0.1672101E+04  0.7818609E-02  0.8777438E-01
        2   -1    0    0  501    0  0.00000000000E+00  0.00000000000E+00  0.57129322352E+03  0.57129322352E+03  0.25500000920E-02 0. -1.
       -2   -1    0    0    0  501  0.00000000000E+00  0.00000000000E+00 -0.12235062830E+04  0.12235062830E+04  0.25500000920E-02 0.  1.
    10030    2    1    2    0    0  0.00000000000E+00  0.00000000000E+00 -0.65221305950E+03  0.17947995065E+04  0.16721014903E+04 0.  0.
        4    1    3    3  502    0  0.23214008280E+03  0.44564965068E+03  0.39112194842E+03  0.63676575020E+03  0.12699999809E+01 0. -1.
       -4    1    3    3    0  502 -0.23214008280E+03 -0.44564965068E+03 -0.10433350079E+04  0.11580337563E+04  0.12699999809E+01 0.  1.
</event>
<event>
 5   0  0.3574092E-04  0.1699773E+04  0.7818609E-02  0.8761494E-01
       -2   -1    0    0    0  501  0.00000000000E+00  0.00000000000E+00  0.48307047904E+03  0.48307047905E+03  0.25500000920E-02 0. -1.
        2   -1    0    0  501    0  0.00000000000E+00  0.00000000000E+00 -0.14952414870E+04  0.14952414870E+04  0.25500000920E-02 0.  1.
    10030    2    1    2    0    0  0.00000000000E+00  0.00000000000E+00 -0.10121710079E+04  0.19783119660E+04  0.16997729512E+04 0.  0.
        3    1    3    3  502    0  0.35904496165E+02 -0.83947436299E+03 -0.65468133379E+03  0.10651826125E+04  0.10100000352E+00 0. -1.
       -3    1    3    3    0  502 -0.35904496165E+02  0.83947436299E+03 -0.35748967415E+03  0.91312935353E+03  0.10100000352E+00 0.  1.
</event>
<event>
 5   0  0.3573262E-04  0.1688762E+04  0.7818609E-02  0.8767800E-01
       -2   -1    0    0    0  501  0.00000000000E+00  0.00000000000E+00  0.12938345623E+04  0.12938345623E+04  0.25500000920E-02 0. -1.
        2   -1    0    0  501    0  0.00000000000E+00  0.00000000000E+00 -0.55105903921E+03  0.55105903922E+03  0.25500000920E-02 0.  1.
    10030    2    1    2    0    0  0.00000000000E+00  0.00000000000E+00  0.74277552312E+03  0.18448936016E+04  0.16887619499E+04 0.  0.
        5    1    3    3  502    0  0.50888869869E+02  0.25246861747E+03 -0.50708808925E+03  0.56876225274E+03  0.46999998093E+01 0.  1.
       -5    1    3    3    0  502 -0.50888869869E+02 -0.25246861747E+03  0.12498636124E+04  0.12761313488E+04  0.46999998093E+01 0. -1.
</event>
<event>
 5   0  0.3573262E-04  0.1692461E+04  0.7818609E-02  0.8765676E-01
       -2   -1    0    0    0  501  0.00000000000E+00  0.00000000000E+00  0.67128912515E+03  0.67128912516E+03  0.25500000920E-02 0. -1.
        2   -1    0    0  501    0  0.00000000000E+00  0.00000000000E+00 -0.10667631105E+04  0.10667631105E+04  0.25500000920E-02 0.  1.
    10030    2    1    2    0    0  0.00000000000E+00  0.00000000000E+00 -0.39547398537E+03  0.17380522357E+04  0.16924614917E+04 0.  0.
        5    1    3    3  502    0  0.34727986411E+03  0.17488575668E+03 -0.96957880030E+03  0.10446499279E+04  0.46999998093E+01 0.  1.
       -5    1    3    3    0  502 -0.34727986411E+03 -0.17488575668E+03  0.57410481493E+03  0.69340230777E+03  0.46999998093E+01 0. -1.
</event>
<event>
 5   0  0.3573262E-04  0.1713560E+04  0.7818609E-02  0.8753668E-01
        2   -1    0    0  501    0  0.00000000000E+00  0.00000000000E+00  0.45084909130E+03  0.45084909130E+03  0.25500000920E-02 0.  1.
       -2   -1    0    0    0  501  0.00000000000E+00  0.00000000000E+00 -0.16281984087E+04  0.16281984087E+04  0.25500000920E-02 0. -1.
    10030    2    1    2    0    0  0.00000000000E+00  0.00000000000E+00 -0.11773493174E+04  0.20790475000E+04  0.17135597720E+04 0.  0.
        5    1    3    3  502    0 -0.75023857044E+03  0.28357254490E+03 -0.95423272659E+03  0.12465365968E+04  0.46999998093E+01 0. -1.
       -5    1    3    3    0  502  0.75023857044E+03 -0.28357254490E+03 -0.22311659083E+03  0.83251090317E+03  0.46999998093E+01 0.  1.
</event>
<event>
 5   0  0.1815663E-04  0.1700016E+04  0.7818609E-02  0.8761355E-01
       -1   -1    0    0    0  501  0.00000000000E+00  0.00000000000E+00  0.32618439056E+03  0.32618439060E+03  0.50400001928E-02 0. -1.
        1   -1    0    0  501    0  0.00000000000E+00  0.00000000000E+00 -0.22150471054E+04  0.22150471054E+04  0.50400001928E-02 0.  1.
    10030    2    1    2    0    0  0.00000000000E+00  0.00000000000E+00 -0.18888627149E+04  0.25412314960E+04  0.17000162237E+04 0.  0.
        5    1    3    3  502    0 -0.14438643484E+03 -0.17547121078E+03  0.27991757353E+03  0.36057388473E+03  0.46999998093E+01 0. -1.
       -5    1    3    3    0  502  0.14438643484E+03  0.17547121078E+03 -0.21687802884E+04  0.21806576113E+04  0.46999998093E+01 0.  1.
</event>
<event>
 5   0  0.3516723E-04  0.1709650E+04  0.7818609E-02  0.8755880E-01
        2   -1    0    0  501    0  0.00000000000E+00  0.00000000000E+00  0.20064698348E+04  0.20064698348E+04  0.25500000920E-02 0. -1.
       -2   -1    0    0    0  501  0.00000000000E+00  0.00000000000E+00 -0.36418462142E+03  0.36418462143E+03  0.25500000920E-02 0.  1.
    10030    2    1    2    0    0  0.00000000000E+00  0.00000000000E+00  0.16422852134E+04  0.23706544562E+04  0.17096496216E+04 0.  0.
        1    1    3    3  502    0  0.39550895656E+03  0.41263164941E+03  0.17025358000E+04  0.17959176938E+04  0.50400001928E-02 0. -1.
       -1    1    3    3    0  502 -0.39550895656E+03 -0.41263164941E+03 -0.60250586616E+02  0.57473676238E+03  0.50400001928E-02 0.  1.
</event>
<event>
 5   0  0.1893284E-04  0.1707869E+04  0.7818609E-02  0.8756889E-01
       -1   -1    0    0    0  501  0.00000000000E+00  0.00000000000E+00  0.56139581170E+03  0.56139581173E+03  0.50400001928E-02 0.  1.
        1   -1    0    0  501    0  0.00000000000E+00  0.00000000000E+00 -0.12989121122E+04  0.12989121123E+04  0.50400001928E-02 0. -1.
    10030    2    1    2    0    0  0.00000000000E+00  0.00000000000E+00 -0.73751630054E+03  0.18603079240E+04  0.17078686362E+04 0.  0.
        2    1    3    3  502    0  0.97229398947E+02 -0.12259642950E+03  0.54564726244E+03  0.56763930058E+03  0.25500000920E-02 0.  1.
       -2    1    3    3    0  502 -0.97229398947E+02  0.12259642950E+03 -0.12831635630E+04  0.12926686234E+04  0.25500000920E-02 0. -1.
</event>
<event>
 5   0  0.1893284E-04  0.1711777E+04  0.7818609E-02  0.8754676E-01
       -1   -1    0    0    0  501  0.00000000000E+00  0.00000000000E+00  0.92068601111E+03  0.92068601113E+03  0.50400001928E-02 0. -1.
        1   -1    0    0  501    0  0.00000000000E+00  0.00000000000E+00 -0.79565168192E+03  0.79565168194E+03  0.50400001928E-02 0.  1.
    10030    2    1    2    0    0  0.00000000000E+00  0.00000000000E+00  0.12503432919E+03  0.17163376931E+04  0.17117772908E+04 0.  0.
        2    1    3    3  502    0 -0.20131283305E+03 -0.79701458465E+03 -0.17641639053E+03  0.84076265840E+03  0.25500000920E-02 0.  1.
       -2    1    3    3    0  502  0.20131283305E+03  0.79701458465E+03  0.30145071973E+03  0.87557503467E+03  0.25500000920E-02 0. -1.
</event>
<event>
 5   0  0.1824538E-04  0.1710151E+04  0.7818609E-02  0.8755596E-01
        1   -1    0    0  501    0  0.00000000000E+00  0.00000000000E+00  0.17892200590E+04  0.17892200590E+04  0.50400001928E-02 0. -1.
       -1   -1    0    0    0  501  0.00000000000E+00  0.00000000000E+00 -0.40864384510E+03  0.40864384513E+03  0.50400001928E-02 0.  1.
    10030    2    1    2    0    0  0.00000000000E+00  0.00000000000E+00  0.13805762139E+04  0.21978639041E+04  0.17101505953E+04 0.  0.
        3    1    3    3  502    0  0.43410722064E+03  0.73228816509E+03  0.79357367122E+03  0.11638102155E+04  0.10100000352E+00 0. -1.
       -3    1    3    3    0  502 -0.43410722064E+03 -0.73228816509E+03  0.58700254267E+03  0.10340536887E+04  0.10100000352E+00 0.  1.
</event>
<event>
 5   0  0.3516723E-04  0.1700304E+04  0.7818609E-02  0.8761191E-01
       -2   -1    0    0    0  501  0.00000000000E+00  0.00000000000E+00  0.56635159420E+03  0.56635159420E+03  0.25500000920E-02 0.  1.
        2   -1    0    0  501    0  0.00000000000E+00  0.00000000000E+00 -0.12761659560E+04  0.12761659560E+04  0.25500000920E-02 0. -1.
    10030    2    1    2    0    0  0.00000000000E+00  0.00000000000E+00 -0.70981436176E+03  0.18425175502E+04  0.17003042359E+04 0.  0.
        1    1    3    3  502    0 -0.73373101616E+03  0.38970133081E+03 -0.15946019410E+03  0.84596447020E+03  0.50400001928E-02 0. -1.
       -1    1    3    3    0  502  0.73373101616E+03 -0.38970133081E+03 -0.55035416765E+03  0.99655307996E+03  0.50400001928E-02 0.  1.
</event>
<event>
 5   0  0.1920289E-04  0.1704181E+04  0.7818609E-02  0.8758983E-01
        1   -1    0    0  501    0  0.00000000000E+00  0.00000000000E+00  0.58847686017E+03  0.58847686019E+03  0.50400001928E-02 0. -1.
       -1   -1    0    0    0  501  0.00000000000E+00  0.00000000000E+00 -0.12337927264E+04  0.12337927264E+04  0.50400001928E-02 0.  1.
    10030    2    1    2    0    0  0.00000000000E+00  0.00000000000E+00 -0.64531586623E+03  0.18222695866E+04  0.17041812929E+04 0.  0.
        4    1    3    3  502    0 -0.77801497748E+02 -0.20930918815E+03  0.55663242778E+03  0.59975385105E+03  0.12699999809E+01 0. -1.
       -4    1    3    3    0  502  0.77801497748E+02  0.20930918815E+03 -0.12019482940E+04  0.12225157356E+04  0.12699999809E+01 0.  1.
</event>
<event>
 5   0  0.1920289E-04  0.1702368E+04  0.7818609E-02  0.8760015E-01
        1   -1    0    0  501    0  0.00000000000E+00  0.00000000000E+00  0.14405360576E+04  0.14405360576E+04  0.50400001928E-02 0. -1.
       -1   -1    0    0    0  501  0.00000000000E+00  0.00000000000E+00 -0.50294768731E+03  0.50294768734E+03  0.50400001928E-02 0.  1.
    10030    2    1    2    0    0  0.00000000000E+00  0.00000000000E+00  0.93758837026E+03  0.19434837449E+04  0.17023680903E+04 0.  0.
        4    1    3    3  502    0 -0.52944433153E+03  0.15454612880E+03  0.12089375459E+04  0.13288067613E+04  0.12699999809E+01 0. -1.
       -4    1    3    3    0  502  0.52944433153E+03 -0.15454612880E+03 -0.27134917566E+03  0.61467698359E+03  0.12699999809E+01 0.  1.
</event>
<event>
 5   0  0.1815663E-04  0.1697182E+04  0.7818609E-02  0.8762973E-01
       -1   -1    0    0    0  501  0.00000000000E+00  0.00000000000E+00  0.28246910048E+03  0.28246910053E+03  0.50400001928E-02 0.  1.
        1   -1    0    0  501    0  0.00000000000E+00  0.00000000000E+00 -0.25493278832E+04  0.25493278832E+04  0.50400001928E-02 0. -1.
    10030    2    1    2    0    0  0.00000000000E+00  0.00000000000E+00 -0.22668587827E+04  0.28317969837E+04  0.16971816097E+04 0.  0.
        5    1    3    3  502    0  0.22298535499E+03 -0.25895364142E+03  0.16256222021E+03  0.37845478248E+03  0.46999998093E+01 0.  1.
       -5    1    3    3    0  502 -0.22298535499E+03  0.25895364142E+03 -0.24294210029E+04  0.24533422012E+04  0.46999998093E+01 0. -1.
</event>
<event>
 5   0  0.3678896E-04  0.1707521E+04  0.7818609E-02  0.8757086E-01
       -2   -1    0    0    0  501  0.00000000000E+00  0.00000000000E+00  0.39916816425E+03  0.39916816426E+03  0.25500000920E-02 0. -1.
        2   -1    0    0  501    0  0.00000000000E+00  0.00000000000E+00 -0.18260649022E+04  0.18260649022E+04  0.25500000920E-02 0.  1.
    10030    2    1    2    0    0  0.00000000000E+00  0.00000000000E+00 -0.14268967379E+04  0.22252330664E+04  0.17075209806E+04 0.  0.
        2    1    3    3  502    0  0.38365336153E+03 -0.71032937071E+03 -0.10754206655E+04  0.13447257432E+04  0.25500000920E-02 0. -1.
       -2    1    3    3    0  502 -0.38365336153E+03  0.71032937071E+03 -0.35147607240E+03  0.88050732318E+03  0.25500000920E-02 0.  1.
</event>
<event>
 5   0  0.3605571E-04  0.1718215E+04  0.7818609E-02  0.8751043E-01
        2   -1    0    0  501    0  0.00000000000E+00  0.00000000000E+00  0.25169185327E+04  0.25169185327E+04  0.25500000920E-02 0.  1.
       -2   -1    0    0    0  501  0.00000000000E+00  0.00000000000E+00 -0.29324178426E+03  0.29324178427E+03  0.25500000920E-02 0. -1.
    10030    2    1    2    0    0  0.00000000000E+00  0.00000000000E+00  0.22236767484E+04  0.28101603169E+04  0.17182149823E+04 0.  0.
        4    1    3    3  502    0  0.56617355736E+03 -0.85285452670E+02  0.21593805528E+04  0.22339991250E+04  0.12699999809E+01 0.  1.
       -4    1    3    3    0  502 -0.56617355736E+03  0.85285452670E+02  0.64296195597E+02  0.57616119199E+03  0.12699999809E+01 0. -1.
</event>
<event>
 5   0  0.3573262E-04  0.1722407E+04  0.7818609E-02  0.8748687E-01
        2   -1    0    0  501    0  0.00000000000E+00  0.00000000000E+00  0.25501600591E+04  0.25501600591E+04  0.25500000920E-02 0.  1.
       -2   -1    0    0    0  501  0.00000000000E+00  0.00000000000E+00 -0.29083332816E+03  0.29083332817E+03  0.25500000920E-02 0. -1.
    10030    2    1    2    0    0  0.00000000000E+00  0.00000000000E+00  0.22593267309E+04  0.28409933873E+04  0.17224070801E+04 0.  0.
        5    1    3    3  502    0 -0.18997036375E+03  0.14738624539E+03  0.24936528962E+04  0.25052222060E+04  0.46999998093E+01 0.  1.
       -5    1    3    3    0  502  0.18997036375E+03 -0.14738624539E+03 -0.23432616531E+03  0.33577118128E+03  0.46999998093E+01 0. -1.
</event>
<event>
 5   0  0.3574092E-04  0.1700430E+04  0.7818609E-02  0.8761119E-01
        2   -1    0    0  501    0  0.00000000000E+00  0.00000000000E+00  0.11988860105E+04  0.11988860105E+04  0.25500000920E-02 0.  1.
       -2   -1    0    0    0  501  0.00000000000E+00  0.00000000000E+00 -0.60294781003E+03  0.60294781004E+03  0.25500000920E-02 0. -1.
    10030    2    1    2    0    0  0.00000000000E+00  0.00000000000E+00  0.59593820046E+03  0.18018338205E+04  0.17004301744E+04 0.  0.
        3    1    3    3  502    0 -0.55172172926E+03  0.34725273795E+03  0.87630450209E+03  0.10921954592E+04  0.10100000352E+00 0.  1.
       -3    1    3    3    0  502  0.55172172926E+03 -0.34725273795E+03 -0.28036630163E+03  0.70963836131E+03  0.10100000352E+00 0. -1.
</event>
<event>
 5   0  0.3573262E-04  0.1731924E+04  0.7818609E-02  0.8743363E-01
        2   -1    0    0  501    0  0.00000000000E+00  0.00000000000E+00  0.16310985722E+04  0.16310985722E+04  0.25500000920E-02 0.  1.
       -2   -1    0    0    0  501  0.00000000000E+00  0.00000000000E+00 -0.45974557598E+03  0.45974557599E+03  0.25500000920E-02 0. -1.
    10030    2    1    2    0    0  0.00000000000E+00  0.00000000000E+00  0.11713529963E+04  0.20908441482E+04  0.17319241930E+04 0.  0.
        5    1    3    3  502    0  0.57406930525E+03  0.52366939692E+03  0.12426043577E+03  0.78692309052E+03  0.46999998093E+01 0. -1.
       -5    1    3    3    0  502 -0.57406930525E+03 -0.52366939692E+03  0.10470925605E+04  0.13039210577E+04  0.46999998093E+01 0.  1.
</event>
<event>
 5   0  0.3678896E-04  0.1708383E+04  0.7818609E-02  0.8756597E-01
        2   -1    0    0  501    0  0.00000000000E+00  0.00000000000E+00  0.15189102093E+04  0.15189102094E+04  0.25500000920E-02 0.  1.
       -2   -1    0    0    0  501  0.00000000000E+00  0.00000000000E+00 -0.48037294437E+03  0.48037294437E+03  0.25500000920E-02 0. -1.
    10030    2    1    2    0    0  0.00000000000E+00  0.00000000000E+00  0.10385372650E+04  0.19992831537E+04  0.17083832936E+04 0.  0.
        2    1    3    3  502    0  0.53103673823E+03 -0.13583107030E+03 -0.24741367930E+03  0.60138475681E+03  0.25500000920E-02 0. -1.
       -2    1    3    3    0  502 -0.53103673823E+03  0.13583107030E+03  0.12859509443E+04  0.13978983969E+04  0.25500000920E-02 0.  1.
</event>
<event>
 5   0  0.1930116E-04  0.1650281E+04  0.7818609E-02  0.8790240E-01
       -1   -1    0    0    0  501  0.00000000000E+00  0.00000000000E+00  0.39819438349E+03  0.39819438352E+03  0.50400001928E-02 0.  1.
        1   -1    0    0  501    0  0.00000000000E+00  0.00000000000E+00 -0.17098611331E+04  0.17098611331E+04  0.50400001928E-02 0. -1.
    10030    2    1    2    0    0  0.00000000000E+00  0.00000000000E+00 -0.13116667496E+04  0.21080555166E+04  0.16502813091E+04 0.  0.
        1    1    3    3  502    0 -0.61880292880E+03  0.28156039739E+03 -0.12531608433E+04  0.14256947153E+04  0.50400001928E-02 0. -1.
       -1    1    3    3    0  502  0.61880292880E+03 -0.28156039739E+03 -0.58505906319E+02  0.68236080132E+03  0.50400001928E-02 0.  1.
</event>
<event>
 5   0  0.1920289E-04  0.1684158E+04  0.7818609E-02  0.8770451E-01
       -1   -1    0    0    0  501  0.00000000000E+00  0.00000000000E+00  0.55236498657E+03  0.55236498659E+03  0.50400001928E-02 0. -1.
        1   -1    0    0  501    0  0.00000000000E+00  0.00000000000E+00 -0.12837479867E+04  0.12837479867E+04  0.50400001928E-02 0.  1.
    10030    2    1    2    0    0  0.00000000000E+00  0.00000000000E+00 -0.73138300010E+03  0.18361129733E+04  0.16841584717E+04 0.  0.
        4    1    3    3  502    0  0.14022265487E+03 -0.74207348588E+03  0.40423637424E+02  0.75628773277E+03  0.12699999809E+01 0. -1.
       -4    1    3    3    0  502 -0.14022265487E+03  0.74207348588E+03 -0.77180663753E+03  0.10798252405E+04  0.12699999809E+01 0.  1.
</event>
<event>
 5   0  0.3605571E-04  0.1710688E+04  0.7818609E-02  0.8755292E-01
       -2   -1    0    0    0  501  0.00000000000E+00  0.00000000000E+00  0.62954899860E+03  0.62954899861E+03  0.25500000920E-02 0. -1.
        2   -1    0    0  501    0  0.00000000000E+00  0.00000000000E+00 -0.11621223064E+04  0.11621223064E+04  0.25500000920E-02 0.  1.
    10030    2    1    2    0    0  0.00000000000E+00  0.00000000000E+00 -0.53257330780E+03  0.17916713050E+04  0.17106875042E+04 0.  0.
        4    1    3    3  502    0 -0.55065823938E+03  0.33570322963E+03  0.32217501908E+03  0.72091574459E+03  0.12699999809E+01 0. -1.
       -4    1    3    3    0  502  0.55065823938E+03 -0.33570322963E+03 -0.85474832688E+03  0.10707555604E+04  0.12699999809E+01 0.  1.
</event>
<event>
 5   0  0.3605571E-04  0.1669479E+04  0.7818609E-02  0.8778966E-01
        2   -1    0    0  501    0  0.00000000000E+00  0.00000000000E+00  0.12104652039E+04  0.12104652039E+04  0.25500000920E-02 0.  1.
       -2   -1    0    0    0  501  0.00000000000E+00  0.00000000000E+00 -0.57563797694E+03  0.57563797695E+03  0.25500000920E-02 0. -1.
    10030    2    1    2    0    0  0.00000000000E+00  0.00000000000E+00  0.63482722694E+03  0.17861031808E+04  0.16694786505E+04 0.  0.
        4    1    3    3  502    0  0.48055409385E+03  0.14899755455E+03  0.10300182896E+04  0.11463297074E+04  0.12699999809E+01 0.  1.
       -4    1    3    3    0  502 -0.48055409385E+03 -0.14899755455E+03 -0.39519106263E+03  0.63977347340E+03  0.12699999809E+01 0. -1.
</event>
<event>
 5   0  0.1893284E-04  0.1689245E+04  0.7818609E-02  0.8767522E-01
        1   -1    0    0  501    0  0.00000000000E+00  0.00000000000E+00  0.14836501127E+04  0.14836501127E+04  0.50400001928E-02 0.  1.
       -1   -1    0    0    0  501  0.00000000000E+00  0.00000000000E+00 -0.48083220646E+03  0.48083220649E+03  0.50400001928E-02 0. -1.
    10030    2    1    2    0    0  0.00000000000E+00  0.00000000000E+00  0.10028179063E+04  0.19644823192E+04  0.16892445144E+04 0.  0.
        2    1    3    3  502    0  0.11782454348E+03 -0.79117334537E+03  0.81679582742E+03  0.11432380807E+04  0.25500000920E-02 0.  1.
       -2    1    3    3    0  502 -0.11782454348E+03  0.79117334537E+03  0.18602207885E+03  0.82124423852E+03  0.25500000920E-02 0. -1.
</event>
<event>
 5   0  0.1893284E-04  0.1944731E+04  0.7818609E-02  0.8632906E-01
        1   -1    0    0  501    0  0.00000000000E+00  0.00000000000E+00  0.17437777449E+04  0.17437777449E+04  0.50400001928E-02 0.  1.
       -1   -1    0    0    0  501  0.00000000000E+00  0.00000000000E+00 -0.54221060821E+03  0.54221060823E+03  0.50400001928E-02 0. -1.
    10030    2    1    2    0    0  0.00000000000E+00  0.00000000000E+00  0.12015671367E+04  0.22859883532E+04  0.19447311297E+04 0.  0.
        2    1    3    3  502    0  0.92177887487E+02 -0.93250151608E+03  0.29552360253E+03  0.98254264034E+03  0.25500000920E-02 0. -1.
       -2    1    3    3    0  502 -0.92177887487E+02  0.93250151608E+03  0.90604353420E+03  0.13034457128E+04  0.25500000920E-02 0.  1.
</event>
<event>
 5   0  0.3678896E-04  0.1479201E+04  0.7818609E-02  0.8898403E-01
       -2   -1    0    0    0  501  0.00000000000E+00  0.00000000000E+00  0.22553815150E+03  0.22553815152E+03  0.25500000920E-02 0.  1.
        2   -1    0    0  501    0  0.00000000000E+00  0.00000000000E+00 -0.24253503633E+04  0.24253503633E+04  0.25500000920E-02 0. -1.
    10030    2    1    2    0    0  0.00000000000E+00  0.00000000000E+00 -0.21998122118E+04  0.26508885149E+04  0.14792011867E+04 0.  0.
        2    1    3    3  502    0 -0.69293015252E+03 -0.24225292818E+03 -0.12618948429E+04  0.14598689229E+04  0.25500000920E-02 0. -1.
       -2    1    3    3    0  502  0.69293015252E+03  0.24225292818E+03 -0.93791736893E+03  0.11910195920E+04  0.25500000920E-02 0.  1.
</event>
<event>
 5   0  0.3574092E-04  0.1721069E+04  0.7818609E-02  0.8749438E-01
       -2   -1    0    0    0  501  0.00000000000E+00  0.00000000000E+00  0.31141900159E+03  0.31141900160E+03  0.25500000920E-02 0. -1.
        2   -1    0    0  501    0  0.00000000000E+00  0.00000000000E+00 -0.23778885723E+04  0.23778885723E+04  0.25500000920E-02 0.  1.
    10030    2    1    2    0    0  0.00000000000E+00  0.00000000000E+00 -0.20664695707E+04  0.26893075739E+04  0.17210690690E+04 0.  0.
        3    1    3    3  502    0 -0.63393735971E+03 -0.51938863086E+03 -0.62314007249E+03  0.10295361509E+04  0.10100000352E+00 0. -1.
       -3    1    3    3    0  502  0.63393735971E+03  0.51938863086E+03 -0.14433294982E+04  0.16597714230E+04  0.10100000352E+00 0.  1.
</event>
<event>
 5   0  0.3678896E-04  0.1681409E+04  0.7818609E-02  0.8772039E-01
        2   -1    0    0  501    0  0.00000000000E+00  0.00000000000E+00  0.99164475273E+03  0.99164475273E+03  0.25500000920E-02 0.  1.
       -2   -1    0    0    0  501  0.00000000000E+00  0.00000000000E+00 -0.71273890847E+03  0.71273890847E+03  0.25500000920E-02 0. -1.
    10030    2    1    2    0    0  0.00000000000E+00  0.00000000000E+00  0.27890584426E+03  0.17043836612E+04  0.16814086935E+04 0.  0.
        2    1    3    3  502    0  0.74963407306E+03 -0.37962138841E+03  0.11225050153E+03  0.84774041849E+03  0.25500000920E-02 0.  1.
       -2    1    3    3    0  502 -0.74963407306E+03  0.37962138841E+03  0.16665534273E+03  0.85664324272E+03  0.25500000920E-02 0. -1.
</event>
<event>
 5   0  0.3516723E-04  0.1694768E+04  0.7818609E-02  0.8764354E-01
        2   -1    0    0  501    0  0.00000000000E+00  0.00000000000E+00  0.91430164669E+03  0.91430164670E+03  0.25500000920E-02 0.  1.
       -2   -1    0    0    0  501  0.00000000000E+00  0.00000000000E+00 -0.78536405781E+03  0.78536405782E+03  0.25500000920E-02 0. -1.
    10030    2    1    2    0    0  0.00000000000E+00  0.00000000000E+00  0.12893758888E+03  0.16996657045E+04  0.16947680093E+04 0.  0.
        1    1    3    3  502    0 -0.42569839238E+03  0.65123908721E+03  0.40118925287E+03  0.87537665415E+03  0.50400001928E-02 0.  1.
       -1    1    3    3    0  502  0.42569839238E+03 -0.65123908721E+03 -0.27225166399E+03  0.82428905037E+03  0.50400001928E-02 0. -1.
</event>
<event>
 5   0  0.1815663E-04  0.1701824E+04  0.7818609E-02  0.8760325E-01
        1   -1    0    0  501    0  0.00000000000E+00  0.00000000000E+00  0.14963316461E+04  0.14963316461E+04  0.50400001928E-02 0. -1.
       -1   -1    0    0    0  501  0.00000000000E+00  0.00000000000E+00 -0.48388417999E+03  0.48388418002E+03  0.50400001928E-02 0.  1.
    10030    2    1    2    0    0  0.00000000000E+00  0.00000000000E+00  0.10124474661E+04  0.19802158261E+04  0.17018239763E+04 0.  0.
        5    1    3    3  502    0  0.15617092323E+02 -0.70831098843E+03 -0.42120610797E+02  0.70974966415E+03  0.46999998093E+01 0.  1.
       -5    1    3    3    0  502 -0.15617092323E+02  0.70831098843E+03  0.10545680769E+04  0.12704661620E+04  0.46999998093E+01 0. -1.
</event>
<event>
 5   0  0.3573262E-04  0.1714299E+04  0.7818609E-02  0.8753251E-01
       -2   -1    0    0    0  501  0.00000000000E+00  0.00000000000E+00  0.67018050387E+03  0.67018050387E+03  0.25500000920E-02 0. -1.
        2   -1    0    0  501    0  0.00000000000E+00  0.00000000000E+00 -0.10962801443E+04  0.10962801443E+04  0.25500000920E-02 0.  1.
    10030    2    1    2    0    0  0.00000000000E+00  0.00000000000E+00 -0.42609964047E+03  0.17664606482E+04  0.17142993665E+04 0.  0.
        5    1    3    3  502    0 -0.91909663980E+02  0.72820163188E+03 -0.66919106210E+03  0.99325916588E+03  0.46999998093E+01 0.  1.
       -5    1    3    3    0  502  0.91909663980E+02 -0.72820163188E+03  0.24309142163E+03  0.77320148233E+03  0.46999998093E+01 0. -1.
</event>
<event>
 5   0  0.3605571E-04  0.1708525E+04  0.7818609E-02  0.8756517E-01
        2   -1    0    0  501    0  0.00000000000E+00  0.00000000000E+00  0.13137980025E+04  0.13137980025E+04  0.25500000920E-02 0. -1.
       -2   -1    0    0    0  501  0.00000000000E+00  0.00000000000E+00 -0.55546166547E+03  0.55546166547E+03  0.25500000920E-02 0.  1.
    10030    2    1    2    0    0  0.00000000000E+00  0.00000000000E+00  0.75833633699E+03  0.18692596679E+04  0.17085250089E+04 0.  0.
        4    1    3    3  502    0 -0.83907323977E+03 -0.15892637335E+03  0.40266716627E+03  0.94416309689E+03  0.12699999809E+01 0.  1.
       -4    1    3    3    0  502  0.83907323977E+03  0.15892637335E+03  0.35566917072E+03  0.92509657104E+03  0.12699999809E+01 0. -1.
</event>
<event>
 5   0  0.3678896E-04  0.1697768E+04  0.7818609E-02  0.8762638E-01
        2   -1    0    0  501    0  0.00000000000E+00  0.00000000000E+00  0.11030489107E+04  0.11030489107E+04  0.25500000920E-02 0. -1.
       -2   -1    0    0    0  501  0.00000000000E+00  0.00000000000E+00 -0.65328394784E+03  0.65328394784E+03  0.25500000920E-02 0.  1.
    10030    2    1    2    0    0  0.00000000000E+00  0.00000000000E+00  0.44976496289E+03  0.17563328586E+04  0.16977681197E+04 0.  0.
        2    1    3    3  502    0 -0.75075837723E+03 -0.16036786620E+02 -0.18463758112E+03  0.77329577516E+03  0.25500000920E-02 0.  1.
       -2    1    3    3    0  502  0.75075837723E+03  0.16036786620E+02  0.63440254402E+03  0.98303708341E+03  0.25500000920E-02 0. -1.
</event>
<event>
 5   0  0.1815663E-04  0.1595599E+04  0.7818609E-02  0.8823256E-01
        1   -1    0    0  501    0  0.00000000000E+00  0.00000000000E+00  0.91373664153E+03  0.91373664155E+03  0.50400001928E-02 0.  1.
       -1   -1    0    0    0  501  0.00000000000E+00  0.00000000000E+00 -0.69657267815E+03  0.69657267817E+03  0.50400001928E-02 0. -1.
    10030    2    1    2    0    0  0.00000000000E+00  0.00000000000E+00  0.21716396339E+03  0.16103093197E+04  0.15955989215E+04 0.  0.
        5    1    3    3  502    0 -0.12608241204E+03  0.11089047213E+03  0.89568795161E+03  0.91130262158E+03  0.46999998093E+01 0.  1.
       -5    1    3    3    0  502  0.12608241204E+03 -0.11089047213E+03 -0.67852398823E+03  0.69900669813E+03  0.46999998093E+01 0. -1.
</event>
<event>
 5   0  0.1815663E-04  0.1789194E+04  0.7818609E-02  0.8712067E-01
       -1   -1    0    0    0  501  0.00000000000E+00  0.00000000000E+00  0.79038843779E+03  0.79038843781E+03  0.50400001928E-02 0. -1.
        1   -1    0    0  501    0  0.00000000000E+00  0.00000000000E+00 -0.10125444748E+04  0.10125444748E+04  0.50400001928E-02 0.  1.
    10030    2    1    2    0    0  0.00000000000E+00  0.00000000000E+00 -0.22215603698E+03  0.18029329126E+04  0.17891936124E+04 0.  0.
        5    1    3    3  502    0 -0.64448032075E+03 -0.43033655643E+03  0.33927326227E+03  0.84597451032E+03  0.46999998093E+01 0. -1.
       -5    1    3    3    0  502  0.64448032075E+03  0.43033655643E+03 -0.56142929925E+03  0.95695840228E+03  0.46999998093E+01 0.  1.
</event>
<event>
 5   0  0.3516723E-04  0.1715514E+04  0.7818609E-02  0.8752565E-01
       -2   -1    0    0    0  501  0.00000000000E+00  0.00000000000E+00  0.64895224637E+03  0.64895224638E+03  0.25500000920E-02 0.  1.
        2   -1    0    0  501    0  0.00000000000E+00  0.00000000000E+00 -0.11337457439E+04  0.11337457439E+04  0.25500000920E-02 0. -1.
    10030    2    1    2    0    0  0.00000000000E+00  0.00000000000E+00 -0.48479349750E+03  0.17826979902E+04  0.17155137392E+04 0.  0.
        1    1    3    3  502    0 -0.79450612945E+03  0.31009373306E+03 -0.33734651358E+03  0.91716998602E+03  0.50400001928E-02 0. -1.
       -1    1    3    3    0  502  0.79450612945E+03 -0.31009373306E+03 -0.14744698392E+03  0.86552800423E+03  0.50400001928E-02 0.  1.
</event>
<event>
 5   0  0.3573262E-04  0.1699201E+04  0.7818609E-02  0.8761820E-01
       -2   -1    0    0    0  501  0.00000000000E+00  0.00000000000E+00  0.53692996515E+03  0.53692996516E+03  0.25500000920E-02 0.  1.
        2   -1    0    0  501    0  0.00000000000E+00  0.00000000000E+00 -0.13443489983E+04  0.13443489983E+04  0.25500000920E-02 0. -1.
    10030    2    1    2    0    0  0.00000000000E+00  0.00000000000E+00 -0.80741903319E+03  0.18812789635E+04  0.16992012957E+04 0.  0.
        5    1    3    3  502    0 -0.66875573196E+03  0.27250129544E+03  0.91806276202E+02  0.72797092482E+03  0.46999998093E+01 0.  1.
       -5    1    3    3    0  502  0.66875573196E+03 -0.27250129544E+03 -0.89922530939E+03  0.11533080387E+04  0.46999998093E+01 0. -1.
</event>
<event>
 5   0  0.3573262E-04  0.1691507E+04  0.7818609E-02  0.8766223E-01
       -2   -1    0    0    0  501  0.00000000000E+00  0.00000000000E+00  0.16663263563E+04  0.16663263563E+04  0.25500000920E-02 0. -1.
        2   -1    0    0  501    0  0.00000000000E+00  0.00000000000E+00 -0.42926682685E+03  0.42926682685E+03  0.25500000920E-02 0.  1.
    10030    2    1    2    0    0  0.00000000000E+00  0.00000000000E+00  0.12370595294E+04  0.20955931831E+04  0.16915065799E+04 0.  0.
        5    1    3    3  502    0 -0.33098150010E+03  0.77383675548E+03  0.72147307807E+03  0.11085655461E+04  0.46999998093E+01 0.  1.
       -5    1    3    3    0  502  0.33098150010E+03 -0.77383675548E+03  0.51558645138E+03  0.98702763709E+03  0.46999998093E+01 0. -1.
</event>
<event>
 5   0  0.1920289E-04  0.1683802E+04  0.7818609E-02  0.8770657E-01
        1   -1    0    0  501    0  0.00000000000E+00  0.00000000000E+00  0.10620038009E+04  0.10620038009E+04  0.50400001928E-02 0. -1.
       -1   -1    0    0    0  501  0.00000000000E+00  0.00000000000E+00 -0.66741468142E+03  0.66741468144E+03  0.50400001928E-02 0.  1.
    10030    2    1    2    0    0  0.00000000000E+00  0.00000000000E+00  0.39458911947E+03  0.17294184823E+04  0.16838015661E+04 0.  0.
        4    1    3    3  502    0  0.70397661653E+03 -0.25112493368E+03  0.59528230117E+03  0.95551527457E+03  0.12699999809E+01 0.  1.
       -4    1    3    3    0  502 -0.70397661653E+03  0.25112493368E+03 -0.20069318170E+03  0.77390320778E+03  0.12699999809E+01 0. -1.
</event>
<event>
 5   0  0.1920289E-04  0.1694265E+04  0.7818609E-02  0.8764642E-01
       -1   -1    0    0    0  501  0.00000000000E+00  0.00000000000E+00  0.40361559189E+03  0.40361559192E+03  0.50400001928E-02 0. -1.
        1   -1    0    0  501    0  0.00000000000E+00  0.00000000000E+00 -0.17780122517E+04  0.17780122517E+04  0.50400001928E-02 0.  1.
    10030    2    1    2    0    0  0.00000000000E+00  0.00000000000E+00 -0.13743966598E+04  0.21816278437E+04  0.16942649939E+04 0.  0.
        4    1    3    3  502    0 -0.37821948662E+03 -0.75420126980E+03 -0.78494410212E+03  0.11523924643E+04  0.12699999809E+01 0.  1.
       -4    1    3    3    0  502  0.37821948662E+03  0.75420126980E+03 -0.58945255773E+03  0.10292353794E+04  0.12699999809E+01 0. -1.
</event>
<event>
 5   0  0.1893284E-04  0.1698809E+04  0.7818609E-02  0.8762044E-01
        1   -1    0    0  501    0  0.00000000000E+00  0.00000000000E+00  0.13667282781E+04  0.13667282781E+04  0.50400001928E-02 0. -1.
       -1   -1    0    0    0  501  0.00000000000E+00  0.00000000000E+00 -0.52789455503E+03  0.52789455505E+03  0.50400001928E-02 0.  1.
    10030    2    1    2    0    0  0.00000000000E+00  0.00000000000E+00  0.83883372305E+03  0.18946228331E+04  0.16988094846E+04 0.  0.
        2    1    3    3  502    0  0.70496926205E+03 -0.46510525751E+03  0.31852478547E+03  0.90264201097E+03  0.25500000920E-02 0.  1.
       -2    1    3    3    0  502 -0.70496926205E+03  0.46510525751E+03  0.52030893758E+03  0.99198082216E+03  0.25500000920E-02 0. -1.
</event>
<event>
 5   0  0.3516723E-04  0.1766169E+04  0.7818609E-02  0.8724500E-01
       -2   -1    0    0    0  501  0.00000000000E+00  0.00000000000E+00  0.48430724064E+03  0.48430724065E+03  0.25500000920E-02 0. -1.
        2   -1    0    0  501    0  0.00000000000E+00  0.00000000000E+00 -0.16102130687E+04  0.16102130687E+04  0.25500000920E-02 0.  1.
    10030    2    1    2    0    0  0.00000000000E+00  0.00000000000E+00 -0.11259058281E+04  0.20945203094E+04  0.17661685629E+04 0.  0.
        1    1    3    3  502    0 -0.30354843621E+03  0.80649728585E+03 -0.33404327696E+03  0.92421016880E+03  0.50400001928E-02 0. -1.
       -1    1    3    3    0  502  0.30354843621E+03 -0.80649728585E+03 -0.79186255110E+03  0.11703101406E+04  0.50400001928E-02 0.  1.
</event>
<event>
 5   0  0.3573262E-04  0.1631396E+04  0.7818609E-02  0.8801489E-01
        2   -1    0    0  501    0  0.00000000000E+00  0.00000000000E+00  0.47032854570E+03  0.47032854571E+03  0.25500000920E-02 0.  1.
       -2   -1    0    0    0  501  0.00000000000E+00  0.00000000000E+00 -0.14146778196E+04  0.14146778197E+04  0.25500000920E-02 0. -1.
    10030    2    1    2    0    0  0.00000000000E+00  0.00000000000E+00 -0.94434927395E+03  0.18850063654E+04  0.16313961647E+04 0.  0.
        5    1    3    3  502    0 -0.40395990782E+03  0.32355382773E+03  0.25628565089E+03  0.57755961719E+03  0.46999998093E+01 0.  1.
       -5    1    3    3    0  502  0.40395990782E+03 -0.32355382773E+03 -0.12006349248E+04  0.13074467482E+04  0.46999998093E+01 0. -1.
</event>
<event>
 5   0  0.3574092E-04  0.1715946E+04  0.7818609E-02  0.8752322E-01
       -2   -1    0    0    0  501  0.00000000000E+00  0.00000000000E+00  0.36087817316E+03  0.36087817317E+03  0.25500000920E-02 0. -1.
        2   -1    0    0  501    0  0.00000000000E+00  0.00000000000E+00 -0.20397955539E+04  0.20397955539E+04  0.25500000920E-02 0.  1.
    10030    2    1    2    0    0  0.00000000000E+00  0.00000000000E+00 -0.16789173807E+04  0.24006737271E+04  0.17159460284E+04 0.  0.
        3    1    3    3  502    0  0.13976062143E+03 -0.82452755068E+03 -0.57129930426E+03  0.10127989032E+04  0.10100000352E+00 0. -1.
       -3    1    3    3    0  502 -0.13976062143E+03  0.82452755068E+03 -0.11076180765E+04  0.13878748238E+04  0.10100000352E+00 0.  1.
</event>
<event>
 5   0  0.1920289E-04  0.1695341E+04  0.7818609E-02  0.8764026E-01
        1   -1    0    0  501    0  0.00000000000E+00  0.00000000000E+00  0.50587812064E+03  0.50587812067E+03  0.50400001928E-02 0.  1.
       -1   -1    0    0    0  501  0.00000000000E+00  0.00000000000E+00 -0.14203922318E+04  0.14203922318E+04  0.50400001928E-02 0. -1.
    10030    2    1    2    0    0  0.00000000000E+00  0.00000000000E+00 -0.91451411118E+03  0.19262703525E+04  0.16953410900E+04 0.  0.
        4    1    3    3  502    0  0.67011529363E+03  0.46171826604E+03 -0.18764738275E+03  0.83513556809E+03  0.12699999809E+01 0. -1.
       -4    1    3    3    0  502 -0.67011529363E+03 -0.46171826604E+03 -0.72686672843E+03  0.10911347844E+04  0.12699999809E+01 0.  1.
</event>
<event>
 5   0  0.3516723E-04  0.1725290E+04  0.7818609E-02  0.8747070E-01
       -2   -1    0    0    0  501  0.00000000000E+00  0.00000000000E+00  0.75780482225E+03  0.75780482225E+03  0.25500000920E-02 0.  1.
        2   -1    0    0  501    0  0.00000000000E+00  0.00000000000E+00 -0.98198984719E+03  0.98198984719E+03  0.25500000920E-02 0. -1.
    10030    2    1    2    0    0  0.00000000000E+00  0.00000000000E+00 -0.22418502495E+03  0.17397946694E+04  0.17252902847E+04 0.  0.
        1    1    3    3  502    0 -0.15443090497E+03 -0.22381183304E+03  0.71345717066E+03  0.76351933532E+03  0.50400001928E-02 0.  1.
       -1    1    3    3    0  502  0.15443090497E+03  0.22381183304E+03 -0.93764219560E+03  0.97627533413E+03  0.50400001928E-02 0. -1.
</event>
<event>
 5   0  0.1920289E-04  0.1744775E+04  0.7818609E-02  0.8736232E-01
        1   -1    0    0  501    0  0.00000000000E+00  0.00000000000E+00  0.64662590081E+03  0.64662590083E+03  0.50400001928E-02 0. -1.
       -1   -1    0    0    0  501  0.00000000000E+00  0.00000000000E+00 -0.11769712641E+04  0.11769712641E+04  0.50400001928E-02 0.  1.
    10030    2    1    2    0    0  0.00000000000E+00  0.00000000000E+00 -0.53034536326E+03  0.18235971649E+04  0.17447751762E+04 0.  0.
        4    1    3    3  502    0  0.86886224950E+03  0.33951011085E+02 -0.33896100701E+03  0.93325797984E+03  0.12699999809E+01 0.  1.
       -4    1    3    3    0  502 -0.86886224950E+03 -0.33951011085E+02 -0.19138435625E+03  0.89033918507E+03  0.12699999809E+01 0. -1.
</event>
<event>
 5   0  0.3574092E-04  0.1658009E+04  0.7818609E-02  0.8785682E-01
       -2   -1    0    0    0  501  0.00000000000E+00  0.00000000000E+00  0.71358675343E+03  0.71358675344E+03  0.25500000920E-02 0. -1.
        2   -1    0    0  501    0  0.00000000000E+00  0.00000000000E+00 -0.96309051576E+03  0.96309051577E+03  0.25500000920E-02 0.  1.
    10030    2    1    2    0    0  0.00000000000E+00  0.00000000000E+00 -0.24950376233E+03  0.16766772692E+04  0.16580092092E+04 0.  0.
        3    1    3    3  502    0  0.49617925889E+03  0.65650949434E+03 -0.22613057073E+03  0.85342464127E+03  0.10100000352E+00 0.  1.
       -3    1    3    3    0  502 -0.49617925889E+03 -0.65650949434E+03 -0.23373191599E+02  0.82325262793E+03  0.10100000352E+00 0. -1.
</event>
<event>
 5   0  0.3605571E-04  0.1690678E+04  0.7818609E-02  0.8766699E-01
        2   -1    0    0  501    0  0.00000000000E+00  0.00000000000E+00  0.13426669254E+04  0.13426669254E+04  0.25500000920E-02 0.  1.
       -2   -1    0    0    0  501  0.00000000000E+00  0.00000000000E+00 -0.53222262211E+03  0.53222262211E+03  0.25500000920E-02 0. -1.
    10030    2    1    2    0    0  0.00000000000E+00  0.00000000000E+00  0.81044430328E+03  0.18748895475E+04  0.16906776294E+04 0.  0.
        4    1    3    3  502    0  0.71352929735E+03  0.95572539069E+02  0.89660159724E+03  0.11498496447E+04  0.12699999809E+01 0.  1.
       -4    1    3    3    0  502 -0.71352929735E+03 -0.95572539069E+02 -0.86157293967E+02  0.72503990277E+03  0.12699999809E+01 0. -1.
</event>
<event>
 5   0  0.1930116E-04  0.1724141E+04  0.7818609E-02  0.8747714E-01
        1   -1    0    0  501    0  0.00000000000E+00  0.00000000000E+00  0.20131391705E+04  0.20131391705E+04  0.50400001928E-02 0.  1.
       -1   -1    0    0    0  501  0.00000000000E+00  0.00000000000E+00 -0.36915776793E+03  0.36915776796E+03  0.50400001928E-02 0. -1.
    10030    2    1    2    0    0  0.00000000000E+00  0.00000000000E+00  0.16439814026E+04  0.23822969385E+04  0.17241414823E+04 0.  0.
        1    1    3    3  502    0  0.54523780938E+03  0.46444209090E+03  0.14848972239E+04  0.16486086528E+04  0.50400001928E-02 0.  1.
       -1    1    3    3    0  502 -0.54523780938E+03 -0.46444209090E+03  0.15908417868E+03  0.73368828565E+03  0.50400001928E-02 0. -1.
</event>
<event>
 5   0  0.3516723E-04  0.1710235E+04  0.7818609E-02  0.8755548E-01
        2   -1    0    0  501    0  0.00000000000E+00  0.00000000000E+00  0.70725692424E+03  0.70725692425E+03  0.25500000920E-02 0.  1.
       -2   -1    0    0    0  501  0.00000000000E+00  0.00000000000E+00 -0.10338899533E+04  0.10338899533E+04  0.25500000920E-02 0. -1.
    10030    2    1    2    0    0  0.00000000000E+00  0.00000000000E+00 -0.32663302904E+03  0.17411468775E+04  0.17102348709E+04 0.  0.
        1    1    3    3  502    0  0.80723817264E+03 -0.26731700318E+03 -0.71497797045E+02  0.85334857038E+03  0.50400001928E-02 0. -1.
       -1    1    3    3    0  502 -0.80723817264E+03  0.26731700318E+03 -0.25513523199E+03  0.88779830716E+03  0.50400001928E-02 0.  1.
</event>
<event>
 5   0  0.1815663E-04  0.1671437E+04  0.7818609E-02  0.8777825E-01
        1   -1    0    0  501    0  0.00000000000E+00  0.00000000000E+00  0.72978584443E+03  0.72978584444E+03  0.50400001928E-02 0. -1.
       -1   -1    0    0    0  501  0.00000000000E+00  0.00000000000E+00 -0.95702779752E+03  0.95702779753E+03  0.50400001928E-02 0.  1.
    10030    2    1    2    0    0  0.00000000000E+00  0.00000000000E+00 -0.22724195309E+03  0.16868136420E+04  0.16714369140E+04 0.  0.
        5    1    3    3  502    0  0.35582358439E+03 -0.65805756917E+03  0.26230159506E+03  0.79276377587E+03  0.46999998093E+01 0. -1.
       -5    1    3    3    0  502 -0.35582358439E+03  0.65805756917E+03 -0.48954354815E+03  0.89404986611E+03  0.46999998093E+01 0.  1.
</event>
<event>
 5   0  0.1815663E-04  0.1708395E+04  0.7818609E-02  0.8756591E-01
       -1   -1    0    0    0  501  0.00000000000E+00  0.00000000000E+00  0.52261492904E+03  0.52261492906E+03  0.50400001928E-02 0. -1.
        1   -1    0    0  501    0  0.00000000000E+00  0.00000000000E+00 -0.13961591860E+04  0.13961591860E+04  0.50400001928E-02 0.  1.
    10030    2    1    2    0    0  0.00000000000E+00  0.00000000000E+00 -0.87354425692E+03  0.19187741150E+04  0.17083953101E+04 0.  0.
        5    1    3    3  502    0  0.11422968074E+03  0.72207049115E+02  0.51051803901E+03  0.52812217910E+03  0.46999998093E+01 0. -1.
       -5    1    3    3    0  502 -0.11422968074E+03 -0.72207049115E+02 -0.13840622959E+04  0.13906519359E+04  0.46999998093E+01 0.  1.
</event>
<event>
 5   0  0.1930116E-04  0.1719131E+04  0.7818609E-02  0.8750528E-01
        1   -1    0    0  501    0  0.00000000000E+00  0.00000000000E+00  0.17929635440E+04  0.17929635440E+04  0.50400001928E-02 0. -1.
       -1   -1    0    0    0  501  0.00000000000E+00  0.00000000000E+00 -0.41208471388E+03  0.41208471391E+03  0.50400001928E-02 0.  1.
    10030    2    1    2    0    0  0.00000000000E+00  0.00000000000E+00  0.13808788301E+04  0.22050482579E+04  0.17191310236E+04 0.  0.
        1    1    3    3  502    0 -0.63132194729E+03 -0.46862106455E+03  0.11360200932E+04  0.13815624327E+04  0.50400001928E-02 0. -1.
       -1    1    3    3    0  502  0.63132194729E+03  0.46862106455E+03  0.24485873693E+03  0.82348582522E+03  0.50400001928E-02 0.  1.
</event>
<event>
 5   0  0.1824538E-04  0.1694774E+04  0.7818609E-02  0.8764351E-01
        1   -1    0    0  501    0  0.00000000000E+00  0.00000000000E+00  0.12632811561E+04  0.12632811561E+04  0.50400001928E-02 0.  1.
       -1   -1    0    0    0  501  0.00000000000E+00  0.00000000000E+00 -0.56841238016E+03  0.56841238018E+03  0.50400001928E-02 0. -1.
    10030    2    1    2    0    0  0.00000000000E+00  0.00000000000E+00  0.69486877596E+03  0.18316935363E+04  0.16947739068E+04 0.  0.
        3    1    3    3  502    0  0.13468015648E+03  0.71477962450E+03 -0.12244923426E+03  0.73759235443E+03  0.10100000352E+00 0. -1.
       -3    1    3    3    0  502 -0.13468015648E+03 -0.71477962450E+03  0.81731801022E+03  0.10941011819E+04  0.10100000352E+00 0.  1.
</event>
<event>
 5   0  0.1824538E-04  0.1692315E+04  0.7818609E-02  0.8765760E-01
       -1   -1    0    0    0  501  0.00000000000E+00  0.00000000000E+00  0.35401130863E+03  0.35401130867E+03  0.50400001928E-02 0. -1.
        1   -1    0    0  501    0  0.00000000000E+00  0.00000000000E+00 -0.20224846637E+04  0.20224846637E+04  0.50400001928E-02 0.  1.
    10030    2    1    2    0    0  0.00000000000E+00  0.00000000000E+00 -0.16684733550E+04  0.23764959724E+04  0.16923149146E+04 0.  0.
        3    1    3    3  502    0  0.37523395773E+03 -0.61156567809E+03 -0.20438718160E+03  0.74604774101E+03  0.10100000352E+00 0. -1.
       -3    1    3    3    0  502 -0.37523395773E+03  0.61156567809E+03 -0.14640861734E+04  0.16304482314E+04  0.10100000352E+00 0.  1.
</event>
<event>
 5   0  0.1920289E-04  0.1634727E+04  0.7818609E-02  0.8799494E-01
       -1   -1    0    0    0  501  0.00000000000E+00  0.00000000000E+00  0.94848042074E+03  0.94848042076E+03  0.50400001928E-02 0.  1.
        1   -1    0    0  501    0  0.00000000000E+00  0.00000000000E+00 -0.70437161677E+03  0.70437161679E+03  0.50400001928E-02 0. -1.
    10030    2    1    2    0    0  0.00000000000E+00  0.00000000000E+00  0.24410880397E+03  0.16528520375E+04  0.16347265061E+04 0.  0.
        4    1    3    3  502    0  0.26195177851E+02 -0.61655997600E+03  0.66395283632E+03  0.90645869906E+03  0.12699999809E+01 0.  1.
       -4    1    3    3    0  502 -0.26195177851E+02  0.61655997600E+03 -0.41984403235E+03  0.74639333849E+03  0.12699999809E+01 0. -1.
</event>
<event>
 5   0  0.1824538E-04  0.1685852E+04  0.7818609E-02  0.8769475E-01
       -1   -1    0    0    0  501  0.00000000000E+00  0.00000000000E+00  0.63683363841E+03  0.63683363843E+03  0.50400001928E-02 0.  1.
        1   -1    0    0  501    0  0.00000000000E+00  0.00000000000E+00 -0.11157137413E+04  0.11157137413E+04  0.50400001928E-02 0. -1.
    10030    2    1    2    0    0  0.00000000000E+00  0.00000000000E+00 -0.47888010289E+03  0.17525473797E+04  0.16858517626E+04 0.  0.
        3    1    3    3  502    0  0.65594064067E+03 -0.37830437411E+03 -0.62443142022E+03  0.98147181942E+03  0.10100000352E+00 0. -1.
       -3    1    3    3    0  502 -0.65594064067E+03  0.37830437411E+03  0.14555131734E+03  0.77107556033E+03  0.10100000352E+00 0.  1.
</event>
<event>
 5   0  0.1930116E-04  0.1717460E+04  0.7818609E-02  0.8751469E-01
        1   -1    0    0  501    0  0.00000000000E+00  0.00000000000E+00  0.92216607618E+03  0.92216607619E+03  0.50400001928E-02 0.  1.
       -1   -1    0    0    0  501  0.00000000000E+00  0.00000000000E+00 -0.79965751653E+03  0.79965751655E+03  0.50400001928E-02 0. -1.
    10030    2    1    2    0    0  0.00000000000E+00  0.00000000000E+00  0.12250855964E+03  0.17218235927E+04  0.17174597921E+04 0.  0.
        1    1    3    3  502    0 -0.49841579406E+02  0.39962960317E+02  0.91978042037E+03  0.92199633566E+03  0.50400001928E-02 0.  1.
       -1    1    3    3    0  502  0.49841579406E+02 -0.39962960317E+02 -0.79727186073E+03  0.79982725708E+03  0.50400001928E-02 0. -1.
</event>
<event>
 5   0  0.1815663E-04  0.1692978E+04  0.7818609E-02  0.8765379E-01
        1   -1    0    0  501    0  0.00000000000E+00  0.00000000000E+00  0.13563256306E+04  0.13563256306E+04  0.50400001928E-02 0. -1.
       -1   -1    0    0    0  501  0.00000000000E+00  0.00000000000E+00 -0.52829782840E+03  0.52829782843E+03  0.50400001928E-02 0.  1.
    10030    2    1    2    0    0  0.00000000000E+00  0.00000000000E+00  0.82802780224E+03  0.18846234591E+04  0.16929783050E+04 0.  0.
        5    1    3    3  502    0  0.46335241737E+03  0.57730045193E+03  0.87103710377E+03  0.11431093564E+04  0.46999998093E+01 0. -1.
       -5    1    3    3    0  502 -0.46335241737E+03 -0.57730045193E+03 -0.43009301539E+02  0.74151410270E+03  0.46999998093E+01 0.  1.
</event>
<event>
 5   0  0.3574092E-04  0.1712993E+04  0.7818609E-02  0.8753988E-01
        2   -1    0    0  501    0  0.00000000000E+00  0.00000000000E+00  0.78477344968E+03  0.78477344968E+03  0.25500000920E-02 0. -1.
       -2   -1    0    0    0  501  0.00000000000E+00  0.00000000000E+00 -0.93477482102E+03  0.93477482103E+03  0.25500000920E-02 0.  1.
    10030    2    1    2    0    0  0.00000000000E+00  0.00000000000E+00 -0.15000137134E+03  0.17195482707E+04  0.17129932411E+04 0.  0.
        3    1    3    3  502    0 -0.19920556677E+03 -0.48930825705E+03 -0.75173250802E+03  0.91880748912E+03  0.10100000352E+00 0.  1.
       -3    1    3    3    0  502  0.19920556677E+03  0.48930825705E+03  0.60173113667E+03  0.80074078159E+03  0.10100000352E+00 0. -1.
</event>
<event>
 5   0  0.3678896E-04  0.1465294E+04  0.7818609E-02  0.8907866E-01
       -2   -1    0    0    0  501  0.00000000000E+00  0.00000000000E+00  0.53069303533E+03  0.53069303533E+03  0.25500000920E-02 0. -1.
        2   -1    0    0  501    0  0.00000000000E+00  0.00000000000E+00 -0.10114539948E+04  0.10114539948E+04  0.25500000920E-02 0.  1.
    10030    2    1    2    0    0  0.00000000000E+00  0.00000000000E+00 -0.48076095944E+03  0.15421470301E+04  0.14652939508E+04 0.  0.
        2    1    3    3  502    0  0.65419254497E+02  0.70633238574E+03 -0.47502245146E+02  0.71094414781E+03  0.25500000920E-02 0. -1.
       -2    1    3    3    0  502 -0.65419254497E+02 -0.70633238574E+03 -0.43325871430E+03  0.83120288229E+03  0.25500000920E-02 0.  1.
</event>
<event>
 5   0  0.1815663E-04  0.1716843E+04  0.7818609E-02  0.8751816E-01
       -1   -1    0    0    0  501  0.00000000000E+00  0.00000000000E+00  0.60486584368E+03  0.60486584370E+03  0.50400001928E-02 0.  1.
        1   -1    0    0  501    0  0.00000000000E+00  0.00000000000E+00 -0.12182659756E+04  0.12182659756E+04  0.50400001928E-02 0. -1.
    10030    2    1    2    0    0  0.00000000000E+00  0.00000000000E+00 -0.61340013187E+03  0.18231318193E+04  0.17168430064E+04 0.  0.
        5    1    3    3  502    0  0.47532800000E+03 -0.33032866021E+03  0.36642963331E+03  0.68508867857E+03  0.46999998093E+01 0.  1.
       -5    1    3    3    0  502 -0.47532800000E+03  0.33032866021E+03 -0.97982976519E+03  0.11380431407E+04  0.46999998093E+01 0. -1.
</event>
<event>
 5   0  0.3574092E-04  0.1731864E+04  0.7818609E-02  0.8743397E-01
        2   -1    0    0  501    0  0.00000000000E+00  0.00000000000E+00  0.19074152058E+04  0.19074152058E+04  0.25500000920E-02 0. -1.
       -2   -1    0    0    0  501  0.00000000000E+00  0.00000000000E+00 -0.39311738714E+03  0.39311738715E+03  0.25500000920E-02 0.  1.
    10030    2    1    2    0    0  0.00000000000E+00  0.00000000000E+00  0.15142978187E+04  0.23005325930E+04  0.17318638306E+04 0.  0.
        3    1    3    3  502    0 -0.49043280035E+03 -0.39585435860E+03 -0.31645546278E+02  0.63105186449E+03  0.10100000352E+00 0.  1.
       -3    1    3    3    0  502  0.49043280035E+03  0.39585435860E+03  0.15459433650E+04  0.16694807285E+04  0.10100000352E+00 0. -1.
</event>
<event>
 5   0  0.3516723E-04  0.1695490E+04  0.7818609E-02  0.8763941E-01
       -2   -1    0    0    0  501  0.00000000000E+00  0.00000000000E+00  0.27273605527E+03  0.27273605528E+03  0.25500000920E-02 0. -1.
        2   -1    0    0  501    0  0.00000000000E+00  0.00000000000E+00 -0.26350429442E+04  0.26350429442E+04  0.25500000920E-02 0.  1.
    10030    2    1    2    0    0  0.00000000000E+00  0.00000000000E+00 -0.23623068889E+04  0.29077789995E+04  0.16954895671E+04 0.  0.
        1    1    3    3  502    0  0.44045270357E+03 -0.71174608162E+03 -0.95048544506E+03  0.12664926569E+04  0.50400001928E-02 0.  1.
       -1    1    3    3    0  502 -0.44045270357E+03  0.71174608162E+03 -0.14118214438E+04  0.16412863425E+04  0.50400001928E-02 0. -1.
</event>
<event>
 5   0  0.3605571E-04  0.1702404E+04  0.7818609E-02  0.8759995E-01
       -2   -1    0    0    0  501  0.00000000000E+00  0.00000000000E+00  0.40069523905E+03  0.40069523906E+03  0.25500000920E-02 0. -1.
        2   -1    0    0  501    0  0.00000000000E+00  0.00000000000E+00 -0.18082182610E+04  0.18082182610E+04  0.25500000920E-02 0.  1.
    10030    2    1    2    0    0  0.00000000000E+00  0.00000000000E+00 -0.14075230220E+04  0.22089135001E+04  0.17024035343E+04 0.  0.
        4    1    3    3  502    0 -0.56212160568E+03 -0.98539635350E+02 -0.15232108811E+04  0.16266111276E+04  0.12699999809E+01 0.  1.
       -4    1    3    3    0  502  0.56212160568E+03  0.98539635350E+02  0.11568785914E+03  0.58230237245E+03  0.12699999809E+01 0. -1.
</event>
<event>
 5   0  0.3678896E-04  0.1687470E+04  0.7818609E-02  0.8768543E-01
       -2   -1    0    0    0  501  0.00000000000E+00  0.00000000000E+00  0.52446979417E+03  0.52446979418E+03  0.25500000920E-02 0.  1.
        2   -1    0    0  501    0  0.00000000000E+00  0.00000000000E+00 -0.13573492921E+04  0.13573492921E+04  0.25500000920E-02 0. -1.
    10030    2    1    2    0    0  0.00000000000E+00  0.00000000000E+00 -0.83287949798E+03  0.18818190863E+04  0.16874699451E+04 0.  0.
        2    1    3    3  502    0 -0.52519630918E+02  0.53530009614E+03 -0.11413737169E+04  0.12617600668E+04  0.25500000920E-02 0. -1.
       -2    1    3    3    0  502  0.52519630918E+02 -0.53530009614E+03  0.30849421893E+03  0.62005901951E+03  0.25500000920E-02 0.  1.
</event>
<event>
 5   0  0.1815663E-04  0.1680919E+04  0.7818609E-02  0.8772323E-01
        1   -1    0    0  501    0  0.00000000000E+00  0.00000000000E+00  0.51816595892E+03  0.51816595895E+03  0.50400001928E-02 0. -1.
       -1   -1    0    0    0  501  0.00000000000E+00  0.00000000000E+00 -0.13632153353E+04  0.13632153353E+04  0.50400001928E-02 0.  1.
    10030    2    1    2    0    0  0.00000000000E+00  0.00000000000E+00 -0.84504937642E+03  0.18813812943E+04  0.16809185364E+04 0.  0.
        5    1    3    3  502    0 -0.27948043846E+02 -0.83997476692E+03 -0.42623503492E+03  0.94235720256E+03  0.46999998093E+01 0.  1.
       -5    1    3    3    0  502  0.27948043846E+02  0.83997476692E+03 -0.41881434150E+03  0.93902409174E+03  0.46999998093E+01 0. -1.
</event>
<event>
 5   0  0.3678896E-04  0.1692975E+04  0.7818609E-02  0.8765381E-01
       -2   -1    0    0    0  501  0.00000000000E+00  0.00000000000E+00  0.70280351135E+03  0.70280351135E+03  0.25500000920E-02 0. -1.
        2   -1    0    0  501    0  0.00000000000E+00  0.00000000000E+00 -0.10195468452E+04  0.10195468452E+04  0.25500000920E-02 0.  1.
    10030    2    1    2    0    0  0.00000000000E+00  0.00000000000E+00 -0.31674333383E+03  0.17223503565E+04  0.16929750179E+04 0.  0.
        2    1    3    3  502    0  0.73405674787E+03  0.24787201112E+03 -0.50525901641E+03  0.92496838685E+03  0.25500000920E-02 0.  1.
       -2    1    3    3    0  502 -0.73405674787E+03 -0.24787201112E+03  0.18851568258E+03  0.79738196969E+03  0.25500000920E-02 0. -1.
</event>
<event>
 5   0  0.1815663E-04  0.1700611E+04  0.7818609E-02  0.8761016E-01
        1   -1    0    0  501    0  0.00000000000E+00  0.00000000000E+00  0.57548021547E+03  0.57548021549E+03  0.50400001928E-02 0.  1.
       -1   -1    0    0    0  501  0.00000000000E+00  0.00000000000E+00 -0.12563761356E+04  0.12563761356E+04  0.50400001928E-02 0. -1.
    10030    2    1    2    0    0  0.00000000000E+00  0.00000000000E+00 -0.68089592008E+03  0.18318563511E+04  0.17006111951E+04 0.  0.
        5    1    3    3  502    0 -0.38585163745E+03 -0.52995498666E+03 -0.92377964818E+03  0.11327509446E+04  0.46999998093E+01 0.  1.
       -5    1    3    3    0  502  0.38585163745E+03  0.52995498666E+03  0.24288372810E+03  0.69910540649E+03  0.46999998093E+01 0. -1.
</event>
<event>
 5   0  0.1920289E-04  0.1709575E+04  0.7818609E-02  0.8755922E-01
        1   -1    0    0  501    0  0.00000000000E+00  0.00000000000E+00  0.11553290953E+04  0.11553290953E+04  0.50400001928E-02 0.  1.
       -1   -1    0    0    0  501  0.00000000000E+00  0.00000000000E+00 -0.63242728841E+03  0.63242728843E+03  0.50400001928E-02 0. -1.
    10030    2    1    2    0    0  0.00000000000E+00  0.00000000000E+00  0.52290180689E+03  0.17877563837E+04  0.17095749729E+04 0.  0.
        4    1    3    3  502    0 -0.65317012024E+03  0.25562144807E+03 -0.24944699625E+03  0.74444539593E+03  0.12699999809E+01 0. -1.
       -4    1    3    3    0  502  0.65317012024E+03 -0.25562144807E+03  0.77234880314E+03  0.10433109878E+04  0.12699999809E+01 0.  1.
</event>
<event>
 5   0  0.1893284E-04  0.1697405E+04  0.7818609E-02  0.8762846E-01
       -1   -1    0    0    0  501  0.00000000000E+00  0.00000000000E+00  0.68236069270E+03  0.68236069272E+03  0.50400001928E-02 0.  1.
        1   -1    0    0  501    0  0.00000000000E+00  0.00000000000E+00 -0.10555941265E+04  0.10555941265E+04  0.50400001928E-02 0. -1.
    10030    2    1    2    0    0  0.00000000000E+00  0.00000000000E+00 -0.37323343382E+03  0.17379548192E+04  0.16974050070E+04 0.  0.
        2    1    3    3  502    0 -0.39479955999E+03 -0.32722732546E+03  0.50581677947E+03  0.72027427380E+03  0.25500000920E-02 0.  1.
       -2    1    3    3    0  502  0.39479955999E+03  0.32722732546E+03 -0.87905021329E+03  0.10176805454E+04  0.25500000920E-02 0. -1.
</event>
<event>
 5   0  0.1920289E-04  0.1432378E+04  0.7818609E-02  0.8930709E-01
       -1   -1    0    0    0  501  0.00000000000E+00  0.00000000000E+00  0.15853412392E+04  0.15853412392E+04  0.50400001928E-02 0. -1.
        1   -1    0    0  501    0  0.00000000000E+00  0.00000000000E+00 -0.32354343266E+03  0.32354343270E+03  0.50400001928E-02 0.  1.
    10030    2    1    2    0    0  0.00000000000E+00  0.00000000000E+00  0.12617978066E+04  0.19088846719E+04  0.14323780877E+04 0.  0.
        4    1    3    3  502    0 -0.54175585725E+03  0.20755722297E+03  0.11905334148E+04  0.13243680887E+04  0.12699999809E+01 0. -1.
       -4    1    3    3    0  502  0.54175585725E+03 -0.20755722297E+03  0.71264391770E+02  0.58451658326E+03  0.12699999809E+01 0.  1.
</event>
<event>
 5   0  0.3516723E-04  0.1697362E+04  0.7818609E-02  0.8762870E-01
        2   -1    0    0  501    0  0.00000000000E+00  0.00000000000E+00  0.63949820025E+03  0.63949820025E+03  0.25500000920E-02 0.  1.
       -2   -1    0    0    0  501  0.00000000000E+00  0.00000000000E+00 -0.11262882453E+04  0.11262882453E+04  0.25500000920E-02 0. -1.
    10030    2    1    2    0    0  0.00000000000E+00  0.00000000000E+00 -0.48679004505E+03  0.17657864456E+04  0.16973618422E+04 0.  0.
        1    1    3    3  502    0  0.78652960884E+03  0.11493286030E+03  0.65948661608E+02  0.79761369970E+03  0.50400001928E-02 0.  1.
       -1    1    3    3    0  502 -0.78652960884E+03 -0.11493286030E+03 -0.55273870666E+03  0.96817274586E+03  0.50400001928E-02 0. -1.
</event>
<event>
 5   0  0.3605571E-04  0.1699473E+04  0.7818609E-02  0.8761665E-01
       -2   -1    0    0    0  501  0.00000000000E+00  0.00000000000E+00  0.59456671689E+03  0.59456671690E+03  0.25500000920E-02 0.  1.
        2   -1    0    0  501    0  0.00000000000E+00  0.00000000000E+00 -0.12144174311E+04  0.12144174311E+04  0.25500000920E-02 0. -1.
    10030    2    1    2    0    0  0.00000000000E+00  0.00000000000E+00 -0.61985071420E+03  0.18089841480E+04  0.16994730771E+04 0.  0.
        4    1    3    3  502    0 -0.38851351735E+03 -0.27166766201E+03  0.44071458002E+03  0.64728434686E+03  0.12699999809E+01 0.  1.
       -4    1    3    3    0  502  0.38851351735E+03  0.27166766201E+03 -0.10605652942E+04  0.11616998011E+04  0.12699999809E+01 0. -1.
</event>
<event>
 5   0  0.1824538E-04  0.1698178E+04  0.7818609E-02  0.8762404E-01
        1   -1    0    0  501    0  0.00000000000E+00  0.00000000000E+00  0.74408031462E+03  0.74408031463E+03  0.50400001928E-02 0.  1.
       -1   -1    0    0    0  501  0.00000000000E+00  0.00000000000E+00 -0.96891709391E+03  0.96891709392E+03  0.50400001928E-02 0. -1.
    10030    2    1    2    0    0  0.00000000000E+00  0.00000000000E+00 -0.22483677929E+03  0.17129974086E+04  0.16981780073E+04 0.  0.
        3    1    3    3  502    0  0.81450193912E+03 -0.23394084267E+02  0.12839369970E+03  0.82489129243E+03  0.10100000352E+00 0.  1.
       -3    1    3    3    0  502 -0.81450193912E+03  0.23394084267E+02 -0.35323047899E+03  0.88810611612E+03  0.10100000352E+00 0. -1.
</event>
<event>
 5   0  0.3574092E-04  0.1619989E+04  0.7818609E-02  0.8808361E-01
        2   -1    0    0  501    0  0.00000000000E+00  0.00000000000E+00  0.13584600947E+04  0.13584600947E+04  0.25500000920E-02 0. -1.
       -2   -1    0    0    0  501  0.00000000000E+00  0.00000000000E+00 -0.48296674412E+03  0.48296674413E+03  0.25500000920E-02 0.  1.
    10030    2    1    2    0    0  0.00000000000E+00  0.00000000000E+00  0.87549335053E+03  0.18414268388E+04  0.16199889493E+04 0.  0.
        3    1    3    3  502    0 -0.17658946914E+03  0.76275249190E+03  0.20172014968E+03  0.80849627921E+03  0.10100000352E+00 0.  1.
       -3    1    3    3    0  502  0.17658946914E+03 -0.76275249190E+03  0.67377320085E+03  0.10329305596E+04  0.10100000352E+00 0. -1.
</event>
<event>
 5   0  0.1824538E-04  0.1699847E+04  0.7818609E-02  0.8761452E-01
       -1   -1    0    0    0  501  0.00000000000E+00  0.00000000000E+00  0.10098889037E+04  0.10098889037E+04  0.50400001928E-02 0.  1.
        1   -1    0    0  501    0  0.00000000000E+00  0.00000000000E+00 -0.71529617032E+03  0.71529617034E+03  0.50400001928E-02 0. -1.
    10030    2    1    2    0    0  0.00000000000E+00  0.00000000000E+00  0.29459273340E+03  0.17251850741E+04  0.16998466582E+04 0.  0.
        3    1    3    3  502    0 -0.15015552673E+03  0.37200703734E+03  0.90775430785E+03  0.99244839244E+03  0.10100000352E+00 0.  1.
       -3    1    3    3    0  502  0.15015552673E+03 -0.37200703734E+03 -0.61316157444E+03  0.73273668164E+03  0.10100000352E+00 0. -1.
</event>
<event>
 5   0  0.1893284E-04  0.1696498E+04  0.7818609E-02  0.8763364E-01
        1   -1    0    0  501    0  0.00000000000E+00  0.00000000000E+00  0.11406007520E+04  0.11406007520E+04  0.50400001928E-02 0.  1.
       -1   -1    0    0    0  501  0.00000000000E+00  0.00000000000E+00 -0.63083073139E+03  0.63083073141E+03  0.50400001928E-02 0. -1.
    10030    2    1    2    0    0  0.00000000000E+00  0.00000000000E+00  0.50977002062E+03  0.17714314834E+04  0.16964975764E+04 0.  0.
        2    1    3    3  502    0  0.83354401027E+03 -0.14944106323E+03  0.20375524388E+03  0.87100197925E+03  0.25500000920E-02 0. -1.
       -2    1    3    3    0  502 -0.83354401027E+03  0.14944106323E+03  0.30601477674E+03  0.90042950420E+03  0.25500000920E-02 0.  1.
</event>
<event>
 5   0  0.3678896E-04  0.1700520E+04  0.7818609E-02  0.8761068E-01
        2   -1    0    0  501    0  0.00000000000E+00  0.00000000000E+00  0.11504183640E+04  0.11504183640E+04  0.25500000920E-02 0.  1.
       -2   -1    0    0    0  501  0.00000000000E+00  0.00000000000E+00 -0.62841649016E+03  0.62841649017E+03  0.25500000920E-02 0. -1.
    10030    2    1    2    0    0  0.00000000000E+00  0.00000000000E+00  0.52200187388E+03  0.17788348542E+04  0.17005197682E+04 0.  0.
        2    1    3    3  502    0 -0.40696967081E+03  0.64881551072E+03 -0.12526913182E+03  0.77606587047E+03  0.25500000920E-02 0. -1.
       -2    1    3    3    0  502  0.40696967081E+03 -0.64881551072E+03  0.64727100570E+03  0.10027689837E+04  0.25500000920E-02 0.  1.
</event>
<event>
 5   0  0.1317625E-04  0.1734218E+04  0.7818609E-02  0.8742086E-01
        3   -1    0    0  501    0  0.00000000000E+00  0.00000000000E+00  0.22900071408E+04  0.22900071431E+04  0.10100000352E+00 0. -1.
       -3   -1    0    0    0  501  0.00000000000E+00  0.00000000000E+00 -0.32832983109E+03  0.32832984662E+03  0.10100000352E+00 0.  1.
    10030    2    1    2    0    0  0.00000000000E+00  0.00000000000E+00  0.19616773097E+04  0.26183369897E+04  0.17342176115E+04 0.  0.
        2    1    3    3  502    0 -0.40534280674E+02 -0.26199186345E+03  0.22273180970E+04  0.22430400508E+04  0.25500000920E-02 0. -1.
       -2    1    3    3    0  502  0.40534280674E+02  0.26199186345E+03 -0.26564078727E+03  0.37529693883E+03  0.25500000920E-02 0.  1.
</event>
<event>
 5   0  0.1930116E-04  0.1701434E+04  0.7818609E-02  0.8760547E-01
        1   -1    0    0  501    0  0.00000000000E+00  0.00000000000E+00  0.91428778508E+03  0.91428778509E+03  0.50400001928E-02 0. -1.
       -1   -1    0    0    0  501  0.00000000000E+00  0.00000000000E+00 -0.79156618796E+03  0.79156618798E+03  0.50400001928E-02 0.  1.
    10030    2    1    2    0    0  0.00000000000E+00  0.00000000000E+00  0.12272159711E+03  0.17058539731E+04  0.17014338621E+04 0.  0.
        1    1    3    3  502    0 -0.17531099183E+01  0.21216434668E+03  0.88733504831E+03  0.91234876630E+03  0.50400001928E-02 0. -1.
       -1    1    3    3    0  502  0.17531099183E+01 -0.21216434668E+03 -0.76461345119E+03  0.79350520677E+03  0.50400001928E-02 0.  1.
</event>
<event>
 5   0  0.3605571E-04  0.1723114E+04  0.7818609E-02  0.8748290E-01
        2   -1    0    0  501    0  0.00000000000E+00  0.00000000000E+00  0.30912491798E+04  0.30912491798E+04  0.25500000920E-02 0. -1.
       -2   -1    0    0    0  501  0.00000000000E+00  0.00000000000E+00 -0.24012310135E+03  0.24012310136E+03  0.25500000920E-02 0.  1.
    10030    2    1    2    0    0  0.00000000000E+00  0.00000000000E+00  0.28511260784E+04  0.33313722811E+04  0.17231138559E+04 0.  0.
        4    1    3    3  502    0 -0.45318696111E+03  0.14030875400E+03  0.35148732128E+02  0.47571211299E+03  0.12699999809E+01 0.  1.
       -4    1    3    3    0  502  0.45318696111E+03 -0.14030875400E+03  0.28159773463E+04  0.28556601681E+04  0.12699999809E+01 0. -1.
</event>
<event>
 5   0  0.1930116E-04  0.1703864E+04  0.7818609E-02  0.8759164E-01
       -1   -1    0    0    0  501  0.00000000000E+00  0.00000000000E+00  0.33861853899E+03  0.33861853903E+03  0.50400001928E-02 0.  1.
        1   -1    0    0  501    0  0.00000000000E+00  0.00000000000E+00 -0.21433788906E+04  0.21433788906E+04  0.50400001928E-02 0. -1.
    10030    2    1    2    0    0  0.00000000000E+00  0.00000000000E+00 -0.18047603516E+04  0.24819974296E+04  0.17038636430E+04 0.  0.
        1    1    3    3  502    0  0.68237704667E+03 -0.43383266484E+03 -0.51167647663E+03  0.95690231041E+03  0.50400001928E-02 0. -1.
       -1    1    3    3    0  502 -0.68237704667E+03  0.43383266484E+03 -0.12930838750E+04  0.15250951192E+04  0.50400001928E-02 0.  1.
</event>
<event>
 5   0  0.3605571E-04  0.1698466E+04  0.7818609E-02  0.8762240E-01
       -2   -1    0    0    0  501  0.00000000000E+00  0.00000000000E+00  0.92603208149E+03  0.92603208150E+03  0.25500000920E-02 0.  1.
        2   -1    0    0  501    0  0.00000000000E+00  0.00000000000E+00 -0.77880270839E+03  0.77880270839E+03  0.25500000920E-02 0. -1.
    10030    2    1    2    0    0  0.00000000000E+00  0.00000000000E+00  0.14722937311E+03  0.17048347899E+04  0.16984655347E+04 0.  0.
        4    1    3    3  502    0  0.49421557145E+03 -0.66863877219E+03  0.24708592524E+03  0.86739835490E+03  0.12699999809E+01 0. -1.
       -4    1    3    3    0  502 -0.49421557145E+03  0.66863877219E+03 -0.99856552135E+02  0.83743643499E+03  0.12699999809E+01 0.  1.
</event>
<event>
 5   0  0.3573262E-04  0.1704711E+04  0.7818609E-02  0.8758682E-01
       -2   -1    0    0    0  501  0.00000000000E+00  0.00000000000E+00  0.35035775390E+03  0.35035775391E+03  0.25500000920E-02 0.  1.
        2   -1    0    0  501    0  0.00000000000E+00  0.00000000000E+00 -0.20736239534E+04  0.20736239534E+04  0.25500000920E-02 0. -1.
    10030    2    1    2    0    0  0.00000000000E+00  0.00000000000E+00 -0.17232661995E+04  0.24239817073E+04  0.17047113900E+04 0.  0.
        5    1    3    3  502    0  0.68561863222E+03 -0.22848293391E+03 -0.21906700194E+03  0.75517534472E+03  0.46999998093E+01 0.  1.
       -5    1    3    3    0  502 -0.68561863222E+03  0.22848293391E+03 -0.15041991976E+04  0.16688063626E+04  0.46999998093E+01 0. -1.
</event>
<event>
 5   0  0.1920289E-04  0.1683214E+04  0.7818609E-02  0.8770996E-01
        1   -1    0    0  501    0  0.00000000000E+00  0.00000000000E+00  0.10686322643E+04  0.10686322643E+04  0.50400001928E-02 0.  1.
       -1   -1    0    0    0  501  0.00000000000E+00  0.00000000000E+00 -0.66281202191E+03  0.66281202193E+03  0.50400001928E-02 0. -1.
    10030    2    1    2    0    0  0.00000000000E+00  0.00000000000E+00  0.40582024239E+03  0.17314442862E+04  0.16832139636E+04 0.  0.
        4    1    3    3  502    0 -0.16548858367E+03 -0.47509544712E+03  0.89692635344E+03  0.10283874035E+04  0.12699999809E+01 0.  1.
       -4    1    3    3    0  502  0.16548858367E+03  0.47509544712E+03 -0.49110611106E+03  0.70305688277E+03  0.12699999809E+01 0. -1.
</event>
<event>
 5   0  0.3573262E-04  0.1690244E+04  0.7818609E-02  0.8766948E-01
        2   -1    0    0  501    0  0.00000000000E+00  0.00000000000E+00  0.12372767435E+04  0.12372767435E+04  0.25500000920E-02 0.  1.
       -2   -1    0    0    0  501  0.00000000000E+00  0.00000000000E+00 -0.57726068169E+03  0.57726068170E+03  0.25500000920E-02 0. -1.
    10030    2    1    2    0    0  0.00000000000E+00  0.00000000000E+00  0.66001606178E+03  0.18145374252E+04  0.16902440254E+04 0.  0.
        5    1    3    3  502    0 -0.17133152263E+03  0.72060917177E+03  0.76684219898E+03  0.10661618626E+04  0.46999998093E+01 0.  1.
       -5    1    3    3    0  502  0.17133152263E+03 -0.72060917177E+03 -0.10682613721E+03  0.74837556259E+03  0.46999998093E+01 0. -1.
</event>
<event>
 5   0  0.1893284E-04  0.1709712E+04  0.7818609E-02  0.8755845E-01
       -1   -1    0    0    0  501  0.00000000000E+00  0.00000000000E+00  0.45064096582E+03  0.45064096585E+03  0.50400001928E-02 0.  1.
        1   -1    0    0  501    0  0.00000000000E+00  0.00000000000E+00 -0.16216430156E+04  0.16216430156E+04  0.50400001928E-02 0. -1.
    10030    2    1    2    0    0  0.00000000000E+00  0.00000000000E+00 -0.11710020498E+04  0.20722839814E+04  0.17097119930E+04 0.  0.
        2    1    3    3  502    0 -0.50198934737E+03  0.57926758794E+03 -0.12677838202E+03  0.77692792553E+03  0.25500000920E-02 0.  1.
       -2    1    3    3    0  502  0.50198934737E+03 -0.57926758794E+03 -0.10442236677E+04  0.12953560559E+04  0.25500000920E-02 0. -1.
</event>
<event>
 5   0  0.3678896E-04  0.1403144E+04  0.7818609E-02  0.8951546E-01
        2   -1    0    0  501    0  0.00000000000E+00  0.00000000000E+00  0.75771557834E+03  0.75771557835E+03  0.25500000920E-02 0.  1.
       -2   -1    0    0    0  501  0.00000000000E+00  0.00000000000E+00 -0.64958864757E+03  0.64958864757E+03  0.25500000920E-02 0. -1.
    10030    2    1    2    0    0  0.00000000000E+00  0.00000000000E+00  0.10812693078E+03  0.14073042259E+04  0.14031442375E+04 0.  0.
        2    1    3    3  502    0  0.41104971014E+03 -0.15317437055E+02 -0.51595852208E+03  0.65985580592E+03  0.25500000920E-02 0. -1.
       -2    1    3    3    0  502 -0.41104971014E+03  0.15317437055E+02  0.62408545286E+03  0.74744842000E+03  0.25500000920E-02 0.  1.
</event>
<event>
 5   0  0.1815663E-04  0.1757841E+04  0.7818609E-02  0.8729046E-01
        1   -1    0    0  501    0  0.00000000000E+00  0.00000000000E+00  0.13040115076E+04  0.13040115076E+04  0.50400001928E-02 0.  1.
       -1   -1    0    0    0  501  0.00000000000E+00  0.00000000000E+00 -0.59240370512E+03  0.59240370514E+03  0.50400001928E-02 0. -1.
    10030    2    1    2    0    0  0.00000000000E+00  0.00000000000E+00  0.71160780250E+03  0.18964152128E+04  0.17578410038E+04 0.  0.
        5    1    3    3  502    0  0.63668277684E+03  0.16297896083E+03 -0.27376837434E+03  0.71196791555E+03  0.46999998093E+01 0. -1.
       -5    1    3    3    0  502 -0.63668277684E+03 -0.16297896083E+03  0.98537617684E+03  0.11844472972E+04  0.46999998093E+01 0.  1.
</event>
</LesHouchesEvents>
